Generated by trjconv : CNT in water t=  89.00000
33518
    1C        C    1   2.843   2.767   4.742
    1C        C    2   2.893   2.717   4.864
    1C        C    3   2.844   2.772   4.983
    1C        C    4   2.849   2.771   4.255
    1C        C    5   2.897   2.724   4.379
    1C        C    6   2.840   2.763   4.502
    1C        C    7   3.008   2.628   4.622
    1C        C    8   2.896   2.714   4.622
    1C        C    9   3.071   2.597   4.745
    1C        C   10   3.000   2.625   4.864
    1C        C   11   3.174   2.486   4.972
    1C        C   12   3.054   2.560   4.976
    1C        C   13   2.846   2.764   3.769
    1C        C   14   2.897   2.717   3.892
    1C        C   15   2.843   2.765   4.014
    1C        C   16   3.013   2.633   4.135
    1C        C   17   2.898   2.716   4.135
    1C        C   18   3.078   2.611   4.258
    1C        C   19   3.015   2.645   4.380
    1C        C   20   3.203   2.545   4.502
    1C        C   21   3.072   2.598   4.500
    1C        C   22   3.272   2.527   4.624
    1C        C   23   3.203   2.545   4.746
    1C        C   24   3.408   2.477   4.863
    1C        C   25   3.267   2.502   4.865
    1C        C   26   3.487   2.472   4.979
    1C        C   27   2.851   2.765   3.280
    1C        C   28   2.902   2.719   3.403
    1C        C   29   2.850   2.765   3.527
    1C        C   30   3.011   2.628   3.647
    1C        C   31   2.901   2.715   3.649
    1C        C   32   3.073   2.596   3.771
    1C        C   33   3.009   2.631   3.892
    1C        C   34   3.202   2.538   4.016
    1C        C   35   3.071   2.593   4.013
    1C        C   36   3.273   2.526   4.137
    1C        C   37   3.209   2.557   4.259
    1C        C   38   3.414   2.508   4.383
    1C        C   39   3.274   2.530   4.381
    1C        C   40   3.484   2.501   4.505
    1C        C   41   3.411   2.502   4.626
    1C        C   42   3.627   2.478   4.744
    1C        C   43   3.485   2.474   4.743
    1C        C   44   3.703   2.477   4.863
    1C        C   45   3.626   2.472   4.980
    1C        C   46   2.836   2.749   2.794
    1C        C   47   2.894   2.705   2.915
    1C        C   48   2.839   2.755   3.035
    1C        C   49   3.011   2.629   3.160
    1C        C   50   2.900   2.716   3.157
    1C        C   51   3.072   2.594   3.282
    1C        C   52   3.012   2.632   3.405
    1C        C   53   3.206   2.541   3.526
    1C        C   54   3.073   2.591   3.526
    1C        C   55   3.270   2.519   3.649
    1C        C   56   3.204   2.543   3.772
    1C        C   57   3.412   2.505   3.892
    1C        C   58   3.271   2.521   3.894
    1C        C   59   3.482   2.495   4.015
    1C        C   60   3.412   2.500   4.138
    1C        C   61   3.623   2.497   4.258
    1C        C   62   3.482   2.497   4.260
    1C        C   63   3.696   2.501   4.379
    1C        C   64   3.625   2.495   4.501
    1C        C   65   3.832   2.537   4.618
    1C        C   66   3.697   2.497   4.623
    1C        C   67   3.902   2.558   4.739
    1C        C   68   3.838   2.521   4.859
    1C        C   69   4.046   2.590   4.974
    1C        C   70   3.919   2.531   4.973
    1C        C   71   2.826   2.729   2.308
    1C        C   72   2.881   2.686   2.431
    1C        C   73   2.829   2.739   2.551
    1C        C   74   3.001   2.614   2.672
    1C        C   75   2.886   2.696   2.673
    1C        C   76   3.068   2.584   2.792
    1C        C   77   3.012   2.627   2.915
    1C        C   78   3.202   2.537   3.036
    1C        C   79   3.073   2.594   3.038
    1C        C   80   3.269   2.520   3.159
    1C        C   81   3.204   2.545   3.282
    1C        C   82   3.411   2.491   3.399
    1C        C   83   3.272   2.520   3.403
    1C        C   84   3.480   2.489   3.522
    1C        C   85   3.410   2.499   3.645
    1C        C   86   3.620   2.502   3.767
    1C        C   87   3.479   2.501   3.768
    1C        C   88   3.689   2.515   3.890
    1C        C   89   3.622   2.506   4.014
    1C        C   90   3.828   2.555   4.132
    1C        C   91   3.692   2.514   4.136
    1C        C   92   3.892   2.581   4.256
    1C        C   93   3.830   2.546   4.378
    1C        C   94   4.024   2.635   4.496
    1C        C   95   3.900   2.567   4.499
    1C        C   96   4.084   2.674   4.618
    1C        C   97   4.025   2.630   4.738
    1C        C   98   4.190   2.766   4.863
    1C        C   99   4.092   2.661   4.859
    1C        C  100   4.221   2.839   4.978
    1C        C  101   2.818   2.727   2.070
    1C        C  102   2.990   2.588   2.188
    1C        C  103   2.875   2.673   2.187
    1C        C  104   3.057   2.561   2.310
    1C        C  105   2.999   2.607   2.431
    1C        C  106   3.197   2.526   2.550
    1C        C  107   3.065   2.576   2.552
    1C        C  108   3.265   2.508   2.672
    1C        C  109   3.197   2.527   2.794
    1C        C  110   3.408   2.488   2.913
    1C        C  111   3.268   2.507   2.915
    1C        C  112   3.480   2.485   3.035
    1C        C  113   3.409   2.498   3.156
    1C        C  114   3.623   2.492   3.278
    1C        C  115   3.482   2.487   3.277
    1C        C  116   3.691   2.504   3.401
    1C        C  117   3.621   2.494   3.523
    1C        C  118   3.829   2.540   3.643
    1C        C  119   3.691   2.507   3.645
    1C        C  120   3.894   2.569   3.765
    1C        C  121   3.827   2.545   3.888
    1C        C  122   4.019   2.639   4.008
    1C        C  123   3.895   2.570   4.009
    1C        C  124   4.080   2.677   4.130
    1C        C  125   4.020   2.640   4.253
    1C        C  126   4.192   2.766   4.376
    1C        C  127   4.082   2.677   4.374
    1C        C  128   4.238   2.821   4.497
    1C        C  129   4.188   2.770   4.619
    1C        C  130   4.325   2.933   4.739
    1C        C  131   4.240   2.819   4.741
    1C        C  132   4.358   3.002   4.858
    1C        C  133   4.290   2.960   4.972
    1C        C  134   3.165   2.459   2.083
    1C        C  135   3.034   2.507   2.078
    1C        C  136   3.254   2.466   2.192
    1C        C  137   3.188   2.508   2.310
    1C        C  138   3.404   2.476   2.427
    1C        C  139   3.264   2.495   2.429
    1C        C  140   3.477   2.480   2.547
    1C        C  141   3.405   2.486   2.668
    1C        C  142   3.618   2.498   2.789
    1C        C  143   3.477   2.484   2.790
    1C        C  144   3.689   2.504   2.911
    1C        C  145   3.621   2.490   3.034
    1C        C  146   3.829   2.539   3.154
    1C        C  147   3.694   2.496   3.155
    1C        C  148   3.895   2.565   3.276
    1C        C  149   3.826   2.545   3.398
    1C        C  150   4.020   2.631   3.520
    1C        C  151   3.893   2.567   3.520
    1C        C  152   4.076   2.675   3.642
    1C        C  153   4.014   2.642   3.764
    1C        C  154   4.188   2.765   3.888
    1C        C  155   4.076   2.679   3.886
    1C        C  156   4.240   2.815   4.009
    1C        C  157   4.191   2.763   4.132
    1C        C  158   4.332   2.924   4.250
    1C        C  159   4.243   2.814   4.253
    1C        C  160   4.371   2.985   4.371
    1C        C  161   4.327   2.931   4.494
    1C        C  162   4.436   3.112   4.614
    1C        C  163   4.366   2.989   4.616
    1C        C  164   4.466   3.179   4.734
    1C        C  165   4.429   3.124   4.858
    1C        C  166   4.510   3.321   4.974
    1C        C  167   4.477   3.185   4.975
    1C        C  168   3.472   2.430   2.071
    1C        C  169   3.394   2.454   2.185
    1C        C  170   3.614   2.464   2.305
    1C        C  171   3.471   2.463   2.303
    1C        C  172   3.689   2.482   2.423
    1C        C  173   3.619   2.485   2.546
    1C        C  174   3.826   2.536   2.665
    1C        C  175   3.688   2.508   2.667
    1C        C  176   3.895   2.556   2.788
    1C        C  177   3.826   2.540   2.910
    1C        C  178   4.023   2.622   3.028
    1C        C  179   3.893   2.567   3.031
    1C        C  180   4.082   2.660   3.151
    1C        C  181   4.021   2.629   3.275
    1C        C  182   4.192   2.752   3.394
    1C        C  183   4.082   2.663   3.397
    1C        C  184   4.240   2.802   3.518
    1C        C  185   4.194   2.753   3.642
    1C        C  186   4.335   2.913   3.762
    1C        C  187   4.243   2.805   3.764
    1C        C  188   4.373   2.978   3.882
    1C        C  189   4.331   2.923   4.005
    1C        C  190   4.438   3.105   4.124
    1C        C  191   4.373   2.980   4.127
    1C        C  192   4.466   3.172   4.245
    1C        C  193   4.444   3.107   4.369
    1C        C  194   4.507   3.309   4.489
    1C        C  195   4.468   3.173   4.491
    1C        C  196   4.518   3.382   4.609
    1C        C  197   4.508   3.315   4.733
    1C        C  198   4.548   3.531   4.847
    1C        C  199   4.526   3.390   4.853
    1C        C  200   4.580   3.619   4.956
    1C        C  201   3.611   2.416   2.073
    1C        C  202   3.822   2.515   2.180
    1C        C  203   3.689   2.462   2.184
    1C        C  204   3.895   2.542   2.299
    1C        C  205   3.825   2.519   2.419
    1C        C  206   4.016   2.615   2.541
    1C        C  207   3.890   2.552   2.540
    1C        C  208   4.080   2.658   2.660
    1C        C  209   4.020   2.620   2.782
    1C        C  210   4.190   2.747   2.906
    1C        C  211   4.082   2.655   2.905
    1C        C  212   4.238   2.798   3.028
    1C        C  213   4.192   2.748   3.153
    1C        C  214   4.329   2.913   3.273
    1C        C  215   4.247   2.799   3.273
    1C        C  216   4.368   2.972   3.396
    1C        C  217   4.326   2.914   3.518
    1C        C  218   4.435   3.097   3.635
    1C        C  219   4.369   2.972   3.639
    1C        C  220   4.464   3.166   3.755
    1C        C  221   4.438   3.103   3.879
    1C        C  222   4.499   3.306   4.001
    1C        C  223   4.466   3.169   4.001
    1C        C  224   4.517   3.376   4.122
    1C        C  225   4.501   3.309   4.245
    1C        C  226   4.511   3.521   4.363
    1C        C  227   4.513   3.380   4.367
    1C        C  228   4.515   3.595   4.483
    1C        C  229   4.524   3.523   4.605
    1C        C  230   4.502   3.738   4.722
    1C        C  231   4.530   3.599   4.724
    1C        C  232   4.496   3.814   4.841
    1C        C  233   4.538   3.752   4.960
    1C        C  234   4.013   2.611   2.062
    1C        C  235   3.888   2.550   2.062
    1C        C  236   4.086   2.646   2.177
    1C        C  237   4.021   2.608   2.297
    1C        C  238   4.195   2.731   2.417
    1C        C  239   4.080   2.647   2.419
    1C        C  240   4.251   2.778   2.538
    1C        C  241   4.191   2.745   2.661
    1C        C  242   4.332   2.902   2.781
    1C        C  243   4.245   2.791   2.783
    1C        C  244   4.371   2.960   2.904
    1C        C  245   4.329   2.905   3.028
    1C        C  246   4.434   3.093   3.145
    1C        C  247   4.366   2.969   3.148
    1C        C  248   4.462   3.158   3.267
    1C        C  249   4.434   3.097   3.391
    1C        C  250   4.497   3.301   3.512
    1C        C  251   4.459   3.164   3.513
    1C        C  252   4.510   3.370   3.634
    1C        C  253   4.499   3.302   3.757
    1C        C  254   4.523   3.515   3.876
    1C        C  255   4.514   3.374   3.878
    1C        C  256   4.518   3.588   3.997
    1C        C  257   4.518   3.518   4.120
    1C        C  258   4.489   3.730   4.238
    1C        C  259   4.515   3.591   4.240
    1C        C  260   4.463   3.800   4.359
    1C        C  261   4.484   3.733   4.481
    1C        C  262   4.418   3.936   4.600
    1C        C  263   4.472   3.805   4.602
    1C        C  264   4.389   4.003   4.720
    1C        C  265   4.423   3.935   4.839
    1C        C  266   4.324   4.131   4.954
    1C        C  267   4.389   4.008   4.953
    1C        C  268   4.265   2.774   2.061
    1C        C  269   4.197   2.733   2.176
    1C        C  270   4.343   2.890   2.295
    1C        C  271   4.249   2.783   2.297
    1C        C  272   4.375   2.954   2.417
    1C        C  273   4.337   2.891   2.537
    1C        C  274   4.444   3.078   2.658
    1C        C  275   4.372   2.957   2.657
    1C        C  276   4.471   3.148   2.778
    1C        C  277   4.440   3.083   2.900
    1C        C  278   4.503   3.288   3.022
    1C        C  279   4.463   3.153   3.021
    1C        C  280   4.517   3.362   3.141
    1C        C  281   4.496   3.295   3.264
    1C        C  282   4.511   3.507   3.386
    1C        C  283   4.505   3.365   3.387
    1C        C  284   4.513   3.578   3.508
    1C        C  285   4.517   3.511   3.632
    1C        C  286   4.491   3.724   3.749
    1C        C  287   4.517   3.585   3.753
    1C        C  288   4.473   3.793   3.871
    1C        C  289   4.485   3.725   3.995
    1C        C  290   4.421   3.929   4.113
    1C        C  291   4.471   3.797   4.115
    1C        C  292   4.392   3.996   4.234
    1C        C  293   4.419   3.934   4.358
    1C        C  294   4.321   4.126   4.476
    1C        C  295   4.387   4.000   4.478
    1C        C  296   4.283   4.187   4.597
    1C        C  297   4.318   4.126   4.720
    1C        C  298   4.197   4.313   4.836
    1C        C  299   4.278   4.194   4.838
    1C        C  300   4.166   4.400   4.945
    1C        C  301   4.353   2.882   2.058
    1C        C  302   4.472   3.066   2.176
    1C        C  303   4.397   2.944   2.175
    1C        C  304   4.486   3.140   2.296
    1C        C  305   4.445   3.076   2.415
    1C        C  306   4.508   3.280   2.535
    1C        C  307   4.475   3.143   2.536
    1C        C  308   4.515   3.355   2.655
    1C        C  309   4.502   3.286   2.778
    1C        C  310   4.521   3.498   2.894
    1C        C  311   4.515   3.357   2.899
    1C        C  312   4.516   3.571   3.015
    1C        C  313   4.521   3.503   3.139
    1C        C  314   4.493   3.714   3.260
    1C        C  315   4.512   3.574   3.262
    1C        C  316   4.474   3.783   3.381
    1C        C  317   4.491   3.718   3.506
    1C        C  318   4.422   3.922   3.622
    1C        C  319   4.469   3.789   3.626
    1C        C  320   4.389   3.983   3.745
    1C        C  321   4.421   3.924   3.869
    1C        C  322   4.310   4.107   3.986
    1C        C  323   4.390   3.991   3.990
    1C        C  324   4.276   4.171   4.108
    1C        C  325   4.323   4.119   4.231
    1C        C  326   4.183   4.281   4.351
    1C        C  327   4.281   4.179   4.351
    1C        C  328   4.133   4.336   4.471
    1C        C  329   4.187   4.290   4.593
    1C        C  330   4.023   4.433   4.709
    1C        C  331   4.137   4.348   4.712
    1C        C  332   3.969   4.494   4.824
    1C        C  333   4.048   4.475   4.938
    1C        C  334   4.552   3.264   2.059
    1C        C  335   4.532   3.125   2.060
    1C        C  336   4.542   3.346   2.172
    1C        C  337   4.523   3.278   2.294
    1C        C  338   4.524   3.492   2.408
    1C        C  339   4.527   3.351   2.414
    1C        C  340   4.519   3.566   2.528
    1C        C  341   4.519   3.496   2.650
    1C        C  342   4.492   3.707   2.773
    1C        C  343   4.517   3.568   2.772
    1C        C  344   4.479   3.780   2.893
    1C        C  345   4.486   3.709   3.015
    1C        C  346   4.422   3.911   3.136
    1C        C  347   4.470   3.779   3.136
    1C        C  348   4.388   3.975   3.258
    1C        C  349   4.422   3.914   3.380
    1C        C  350   4.307   4.098   3.502
    1C        C  351   4.389   3.983   3.499
    1C        C  352   4.268   4.162   3.622
    1C        C  353   4.314   4.103   3.742
    1C        C  354   4.173   4.265   3.863
    1C        C  355   4.270   4.163   3.863
    1C        C  356   4.121   4.317   3.983
    1C        C  357   4.178   4.272   4.105
    1C        C  358   4.012   4.403   4.225
    1C        C  359   4.127   4.321   4.227
    1C        C  360   3.954   4.448   4.346
    1C        C  361   4.015   4.414   4.468
    1C        C  362   3.823   4.510   4.589
    1C        C  363   3.953   4.455   4.588
    1C        C  364   3.758   4.544   4.709
    1C        C  365   3.836   4.543   4.827
    1C        C  366   3.625   4.583   4.947
    1C        C  367   3.763   4.569   4.943
    1C        C  368   4.510   3.563   2.051
    1C        C  369   4.520   3.486   2.168
    1C        C  370   4.496   3.702   2.284
    1C        C  371   4.516   3.562   2.286
    1C        C  372   4.481   3.775   2.404
    1C        C  373   4.495   3.706   2.527
    1C        C  374   4.421   3.904   2.647
    1C        C  375   4.475   3.773   2.649
    1C        C  376   4.390   3.969   2.768
    1C        C  377   4.426   3.911   2.892
    1C        C  378   4.317   4.092   3.013
    1C        C  379   4.399   3.977   3.014
    1C        C  380   4.271   4.148   3.134
    1C        C  381   4.314   4.096   3.258
    1C        C  382   4.171   4.257   3.372
    1C        C  383   4.265   4.152   3.378
    1C        C  384   4.117   4.306   3.493
    1C        C  385   4.170   4.264   3.617
    1C        C  386   4.005   4.393   3.740
    1C        C  387   4.119   4.310   3.740
    1C        C  388   3.942   4.432   3.860
    1C        C  389   4.005   4.397   3.982
    1C        C  390   3.815   4.489   4.105
    1C        C  391   3.943   4.431   4.105
    1C        C  392   3.751   4.517   4.228
    1C        C  393   3.824   4.502   4.348
    1C        C  394   3.614   4.552   4.471
    1C        C  395   3.752   4.523   4.468
    1C        C  396   3.542   4.568   4.591
    1C        C  397   3.618   4.563   4.711
    1C        C  398   3.406   4.550   4.836
    1C        C  399   3.546   4.569   4.832
    1C        C  400   3.336   4.512   4.951
    1C        C  401   4.506   3.702   2.051
    1C        C  402   4.446   3.915   2.163
    1C        C  403   4.487   3.780   2.166
    1C        C  404   4.403   3.973   2.284
    1C        C  405   4.427   3.905   2.405
    1C        C  406   4.325   4.095   2.524
    1C        C  407   4.396   3.972   2.526
    1C        C  408   4.278   4.147   2.646
    1C        C  409   4.314   4.089   2.770
    1C        C  410   4.177   4.251   2.886
    1C        C  411   4.275   4.150   2.891
    1C        C  412   4.120   4.295   3.008
    1C        C  413   4.171   4.248   3.131
    1C        C  414   3.996   4.375   3.248
    1C        C  415   4.116   4.301   3.250
    1C        C  416   3.937   4.413   3.371
    1C        C  417   3.999   4.383   3.494
    1C        C  418   3.808   4.471   3.619
    1C        C  419   3.940   4.420   3.617
    1C        C  420   3.741   4.499   3.741
    1C        C  421   3.811   4.485   3.863
    1C        C  422   3.607   4.542   3.982
    1C        C  423   3.746   4.514   3.984
    1C        C  424   3.540   4.545   4.106
    1C        C  425   3.611   4.536   4.228
    1C        C  426   3.400   4.541   4.352
    1C        C  427   3.541   4.551   4.349
    1C        C  428   3.330   4.538   4.475
    1C        C  429   3.401   4.556   4.595
    1C        C  430   3.191   4.516   4.717
    1C        C  431   3.330   4.546   4.717
    1C        C  432   3.122   4.488   4.838
    1C        C  433   3.200   4.483   4.955
    1C        C  434   4.384   4.121   2.050
    1C        C  435   4.441   3.993   2.047
    1C        C  436   4.303   4.162   2.160
    1C        C  437   4.324   4.092   2.282
    1C        C  438   4.180   4.251   2.400
    1C        C  439   4.277   4.148   2.403
    1C        C  440   4.125   4.295   2.523
    1C        C  441   4.176   4.245   2.644
    1C        C  442   4.002   4.372   2.760
    1C        C  443   4.121   4.295   2.764
    1C        C  444   3.940   4.407   2.882
    1C        C  445   4.000   4.369   3.004
    1C        C  446   3.808   4.468   3.128
    1C        C  447   3.935   4.406   3.124
    1C        C  448   3.744   4.499   3.250
    1C        C  449   3.810   4.474   3.373
    1C        C  450   3.605   4.522   3.493
    1C        C  451   3.744   4.495   3.496
    1C        C  452   3.536   4.534   3.616
    1C        C  453   3.603   4.528   3.740
    1C        C  454   3.392   4.547   3.862
    1C        C  455   3.533   4.545   3.861
    1C        C  456   3.327   4.535   3.986
    1C        C  457   3.399   4.538   4.108
    1C        C  458   3.193   4.495   4.233
    1C        C  459   3.330   4.530   4.231
    1C        C  460   3.124   4.477   4.355
    1C        C  461   3.194   4.499   4.476
    1C        C  462   2.996   4.424   4.600
    1C        C  463   3.122   4.489   4.597
    1C        C  464   2.925   4.401   4.720
    1C        C  465   2.989   4.436   4.841
    1C        C  466   2.797   4.337   4.958
    1C        C  467   2.906   4.426   4.957
    1C        C  468   4.121   4.280   2.038
    1C        C  469   4.190   4.250   2.156
    1C        C  470   4.008   4.369   2.276
    1C        C  471   4.131   4.297   2.277
    1C        C  472   3.939   4.398   2.395
    1C        C  473   4.002   4.364   2.517
    1C        C  474   3.809   4.459   2.640
    1C        C  475   3.938   4.400   2.638
    1C        C  476   3.744   4.491   2.761
    1C        C  477   3.811   4.463   2.882
    1C        C  478   3.606   4.521   3.004
    1C        C  479   3.743   4.487   3.004
    1C        C  480   3.535   4.523   3.126
    1C        C  481   3.604   4.520   3.249
    1C        C  482   3.393   4.537   3.370
    1C        C  483   3.535   4.535   3.371
    1C        C  484   3.324   4.529   3.493
    1C        C  485   3.395   4.540   3.615
    1C        C  486   3.189   4.501   3.740
    1C        C  487   3.325   4.538   3.737
    1C        C  488   3.126   4.476   3.864
    1C        C  489   3.190   4.501   3.988
    1C        C  490   3.000   4.409   4.113
    1C        C  491   3.125   4.474   4.111
    1C        C  492   2.939   4.377   4.237
    1C        C  493   2.994   4.422   4.359
    1C        C  494   2.822   4.297   4.479
    1C        C  495   2.931   4.387   4.481
    1C        C  496   2.767   4.256   4.603
    1C        C  497   2.810   4.316   4.724
    1C        C  498   2.661   4.164   4.842
    1C        C  499   2.745   4.277   4.843
    1C        C  500   2.591   4.121   4.956
    1C        C  501   4.003   4.354   2.038
    1C        C  502   3.813   4.458   2.151
    1C        C  503   3.942   4.400   2.155
    1C        C  504   3.745   4.479   2.273
    1C        C  505   3.810   4.455   2.396
    1C        C  506   3.603   4.504   2.520
    1C        C  507   3.741   4.477   2.518
    1C        C  508   3.531   4.517   2.641
    1C        C  509   3.604   4.513   2.761
    1C        C  510   3.392   4.529   2.884
    1C        C  511   3.533   4.524   2.883
    1C        C  512   3.320   4.525   3.005
    1C        C  513   3.393   4.526   3.126
    1C        C  514   3.185   4.493   3.251
    1C        C  515   3.323   4.523   3.249
    1C        C  516   3.121   4.469   3.374
    1C        C  517   3.188   4.492   3.496
    1C        C  518   2.998   4.403   3.624
    1C        C  519   3.121   4.472   3.619
    1C        C  520   2.939   4.368   3.747
    1C        C  521   3.005   4.404   3.867
    1C        C  522   2.836   4.278   3.992
    1C        C  523   2.946   4.367   3.990
    1C        C  524   2.784   4.233   4.115
    1C        C  525   2.829   4.289   4.236
    1C        C  526   2.688   4.132   4.358
    1C        C  527   2.771   4.246   4.358
    1C        C  528   2.650   4.077   4.483
    1C        C  529   2.682   4.144   4.603
    1C        C  530   2.571   3.963   4.727
    1C        C  531   2.633   4.091   4.724
    1C        C  532   2.534   3.903   4.850
    1C        C  533   2.528   3.996   4.959
    1C        C  534   3.615   4.558   2.041
    1C        C  535   3.746   4.511   2.040
    1C        C  536   3.534   4.535   2.157
    1C        C  537   3.606   4.507   2.277
    1C        C  538   3.391   4.514   2.397
    1C        C  539   3.532   4.510   2.397
    1C        C  540   3.322   4.506   2.520
    1C        C  541   3.390   4.513   2.643
    1C        C  542   3.178   4.491   2.762
    1C        C  543   3.318   4.515   2.765
    1C        C  544   3.117   4.461   2.886
    1C        C  545   3.184   4.486   3.007
    1C        C  546   2.992   4.402   3.131
    1C        C  547   3.116   4.468   3.130
    1C        C  548   2.937   4.360   3.255
    1C        C  549   2.997   4.401   3.376
    1C        C  550   2.831   4.275   3.500
    1C        C  551   2.941   4.364   3.501
    1C        C  552   2.779   4.230   3.623
    1C        C  553   2.827   4.281   3.746
    1C        C  554   2.693   4.122   3.870
    1C        C  555   2.781   4.233   3.870
    1C        C  556   2.658   4.061   3.993
    1C        C  557   2.696   4.122   4.114
    1C        C  558   2.593   3.940   4.243
    1C        C  559   2.652   4.068   4.237
    1C        C  560   2.570   3.876   4.367
    1C        C  561   2.590   3.949   4.486
    1C        C  562   2.526   3.749   4.612
    1C        C  563   2.559   3.886   4.609
    1C        C  564   2.516   3.680   4.734
    1C        C  565   2.522   3.760   4.851
    1C        C  566   2.535   3.545   4.976
    1C        C  567   2.530   3.684   4.968
    1C        C  568   3.326   4.475   2.037
    1C        C  569   3.395   4.506   2.154
    1C        C  570   3.182   4.472   2.278
    1C        C  571   3.320   4.507   2.275
    1C        C  572   3.116   4.449   2.401
    1C        C  573   3.182   4.483   2.521
    1C        C  574   2.985   4.401   2.644
    1C        C  575   3.108   4.471   2.641
    1C        C  576   2.929   4.357   2.765
    1C        C  577   2.992   4.396   2.885
    1C        C  578   2.822   4.275   3.013
    1C        C  579   2.933   4.362   3.009
    1C        C  580   2.772   4.223   3.135
    1C        C  581   2.828   4.270   3.256
    1C        C  582   2.691   4.112   3.382
    1C        C  583   2.780   4.222   3.380
    1C        C  584   2.656   4.054   3.506
    1C        C  585   2.695   4.117   3.626
    1C        C  586   2.595   3.932   3.750
    1C        C  587   2.656   4.059   3.749
    1C        C  588   2.567   3.871   3.875
    1C        C  589   2.601   3.931   3.998
    1C        C  590   2.536   3.734   4.121
    1C        C  591   2.573   3.870   4.122
    1C        C  592   2.524   3.669   4.246
    1C        C  593   2.531   3.740   4.368
    1C        C  594   2.515   3.532   4.495
    1C        C  595   2.521   3.673   4.492
    1C        C  596   2.521   3.462   4.618
    1C        C  597   2.518   3.537   4.737
    1C        C  598   2.539   3.327   4.861
    1C        C  599   2.526   3.468   4.859
    1C        C  600   2.537   3.248   4.976
    1C        C  601   3.192   4.439   2.039
    1C        C  602   2.980   4.394   2.159
    1C        C  603   3.117   4.436   2.157
    1C        C  604   2.923   4.354   2.282
    1C        C  605   2.988   4.390   2.403
    1C        C  606   2.814   4.269   2.528
    1C        C  607   2.925   4.356   2.525
    1C        C  608   2.766   4.216   2.650
    1C        C  609   2.820   4.267   2.771
    1C        C  610   2.681   4.110   2.892
    1C        C  611   2.768   4.221   2.894
    1C        C  612   2.647   4.050   3.016
    1C        C  613   2.683   4.114   3.137
    1C        C  614   2.585   3.929   3.263
    1C        C  615   2.646   4.056   3.260
    1C        C  616   2.564   3.863   3.386
    1C        C  617   2.596   3.926   3.508
    1C        C  618   2.523   3.728   3.634
    1C        C  619   2.568   3.862   3.631
    1C        C  620   2.515   3.661   3.759
    1C        C  621   2.529   3.735   3.879
    1C        C  622   2.503   3.523   4.005
    1C        C  623   2.519   3.663   4.000
    1C        C  624   2.510   3.456   4.129
    1C        C  625   2.515   3.528   4.250
    1C        C  626   2.538   3.320   4.376
    1C        C  627   2.515   3.459   4.374
    1C        C  628   2.559   3.252   4.498
    1C        C  629   2.538   3.322   4.619
    1C        C  630   2.599   3.119   4.741
    1C        C  631   2.549   3.253   4.742
    1C        C  632   2.615   3.046   4.862
    1C        C  633   2.558   3.109   4.976
    1C        C  634   2.778   4.302   2.056
    1C        C  635   2.887   4.390   2.050
    1C        C  636   2.748   4.224   2.168
    1C        C  637   2.812   4.265   2.287
    1C        C  638   2.671   4.106   2.405
    1C        C  639   2.758   4.217   2.409
    1C        C  640   2.636   4.046   2.528
    1C        C  641   2.678   4.106   2.649
    1C        C  642   2.580   3.921   2.774
    1C        C  643   2.638   4.050   2.772
    1C        C  644   2.555   3.858   2.898
    1C        C  645   2.586   3.923   3.019
    1C        C  646   2.526   3.722   3.146
    1C        C  647   2.557   3.860   3.143
    1C        C  648   2.514   3.653   3.268
    1C        C  649   2.529   3.726   3.388
    1C        C  650   2.513   3.518   3.516
    1C        C  651   2.512   3.659   3.512
    1C        C  652   2.517   3.449   3.640
    1C        C  653   2.505   3.521   3.761
    1C        C  654   2.540   3.314   3.888
    1C        C  655   2.503   3.451   3.884
    1C        C  656   2.555   3.249   4.013
    1C        C  657   2.535   3.317   4.135
    1C        C  658   2.599   3.113   4.256
    1C        C  659   2.555   3.247   4.256
    1C        C  660   2.632   3.050   4.378
    1C        C  661   2.609   3.120   4.499
    1C        C  662   2.712   2.935   4.621
    1C        C  663   2.634   3.054   4.621
    1C        C  664   2.753   2.877   4.743
    1C        C  665   2.694   2.927   4.863
    1C        C  666   2.742   2.866   4.980
    1C        C  667   2.675   4.019   2.051
    1C        C  668   2.679   4.101   2.165
    1C        C  669   2.581   3.910   2.287
    1C        C  670   2.636   4.041   2.285
    1C        C  671   2.552   3.847   2.411
    1C        C  672   2.575   3.918   2.530
    1C        C  673   2.517   3.716   2.657
    1C        C  674   2.550   3.853   2.653
    1C        C  675   2.506   3.649   2.781
    1C        C  676   2.519   3.722   2.901
    1C        C  677   2.504   3.512   3.026
    1C        C  678   2.512   3.653   3.024
    1C        C  679   2.508   3.442   3.149
    1C        C  680   2.503   3.512   3.271
    1C        C  681   2.530   3.305   3.398
    1C        C  682   2.510   3.445   3.395
    1C        C  683   2.556   3.240   3.520
    1C        C  684   2.541   3.310   3.642
    1C        C  685   2.606   3.112   3.769
    1C        C  686   2.556   3.245   3.767
    1C        C  687   2.639   3.053   3.893
    1C        C  688   2.608   3.118   4.015
    1C        C  689   2.710   2.929   4.135
    1C        C  690   2.637   3.050   4.136
    1C        C  691   2.752   2.874   4.258
    1C        C  692   2.711   2.932   4.380
    1C        C  693   2.747   2.870   4.501
    1C        C  694   2.626   3.888   2.053
    1C        C  695   2.521   3.700   2.172
    1C        C  696   2.571   3.832   2.170
    1C        C  697   2.503   3.635   2.296
    1C        C  698   2.517   3.710   2.414
    1C        C  699   2.493   3.502   2.540
    1C        C  700   2.498   3.643   2.537
    1C        C  701   2.504   3.433   2.663
    1C        C  702   2.504   3.508   2.783
    1C        C  703   2.527   3.298   2.906
    1C        C  704   2.508   3.438   2.906
    1C        C  705   2.544   3.232   3.030
    1C        C  706   2.530   3.302   3.152
    1C        C  707   2.599   3.104   3.279
    1C        C  708   2.550   3.237   3.276
    1C        C  709   2.631   3.041   3.401
    1C        C  710   2.607   3.108   3.524
    1C        C  711   2.711   2.927   3.647
    1C        C  712   2.636   3.047   3.648
    1C        C  713   2.757   2.874   3.770
    1C        C  714   2.714   2.933   3.891
    1C        C  715   2.754   2.874   4.012
    1C        C  716   2.443   3.495   2.061
    1C        C  717   2.485   3.628   2.058
    1C        C  718   2.463   3.418   2.181
    1C        C  719   2.481   3.494   2.299
    1C        C  720   2.515   3.287   2.422
    1C        C  721   2.484   3.425   2.422
    1C        C  722   2.538   3.221   2.544
    1C        C  723   2.526   3.293   2.665
    1C        C  724   2.600   3.095   2.791
    1C        C  725   2.549   3.226   2.787
    1C        C  726   2.626   3.033   2.915
    1C        C  727   2.594   3.100   3.035
    1C        C  728   2.708   2.921   3.158
    1C        C  729   2.630   3.039   3.157
    1C        C  730   2.757   2.871   3.280
    1C        C  731   2.715   2.928   3.403
    1C        C  732   2.757   2.871   3.525
    1C        C  733   2.489   3.193   2.070
    1C        C  734   2.489   3.277   2.182
    1C        C  735   2.579   3.081   2.305
    1C        C  736   2.526   3.212   2.303
    1C        C  737   2.615   3.018   2.427
    1C        C  738   2.591   3.090   2.546
    1C        C  739   2.693   2.905   2.668
    1C        C  740   2.624   3.028   2.669
    1C        C  741   2.742   2.854   2.790
    1C        C  742   2.703   2.914   2.912
    1C        C  743   2.752   2.866   3.035
    1C        C  744   2.548   3.067   2.072
    1C        C  745   2.681   2.891   2.186
    1C        C  746   2.607   3.011   2.186
    1C        C  747   2.736   2.839   2.305
    1C        C  748   2.690   2.898   2.425
    1C        C  749   2.736   2.845   2.547
    1C        C  750   2.727   2.832   2.067
    1C        C  751   3.660   2.303   1.991
    1C        O  752   3.659   2.183   2.031
    1C        O  753   3.729   2.314   1.870
    1C        C  754   4.623   3.055   1.967
    1C        O  755   4.584   3.048   1.848
    1C        O  756   4.760   3.080   1.984
    1C        C  757   4.452   4.226   1.971
    1C        O  758   4.570   4.259   2.001
    1C        O  759   4.398   4.307   1.870
    1C        C  760   3.596   4.671   1.948
    1C        O  761   3.583   4.793   1.976
    1C        O  762   3.569   4.643   1.813
    1C        C  763   2.882   4.495   1.946
    1C        O  764   2.893   4.464   1.824
    1C        O  765   2.821   4.618   1.971
    1C        C  766   2.336   3.483   1.959
    1C        O  767   2.347   3.393   1.872
    1C        O  768   2.205   3.510   2.000
    1C        C  769   4.697   3.589   5.042
    1C        O  770   4.685   3.600   5.166
    1C        O  771   4.834   3.603   5.016
    1C        C  772   4.271   4.462   5.029
    1C        O  773   4.272   4.452   5.155
    1C        O  774   4.331   4.585   4.998
    1C        C  775   4.140   2.506   5.053
    1C        O  776   4.204   2.406   5.011
    1C        O  777   4.141   2.519   5.192
    1C        C  778   2.908   4.519   5.072
    1C        O  779   2.884   4.642   5.065
    1C        O  780   2.888   4.480   5.205
    1C        C  781   2.443   3.047   5.045
    1C        O  782   2.327   3.048   4.994
    1C        O  783   2.447   2.936   5.129
    1C        C  784   2.424   3.988   5.064
    1C        O  785   2.303   4.016   5.041
    1C        O  786   2.463   3.993   5.199
    1C        C  787   2.933   2.420   2.013
    1C        O  788   2.915   2.443   1.891
    1C        O  789   2.949   2.282   2.028
    1C        C  790   3.175   2.363   5.054
    1C        O  791   3.178   2.249   5.001
    1C        O  792   3.160   2.368   5.193
    1C        H  793   4.288   3.024   5.058
    1C        H  794   4.210   2.792   5.073
    1C        H  795   4.527   3.118   5.041
    1C        H  796   4.557   3.355   5.063
    1C        H  797   4.588   3.816   5.030
    1C        H  798   4.383   3.956   5.047
    1C        H  799   4.336   4.192   5.041
    1C        H  800   4.003   4.495   5.033
    1C        H  801   3.812   4.559   5.038
    1C        H  802   3.586   4.612   5.042
    1C        H  803   3.385   4.522   5.046
    1C        H  804   3.157   4.486   5.053
    1C        H  805   3.893   2.479   5.063
    1C        H  806   3.668   2.497   5.075
    1C        H  807   2.984   2.546   5.055
    1C        H  808   3.443   2.497   5.073
    1C        H  809   2.899   2.762   5.075
    1C        H  810   2.663   2.855   5.051
    1C        H  811   2.526   3.291   5.074
    1C        H  812   2.539   3.495   5.070
    1C        H  813   2.518   3.733   5.063
    1C        H  814   2.578   4.191   5.036
    1C        H  815   2.758   4.309   5.053
    1C        H  816   2.657   2.830   1.986
    1C        H  817   2.826   2.680   1.975
    1C        H  818   3.212   2.433   1.990
    1C        H  819   3.433   2.454   1.974
    1C        H  820   3.844   2.520   1.969
    1C        H  821   4.067   2.607   1.970
    1C        H  822   4.272   2.708   1.976
    1C        H  823   4.404   2.900   1.966
    1C        H  824   4.581   3.309   1.966
    1C        H  825   4.494   3.514   1.958
    1C        H  826   4.589   3.743   1.999
    1C        H  827   3.803   4.524   1.949
    1C        H  828   3.955   4.369   1.944
    1C        H  829   4.167   4.256   1.944
    1C        H  830   4.519   3.983   1.974
    1C        H  831   2.626   3.829   1.963
    1C        H  832   2.744   4.041   1.972
    1C        H  833   2.710   4.302   1.973
    1C        H  834   3.354   4.537   1.954
    1C        H  835   3.143   4.423   1.945
    1C        H  836   2.525   3.006   1.987
    1C        H  837   2.482   3.245   1.977
    1C        H  838   2.486   3.682   1.965
    2V3OU   H29  839   2.801   3.546   1.457
    2V3OU   C27  840   2.781   3.499   1.557
    2V3OU   H27  841   2.722   3.562   1.628
    2V3OU   H28  842   2.725   3.403   1.546
    2V3OU   O11  843   2.908   3.473   1.618
    2V3OU   C15  844   2.918   3.397   1.733
    2V3OU   C13  845   3.052   3.376   1.772
    2V3OU   C14  846   3.075   3.269   1.860
    2V3OU   C16  847   2.972   3.187   1.903
    2V3OU    H6  848   2.990   3.103   1.971
    2V3OU   C12  849   3.214   3.227   1.890
    2V3OU    O2  850   3.241   3.123   1.954
    2V3OU   C10  851   3.325   3.311   1.844
    2V3OU    C8  852   3.458   3.273   1.859
    2V3OU   O10  853   3.490   3.150   1.909
    2V3OU   H26  854   3.404   3.115   1.937
    2V3OU    C6  855   3.566   3.346   1.801
    2V3OU    C5  856   3.535   3.463   1.733
    2V3OU    C4  857   3.704   3.291   1.794
    2V3OU    H4  858   3.722   3.227   1.885
    2V3OU    H5  859   3.710   3.221   1.705
    2V3OU    C2  860   3.812   3.399   1.785
    2V3OU    O6  861   3.807   3.474   1.906
    2V3OU   H21  862   3.774   3.563   1.885
    2V3OU    C3  863   3.779   3.488   1.665
    2V3OU    H2  864   3.857   3.569   1.659
    2V3OU    H3  865   3.776   3.438   1.564
    2V3OU   C25  866   3.944   3.322   1.773
    2V3OU    O7  867   4.001   3.296   1.667
    2V3OU   C26  868   4.029   3.286   1.894
    2V3OU   H22  869   4.065   3.384   1.934
    2V3OU   H23  870   4.120   3.230   1.859
    2V3OU    O8  871   3.961   3.202   1.985
    2V3OU   H24  872   3.916   3.260   2.048
    2V3OU    C1  873   3.643   3.554   1.683
    2V3OU    H1  874   3.619   3.610   1.587
    2V3OU    O3  875   3.655   3.654   1.784
    2V3OU   C19  876   3.614   3.791   1.771
    2V3OU    H9  877   3.515   3.793   1.715
    2V3OU    O4  878   3.711   3.849   1.687
    2V3OU   C20  879   3.845   3.868   1.733
    2V3OU   H10  880   3.884   3.762   1.734
    2V3OU   C24  881   3.604   3.857   1.908
    2V3OU   H16  882   3.540   3.795   1.976
    2V3OU   H17  883   3.563   3.961   1.900
    2V3OU   C23  884   3.746   3.871   1.964
    2V3OU   H15  885   3.791   3.769   1.991
    2V3OU    N1  886   3.735   3.945   2.088
    2V3OU   H19  887   3.810   3.914   2.145
    2V3OU   H20  888   3.649   3.933   2.138
    2V3OU   C21  889   3.845   3.941   1.867
    2V3OU   H11  890   3.947   3.923   1.913
    2V3OU    O5  891   3.826   4.081   1.858
    2V3OU   H18  892   3.779   4.103   1.940
    2V3OU   C22  893   3.910   3.942   1.618
    2V3OU   H12  894   3.856   4.039   1.602
    2V3OU   H13  895   3.902   3.883   1.523
    2V3OU   H14  896   4.020   3.951   1.639
    2V3OU   C11  897   3.160   3.468   1.735
    2V3OU    O1  898   3.133   3.581   1.690
    2V3OU    C9  899   3.299   3.426   1.764
    2V3OU    C7  900   3.400   3.501   1.705
    2V3OU    O9  901   3.384   3.613   1.626
    2V3OU   H25  902   3.288   3.625   1.614
    2V3OU   C17  903   2.814   3.310   1.772
    2V3OU    H7  904   2.710   3.343   1.766
    2V3OU   C18  905   2.841   3.204   1.858
    2V3OU    H8  906   2.752   3.152   1.896
    3SOL     OW  907   1.371   3.151   1.314
    3SOL    HW1  908   1.388   3.235   1.263
    3SOL    HW2  909   1.439   3.082   1.289
    4SOL     OW  910   5.752   0.203   1.866
    4SOL    HW1  911   5.657   0.190   1.838
    4SOL    HW2  912   5.805   0.235   1.788
    5SOL     OW  913   3.723   1.778   1.066
    5SOL    HW1  914   3.686   1.686   1.083
    5SOL    HW2  915   3.736   1.791   0.968
    6SOL     OW  916   2.956   1.796   1.677
    6SOL    HW1  917   2.917   1.863   1.740
    6SOL    HW2  918   3.056   1.802   1.682
    7SOL     OW  919   5.853   1.642   2.277
    7SOL    HW1  920   5.944   1.677   2.254
    7SOL    HW2  921   5.801   1.626   2.193
    8SOL     OW  922   2.748   0.924   4.037
    8SOL    HW1  923   2.689   0.928   3.956
    8SOL    HW2  924   2.694   0.939   4.119
    9SOL     OW  925   1.395   4.088   5.821
    9SOL    HW1  926   1.439   4.140   5.895
    9SOL    HW2  927   1.457   4.085   5.742
   10SOL     OW  928   1.043   4.507   6.645
   10SOL    HW1  929   1.117   4.455   6.687
   10SOL    HW2  930   0.957   4.483   6.689
   11SOL     OW  931   4.103   6.716   0.176
   11SOL    HW1  932   4.145   6.685   0.090
   11SOL    HW2  933   4.169   6.770   0.228
   12SOL     OW  934   5.552   6.131   2.484
   12SOL    HW1  935   5.603   6.217   2.485
   12SOL    HW2  936   5.517   6.112   2.575
   13SOL     OW  937   2.567   6.294   3.375
   13SOL    HW1  938   2.533   6.324   3.464
   13SOL    HW2  939   2.522   6.347   3.303
   14SOL     OW  940   3.744   6.580   0.835
   14SOL    HW1  941   3.726   6.609   0.929
   14SOL    HW2  942   3.657   6.558   0.790
   15SOL     OW  943   1.489   6.676   6.856
   15SOL    HW1  944   1.514   6.592   6.904
   15SOL    HW2  945   1.519   6.755   6.909
   16SOL     OW  946   6.185   2.438   5.954
   16SOL    HW1  947   6.108   2.500   5.967
   16SOL    HW2  948   6.261   2.466   6.013
   17SOL     OW  949   5.303   6.741   4.449
   17SOL    HW1  950   5.300   6.707   4.355
   17SOL    HW2  951   5.246   6.823   4.457
   18SOL     OW  952   1.728   2.048   5.694
   18SOL    HW1  953   1.665   1.970   5.683
   18SOL    HW2  954   1.696   2.124   5.637
   19SOL     OW  955   0.474   6.994   2.282
   19SOL    HW1  956   0.456   6.929   2.356
   19SOL    HW2  957   0.502   0.064   2.322
   20SOL     OW  958   3.657   1.805   3.949
   20SOL    HW1  959   3.609   1.736   4.004
   20SOL    HW2  960   3.643   1.785   3.852
   21SOL     OW  961   3.036   1.977   1.404
   21SOL    HW1  962   2.962   1.910   1.411
   21SOL    HW2  963   3.003   2.059   1.357
   22SOL     OW  964   1.657   6.364   5.618
   22SOL    HW1  965   1.714   6.300   5.669
   22SOL    HW2  966   1.711   6.407   5.546
   23SOL     OW  967   4.321   6.128   4.701
   23SOL    HW1  968   4.415   6.101   4.680
   23SOL    HW2  969   4.302   6.217   4.660
   24SOL     OW  970   5.001   1.354   5.334
   24SOL    HW1  971   5.040   1.289   5.269
   24SOL    HW2  972   4.951   1.425   5.284
   25SOL     OW  973   3.721   5.799   0.666
   25SOL    HW1  974   3.709   5.807   0.765
   25SOL    HW2  975   3.690   5.708   0.636
   26SOL     OW  976   6.518   1.431   2.104
   26SOL    HW1  977   6.571   1.378   2.170
   26SOL    HW2  978   6.520   1.528   2.130
   27SOL     OW  979   6.202   0.009   2.678
   27SOL    HW1  980   6.302   0.017   2.684
   27SOL    HW2  981   6.179   6.963   2.605
   28SOL     OW  982   3.681   0.650   0.072
   28SOL    HW1  983   3.762   0.601   0.041
   28SOL    HW2  984   3.685   0.745   0.042
   29SOL     OW  985   4.591   2.322   1.478
   29SOL    HW1  986   4.641   2.246   1.436
   29SOL    HW2  987   4.585   2.398   1.413
   30SOL     OW  988   3.230   0.905   4.803
   30SOL    HW1  989   3.209   0.974   4.872
   30SOL    HW2  990   3.277   0.948   4.726
   31SOL     OW  991   0.636   0.754   5.208
   31SOL    HW1  992   0.648   0.735   5.305
   31SOL    HW2  993   0.584   0.681   5.165
   32SOL     OW  994   0.264   2.206   1.401
   32SOL    HW1  995   0.172   2.177   1.375
   32SOL    HW2  996   0.331   2.139   1.370
   33SOL     OW  997   1.845   2.749   6.262
   33SOL    HW1  998   1.915   2.814   6.292
   33SOL    HW2  999   1.773   2.797   6.212
   34SOL     OW 1000   1.751   0.283   4.714
   34SOL    HW1 1001   1.668   0.337   4.725
   34SOL    HW2 1002   1.729   0.186   4.725
   35SOL     OW 1003   5.246   1.424   6.888
   35SOL    HW1 1004   5.228   1.334   6.850
   35SOL    HW2 1005   5.342   1.448   6.875
   36SOL     OW 1006   1.819   1.753   5.066
   36SOL    HW1 1007   1.881   1.829   5.044
   36SOL    HW2 1008   1.853   1.669   5.024
   37SOL     OW 1009   3.273   6.760   1.716
   37SOL    HW1 1010   3.209   6.764   1.640
   37SOL    HW2 1011   3.319   6.849   1.726
   38SOL     OW 1012   6.894   6.457   3.233
   38SOL    HW1 1013   6.911   6.530   3.299
   38SOL    HW2 1014   6.950   6.471   3.151
   39SOL     OW 1015   6.843   3.200   5.157
   39SOL    HW1 1016   6.931   3.236   5.126
   39SOL    HW2 1017   6.782   3.188   5.079
   40SOL     OW 1018   6.475   1.072   2.176
   40SOL    HW1 1019   6.525   1.047   2.092
   40SOL    HW2 1020   6.397   1.011   2.187
   41SOL     OW 1021   1.268   6.694   5.172
   41SOL    HW1 1022   1.297   6.778   5.219
   41SOL    HW2 1023   1.269   6.618   5.237
   42SOL     OW 1024   3.434   0.663   0.411
   42SOL    HW1 1025   3.532   0.661   0.429
   42SOL    HW2 1026   3.413   0.605   0.332
   43SOL     OW 1027   5.510   6.354   5.603
   43SOL    HW1 1028   5.507   6.267   5.555
   43SOL    HW2 1029   5.595   6.360   5.656
   44SOL     OW 1030   0.776   2.910   6.308
   44SOL    HW1 1031   0.700   2.846   6.320
   44SOL    HW2 1032   0.858   2.859   6.282
   45SOL     OW 1033   2.404   0.778   1.634
   45SOL    HW1 1034   2.459   0.817   1.707
   45SOL    HW2 1035   2.464   0.749   1.559
   46SOL     OW 1036   1.462   4.248   4.617
   46SOL    HW1 1037   1.439   4.194   4.697
   46SOL    HW2 1038   1.404   4.330   4.614
   47SOL     OW 1039   6.822   4.439   3.563
   47SOL    HW1 1040   6.743   4.391   3.602
   47SOL    HW2 1041   6.890   4.455   3.635
   48SOL     OW 1042   0.327   2.199   5.200
   48SOL    HW1 1043   0.394   2.125   5.194
   48SOL    HW2 1044   0.267   2.183   5.278
   49SOL     OW 1045   4.649   2.752   0.619
   49SOL    HW1 1046   4.740   2.710   0.629
   49SOL    HW2 1047   4.607   2.761   0.709
   50SOL     OW 1048   6.560   4.010   4.330
   50SOL    HW1 1049   6.526   3.916   4.326
   50SOL    HW2 1050   6.619   4.021   4.410
   51SOL     OW 1051   3.358   4.944   2.650
   51SOL    HW1 1052   3.258   4.944   2.646
   51SOL    HW2 1053   3.395   4.934   2.558
   52SOL     OW 1054   2.338   1.858   2.079
   52SOL    HW1 1055   2.295   1.888   1.994
   52SOL    HW2 1056   2.283   1.889   2.157
   53SOL     OW 1057   4.963   6.725   4.301
   53SOL    HW1 1058   5.016   6.784   4.240
   53SOL    HW2 1059   4.896   6.781   4.350
   54SOL     OW 1060   3.964   5.225   5.729
   54SOL    HW1 1061   3.908   5.153   5.770
   54SOL    HW2 1062   3.985   5.200   5.635
   55SOL     OW 1063   3.854   2.256   6.386
   55SOL    HW1 1064   3.833   2.260   6.288
   55SOL    HW2 1065   3.953   2.260   6.398
   56SOL     OW 1066   1.023   0.303   2.345
   56SOL    HW1 1067   1.044   0.376   2.280
   56SOL    HW2 1068   1.039   0.215   2.302
   57SOL     OW 1069   5.644   1.258   0.244
   57SOL    HW1 1070   5.564   1.199   0.233
   57SOL    HW2 1071   5.690   1.236   0.330
   58SOL     OW 1072   0.243   6.047   6.918
   58SOL    HW1 1073   0.191   6.000   6.847
   58SOL    HW2 1074   0.230   5.999   7.005
   59SOL     OW 1075   1.437   0.400   5.946
   59SOL    HW1 1076   1.483   0.426   5.862
   59SOL    HW2 1077   1.487   0.435   6.025
   60SOL     OW 1078   4.361   0.213   5.403
   60SOL    HW1 1079   4.285   0.170   5.452
   60SOL    HW2 1080   4.428   0.143   5.378
   61SOL     OW 1081   4.794   0.183   4.080
   61SOL    HW1 1082   4.871   0.239   4.112
   61SOL    HW2 1083   4.717   0.243   4.059
   62SOL     OW 1084   1.798   0.519   4.172
   62SOL    HW1 1085   1.891   0.538   4.142
   62SOL    HW2 1086   1.798   0.446   4.240
   63SOL     OW 1087   6.808   2.764   3.119
   63SOL    HW1 1088   6.805   2.842   3.182
   63SOL    HW2 1089   6.882   2.703   3.146
   64SOL     OW 1090   6.448   3.836   6.472
   64SOL    HW1 1091   6.439   3.740   6.497
   64SOL    HW2 1092   6.457   3.844   6.373
   65SOL     OW 1093   6.725   5.039   5.208
   65SOL    HW1 1094   6.671   5.016   5.289
   65SOL    HW2 1095   6.808   5.087   5.236
   66SOL     OW 1096   2.901   0.499   0.242
   66SOL    HW1 1097   2.851   0.558   0.179
   66SOL    HW2 1098   2.837   0.456   0.306
   67SOL     OW 1099   5.219   5.753   4.809
   67SOL    HW1 1100   5.233   5.790   4.901
   67SOL    HW2 1101   5.132   5.786   4.772
   68SOL     OW 1102   5.996   2.235   5.901
   68SOL    HW1 1103   5.928   2.262   5.832
   68SOL    HW2 1104   6.059   2.310   5.917
   69SOL     OW 1105   2.854   4.144   6.362
   69SOL    HW1 1106   2.824   4.209   6.431
   69SOL    HW2 1107   2.870   4.193   6.276
   70SOL     OW 1108   6.889   5.477   2.750
   70SOL    HW1 1109   6.814   5.511   2.693
   70SOL    HW2 1110   6.881   5.378   2.761
   71SOL     OW 1111   1.580   2.879   3.233
   71SOL    HW1 1112   1.587   2.783   3.262
   71SOL    HW2 1113   1.567   2.937   3.314
   72SOL     OW 1114   2.593   5.703   3.942
   72SOL    HW1 1115   2.539   5.761   4.003
   72SOL    HW2 1116   2.542   5.688   3.857
   73SOL     OW 1117   4.103   2.065   0.422
   73SOL    HW1 1118   4.152   2.147   0.393
   73SOL    HW2 1119   4.005   2.086   0.427
   74SOL     OW 1120   5.402   6.359   6.571
   74SOL    HW1 1121   5.418   6.345   6.473
   74SOL    HW2 1122   5.412   6.456   6.593
   75SOL     OW 1123   3.764   5.598   5.524
   75SOL    HW1 1124   3.863   5.589   5.511
   75SOL    HW2 1125   3.736   5.547   5.605
   76SOL     OW 1126   2.664   2.490   1.374
   76SOL    HW1 1127   2.750   2.478   1.422
   76SOL    HW2 1128   2.675   2.465   1.278
   77SOL     OW 1129   5.946   5.057   5.304
   77SOL    HW1 1130   5.952   5.006   5.390
   77SOL    HW2 1131   6.007   5.015   5.236
   78SOL     OW 1132   6.650   6.667   5.455
   78SOL    HW1 1133   6.670   6.631   5.363
   78SOL    HW2 1134   6.571   6.619   5.493
   79SOL     OW 1135   3.621   0.023   0.562
   79SOL    HW1 1136   3.574   6.953   0.554
   79SOL    HW2 1137   3.662   0.030   0.653
   80SOL     OW 1138   0.049   1.628   4.464
   80SOL    HW1 1139   0.146   1.606   4.457
   80SOL    HW2 1140   0.018   1.668   4.377
   81SOL     OW 1141   1.604   1.065   2.807
   81SOL    HW1 1142   1.623   1.075   2.905
   81SOL    HW2 1143   1.538   0.992   2.793
   82SOL     OW 1144   6.753   4.622   6.184
   82SOL    HW1 1145   6.828   4.687   6.178
   82SOL    HW2 1146   6.723   4.615   6.279
   83SOL     OW 1147   0.414   6.681   0.332
   83SOL    HW1 1148   0.340   6.616   0.317
   83SOL    HW2 1149   0.502   6.637   0.312
   84SOL     OW 1150   5.252   3.819   1.555
   84SOL    HW1 1151   5.270   3.741   1.615
   84SOL    HW2 1152   5.180   3.876   1.596
   85SOL     OW 1153   1.053   2.076   5.695
   85SOL    HW1 1154   1.085   1.981   5.703
   85SOL    HW2 1155   0.962   2.076   5.653
   86SOL     OW 1156   0.964   0.609   5.737
   86SOL    HW1 1157   1.007   0.658   5.813
   86SOL    HW2 1158   0.995   0.647   5.650
   87SOL     OW 1159   4.681   1.826   0.359
   87SOL    HW1 1160   4.772   1.846   0.323
   87SOL    HW2 1161   4.616   1.895   0.326
   88SOL     OW 1162   5.667   1.252   0.848
   88SOL    HW1 1163   5.569   1.266   0.836
   88SOL    HW2 1164   5.683   1.180   0.916
   89SOL     OW 1165   1.591   2.615   6.523
   89SOL    HW1 1166   1.513   2.617   6.586
   89SOL    HW2 1167   1.664   2.674   6.559
   90SOL     OW 1168   5.241   5.901   4.033
   90SOL    HW1 1169   5.321   5.941   4.076
   90SOL    HW2 1170   5.263   5.808   4.002
   91SOL     OW 1171   5.179   4.725   5.148
   91SOL    HW1 1172   5.149   4.704   5.055
   91SOL    HW2 1173   5.211   4.641   5.193
   92SOL     OW 1174   3.274   4.771   1.225
   92SOL    HW1 1175   3.216   4.852   1.233
   92SOL    HW2 1176   3.291   4.733   1.315
   93SOL     OW 1177   3.555   5.300   6.124
   93SOL    HW1 1178   3.553   5.364   6.048
   93SOL    HW2 1179   3.563   5.351   6.210
   94SOL     OW 1180   2.958   5.708   0.291
   94SOL    HW1 1181   2.987   5.681   0.200
   94SOL    HW2 1182   2.917   5.799   0.287
   95SOL     OW 1183   0.401   0.137   3.942
   95SOL    HW1 1184   0.326   0.094   3.992
   95SOL    HW2 1185   0.461   0.066   3.905
   96SOL     OW 1186   2.239   0.308   5.246
   96SOL    HW1 1187   2.253   0.258   5.332
   96SOL    HW2 1188   2.157   0.364   5.253
   97SOL     OW 1189   6.105   3.340   4.264
   97SOL    HW1 1190   6.009   3.335   4.239
   97SOL    HW2 1191   6.139   3.248   4.285
   98SOL     OW 1192   4.953   2.335   6.118
   98SOL    HW1 1193   4.854   2.321   6.119
   98SOL    HW2 1194   5.000   2.247   6.127
   99SOL     OW 1195   4.470   2.122   1.020
   99SOL    HW1 1196   4.373   2.102   1.027
   99SOL    HW2 1197   4.505   2.090   0.932
  100SOL     OW 1198   0.896   6.026   6.670
  100SOL    HW1 1199   0.959   5.949   6.682
  100SOL    HW2 1200   0.891   6.051   6.573
  101SOL     OW 1201   1.592   6.009   3.814
  101SOL    HW1 1202   1.503   5.988   3.856
  101SOL    HW2 1203   1.664   5.998   3.883
  102SOL     OW 1204   3.610   0.554   3.401
  102SOL    HW1 1205   3.645   0.612   3.475
  102SOL    HW2 1206   3.621   0.602   3.314
  103SOL     OW 1207   4.016   2.521   1.369
  103SOL    HW1 1208   3.938   2.577   1.343
  103SOL    HW2 1209   4.047   2.547   1.461
  104SOL     OW 1210   6.955   5.660   2.148
  104SOL    HW1 1211   7.015   5.725   2.193
  104SOL    HW2 1212   6.978   5.567   2.177
  105SOL     OW 1213   6.006   0.992   6.460
  105SOL    HW1 1214   6.007   1.042   6.373
  105SOL    HW2 1215   5.916   0.998   6.502
  106SOL     OW 1216   3.010   6.215   6.690
  106SOL    HW1 1217   2.982   6.185   6.598
  106SOL    HW2 1218   3.070   6.295   6.682
  107SOL     OW 1219   2.138   2.618   0.732
  107SOL    HW1 1220   2.201   2.545   0.705
  107SOL    HW2 1221   2.044   2.591   0.709
  108SOL     OW 1222   4.850   4.557   6.086
  108SOL    HW1 1223   4.931   4.568   6.029
  108SOL    HW2 1224   4.786   4.493   6.043
  109SOL     OW 1225   6.897   0.364   0.389
  109SOL    HW1 1226   6.974   0.403   0.337
  109SOL    HW2 1227   6.822   0.345   0.326
  110SOL     OW 1228   3.532   5.874   5.511
  110SOL    HW1 1229   3.453   5.932   5.489
  110SOL    HW2 1230   3.501   5.781   5.528
  111SOL     OW 1231   4.138   1.030   3.268
  111SOL    HW1 1232   4.066   1.026   3.337
  111SOL    HW2 1233   4.221   0.987   3.304
  112SOL     OW 1234   6.428   6.074   5.700
  112SOL    HW1 1235   6.474   6.163   5.696
  112SOL    HW2 1236   6.494   6.003   5.723
  113SOL     OW 1237   0.141   4.208   3.715
  113SOL    HW1 1238   0.129   4.307   3.725
  113SOL    HW2 1239   0.228   4.181   3.756
  114SOL     OW 1240   0.747   6.683   0.142
  114SOL    HW1 1241   0.707   6.606   0.192
  114SOL    HW2 1242   0.680   6.720   0.078
  115SOL     OW 1243   4.899   1.513   4.417
  115SOL    HW1 1244   4.876   1.477   4.507
  115SOL    HW2 1245   4.961   1.591   4.427
  116SOL     OW 1246   6.363   4.347   1.989
  116SOL    HW1 1247   6.302   4.413   2.032
  116SOL    HW2 1248   6.386   4.378   1.897
  117SOL     OW 1249   1.512   0.208   6.341
  117SOL    HW1 1250   1.521   0.297   6.297
  117SOL    HW2 1251   1.438   0.157   6.297
  118SOL     OW 1252   0.422   0.729   1.912
  118SOL    HW1 1253   0.466   0.778   1.987
  118SOL    HW2 1254   0.427   0.631   1.928
  119SOL     OW 1255   6.883   2.988   5.846
  119SOL    HW1 1256   6.919   2.950   5.931
  119SOL    HW2 1257   6.811   3.055   5.868
  120SOL     OW 1258   5.944   6.678   0.979
  120SOL    HW1 1259   5.887   6.723   0.911
  120SOL    HW2 1260   5.913   6.584   0.992
  121SOL     OW 1261   2.363   3.427   6.264
  121SOL    HW1 1262   2.334   3.514   6.224
  121SOL    HW2 1263   2.393   3.366   6.191
  122SOL     OW 1264   0.252   3.545   4.566
  122SOL    HW1 1265   0.226   3.622   4.624
  122SOL    HW2 1266   0.301   3.477   4.621
  123SOL     OW 1267   0.362   1.617   1.314
  123SOL    HW1 1268   0.323   1.671   1.240
  123SOL    HW2 1269   0.434   1.670   1.359
  124SOL     OW 1270   4.817   3.298   0.299
  124SOL    HW1 1271   4.807   3.392   0.267
  124SOL    HW2 1272   4.913   3.278   0.315
  125SOL     OW 1273   1.757   2.449   2.179
  125SOL    HW1 1274   1.794   2.442   2.086
  125SOL    HW2 1275   1.798   2.379   2.237
  126SOL     OW 1276   2.954   4.802   1.125
  126SOL    HW1 1277   2.956   4.753   1.212
  126SOL    HW2 1278   2.960   4.900   1.141
  127SOL     OW 1279   6.928   5.597   5.985
  127SOL    HW1 1280   7.011   5.646   6.008
  127SOL    HW2 1281   6.901   5.538   6.061
  128SOL     OW 1282   4.698   2.622   1.556
  128SOL    HW1 1283   4.715   2.693   1.624
  128SOL    HW2 1284   4.600   2.615   1.540
  129SOL     OW 1285   3.405   3.751   6.630
  129SOL    HW1 1286   3.499   3.725   6.652
  129SOL    HW2 1287   3.387   3.732   6.533
  130SOL     OW 1288   0.881   0.975   4.253
  130SOL    HW1 1289   0.841   0.908   4.316
  130SOL    HW2 1290   0.837   0.967   4.164
  131SOL     OW 1291   4.796   1.440   2.921
  131SOL    HW1 1292   4.888   1.478   2.926
  131SOL    HW2 1293   4.796   1.364   2.856
  132SOL     OW 1294   1.237   2.675   1.663
  132SOL    HW1 1295   1.266   2.742   1.731
  132SOL    HW2 1296   1.138   2.663   1.668
  133SOL     OW 1297   6.417   6.055   2.519
  133SOL    HW1 1298   6.463   6.020   2.601
  133SOL    HW2 1299   6.486   6.084   2.452
  134SOL     OW 1300   0.149   3.576   2.968
  134SOL    HW1 1301   0.065   3.547   2.922
  134SOL    HW2 1302   0.224   3.517   2.939
  135SOL     OW 1303   5.140   1.881   4.067
  135SOL    HW1 1304   5.189   1.796   4.046
  135SOL    HW2 1305   5.045   1.861   4.088
  136SOL     OW 1306   5.179   3.940   5.398
  136SOL    HW1 1307   5.184   3.928   5.298
  136SOL    HW2 1308   5.121   4.019   5.419
  137SOL     OW 1309   4.709   6.818   5.981
  137SOL    HW1 1310   4.801   6.792   5.953
  137SOL    HW2 1311   4.701   6.917   5.982
  138SOL     OW 1312   6.576   5.313   4.751
  138SOL    HW1 1313   6.498   5.366   4.785
  138SOL    HW2 1314   6.546   5.254   4.676
  139SOL     OW 1315   3.061   4.816   5.050
  139SOL    HW1 1316   3.137   4.809   5.115
  139SOL    HW2 1317   3.002   4.736   5.059
  140SOL     OW 1318   5.763   5.115   4.311
  140SOL    HW1 1319   5.764   5.040   4.378
  140SOL    HW2 1320   5.731   5.199   4.356
  141SOL     OW 1321   1.339   1.931   4.571
  141SOL    HW1 1322   1.287   1.995   4.628
  141SOL    HW2 1323   1.385   1.864   4.630
  142SOL     OW 1324   1.650   5.879   1.508
  142SOL    HW1 1325   1.561   5.921   1.523
  142SOL    HW2 1326   1.717   5.921   1.570
  143SOL     OW 1327   5.358   4.566   2.493
  143SOL    HW1 1328   5.275   4.551   2.438
  143SOL    HW2 1329   5.335   4.558   2.590
  144SOL     OW 1330   1.869   6.577   6.725
  144SOL    HW1 1331   1.849   6.636   6.803
  144SOL    HW2 1332   1.957   6.603   6.685
  145SOL     OW 1333   0.318   5.542   0.932
  145SOL    HW1 1334   0.250   5.508   0.868
  145SOL    HW2 1335   0.325   5.479   1.010
  146SOL     OW 1336   5.427   6.109   0.909
  146SOL    HW1 1337   5.371   6.125   0.828
  146SOL    HW2 1338   5.389   6.160   0.987
  147SOL     OW 1339   0.089   2.420   0.731
  147SOL    HW1 1340   0.100   2.384   0.639
  147SOL    HW2 1341   0.128   2.512   0.735
  148SOL     OW 1342   1.128   5.349   5.805
  148SOL    HW1 1343   1.052   5.405   5.836
  148SOL    HW2 1344   1.098   5.292   5.728
  149SOL     OW 1345   3.231   1.225   4.692
  149SOL    HW1 1346   3.168   1.283   4.641
  149SOL    HW2 1347   3.272   1.158   4.629
  150SOL     OW 1348   6.930   4.983   6.801
  150SOL    HW1 1349   6.914   5.067   6.750
  150SOL    HW2 1350   6.890   4.906   6.751
  151SOL     OW 1351   4.279   1.702   1.525
  151SOL    HW1 1352   4.231   1.777   1.570
  151SOL    HW2 1353   4.224   1.619   1.531
  152SOL     OW 1354   3.013   0.803   4.471
  152SOL    HW1 1355   2.934   0.746   4.447
  152SOL    HW2 1356   3.003   0.893   4.428
  153SOL     OW 1357   2.057   1.079   3.031
  153SOL    HW1 1358   1.962   1.107   3.042
  153SOL    HW2 1359   2.061   0.980   3.014
  154SOL     OW 1360   6.926   2.127   1.985
  154SOL    HW1 1361   6.928   2.226   1.969
  154SOL    HW2 1362   6.845   2.087   1.942
  155SOL     OW 1363   0.084   0.857   2.707
  155SOL    HW1 1364   0.130   0.929   2.759
  155SOL    HW2 1365   0.112   0.767   2.740
  156SOL     OW 1366   6.479   1.831   0.898
  156SOL    HW1 1367   6.383   1.836   0.871
  156SOL    HW2 1368   6.529   1.907   0.857
  157SOL     OW 1369   6.002   3.451   2.819
  157SOL    HW1 1370   6.045   3.367   2.787
  157SOL    HW2 1371   6.070   3.509   2.863
  158SOL     OW 1372   2.505   1.025   2.747
  158SOL    HW1 1373   2.532   1.073   2.664
  158SOL    HW2 1374   2.420   1.064   2.782
  159SOL     OW 1375   4.738   4.130   1.836
  159SOL    HW1 1376   4.793   4.177   1.766
  159SOL    HW2 1377   4.686   4.197   1.888
  160SOL     OW 1378   6.794   4.211   5.902
  160SOL    HW1 1379   6.869   4.145   5.911
  160SOL    HW2 1380   6.746   4.195   5.815
  161SOL     OW 1381   2.347   5.063   5.228
  161SOL    HW1 1382   2.305   4.975   5.250
  161SOL    HW2 1383   2.397   5.055   5.142
  162SOL     OW 1384   4.503   6.047   1.140
  162SOL    HW1 1385   4.444   6.096   1.077
  162SOL    HW2 1386   4.495   6.086   1.232
  163SOL     OW 1387   4.526   0.117   2.202
  163SOL    HW1 1388   4.604   0.085   2.256
  163SOL    HW2 1389   4.498   0.046   2.138
  164SOL     OW 1390   6.291   3.627   0.822
  164SOL    HW1 1391   6.324   3.584   0.906
  164SOL    HW2 1392   6.256   3.556   0.760
  165SOL     OW 1393   4.858   3.231   6.508
  165SOL    HW1 1394   4.815   3.199   6.423
  165SOL    HW2 1395   4.790   3.277   6.565
  166SOL     OW 1396   0.119   6.942   2.447
  166SOL    HW1 1397   0.087   6.850   2.425
  166SOL    HW2 1398   0.127   6.996   2.363
  167SOL     OW 1399   6.478   2.626   0.198
  167SOL    HW1 1400   6.577   2.641   0.192
  167SOL    HW2 1401   6.449   2.567   0.122
  168SOL     OW 1402   2.287   5.425   1.170
  168SOL    HW1 1403   2.371   5.371   1.165
  168SOL    HW2 1404   2.301   5.503   1.230
  169SOL     OW 1405   2.085   0.222   2.278
  169SOL    HW1 1406   2.132   0.189   2.196
  169SOL    HW2 1407   2.142   0.289   2.325
  170SOL     OW 1408   0.069   1.600   3.355
  170SOL    HW1 1409   0.103   1.614   3.262
  170SOL    HW2 1410   6.988   1.589   3.353
  171SOL     OW 1411   3.782   3.875   0.208
  171SOL    HW1 1412   3.844   3.917   0.142
  171SOL    HW2 1413   3.699   3.930   0.216
  172SOL     OW 1414   6.623   2.319   5.493
  172SOL    HW1 1415   6.536   2.287   5.457
  172SOL    HW2 1416   6.686   2.338   5.418
  173SOL     OW 1417   0.110   6.780   4.956
  173SOL    HW1 1418   0.107   6.770   5.055
  173SOL    HW2 1419   0.017   6.786   4.920
  174SOL     OW 1420   2.379   5.223   3.511
  174SOL    HW1 1421   2.368   5.153   3.441
  174SOL    HW2 1422   2.383   5.181   3.601
  175SOL     OW 1423   1.997   5.894   2.258
  175SOL    HW1 1424   2.065   5.852   2.198
  175SOL    HW2 1425   2.009   5.861   2.351
  176SOL     OW 1426   2.132   3.932   1.021
  176SOL    HW1 1427   2.042   3.924   0.977
  176SOL    HW2 1428   2.140   3.862   1.093
  177SOL     OW 1429   5.026   2.312   2.512
  177SOL    HW1 1430   4.955   2.292   2.579
  177SOL    HW2 1431   4.991   2.376   2.444
  178SOL     OW 1432   5.153   4.847   6.772
  178SOL    HW1 1433   5.222   4.903   6.726
  178SOL    HW2 1434   5.094   4.805   6.704
  179SOL     OW 1435   3.163   0.268   0.750
  179SOL    HW1 1436   3.155   0.299   0.655
  179SOL    HW2 1437   3.210   0.338   0.804
  180SOL     OW 1438   0.721   1.386   6.504
  180SOL    HW1 1439   0.770   1.469   6.478
  180SOL    HW2 1440   0.783   1.307   6.498
  181SOL     OW 1441   3.670   2.765   5.796
  181SOL    HW1 1442   3.626   2.720   5.874
  181SOL    HW2 1443   3.650   2.863   5.798
  182SOL     OW 1444   3.956   1.965   4.859
  182SOL    HW1 1445   4.000   1.881   4.826
  182SOL    HW2 1446   3.920   2.017   4.782
  183SOL     OW 1447   4.942   1.026   1.831
  183SOL    HW1 1448   5.041   1.038   1.824
  183SOL    HW2 1449   4.917   1.013   1.927
  184SOL     OW 1450   0.835   4.904   3.225
  184SOL    HW1 1451   0.854   4.946   3.314
  184SOL    HW2 1452   0.921   4.885   3.178
  185SOL     OW 1453   1.467   3.836   6.355
  185SOL    HW1 1454   1.377   3.801   6.378
  185SOL    HW2 1455   1.487   3.917   6.411
  186SOL     OW 1456   5.571   0.345   3.231
  186SOL    HW1 1457   5.621   0.302   3.156
  186SOL    HW2 1458   5.633   0.359   3.309
  187SOL     OW 1459   5.397   0.797   4.035
  187SOL    HW1 1460   5.494   0.817   4.029
  187SOL    HW2 1461   5.384   0.706   4.073
  188SOL     OW 1462   6.054   2.390   3.408
  188SOL    HW1 1463   5.971   2.421   3.454
  188SOL    HW2 1464   6.039   2.300   3.368
  189SOL     OW 1465   2.095   4.444   2.513
  189SOL    HW1 1466   2.031   4.513   2.480
  189SOL    HW2 1467   2.046   4.357   2.525
  190SOL     OW 1468   3.955   1.034   5.283
  190SOL    HW1 1469   3.907   1.026   5.196
  190SOL    HW2 1470   4.039   0.979   5.280
  191SOL     OW 1471   6.026   5.767   6.345
  191SOL    HW1 1472   6.020   5.866   6.358
  191SOL    HW2 1473   6.057   5.724   6.429
  192SOL     OW 1474   6.690   0.599   1.958
  192SOL    HW1 1475   6.768   0.613   2.019
  192SOL    HW2 1476   6.638   0.519   1.987
  193SOL     OW 1477   5.163   3.798   0.170
  193SOL    HW1 1478   5.217   3.776   0.089
  193SOL    HW2 1479   5.070   3.824   0.143
  194SOL     OW 1480   3.312   0.779   3.481
  194SOL    HW1 1481   3.377   0.843   3.439
  194SOL    HW2 1482   3.253   0.740   3.410
  195SOL     OW 1483   1.364   5.413   3.495
  195SOL    HW1 1484   1.406   5.326   3.467
  195SOL    HW2 1485   1.312   5.398   3.579
  196SOL     OW 1486   1.486   1.773   0.059
  196SOL    HW1 1487   1.464   1.798   6.982
  196SOL    HW2 1488   1.523   1.680   0.061
  197SOL     OW 1489   1.580   0.585   1.229
  197SOL    HW1 1490   1.499   0.640   1.206
  197SOL    HW2 1491   1.662   0.642   1.225
  198SOL     OW 1492   3.882   1.916   3.236
  198SOL    HW1 1493   3.890   1.920   3.137
  198SOL    HW2 1494   3.792   1.878   3.261
  199SOL     OW 1495   0.857   2.301   3.771
  199SOL    HW1 1496   0.884   2.209   3.740
  199SOL    HW2 1497   0.839   2.300   3.869
  200SOL     OW 1498   0.148   2.622   0.307
  200SOL    HW1 1499   0.105   2.712   0.301
  200SOL    HW2 1500   0.079   2.551   0.291
  201SOL     OW 1501   0.531   0.657   6.099
  201SOL    HW1 1502   0.599   0.587   6.077
  201SOL    HW2 1503   0.543   0.686   6.194
  202SOL     OW 1504   4.630   6.979   6.636
  202SOL    HW1 1505   4.579   0.047   6.630
  202SOL    HW2 1506   4.572   6.903   6.607
  203SOL     OW 1507   5.535   2.699   5.317
  203SOL    HW1 1508   5.608   2.762   5.342
  203SOL    HW2 1509   5.559   2.607   5.347
  204SOL     OW 1510   6.523   0.778   5.747
  204SOL    HW1 1511   6.430   0.752   5.771
  204SOL    HW2 1512   6.559   0.715   5.678
  205SOL     OW 1513   0.913   2.890   1.918
  205SOL    HW1 1514   0.909   2.952   1.997
  205SOL    HW2 1515   0.947   2.941   1.839
  206SOL     OW 1516   0.504   2.831   0.741
  206SOL    HW1 1517   0.514   2.883   0.656
  206SOL    HW2 1518   0.512   2.733   0.721
  207SOL     OW 1519   5.020   2.343   3.865
  207SOL    HW1 1520   5.026   2.431   3.819
  207SOL    HW2 1521   5.050   2.270   3.803
  208SOL     OW 1522   1.020   4.029   4.412
  208SOL    HW1 1523   0.984   3.954   4.358
  208SOL    HW2 1524   1.117   4.043   4.390
  209SOL     OW 1525   6.943   3.983   2.632
  209SOL    HW1 1526   7.006   3.968   2.708
  209SOL    HW2 1527   6.851   4.000   2.667
  210SOL     OW 1528   5.062   2.425   6.881
  210SOL    HW1 1529   4.996   2.478   6.934
  210SOL    HW2 1530   5.014   2.365   6.817
  211SOL     OW 1531   0.250   0.687   3.370
  211SOL    HW1 1532   0.310   0.726   3.440
  211SOL    HW2 1533   0.302   0.673   3.286
  212SOL     OW 1534   1.965   3.784   3.339
  212SOL    HW1 1535   1.923   3.874   3.343
  212SOL    HW2 1536   1.894   3.715   3.324
  213SOL     OW 1537   2.046   4.868   1.004
  213SOL    HW1 1538   2.039   4.962   1.037
  213SOL    HW2 1539   2.137   4.853   0.965
  214SOL     OW 1540   4.081   5.863   2.658
  214SOL    HW1 1541   4.013   5.866   2.731
  214SOL    HW2 1542   4.170   5.838   2.695
  215SOL     OW 1543   2.278   4.494   1.961
  215SOL    HW1 1544   2.261   4.452   1.872
  215SOL    HW2 1545   2.348   4.565   1.952
  216SOL     OW 1546   1.361   6.639   2.415
  216SOL    HW1 1547   1.371   6.571   2.342
  216SOL    HW2 1548   1.389   6.728   2.381
  217SOL     OW 1549   1.596   3.950   6.640
  217SOL    HW1 1550   1.551   3.965   6.729
  217SOL    HW2 1551   1.603   3.851   6.624
  218SOL     OW 1552   0.708   2.455   5.168
  218SOL    HW1 1553   0.784   2.392   5.153
  218SOL    HW2 1554   0.621   2.408   5.152
  219SOL     OW 1555   3.937   1.422   0.819
  219SOL    HW1 1556   4.020   1.368   0.835
  219SOL    HW2 1557   3.859   1.361   0.808
  220SOL     OW 1558   3.434   6.726   0.796
  220SOL    HW1 1559   3.467   6.769   0.712
  220SOL    HW2 1560   3.392   6.638   0.773
  221SOL     OW 1561   5.187   5.758   1.332
  221SOL    HW1 1562   5.276   5.719   1.356
  221SOL    HW2 1563   5.189   5.791   1.238
  222SOL     OW 1564   2.137   4.324   5.962
  222SOL    HW1 1565   2.156   4.304   5.865
  222SOL    HW2 1566   2.188   4.260   6.019
  223SOL     OW 1567   6.394   2.165   5.440
  223SOL    HW1 1568   6.433   2.074   5.456
  223SOL    HW2 1569   6.357   2.169   5.347
  224SOL     OW 1570   2.032   1.933   6.177
  224SOL    HW1 1571   2.091   1.965   6.251
  224SOL    HW2 1572   1.937   1.933   6.208
  225SOL     OW 1573   4.554   4.956   6.310
  225SOL    HW1 1574   4.495   4.961   6.230
  225SOL    HW2 1575   4.641   4.913   6.285
  226SOL     OW 1576   1.123   2.066   6.606
  226SOL    HW1 1577   1.077   1.999   6.664
  226SOL    HW2 1578   1.096   2.052   6.511
  227SOL     OW 1579   1.726   3.770   1.785
  227SOL    HW1 1580   1.745   3.697   1.720
  227SOL    HW2 1581   1.627   3.783   1.792
  228SOL     OW 1582   1.642   6.778   2.782
  228SOL    HW1 1583   1.711   6.786   2.710
  228SOL    HW2 1584   1.558   6.737   2.744
  229SOL     OW 1585   4.977   5.276   6.267
  229SOL    HW1 1586   5.045   5.286   6.341
  229SOL    HW2 1587   5.013   5.214   6.198
  230SOL     OW 1588   4.780   5.858   5.360
  230SOL    HW1 1589   4.807   5.954   5.348
  230SOL    HW2 1590   4.860   5.803   5.382
  231SOL     OW 1591   5.130   1.158   0.064
  231SOL    HW1 1592   5.188   1.162   7.000
  231SOL    HW2 1593   5.112   1.251   0.096
  232SOL     OW 1594   1.609   2.641   6.022
  232SOL    HW1 1595   1.531   2.661   5.964
  232SOL    HW2 1596   1.579   2.590   6.102
  233SOL     OW 1597   2.427   1.170   3.028
  233SOL    HW1 1598   2.505   1.108   3.013
  233SOL    HW2 1599   2.368   1.132   3.098
  234SOL     OW 1600   4.673   1.316   6.488
  234SOL    HW1 1601   4.761   1.279   6.517
  234SOL    HW2 1602   4.678   1.416   6.487
  235SOL     OW 1603   4.859   2.493   2.341
  235SOL    HW1 1604   4.906   2.574   2.377
  235SOL    HW2 1605   4.770   2.520   2.305
  236SOL     OW 1606   4.198   4.235   6.236
  236SOL    HW1 1607   4.286   4.269   6.269
  236SOL    HW2 1608   4.136   4.312   6.222
  237SOL     OW 1609   6.264   3.818   2.762
  237SOL    HW1 1610   6.182   3.870   2.788
  237SOL    HW2 1611   6.264   3.731   2.812
  238SOL     OW 1612   6.632   1.466   0.484
  238SOL    HW1 1613   6.671   1.559   0.487
  238SOL    HW2 1614   6.609   1.437   0.577
  239SOL     OW 1615   1.115   3.554   0.464
  239SOL    HW1 1616   1.143   3.625   0.399
  239SOL    HW2 1617   1.125   3.589   0.557
  240SOL     OW 1618   6.260   2.949   3.357
  240SOL    HW1 1619   6.285   2.916   3.449
  240SOL    HW2 1620   6.344   2.974   3.308
  241SOL     OW 1621   2.570   1.313   3.687
  241SOL    HW1 1622   2.579   1.339   3.591
  241SOL    HW2 1623   2.653   1.339   3.736
  242SOL     OW 1624   3.833   3.883   3.898
  242SOL    HW1 1625   3.925   3.865   3.864
  242SOL    HW2 1626   3.798   3.801   3.944
  243SOL     OW 1627   4.665   2.710   6.229
  243SOL    HW1 1628   4.698   2.740   6.318
  243SOL    HW2 1629   4.567   2.689   6.235
  244SOL     OW 1630   6.059   3.808   5.738
  244SOL    HW1 1631   6.021   3.721   5.705
  244SOL    HW2 1632   6.071   3.802   5.837
  245SOL     OW 1633   3.568   1.815   2.367
  245SOL    HW1 1634   3.506   1.764   2.307
  245SOL    HW2 1635   3.606   1.892   2.316
  246SOL     OW 1636   6.083   1.631   3.459
  246SOL    HW1 1637   6.094   1.561   3.530
  246SOL    HW2 1638   6.127   1.599   3.375
  247SOL     OW 1639   2.013   1.105   0.901
  247SOL    HW1 1640   1.950   1.108   0.824
  247SOL    HW2 1641   2.010   1.193   0.949
  248SOL     OW 1642   1.632   1.369   1.946
  248SOL    HW1 1643   1.727   1.400   1.946
  248SOL    HW2 1644   1.574   1.438   1.989
  249SOL     OW 1645   5.773   6.651   4.927
  249SOL    HW1 1646   5.805   6.607   5.011
  249SOL    HW2 1647   5.711   6.726   4.950
  250SOL     OW 1648   3.041   2.633   1.043
  250SOL    HW1 1649   3.087   2.593   0.963
  250SOL    HW2 1650   3.051   2.571   1.121
  251SOL     OW 1651   4.308   3.780   5.864
  251SOL    HW1 1652   4.304   3.835   5.948
  251SOL    HW2 1653   4.247   3.820   5.796
  252SOL     OW 1654   6.178   6.296   5.646
  252SOL    HW1 1655   6.079   6.304   5.658
  252SOL    HW2 1656   6.204   6.200   5.649
  253SOL     OW 1657   4.509   5.434   6.007
  253SOL    HW1 1658   4.555   5.426   5.919
  253SOL    HW2 1659   4.565   5.489   6.070
  254SOL     OW 1660   5.975   2.762   4.480
  254SOL    HW1 1661   5.909   2.689   4.497
  254SOL    HW2 1662   6.020   2.786   4.566
  255SOL     OW 1663   2.052   4.528   5.756
  255SOL    HW1 1664   2.043   4.477   5.842
  255SOL    HW2 1665   2.045   4.466   5.679
  256SOL     OW 1666   5.017   3.172   5.307
  256SOL    HW1 1667   4.987   3.190   5.401
  256SOL    HW2 1668   5.083   3.242   5.280
  257SOL     OW 1669   4.881   5.929   2.981
  257SOL    HW1 1670   4.969   5.884   2.969
  257SOL    HW2 1671   4.893   6.028   2.975
  258SOL     OW 1672   2.264   3.990   6.007
  258SOL    HW1 1673   2.307   3.901   5.993
  258SOL    HW2 1674   2.191   4.003   5.940
  259SOL     OW 1675   3.875   0.192   2.915
  259SOL    HW1 1676   3.858   0.131   2.838
  259SOL    HW2 1677   3.949   0.256   2.891
  260SOL     OW 1678   4.078   5.607   3.175
  260SOL    HW1 1679   4.103   5.598   3.271
  260SOL    HW2 1680   4.036   5.521   3.144
  261SOL     OW 1681   4.628   5.036   0.484
  261SOL    HW1 1682   4.696   4.973   0.521
  261SOL    HW2 1683   4.551   5.043   0.548
  262SOL     OW 1684   2.070   4.434   0.201
  262SOL    HW1 1685   2.112   4.363   0.144
  262SOL    HW2 1686   2.070   4.403   0.297
  263SOL     OW 1687   1.229   6.561   4.081
  263SOL    HW1 1688   1.263   6.467   4.077
  263SOL    HW2 1689   1.302   6.625   4.058
  264SOL     OW 1690   6.941   3.222   6.773
  264SOL    HW1 1691   0.017   3.225   6.805
  264SOL    HW2 1692   6.902   3.132   6.794
  265SOL     OW 1693   6.190   0.298   4.214
  265SOL    HW1 1694   6.213   0.396   4.215
  265SOL    HW2 1695   6.171   0.269   4.120
  266SOL     OW 1696   4.276   1.669   5.688
  266SOL    HW1 1697   4.263   1.764   5.661
  266SOL    HW2 1698   4.273   1.662   5.788
  267SOL     OW 1699   1.350   0.505   5.384
  267SOL    HW1 1700   1.449   0.515   5.373
  267SOL    HW2 1701   1.323   0.540   5.473
  268SOL     OW 1702   3.720   1.145   1.108
  268SOL    HW1 1703   3.719   1.045   1.102
  268SOL    HW2 1704   3.811   1.176   1.135
  269SOL     OW 1705   3.995   2.143   7.017
  269SOL    HW1 1706   4.002   2.239   0.028
  269SOL    HW2 1707   4.087   2.107   7.000
  270SOL     OW 1708   6.811   6.893   0.108
  270SOL    HW1 1709   6.803   6.980   0.060
  270SOL    HW2 1710   6.880   6.836   0.063
  271SOL     OW 1711   0.116   2.605   6.109
  271SOL    HW1 1712   0.118   2.546   6.028
  271SOL    HW2 1713   0.183   2.678   6.098
  272SOL     OW 1714   3.184   6.213   3.657
  272SOL    HW1 1715   3.274   6.191   3.619
  272SOL    HW2 1716   3.175   6.170   3.747
  273SOL     OW 1717   2.146   5.210   5.320
  273SOL    HW1 1718   2.143   5.244   5.414
  273SOL    HW2 1719   2.241   5.190   5.295
  274SOL     OW 1720   4.243   0.771   4.062
  274SOL    HW1 1721   4.284   0.741   4.148
  274SOL    HW2 1722   4.280   0.861   4.038
  275SOL     OW 1723   0.024   6.597   2.803
  275SOL    HW1 1724   0.072   6.545   2.733
  275SOL    HW2 1725   0.031   6.550   2.891
  276SOL     OW 1726   0.149   0.359   4.567
  276SOL    HW1 1727   0.117   0.402   4.483
  276SOL    HW2 1728   0.161   0.429   4.638
  277SOL     OW 1729   1.950   3.215   0.724
  277SOL    HW1 1730   1.879   3.237   0.658
  277SOL    HW2 1731   1.968   3.117   0.722
  278SOL     OW 1732   0.474   2.623   2.474
  278SOL    HW1 1733   0.475   2.624   2.374
  278SOL    HW2 1734   0.521   2.704   2.509
  279SOL     OW 1735   5.849   2.815   4.244
  279SOL    HW1 1736   5.903   2.794   4.325
  279SOL    HW2 1737   5.861   2.912   4.220
  280SOL     OW 1738   1.865   4.425   2.133
  280SOL    HW1 1739   1.875   4.469   2.044
  280SOL    HW2 1740   1.950   4.379   2.158
  281SOL     OW 1741   2.128   3.632   0.678
  281SOL    HW1 1742   2.214   3.682   0.684
  281SOL    HW2 1743   2.138   3.544   0.724
  282SOL     OW 1744   3.472   1.845   6.206
  282SOL    HW1 1745   3.441   1.831   6.112
  282SOL    HW2 1746   3.402   1.894   6.257
  283SOL     OW 1747   5.072   2.761   6.196
  283SOL    HW1 1748   4.988   2.713   6.171
  283SOL    HW2 1749   5.147   2.696   6.203
  284SOL     OW 1750   0.670   3.522   3.996
  284SOL    HW1 1751   0.596   3.456   4.011
  284SOL    HW2 1752   0.635   3.615   4.011
  285SOL     OW 1753   5.632   4.384   4.030
  285SOL    HW1 1754   5.593   4.314   4.089
  285SOL    HW2 1755   5.679   4.452   4.086
  286SOL     OW 1756   3.742   3.674   6.957
  286SOL    HW1 1757   3.646   3.690   6.980
  286SOL    HW2 1758   3.796   3.754   6.983
  287SOL     OW 1759   1.962   3.769   0.500
  287SOL    HW1 1760   2.013   3.710   0.562
  287SOL    HW2 1761   2.013   3.854   0.486
  288SOL     OW 1762   5.012   1.814   6.933
  288SOL    HW1 1763   4.918   1.841   6.911
  288SOL    HW2 1764   5.069   1.821   6.852
  289SOL     OW 1765   2.769   4.919   6.219
  289SOL    HW1 1766   2.813   4.848   6.164
  289SOL    HW2 1767   2.737   4.880   6.305
  290SOL     OW 1768   0.072   2.096   5.788
  290SOL    HW1 1769   0.077   2.152   5.705
  290SOL    HW2 1770   0.165   2.070   5.816
  291SOL     OW 1771   6.687   2.242   2.568
  291SOL    HW1 1772   6.731   2.178   2.505
  291SOL    HW2 1773   6.700   2.211   2.662
  292SOL     OW 1774   1.783   0.421   3.317
  292SOL    HW1 1775   1.753   0.513   3.340
  292SOL    HW2 1776   1.800   0.414   3.219
  293SOL     OW 1777   3.883   5.185   3.926
  293SOL    HW1 1778   3.823   5.262   3.904
  293SOL    HW2 1779   3.835   5.099   3.908
  294SOL     OW 1780   4.610   6.086   6.774
  294SOL    HW1 1781   4.535   6.098   6.709
  294SOL    HW2 1782   4.687   6.143   6.746
  295SOL     OW 1783   5.267   0.503   4.450
  295SOL    HW1 1784   5.320   0.422   4.475
  295SOL    HW2 1785   5.291   0.578   4.511
  296SOL     OW 1786   3.078   2.169   3.837
  296SOL    HW1 1787   2.997   2.212   3.799
  296SOL    HW2 1788   3.053   2.115   3.918
  297SOL     OW 1789   1.381   4.242   2.983
  297SOL    HW1 1790   1.307   4.265   2.920
  297SOL    HW2 1791   1.384   4.308   3.057
  298SOL     OW 1792   6.450   5.051   1.115
  298SOL    HW1 1793   6.546   5.027   1.100
  298SOL    HW2 1794   6.419   5.112   1.042
  299SOL     OW 1795   6.697   2.468   4.478
  299SOL    HW1 1796   6.787   2.460   4.521
  299SOL    HW2 1797   6.662   2.377   4.456
  300SOL     OW 1798   6.066   0.193   2.996
  300SOL    HW1 1799   6.123   0.275   2.988
  300SOL    HW2 1800   6.016   0.178   2.911
  301SOL     OW 1801   5.381   3.985   6.087
  301SOL    HW1 1802   5.295   3.963   6.040
  301SOL    HW2 1803   5.433   3.901   6.101
  302SOL     OW 1804   0.435   6.821   3.573
  302SOL    HW1 1805   0.427   6.732   3.528
  302SOL    HW2 1806   0.412   6.893   3.509
  303SOL     OW 1807   5.287   0.712   3.811
  303SOL    HW1 1808   5.363   0.649   3.792
  303SOL    HW2 1809   5.288   0.738   3.908
  304SOL     OW 1810   2.722   6.996   3.383
  304SOL    HW1 1811   2.629   0.015   3.390
  304SOL    HW2 1812   2.738   6.965   3.289
  305SOL     OW 1813   1.366   3.604   1.239
  305SOL    HW1 1814   1.287   3.658   1.268
  305SOL    HW2 1815   1.344   3.556   1.154
  306SOL     OW 1816   1.835   0.497   3.618
  306SOL    HW1 1817   1.830   0.581   3.564
  306SOL    HW2 1818   1.798   0.421   3.564
  307SOL     OW 1819   3.630   0.195   1.287
  307SOL    HW1 1820   3.703   0.137   1.323
  307SOL    HW2 1821   3.546   0.179   1.338
  308SOL     OW 1822   0.640   5.421   3.924
  308SOL    HW1 1823   0.608   5.500   3.871
  308SOL    HW2 1824   0.736   5.402   3.901
  309SOL     OW 1825   4.069   5.256   5.075
  309SOL    HW1 1826   4.010   5.324   5.117
  309SOL    HW2 1827   4.114   5.296   4.995
  310SOL     OW 1828   0.430   6.600   5.996
  310SOL    HW1 1829   0.512   6.586   6.053
  310SOL    HW2 1830   0.419   6.697   5.977
  311SOL     OW 1831   0.662   0.199   1.082
  311SOL    HW1 1832   0.649   0.271   1.151
  311SOL    HW2 1833   0.607   0.119   1.107
  312SOL     OW 1834   4.457   1.917   4.835
  312SOL    HW1 1835   4.453   1.916   4.735
  312SOL    HW2 1836   4.375   1.874   4.871
  313SOL     OW 1837   1.347   3.947   1.307
  313SOL    HW1 1838   1.410   3.873   1.330
  313SOL    HW2 1839   1.313   3.989   1.391
  314SOL     OW 1840   4.008   6.472   0.765
  314SOL    HW1 1841   4.047   6.521   0.687
  314SOL    HW2 1842   3.913   6.501   0.778
  315SOL     OW 1843   0.638   2.697   3.085
  315SOL    HW1 1844   0.574   2.655   3.020
  315SOL    HW2 1845   0.595   2.705   3.174
  316SOL     OW 1846   3.043   2.195   4.265
  316SOL    HW1 1847   3.015   2.099   4.256
  316SOL    HW2 1848   3.072   2.212   4.359
  317SOL     OW 1849   0.109   1.876   6.725
  317SOL    HW1 1850   0.015   1.910   6.728
  317SOL    HW2 1851   0.169   1.947   6.687
  318SOL     OW 1852   2.509   4.802   0.700
  318SOL    HW1 1853   2.552   4.791   0.610
  318SOL    HW2 1854   2.577   4.783   0.771
  319SOL     OW 1855   1.460   6.373   0.544
  319SOL    HW1 1856   1.481   6.391   0.641
  319SOL    HW2 1857   1.433   6.458   0.499
  320SOL     OW 1858   5.722   3.464   0.646
  320SOL    HW1 1859   5.747   3.429   0.556
  320SOL    HW2 1860   5.786   3.429   0.715
  321SOL     OW 1861   1.937   1.952   0.691
  321SOL    HW1 1862   2.033   1.981   0.688
  321SOL    HW2 1863   1.904   1.937   0.598
  322SOL     OW 1864   3.552   2.855   4.885
  322SOL    HW1 1865   3.568   2.879   4.789
  322SOL    HW2 1866   3.634   2.810   4.922
  323SOL     OW 1867   0.804   4.398   1.718
  323SOL    HW1 1868   0.774   4.467   1.652
  323SOL    HW2 1869   0.841   4.442   1.799
  324SOL     OW 1870   0.617   2.986   4.749
  324SOL    HW1 1871   0.672   2.972   4.832
  324SOL    HW2 1872   0.645   2.920   4.679
  325SOL     OW 1873   2.248   2.898   2.428
  325SOL    HW1 1874   2.246   2.861   2.522
  325SOL    HW2 1875   2.333   2.870   2.383
  326SOL     OW 1876   1.884   5.079   6.126
  326SOL    HW1 1877   1.960   5.056   6.066
  326SOL    HW2 1878   1.854   4.997   6.175
  327SOL     OW 1879   6.288   5.199   5.260
  327SOL    HW1 1880   6.345   5.233   5.185
  327SOL    HW2 1881   6.322   5.110   5.290
  328SOL     OW 1882   3.079   5.887   2.328
  328SOL    HW1 1883   3.065   5.833   2.246
  328SOL    HW2 1884   3.083   5.827   2.408
  329SOL     OW 1885   3.344   3.363   2.895
  329SOL    HW1 1886   3.421   3.389   2.952
  329SOL    HW2 1887   3.308   3.445   2.848
  330SOL     OW 1888   3.480   0.869   2.019
  330SOL    HW1 1889   3.474   0.825   2.108
  330SOL    HW2 1890   3.540   0.948   2.025
  331SOL     OW 1891   5.028   5.100   6.060
  331SOL    HW1 1892   4.941   5.073   6.018
  331SOL    HW2 1893   5.095   5.118   5.989
  332SOL     OW 1894   3.940   1.807   2.887
  332SOL    HW1 1895   3.868   1.742   2.864
  332SOL    HW2 1896   3.923   1.894   2.841
  333SOL     OW 1897   3.779   6.278   6.494
  333SOL    HW1 1898   3.768   6.375   6.470
  333SOL    HW2 1899   3.876   6.253   6.487
  334SOL     OW 1900   4.208   0.025   2.724
  334SOL    HW1 1901   4.256   6.983   2.661
  334SOL    HW2 1902   4.129   0.065   2.678
  335SOL     OW 1903   2.909   6.983   3.575
  335SOL    HW1 1904   2.940   0.052   3.614
  335SOL    HW2 1905   2.843   7.000   3.503
  336SOL     OW 1906   3.046   0.808   4.082
  336SOL    HW1 1907   3.099   0.853   4.154
  336SOL    HW2 1908   2.953   0.844   4.083
  337SOL     OW 1909   6.580   4.187   1.314
  337SOL    HW1 1910   6.482   4.176   1.329
  337SOL    HW2 1911   6.626   4.204   1.402
  338SOL     OW 1912   3.321   2.561   1.430
  338SOL    HW1 1913   3.361   2.531   1.344
  338SOL    HW2 1914   3.368   2.643   1.463
  339SOL     OW 1915   4.090   6.784   3.112
  339SOL    HW1 1916   4.096   6.834   3.199
  339SOL    HW2 1917   4.137   6.836   3.041
  340SOL     OW 1918   4.770   4.108   4.415
  340SOL    HW1 1919   4.791   4.034   4.480
  340SOL    HW2 1920   4.747   4.068   4.326
  341SOL     OW 1921   5.231   5.266   4.636
  341SOL    HW1 1922   5.274   5.275   4.726
  341SOL    HW2 1923   5.187   5.176   4.630
  342SOL     OW 1924   6.238   4.218   0.729
  342SOL    HW1 1925   6.181   4.272   0.791
  342SOL    HW2 1926   6.300   4.161   0.783
  343SOL     OW 1927   3.080   0.483   2.659
  343SOL    HW1 1928   3.116   0.392   2.639
  343SOL    HW2 1929   3.031   0.518   2.579
  344SOL     OW 1930   3.127   5.393   0.241
  344SOL    HW1 1931   3.210   5.408   0.295
  344SOL    HW2 1932   3.047   5.392   0.302
  345SOL     OW 1933   0.570   6.789   5.210
  345SOL    HW1 1934   0.641   6.849   5.248
  345SOL    HW2 1935   0.613   6.722   5.149
  346SOL     OW 1936   1.233   0.035   3.172
  346SOL    HW1 1937   1.134   0.042   3.180
  346SOL    HW2 1938   1.261   6.958   3.187
  347SOL     OW 1939   5.148   6.193   6.522
  347SOL    HW1 1940   5.234   6.243   6.533
  347SOL    HW2 1941   5.139   6.125   6.595
  348SOL     OW 1942   3.463   5.648   1.912
  348SOL    HW1 1943   3.528   5.576   1.887
  348SOL    HW2 1944   3.509   5.736   1.915
  349SOL     OW 1945   1.520   5.120   2.222
  349SOL    HW1 1946   1.438   5.162   2.183
  349SOL    HW2 1947   1.601   5.174   2.196
  350SOL     OW 1948   4.811   2.786   1.124
  350SOL    HW1 1949   4.887   2.849   1.140
  350SOL    HW2 1950   4.820   2.706   1.183
  351SOL     OW 1951   3.758   2.074   0.491
  351SOL    HW1 1952   3.767   2.081   0.392
  351SOL    HW2 1953   3.665   2.043   0.514
  352SOL     OW 1954   2.791   0.909   6.439
  352SOL    HW1 1955   2.752   0.844   6.504
  352SOL    HW2 1956   2.766   1.002   6.467
  353SOL     OW 1957   2.296   6.596   1.316
  353SOL    HW1 1958   2.389   6.633   1.320
  353SOL    HW2 1959   2.261   6.583   1.409
  354SOL     OW 1960   4.734   1.207   1.751
  354SOL    HW1 1961   4.808   1.142   1.737
  354SOL    HW2 1962   4.718   1.258   1.666
  355SOL     OW 1963   0.822   2.319   1.881
  355SOL    HW1 1964   0.794   2.224   1.870
  355SOL    HW2 1965   0.799   2.350   1.973
  356SOL     OW 1966   4.260   5.487   3.597
  356SOL    HW1 1967   4.315   5.537   3.664
  356SOL    HW2 1968   4.251   5.392   3.625
  357SOL     OW 1969   0.491   5.221   5.154
  357SOL    HW1 1970   0.406   5.260   5.117
  357SOL    HW2 1971   0.567   5.280   5.132
  358SOL     OW 1972   5.692   0.686   1.624
  358SOL    HW1 1973   5.713   0.703   1.527
  358SOL    HW2 1974   5.767   0.635   1.666
  359SOL     OW 1975   0.815   1.287   2.003
  359SOL    HW1 1976   0.859   1.350   2.067
  359SOL    HW2 1977   0.778   1.209   2.053
  360SOL     OW 1978   4.155   6.571   0.555
  360SOL    HW1 1979   4.246   6.555   0.594
  360SOL    HW2 1980   4.146   6.667   0.528
  361SOL     OW 1981   4.624   0.353   2.769
  361SOL    HW1 1982   4.591   0.424   2.830
  361SOL    HW2 1983   4.550   0.325   2.707
  362SOL     OW 1984   2.654   3.263   0.838
  362SOL    HW1 1985   2.652   3.267   0.938
  362SOL    HW2 1986   2.737   3.308   0.805
  363SOL     OW 1987   4.460   5.162   4.291
  363SOL    HW1 1988   4.500   5.223   4.360
  363SOL    HW2 1989   4.514   5.167   4.207
  364SOL     OW 1990   1.642   5.418   5.825
  364SOL    HW1 1991   1.681   5.510   5.822
  364SOL    HW2 1992   1.712   5.353   5.855
  365SOL     OW 1993   4.616   6.137   2.786
  365SOL    HW1 1994   4.712   6.155   2.809
  365SOL    HW2 1995   4.597   6.174   2.695
  366SOL     OW 1996   5.934   0.238   6.960
  366SOL    HW1 1997   5.956   0.329   6.996
  366SOL    HW2 1998   5.857   0.200   7.012
  367SOL     OW 1999   5.143   2.826   0.845
  367SOL    HW1 2000   5.062   2.872   0.807
  367SOL    HW2 2001   5.207   2.894   0.879
  368SOL     OW 2002   0.978   4.852   5.168
  368SOL    HW1 2003   1.018   4.887   5.252
  368SOL    HW2 2004   1.048   4.846   5.097
  369SOL     OW 2005   1.135   3.930   2.016
  369SOL    HW1 2006   1.093   3.987   1.946
  369SOL    HW2 2007   1.219   3.974   2.050
  370SOL     OW 2008   3.852   1.024   6.416
  370SOL    HW1 2009   3.783   0.952   6.422
  370SOL    HW2 2010   3.900   1.017   6.328
  371SOL     OW 2011   4.265   2.942   6.454
  371SOL    HW1 2012   4.344   3.003   6.466
  371SOL    HW2 2013   4.268   2.901   6.363
  372SOL     OW 2014   1.410   5.729   5.821
  372SOL    HW1 2015   1.384   5.718   5.917
  372SOL    HW2 2016   1.388   5.646   5.771
  373SOL     OW 2017   0.037   6.721   0.382
  373SOL    HW1 2018   6.963   6.754   0.401
  373SOL    HW2 2019   0.064   6.654   0.451
  374SOL     OW 2020   3.461   0.858   1.726
  374SOL    HW1 2021   3.503   0.877   1.815
  374SOL    HW2 2022   3.455   0.943   1.673
  375SOL     OW 2023   0.146   4.628   2.764
  375SOL    HW1 2024   0.240   4.605   2.738
  375SOL    HW2 2025   0.147   4.705   2.828
  376SOL     OW 2026   2.009   2.255   4.004
  376SOL    HW1 2027   2.027   2.161   3.975
  376SOL    HW2 2028   1.988   2.311   3.924
  377SOL     OW 2029   4.967   1.920   3.719
  377SOL    HW1 2030   4.888   1.862   3.740
  377SOL    HW2 2031   5.047   1.862   3.702
  378SOL     OW 2032   5.058   2.499   4.482
  378SOL    HW1 2033   4.967   2.457   4.482
  378SOL    HW2 2034   5.107   2.474   4.565
  379SOL     OW 2035   6.612   3.361   1.138
  379SOL    HW1 2036   6.619   3.305   1.056
  379SOL    HW2 2037   6.600   3.457   1.112
  380SOL     OW 2038   1.143   2.003   0.269
  380SOL    HW1 2039   1.171   2.024   0.363
  380SOL    HW2 2040   1.141   1.904   0.256
  381SOL     OW 2041   3.300   3.811   0.253
  381SOL    HW1 2042   3.224   3.774   0.201
  381SOL    HW2 2043   3.267   3.849   0.340
  382SOL     OW 2044   2.634   5.664   0.599
  382SOL    HW1 2045   2.733   5.668   0.606
  382SOL    HW2 2046   2.607   5.660   0.502
  383SOL     OW 2047   6.089   2.637   6.979
  383SOL    HW1 2048   6.082   2.554   6.924
  383SOL    HW2 2049   6.153   2.700   6.935
  384SOL     OW 2050   2.214   5.800   4.962
  384SOL    HW1 2051   2.266   5.885   4.952
  384SOL    HW2 2052   2.150   5.791   4.887
  385SOL     OW 2053   5.228   5.426   0.985
  385SOL    HW1 2054   5.143   5.476   0.999
  385SOL    HW2 2055   5.306   5.488   0.992
  386SOL     OW 2056   3.431   6.296   5.380
  386SOL    HW1 2057   3.389   6.327   5.465
  386SOL    HW2 2058   3.521   6.257   5.399
  387SOL     OW 2059   0.220   0.305   5.612
  387SOL    HW1 2060   0.299   0.346   5.566
  387SOL    HW2 2061   0.138   0.321   5.556
  388SOL     OW 2062   0.158   2.038   5.389
  388SOL    HW1 2063   0.077   1.992   5.352
  388SOL    HW2 2064   0.229   1.970   5.407
  389SOL     OW 2065   4.154   4.555   1.678
  389SOL    HW1 2066   4.211   4.569   1.759
  389SOL    HW2 2067   4.143   4.457   1.662
  390SOL     OW 2068   4.251   2.300   0.380
  390SOL    HW1 2069   4.165   2.351   0.392
  390SOL    HW2 2070   4.305   2.343   0.308
  391SOL     OW 2071   3.631   4.206   4.464
  391SOL    HW1 2072   3.686   4.284   4.433
  391SOL    HW2 2073   3.689   4.125   4.471
  392SOL     OW 2074   1.427   3.790   1.548
  392SOL    HW1 2075   1.503   3.727   1.534
  392SOL    HW2 2076   1.402   3.791   1.644
  393SOL     OW 2077   1.418   4.605   1.330
  393SOL    HW1 2078   1.418   4.510   1.361
  393SOL    HW2 2079   1.512   4.637   1.319
  394SOL     OW 2080   6.487   1.297   6.481
  394SOL    HW1 2081   6.583   1.313   6.504
  394SOL    HW2 2082   6.478   1.286   6.382
  395SOL     OW 2083   5.589   4.955   1.038
  395SOL    HW1 2084   5.523   4.882   1.020
  395SOL    HW2 2085   5.651   4.927   1.111
  396SOL     OW 2086   1.600   0.361   1.382
  396SOL    HW1 2087   1.504   0.371   1.409
  396SOL    HW2 2088   1.631   0.446   1.339
  397SOL     OW 2089   4.132   2.207   5.534
  397SOL    HW1 2090   4.120   2.303   5.560
  397SOL    HW2 2091   4.044   2.160   5.540
  398SOL     OW 2092   1.411   1.108   3.691
  398SOL    HW1 2093   1.503   1.130   3.658
  398SOL    HW2 2094   1.415   1.092   3.790
  399SOL     OW 2095   5.463   6.073   4.078
  399SOL    HW1 2096   5.448   6.151   4.017
  399SOL    HW2 2097   5.557   6.075   4.112
  400SOL     OW 2098   5.785   0.342   4.195
  400SOL    HW1 2099   5.813   0.321   4.289
  400SOL    HW2 2100   5.820   0.431   4.168
  401SOL     OW 2101   0.429   5.480   5.793
  401SOL    HW1 2102   0.394   5.556   5.848
  401SOL    HW2 2103   0.352   5.427   5.757
  402SOL     OW 2104   5.893   1.629   3.700
  402SOL    HW1 2105   5.903   1.665   3.607
  402SOL    HW2 2106   5.799   1.598   3.715
  403SOL     OW 2107   3.158   1.206   5.266
  403SOL    HW1 2108   3.068   1.223   5.227
  403SOL    HW2 2109   3.156   1.224   5.365
  404SOL     OW 2110   3.639   5.220   3.439
  404SOL    HW1 2111   3.554   5.171   3.420
  404SOL    HW2 2112   3.704   5.159   3.484
  405SOL     OW 2113   2.090   4.894   4.278
  405SOL    HW1 2114   2.137   4.827   4.222
  405SOL    HW2 2115   2.116   4.986   4.249
  406SOL     OW 2116   0.135   6.469   5.860
  406SOL    HW1 2117   0.229   6.441   5.841
  406SOL    HW2 2118   0.114   6.455   5.956
  407SOL     OW 2119   2.136   2.928   4.443
  407SOL    HW1 2120   2.161   2.924   4.540
  407SOL    HW2 2121   2.174   3.011   4.403
  408SOL     OW 2122   1.982   1.253   3.314
  408SOL    HW1 2123   1.997   1.226   3.409
  408SOL    HW2 2124   2.041   1.330   3.292
  409SOL     OW 2125   0.343   3.641   2.705
  409SOL    HW1 2126   0.270   3.575   2.726
  409SOL    HW2 2127   0.333   3.673   2.611
  410SOL     OW 2128   1.544   1.558   1.338
  410SOL    HW1 2129   1.509   1.466   1.356
  410SOL    HW2 2130   1.564   1.568   1.241
  411SOL     OW 2131   6.863   2.547   1.719
  411SOL    HW1 2132   6.906   2.625   1.674
  411SOL    HW2 2133   6.857   2.471   1.655
  412SOL     OW 2134   1.385   4.859   2.444
  412SOL    HW1 2135   1.464   4.815   2.402
  412SOL    HW2 2136   1.332   4.907   2.375
  413SOL     OW 2137   5.995   6.252   2.390
  413SOL    HW1 2138   6.001   6.242   2.291
  413SOL    HW2 2139   5.901   6.272   2.416
  414SOL     OW 2140   2.027   6.684   2.724
  414SOL    HW1 2141   1.971   6.728   2.654
  414SOL    HW2 2142   2.052   6.592   2.693
  415SOL     OW 2143   6.155   1.002   0.268
  415SOL    HW1 2144   6.221   0.928   0.285
  415SOL    HW2 2145   6.197   1.071   0.209
  416SOL     OW 2146   5.722   3.664   5.564
  416SOL    HW1 2147   5.727   3.739   5.497
  416SOL    HW2 2148   5.675   3.586   5.523
  417SOL     OW 2149   1.784   2.053   6.280
  417SOL    HW1 2150   1.746   2.020   6.367
  417SOL    HW2 2151   1.724   2.026   6.205
  418SOL     OW 2152   3.731   0.061   4.432
  418SOL    HW1 2153   3.709   0.040   4.337
  418SOL    HW2 2154   3.807   0.126   4.435
  419SOL     OW 2155   6.998   0.135   0.567
  419SOL    HW1 2156   6.940   0.167   0.492
  419SOL    HW2 2157   0.059   0.086   0.529
  420SOL     OW 2158   3.938   0.561   0.085
  420SOL    HW1 2159   4.004   0.601   0.149
  420SOL    HW2 2160   3.982   0.548   7.014
  421SOL     OW 2161   4.776   4.186   2.174
  421SOL    HW1 2162   4.708   4.184   2.100
  421SOL    HW2 2163   4.851   4.247   2.149
  422SOL     OW 2164   5.552   3.100   1.651
  422SOL    HW1 2165   5.629   3.059   1.602
  422SOL    HW2 2166   5.483   3.130   1.587
  423SOL     OW 2167   3.297   0.597   6.154
  423SOL    HW1 2168   3.306   0.622   6.057
  423SOL    HW2 2169   3.286   0.680   6.209
  424SOL     OW 2170   1.168   3.556   3.905
  424SOL    HW1 2171   1.167   3.580   3.808
  424SOL    HW2 2172   1.213   3.629   3.957
  425SOL     OW 2173   3.175   1.017   6.817
  425SOL    HW1 2174   3.199   0.921   6.829
  425SOL    HW2 2175   3.176   1.063   6.906
  426SOL     OW 2176   2.600   1.928   4.374
  426SOL    HW1 2177   2.599   2.022   4.409
  426SOL    HW2 2178   2.679   1.915   4.315
  427SOL     OW 2179   4.451   2.179   3.050
  427SOL    HW1 2180   4.352   2.196   3.051
  427SOL    HW2 2181   4.468   2.081   3.050
  428SOL     OW 2182   2.688   2.295   6.158
  428SOL    HW1 2183   2.772   2.336   6.126
  428SOL    HW2 2184   2.612   2.360   6.147
  429SOL     OW 2185   6.571   5.331   4.153
  429SOL    HW1 2186   6.536   5.411   4.105
  429SOL    HW2 2187   6.495   5.281   4.193
  430SOL     OW 2188   1.607   6.969   3.883
  430SOL    HW1 2189   1.617   6.998   3.978
  430SOL    HW2 2190   1.690   6.922   3.853
  431SOL     OW 2191   2.267   1.846   1.799
  431SOL    HW1 2192   2.344   1.888   1.751
  431SOL    HW2 2193   2.182   1.894   1.775
  432SOL     OW 2194   4.913   2.008   1.254
  432SOL    HW1 2195   4.879   2.075   1.320
  432SOL    HW2 2196   4.836   1.964   1.208
  433SOL     OW 2197   1.641   4.692   0.845
  433SOL    HW1 2198   1.564   4.692   0.782
  433SOL    HW2 2199   1.694   4.608   0.835
  434SOL     OW 2200   5.161   5.085   3.561
  434SOL    HW1 2201   5.122   5.042   3.480
  434SOL    HW2 2202   5.088   5.109   3.625
  435SOL     OW 2203   3.443   2.395   5.766
  435SOL    HW1 2204   3.446   2.373   5.863
  435SOL    HW2 2205   3.409   2.316   5.715
  436SOL     OW 2206   4.857   6.857   2.862
  436SOL    HW1 2207   4.894   6.950   2.861
  436SOL    HW2 2208   4.932   6.792   2.873
  437SOL     OW 2209   6.498   0.493   4.942
  437SOL    HW1 2210   6.465   0.548   4.865
  437SOL    HW2 2211   6.441   0.509   5.022
  438SOL     OW 2212   0.752   4.984   2.424
  438SOL    HW1 2213   0.713   5.064   2.378
  438SOL    HW2 2214   0.846   5.004   2.452
  439SOL     OW 2215   6.939   0.791   4.730
  439SOL    HW1 2216   6.854   0.789   4.783
  439SOL    HW2 2217   6.948   0.881   4.687
  440SOL     OW 2218   4.294   1.216   0.527
  440SOL    HW1 2219   4.368   1.177   0.472
  440SOL    HW2 2220   4.254   1.294   0.478
  441SOL     OW 2221   0.618   4.735   2.445
  441SOL    HW1 2222   0.554   4.740   2.368
  441SOL    HW2 2223   0.653   4.826   2.465
  442SOL     OW 2224   5.262   2.872   5.594
  442SOL    HW1 2225   5.250   2.823   5.508
  442SOL    HW2 2226   5.237   2.968   5.582
  443SOL     OW 2227   5.208   3.145   1.922
  443SOL    HW1 2228   5.246   3.052   1.931
  443SOL    HW2 2229   5.125   3.141   1.866
  444SOL     OW 2230   4.531   1.595   1.833
  444SOL    HW1 2231   4.602   1.617   1.900
  444SOL    HW2 2232   4.573   1.557   1.751
  445SOL     OW 2233   1.618   5.075   2.485
  445SOL    HW1 2234   1.563   5.035   2.558
  445SOL    HW2 2235   1.570   5.066   2.398
  446SOL     OW 2236   5.635   7.015   1.572
  446SOL    HW1 2237   5.721   6.965   1.583
  446SOL    HW2 2238   5.654   0.087   1.532
  447SOL     OW 2239   5.897   4.633   1.025
  447SOL    HW1 2240   5.991   4.666   1.035
  447SOL    HW2 2241   5.865   4.650   0.932
  448SOL     OW 2242   3.158   6.707   3.855
  448SOL    HW1 2243   3.256   6.726   3.843
  448SOL    HW2 2244   3.130   6.636   3.790
  449SOL     OW 2245   1.567   3.775   4.787
  449SOL    HW1 2246   1.608   3.699   4.837
  449SOL    HW2 2247   1.551   3.747   4.692
  450SOL     OW 2248   6.991   4.673   3.270
  450SOL    HW1 2249   7.010   4.575   3.280
  450SOL    HW2 2250   6.953   4.708   3.356
  451SOL     OW 2251   0.791   1.922   0.917
  451SOL    HW1 2252   0.717   1.862   0.887
  451SOL    HW2 2253   0.847   1.875   0.985
  452SOL     OW 2254   5.174   5.441   2.782
  452SOL    HW1 2255   5.181   5.343   2.766
  452SOL    HW2 2256   5.165   5.489   2.694
  453SOL     OW 2257   3.277   0.772   6.792
  453SOL    HW1 2258   3.231   0.700   6.843
  453SOL    HW2 2259   3.309   0.737   6.705
  454SOL     OW 2260   6.612   3.478   6.004
  454SOL    HW1 2261   6.524   3.491   6.051
  454SOL    HW2 2262   6.677   3.546   6.037
  455SOL     OW 2263   5.314   4.886   5.635
  455SOL    HW1 2264   5.234   4.828   5.620
  455SOL    HW2 2265   5.393   4.846   5.591
  456SOL     OW 2266   2.611   1.187   2.558
  456SOL    HW1 2267   2.570   1.251   2.493
  456SOL    HW2 2268   2.700   1.157   2.523
  457SOL     OW 2269   2.649   6.547   0.335
  457SOL    HW1 2270   2.567   6.594   0.303
  457SOL    HW2 2271   2.720   6.553   0.265
  458SOL     OW 2272   3.175   1.214   2.800
  458SOL    HW1 2273   3.102   1.157   2.762
  458SOL    HW2 2274   3.169   1.212   2.900
  459SOL     OW 2275   3.148   0.442   3.560
  459SOL    HW1 2276   3.165   0.398   3.472
  459SOL    HW2 2277   3.234   0.460   3.606
  460SOL     OW 2278   0.762   1.919   6.511
  460SOL    HW1 2279   0.853   1.879   6.523
  460SOL    HW2 2280   0.695   1.865   6.562
  461SOL     OW 2281   1.073   5.188   5.609
  461SOL    HW1 2282   1.097   5.098   5.574
  461SOL    HW2 2283   1.097   5.258   5.541
  462SOL     OW 2284   3.808   4.169   4.964
  462SOL    HW1 2285   3.709   4.164   4.954
  462SOL    HW2 2286   3.852   4.157   4.875
  463SOL     OW 2287   5.381   6.349   4.011
  463SOL    HW1 2288   5.344   6.364   3.919
  463SOL    HW2 2289   5.306   6.331   4.075
  464SOL     OW 2290   3.447   5.142   6.608
  464SOL    HW1 2291   3.499   5.152   6.523
  464SOL    HW2 2292   3.350   5.132   6.587
  465SOL     OW 2293   0.590   4.066   1.004
  465SOL    HW1 2294   0.541   3.981   1.022
  465SOL    HW2 2295   0.529   4.130   0.958
  466SOL     OW 2296   3.641   5.224   4.159
  466SOL    HW1 2297   3.556   5.206   4.109
  466SOL    HW2 2298   3.674   5.138   4.199
  467SOL     OW 2299   6.372   0.221   2.514
  467SOL    HW1 2300   6.442   0.285   2.480
  467SOL    HW2 2301   6.413   0.159   2.580
  468SOL     OW 2302   2.894   6.108   6.425
  468SOL    HW1 2303   2.846   6.195   6.411
  468SOL    HW2 2304   2.891   6.053   6.342
  469SOL     OW 2305   3.039   4.898   4.734
  469SOL    HW1 2306   3.029   4.861   4.827
  469SOL    HW2 2307   2.961   4.957   4.714
  470SOL     OW 2308   2.495   4.617   2.624
  470SOL    HW1 2309   2.467   4.521   2.625
  470SOL    HW2 2310   2.414   4.675   2.628
  471SOL     OW 2311   1.472   2.211   4.279
  471SOL    HW1 2312   1.538   2.228   4.352
  471SOL    HW2 2313   1.491   2.271   4.202
  472SOL     OW 2314   5.165   3.519   6.375
  472SOL    HW1 2315   5.088   3.579   6.350
  472SOL    HW2 2316   5.164   3.437   6.318
  473SOL     OW 2317   6.240   2.999   2.214
  473SOL    HW1 2318   6.163   2.971   2.156
  473SOL    HW2 2319   6.311   2.929   2.213
  474SOL     OW 2320   5.110   6.025   4.410
  474SOL    HW1 2321   5.206   6.039   4.385
  474SOL    HW2 2322   5.082   5.932   4.383
  475SOL     OW 2323   5.554   2.092   0.524
  475SOL    HW1 2324   5.485   2.079   0.595
  475SOL    HW2 2325   5.623   2.157   0.556
  476SOL     OW 2326   1.142   3.712   0.244
  476SOL    HW1 2327   1.060   3.717   0.187
  476SOL    HW2 2328   1.140   3.785   0.312
  477SOL     OW 2329   1.856   4.802   3.660
  477SOL    HW1 2330   1.826   4.729   3.720
  477SOL    HW2 2331   1.851   4.889   3.709
  478SOL     OW 2332   5.328   6.324   2.450
  478SOL    HW1 2333   5.250   6.265   2.469
  478SOL    HW2 2334   5.413   6.271   2.455
  479SOL     OW 2335   3.672   4.060   3.299
  479SOL    HW1 2336   3.665   4.044   3.398
  479SOL    HW2 2337   3.764   4.034   3.268
  480SOL     OW 2338   1.033   0.937   2.457
  480SOL    HW1 2339   1.106   0.981   2.509
  480SOL    HW2 2340   0.969   1.006   2.423
  481SOL     OW 2341   0.189   0.220   0.897
  481SOL    HW1 2342   0.151   0.128   0.884
  481SOL    HW2 2343   0.260   0.237   0.829
  482SOL     OW 2344   4.089   4.908   2.253
  482SOL    HW1 2345   4.101   4.852   2.171
  482SOL    HW2 2346   3.997   4.946   2.254
  483SOL     OW 2347   5.703   2.250   4.246
  483SOL    HW1 2348   5.733   2.163   4.207
  483SOL    HW2 2349   5.780   2.295   4.291
  484SOL     OW 2350   2.483   4.559   3.676
  484SOL    HW1 2351   2.412   4.629   3.687
  484SOL    HW2 2352   2.455   4.476   3.724
  485SOL     OW 2353   5.697   2.938   1.443
  485SOL    HW1 2354   5.712   3.036   1.428
  485SOL    HW2 2355   5.782   2.888   1.427
  486SOL     OW 2356   5.788   6.066   6.114
  486SOL    HW1 2357   5.715   6.094   6.177
  486SOL    HW2 2358   5.767   5.976   6.077
  487SOL     OW 2359   0.206   6.837   6.036
  487SOL    HW1 2360   0.178   6.834   6.132
  487SOL    HW2 2361   0.285   6.896   6.026
  488SOL     OW 2362   2.337   5.456   3.382
  488SOL    HW1 2363   2.383   5.542   3.399
  488SOL    HW2 2364   2.349   5.394   3.460
  489SOL     OW 2365   2.144   5.514   5.852
  489SOL    HW1 2366   2.107   5.449   5.785
  489SOL    HW2 2367   2.189   5.589   5.803
  490SOL     OW 2368   0.727   4.232   4.702
  490SOL    HW1 2369   0.638   4.187   4.701
  490SOL    HW2 2370   0.750   4.264   4.610
  491SOL     OW 2371   0.108   2.736   0.659
  491SOL    HW1 2372   0.142   2.777   0.743
  491SOL    HW2 2373   0.010   2.753   0.649
  492SOL     OW 2374   1.316   3.210   5.598
  492SOL    HW1 2375   1.342   3.128   5.649
  492SOL    HW2 2376   1.325   3.291   5.657
  493SOL     OW 2377   1.857   5.116   4.720
  493SOL    HW1 2378   1.906   5.029   4.713
  493SOL    HW2 2379   1.878   5.159   4.808
  494SOL     OW 2380   2.578   6.714   4.247
  494SOL    HW1 2381   2.549   6.654   4.173
  494SOL    HW2 2382   2.508   6.716   4.318
  495SOL     OW 2383   3.973   4.191   6.514
  495SOL    HW1 2384   3.912   4.149   6.581
  495SOL    HW2 2385   3.985   4.129   6.437
  496SOL     OW 2386   5.130   1.725   3.635
  496SOL    HW1 2387   5.137   1.763   3.543
  496SOL    HW2 2388   5.167   1.632   3.636
  497SOL     OW 2389   4.901   1.315   0.188
  497SOL    HW1 2390   4.923   1.334   0.283
  497SOL    HW2 2391   4.932   1.392   0.131
  498SOL     OW 2392   6.885   0.125   1.357
  498SOL    HW1 2393   6.930   0.094   1.273
  498SOL    HW2 2394   6.788   0.141   1.339
  499SOL     OW 2395   2.494   5.882   0.262
  499SOL    HW1 2396   2.522   5.789   0.285
  499SOL    HW2 2397   2.411   5.906   0.311
  500SOL     OW 2398   5.530   1.846   6.783
  500SOL    HW1 2399   5.526   1.871   6.880
  500SOL    HW2 2400   5.535   1.930   6.728
  501SOL     OW 2401   1.277   1.077   4.849
  501SOL    HW1 2402   1.309   1.049   4.758
  501SOL    HW2 2403   1.205   1.014   4.879
  502SOL     OW 2404   2.502   4.412   6.986
  502SOL    HW1 2405   2.590   4.421   0.014
  502SOL    HW2 2406   2.439   4.480   0.004
  503SOL     OW 2407   3.878   5.844   1.197
  503SOL    HW1 2408   3.794   5.826   1.145
  503SOL    HW2 2409   3.949   5.875   1.135
  504SOL     OW 2410   6.593   5.864   1.576
  504SOL    HW1 2411   6.608   5.918   1.659
  504SOL    HW2 2412   6.495   5.852   1.561
  505SOL     OW 2413   5.039   5.791   5.381
  505SOL    HW1 2414   5.077   5.880   5.409
  505SOL    HW2 2415   5.113   5.727   5.365
  506SOL     OW 2416   3.405   5.083   2.928
  506SOL    HW1 2417   3.382   5.060   2.834
  506SOL    HW2 2418   3.367   5.014   2.990
  507SOL     OW 2419   3.034   0.863   1.760
  507SOL    HW1 2420   3.102   0.806   1.806
  507SOL    HW2 2421   3.078   0.914   1.686
  508SOL     OW 2422   0.517   4.518   3.253
  508SOL    HW1 2423   0.516   4.496   3.350
  508SOL    HW2 2424   0.459   4.597   3.236
  509SOL     OW 2425   4.409   6.749   6.173
  509SOL    HW1 2426   4.317   6.709   6.166
  509SOL    HW2 2427   4.472   6.699   6.114
  510SOL     OW 2428   6.408   3.969   0.137
  510SOL    HW1 2429   6.326   4.017   0.106
  510SOL    HW2 2430   6.427   3.994   0.232
  511SOL     OW 2431   0.517   1.784   0.116
  511SOL    HW1 2432   0.451   1.857   0.135
  511SOL    HW2 2433   0.502   1.708   0.179
  512SOL     OW 2434   0.430   2.356   3.892
  512SOL    HW1 2435   0.471   2.446   3.876
  512SOL    HW2 2436   0.433   2.303   3.807
  513SOL     OW 2437   5.063   0.501   3.493
  513SOL    HW1 2438   4.978   0.470   3.534
  513SOL    HW2 2439   5.046   0.534   3.400
  514SOL     OW 2440   5.380   0.845   5.205
  514SOL    HW1 2441   5.431   0.818   5.287
  514SOL    HW2 2442   5.363   0.764   5.149
  515SOL     OW 2443   3.806   0.205   6.185
  515SOL    HW1 2444   3.836   0.131   6.125
  515SOL    HW2 2445   3.883   0.235   6.242
  516SOL     OW 2446   1.845   6.100   2.168
  516SOL    HW1 2447   1.896   6.033   2.221
  516SOL    HW2 2448   1.900   6.133   2.092
  517SOL     OW 2449   2.998   5.526   1.418
  517SOL    HW1 2450   3.064   5.601   1.418
  517SOL    HW2 2451   3.012   5.470   1.499
  518SOL     OW 2452   1.722   4.170   4.440
  518SOL    HW1 2453   1.677   4.146   4.353
  518SOL    HW2 2454   1.654   4.208   4.503
  519SOL     OW 2455   6.991   0.285   2.314
  519SOL    HW1 2456   0.018   0.374   2.318
  519SOL    HW2 2457   0.035   0.218   2.273
  520SOL     OW 2458   2.359   4.082   0.694
  520SOL    HW1 2459   2.378   4.013   0.624
  520SOL    HW2 2460   2.363   4.040   0.784
  521SOL     OW 2461   6.447   6.254   4.536
  521SOL    HW1 2462   6.485   6.165   4.561
  521SOL    HW2 2463   6.347   6.247   4.528
  522SOL     OW 2464   4.020   4.351   0.895
  522SOL    HW1 2465   4.003   4.253   0.882
  522SOL    HW2 2466   4.058   4.366   0.987
  523SOL     OW 2467   0.865   0.098   0.131
  523SOL    HW1 2468   0.853   0.071   0.227
  523SOL    HW2 2469   0.789   0.062   0.077
  524SOL     OW 2470   6.945   1.863   1.016
  524SOL    HW1 2471   6.978   1.858   0.922
  524SOL    HW2 2472   6.852   1.827   1.021
  525SOL     OW 2473   0.433   3.363   3.963
  525SOL    HW1 2474   0.381   3.373   4.048
  525SOL    HW2 2475   0.389   3.296   3.904
  526SOL     OW 2476   3.716   0.394   3.813
  526SOL    HW1 2477   3.678   0.320   3.868
  526SOL    HW2 2478   3.678   0.481   3.844
  527SOL     OW 2479   0.434   1.381   0.664
  527SOL    HW1 2480   0.524   1.422   0.675
  527SOL    HW2 2481   0.396   1.405   0.575
  528SOL     OW 2482   7.017   2.714   4.735
  528SOL    HW1 2483   0.066   2.728   4.662
  528SOL    HW2 2484   6.935   2.768   4.716
  529SOL     OW 2485   2.117   6.998   0.120
  529SOL    HW1 2486   2.177   6.988   0.199
  529SOL    HW2 2487   2.024   7.018   0.151
  530SOL     OW 2488   3.626   5.025   1.181
  530SOL    HW1 2489   3.604   5.116   1.214
  530SOL    HW2 2490   3.682   4.977   1.249
  531SOL     OW 2491   1.522   0.159   0.600
  531SOL    HW1 2492   1.603   0.112   0.635
  531SOL    HW2 2493   1.513   0.142   0.502
  532SOL     OW 2494   1.628   2.253   5.902
  532SOL    HW1 2495   1.565   2.220   5.832
  532SOL    HW2 2496   1.710   2.291   5.858
  533SOL     OW 2497   4.026   0.613   3.994
  533SOL    HW1 2498   3.951   0.643   4.052
  533SOL    HW2 2499   4.101   0.679   4.000
  534SOL     OW 2500   1.780   3.839   2.031
  534SOL    HW1 2501   1.874   3.862   2.054
  534SOL    HW2 2502   1.774   3.817   1.934
  535SOL     OW 2503   4.985   3.103   4.217
  535SOL    HW1 2504   5.040   3.027   4.182
  535SOL    HW2 2505   4.916   3.129   4.150
  536SOL     OW 2506   6.124   6.738   1.753
  536SOL    HW1 2507   6.135   6.691   1.665
  536SOL    HW2 2508   6.168   6.828   1.747
  537SOL     OW 2509   2.965   1.709   3.383
  537SOL    HW1 2510   3.037   1.642   3.398
  537SOL    HW2 2511   2.995   1.799   3.414
  538SOL     OW 2512   3.489   4.899   5.161
  538SOL    HW1 2513   3.502   4.963   5.236
  538SOL    HW2 2514   3.398   4.858   5.168
  539SOL     OW 2515   0.959   0.374   6.588
  539SOL    HW1 2516   0.864   0.342   6.591
  539SOL    HW2 2517   1.013   0.312   6.531
  540SOL     OW 2518   1.432   0.581   4.865
  540SOL    HW1 2519   1.405   0.485   4.864
  540SOL    HW2 2520   1.477   0.604   4.778
  541SOL     OW 2521   4.912   6.046   3.752
  541SOL    HW1 2522   4.926   6.053   3.653
  541SOL    HW2 2523   4.834   6.102   3.779
  542SOL     OW 2524   3.689   0.206   5.366
  542SOL    HW1 2525   3.742   0.207   5.281
  542SOL    HW2 2526   3.633   0.124   5.370
  543SOL     OW 2527   6.593   2.001   3.709
  543SOL    HW1 2528   6.544   1.957   3.785
  543SOL    HW2 2529   6.641   2.081   3.744
  544SOL     OW 2530   1.447   3.506   1.678
  544SOL    HW1 2531   1.373   3.468   1.733
  544SOL    HW2 2532   1.437   3.476   1.583
  545SOL     OW 2533   6.330   6.827   1.283
  545SOL    HW1 2534   6.327   6.924   1.261
  545SOL    HW2 2535   6.289   6.774   1.209
  546SOL     OW 2536   6.919   4.392   2.350
  546SOL    HW1 2537   6.892   4.296   2.350
  546SOL    HW2 2538   7.015   4.399   2.379
  547SOL     OW 2539   5.275   0.577   6.214
  547SOL    HW1 2540   5.182   0.572   6.177
  547SOL    HW2 2541   5.340   0.554   6.142
  548SOL     OW 2542   4.320   2.327   0.057
  548SOL    HW1 2543   4.281   2.276   6.998
  548SOL    HW2 2544   4.267   2.410   0.073
  549SOL     OW 2545   5.616   1.265   1.657
  549SOL    HW1 2546   5.575   1.194   1.599
  549SOL    HW2 2547   5.545   1.322   1.696
  550SOL     OW 2548   0.126   6.112   3.318
  550SOL    HW1 2549   0.075   6.042   3.268
  550SOL    HW2 2550   0.213   6.073   3.350
  551SOL     OW 2551   6.355   0.506   0.566
  551SOL    HW1 2552   6.414   0.543   0.494
  551SOL    HW2 2553   6.275   0.566   0.577
  552SOL     OW 2554   0.222   6.188   5.373
  552SOL    HW1 2555   0.190   6.113   5.314
  552SOL    HW2 2556   0.143   6.240   5.405
  553SOL     OW 2557   3.087   1.174   0.042
  553SOL    HW1 2558   3.003   1.175   0.096
  553SOL    HW2 2559   3.105   1.266   0.006
  554SOL     OW 2560   6.121   6.494   1.198
  554SOL    HW1 2561   6.122   6.409   1.250
  554SOL    HW2 2562   6.063   6.483   1.117
  555SOL     OW 2563   1.665   3.843   5.621
  555SOL    HW1 2564   1.696   3.793   5.702
  555SOL    HW2 2565   1.679   3.787   5.540
  556SOL     OW 2566   5.818   0.209   3.674
  556SOL    HW1 2567   5.728   0.197   3.716
  556SOL    HW2 2568   5.863   0.289   3.714
  557SOL     OW 2569   6.426   4.358   6.701
  557SOL    HW1 2570   6.338   4.398   6.675
  557SOL    HW2 2571   6.496   4.430   6.702
  558SOL     OW 2572   3.127   4.047   2.415
  558SOL    HW1 2573   3.130   4.037   2.514
  558SOL    HW2 2574   3.054   3.989   2.378
  559SOL     OW 2575   6.406   6.866   5.205
  559SOL    HW1 2576   6.440   6.938   5.265
  559SOL    HW2 2577   6.364   6.907   5.124
  560SOL     OW 2578   6.963   3.076   4.175
  560SOL    HW1 2579   6.937   3.020   4.254
  560SOL    HW2 2580   6.906   3.159   4.173
  561SOL     OW 2581   0.539   2.762   0.380
  561SOL    HW1 2582   0.469   2.796   0.318
  561SOL    HW2 2583   0.630   2.784   0.343
  562SOL     OW 2584   4.214   0.004   5.134
  562SOL    HW1 2585   4.285   0.039   5.073
  562SOL    HW2 2586   4.182   0.078   5.193
  563SOL     OW 2587   1.444   0.510   3.778
  563SOL    HW1 2588   1.516   0.481   3.841
  563SOL    HW2 2589   1.355   0.492   3.819
  564SOL     OW 2590   6.516   1.978   6.511
  564SOL    HW1 2591   6.485   1.976   6.606
  564SOL    HW2 2592   6.572   1.897   6.492
  565SOL     OW 2593   3.445   3.608   3.545
  565SOL    HW1 2594   3.350   3.632   3.525
  565SOL    HW2 2595   3.472   3.651   3.631
  566SOL     OW 2596   2.944   0.829   3.780
  566SOL    HW1 2597   2.891   0.794   3.702
  566SOL    HW2 2598   2.883   0.875   3.844
  567SOL     OW 2599   2.527   2.705   5.454
  567SOL    HW1 2600   2.510   2.629   5.517
  567SOL    HW2 2601   2.625   2.723   5.449
  568SOL     OW 2602   1.013   6.416   6.751
  568SOL    HW1 2603   0.964   6.456   6.674
  568SOL    HW2 2604   0.949   6.367   6.810
  569SOL     OW 2605   5.987   3.577   0.148
  569SOL    HW1 2606   5.912   3.643   0.154
  569SOL    HW2 2607   6.040   3.579   0.233
  570SOL     OW 2608   2.616   0.317   6.113
  570SOL    HW1 2609   2.675   0.380   6.165
  570SOL    HW2 2610   2.669   0.237   6.085
  571SOL     OW 2611   1.950   4.648   1.138
  571SOL    HW1 2612   1.988   4.728   1.093
  571SOL    HW2 2613   1.890   4.599   1.074
  572SOL     OW 2614   2.928   0.134   4.487
  572SOL    HW1 2615   2.882   0.183   4.412
  572SOL    HW2 2616   2.908   0.036   4.479
  573SOL     OW 2617   0.329   0.966   5.301
  573SOL    HW1 2618   0.294   0.878   5.334
  573SOL    HW2 2619   0.257   1.034   5.303
  574SOL     OW 2620   2.265   1.837   5.345
  574SOL    HW1 2621   2.195   1.852   5.275
  574SOL    HW2 2622   2.302   1.926   5.373
  575SOL     OW 2623   4.047   3.457   0.137
  575SOL    HW1 2624   4.050   3.477   0.039
  575SOL    HW2 2625   3.980   3.517   0.181
  576SOL     OW 2626   2.100   2.445   2.766
  576SOL    HW1 2627   2.025   2.379   2.759
  576SOL    HW2 2628   2.120   2.482   2.675
  577SOL     OW 2629   0.439   1.006   1.250
  577SOL    HW1 2630   0.416   1.020   1.346
  577SOL    HW2 2631   0.356   0.980   1.200
  578SOL     OW 2632   3.178   6.667   6.452
  578SOL    HW1 2633   3.156   6.727   6.529
  578SOL    HW2 2634   3.236   6.716   6.387
  579SOL     OW 2635   2.116   3.727   1.868
  579SOL    HW1 2636   2.032   3.716   1.921
  579SOL    HW2 2637   2.176   3.649   1.885
  580SOL     OW 2638   4.909   5.653   5.149
  580SOL    HW1 2639   4.895   5.676   5.052
  580SOL    HW2 2640   4.940   5.735   5.198
  581SOL     OW 2641   1.907   2.846   4.798
  581SOL    HW1 2642   1.882   2.781   4.869
  581SOL    HW2 2643   2.003   2.872   4.808
  582SOL     OW 2644   4.591   5.132   4.047
  582SOL    HW1 2645   4.659   5.058   4.053
  582SOL    HW2 2646   4.506   5.096   4.008
  583SOL     OW 2647   3.979   6.166   5.903
  583SOL    HW1 2648   3.930   6.177   5.990
  583SOL    HW2 2649   4.069   6.125   5.920
  584SOL     OW 2650   4.531   0.917   5.368
  584SOL    HW1 2651   4.625   0.947   5.386
  584SOL    HW2 2652   4.472   0.997   5.362
  585SOL     OW 2653   3.207   0.447   1.864
  585SOL    HW1 2654   3.220   0.545   1.870
  585SOL    HW2 2655   3.250   0.402   1.943
  586SOL     OW 2656   3.724   0.873   1.147
  586SOL    HW1 2657   3.690   0.820   1.070
  586SOL    HW2 2658   3.649   0.895   1.209
  587SOL     OW 2659   5.069   2.011   1.572
  587SOL    HW1 2660   5.160   1.970   1.571
  587SOL    HW2 2661   5.028   1.999   1.663
  588SOL     OW 2662   1.534   5.145   3.126
  588SOL    HW1 2663   1.559   5.048   3.121
  588SOL    HW2 2664   1.435   5.153   3.142
  589SOL     OW 2665   3.226   5.461   0.628
  589SOL    HW1 2666   3.133   5.467   0.664
  589SOL    HW2 2667   3.230   5.507   0.540
  590SOL     OW 2668   4.049   2.043   0.835
  590SOL    HW1 2669   3.969   2.068   0.890
  590SOL    HW2 2670   4.114   1.993   0.891
  591SOL     OW 2671   3.190   5.802   4.059
  591SOL    HW1 2672   3.276   5.793   4.108
  591SOL    HW2 2673   3.158   5.897   4.064
  592SOL     OW 2674   3.690   1.968   4.534
  592SOL    HW1 2675   3.693   1.871   4.513
  592SOL    HW2 2676   3.621   1.984   4.605
  593SOL     OW 2677   2.798   2.040   6.812
  593SOL    HW1 2678   2.714   1.997   6.848
  593SOL    HW2 2679   2.835   1.983   6.739
  594SOL     OW 2680   4.853   1.113   2.109
  594SOL    HW1 2681   4.832   1.015   2.118
  594SOL    HW2 2682   4.917   1.140   2.180
  595SOL     OW 2683   5.711   5.608   2.548
  595SOL    HW1 2684   5.634   5.545   2.545
  595SOL    HW2 2685   5.698   5.681   2.482
  596SOL     OW 2686   6.122   4.613   4.246
  596SOL    HW1 2687   6.106   4.661   4.332
  596SOL    HW2 2688   6.196   4.546   4.258
  597SOL     OW 2689   2.980   0.663   6.528
  597SOL    HW1 2690   3.015   0.706   6.445
  597SOL    HW2 2691   2.967   0.732   6.599
  598SOL     OW 2692   3.313   4.125   4.190
  598SOL    HW1 2693   3.282   4.105   4.283
  598SOL    HW2 2694   3.239   4.104   4.125
  599SOL     OW 2695   1.119   5.028   1.404
  599SOL    HW1 2696   1.191   4.961   1.426
  599SOL    HW2 2697   1.151   5.119   1.429
  600SOL     OW 2698   6.386   3.649   5.161
  600SOL    HW1 2699   6.428   3.725   5.112
  600SOL    HW2 2700   6.355   3.679   5.250
  601SOL     OW 2701   1.280   6.395   5.631
  601SOL    HW1 2702   1.283   6.411   5.730
  601SOL    HW2 2703   1.295   6.298   5.613
  602SOL     OW 2704   2.164   0.137   3.391
  602SOL    HW1 2705   2.174   0.099   3.299
  602SOL    HW2 2706   2.237   0.202   3.407
  603SOL     OW 2707   1.371   1.447   4.524
  603SOL    HW1 2708   1.431   1.527   4.537
  603SOL    HW2 2709   1.423   1.373   4.482
  604SOL     OW 2710   6.275   2.352   1.837
  604SOL    HW1 2711   6.230   2.300   1.764
  604SOL    HW2 2712   6.219   2.347   1.920
  605SOL     OW 2713   6.627   6.479   1.589
  605SOL    HW1 2714   6.623   6.416   1.666
  605SOL    HW2 2715   6.696   6.549   1.606
  606SOL     OW 2716   3.699   6.893   4.220
  606SOL    HW1 2717   3.727   6.831   4.147
  606SOL    HW2 2718   3.646   6.843   4.288
  607SOL     OW 2719   1.592   3.656   5.994
  607SOL    HW1 2720   1.515   3.598   6.019
  607SOL    HW2 2721   1.618   3.714   6.071
  608SOL     OW 2722   3.427   1.093   5.886
  608SOL    HW1 2723   3.360   1.047   5.828
  608SOL    HW2 2724   3.394   1.185   5.910
  609SOL     OW 2725   3.147   2.759   1.886
  609SOL    HW1 2726   3.084   2.739   1.811
  609SOL    HW2 2727   3.133   2.691   1.959
  610SOL     OW 2728   4.457   3.431   1.549
  610SOL    HW1 2729   4.371   3.466   1.586
  610SOL    HW2 2730   4.514   3.396   1.623
  611SOL     OW 2731   3.245   0.683   3.235
  611SOL    HW1 2732   3.305   0.608   3.208
  611SOL    HW2 2733   3.166   0.686   3.174
  612SOL     OW 2734   4.267   5.008   4.494
  612SOL    HW1 2735   4.230   4.916   4.501
  612SOL    HW2 2736   4.367   5.004   4.492
  613SOL     OW 2737   4.074   4.762   5.285
  613SOL    HW1 2738   4.002   4.692   5.287
  613SOL    HW2 2739   4.041   4.842   5.235
  614SOL     OW 2740   3.176   5.462   5.986
  614SOL    HW1 2741   3.160   5.526   5.911
  614SOL    HW2 2742   3.158   5.369   5.955
  615SOL     OW 2743   1.005   5.077   2.445
  615SOL    HW1 2744   1.096   5.059   2.408
  615SOL    HW2 2745   0.980   5.172   2.427
  616SOL     OW 2746   6.102   3.327   3.590
  616SOL    HW1 2747   6.036   3.258   3.620
  616SOL    HW2 2748   6.151   3.294   3.510
  617SOL     OW 2749   3.317   6.236   5.833
  617SOL    HW1 2750   3.273   6.158   5.787
  617SOL    HW2 2751   3.268   6.257   5.917
  618SOL     OW 2752   1.557   1.180   2.299
  618SOL    HW1 2753   1.648   1.195   2.261
  618SOL    HW2 2754   1.566   1.140   2.391
  619SOL     OW 2755   0.350   1.439   6.816
  619SOL    HW1 2756   0.372   1.401   6.726
  619SOL    HW2 2757   0.407   1.396   6.885
  620SOL     OW 2758   4.307   3.383   1.290
  620SOL    HW1 2759   4.359   3.371   1.374
  620SOL    HW2 2760   4.295   3.480   1.271
  621SOL     OW 2761   0.625   4.817   1.073
  621SOL    HW1 2762   0.722   4.798   1.083
  621SOL    HW2 2763   0.612   4.906   1.029
  622SOL     OW 2764   0.838   0.519   6.128
  622SOL    HW1 2765   0.879   0.529   6.218
  622SOL    HW2 2766   0.768   0.447   6.130
  623SOL     OW 2767   0.592   4.946   6.058
  623SOL    HW1 2768   0.659   4.942   6.131
  623SOL    HW2 2769   0.561   4.854   6.036
  624SOL     OW 2770   0.862   2.015   1.652
  624SOL    HW1 2771   0.943   2.058   1.611
  624SOL    HW2 2772   0.848   2.052   1.744
  625SOL     OW 2773   1.467   1.367   1.745
  625SOL    HW1 2774   1.540   1.376   1.813
  625SOL    HW2 2775   1.495   1.299   1.677
  626SOL     OW 2776   3.214   6.929   4.015
  626SOL    HW1 2777   3.208   6.830   3.999
  626SOL    HW2 2778   3.123   6.964   4.038
  627SOL     OW 2779   4.734   0.682   6.956
  627SOL    HW1 2780   4.645   0.638   6.963
  627SOL    HW2 2781   4.732   0.768   7.007
  628SOL     OW 2782   5.538   4.168   3.625
  628SOL    HW1 2783   5.618   4.140   3.677
  628SOL    HW2 2784   5.509   4.094   3.565
  629SOL     OW 2785   1.817   6.543   0.420
  629SOL    HW1 2786   1.813   6.543   0.320
  629SOL    HW2 2787   1.736   6.588   0.457
  630SOL     OW 2788   3.464   1.716   1.430
  630SOL    HW1 2789   3.398   1.645   1.454
  630SOL    HW2 2790   3.430   1.768   1.351
  631SOL     OW 2791   2.119   6.674   4.515
  631SOL    HW1 2792   2.021   6.653   4.513
  631SOL    HW2 2793   2.134   6.763   4.471
  632SOL     OW 2794   2.296   1.084   1.274
  632SOL    HW1 2795   2.204   1.119   1.259
  632SOL    HW2 2796   2.355   1.112   1.198
  633SOL     OW 2797   2.320   6.625   5.636
  633SOL    HW1 2798   2.249   6.554   5.641
  633SOL    HW2 2799   2.409   6.584   5.657
  634SOL     OW 2800   3.249   6.142   0.936
  634SOL    HW1 2801   3.192   6.060   0.943
  634SOL    HW2 2802   3.292   6.160   1.025
  635SOL     OW 2803   2.818   0.649   2.738
  635SOL    HW1 2804   2.754   0.576   2.763
  635SOL    HW2 2805   2.907   0.609   2.715
  636SOL     OW 2806   5.122   5.224   0.267
  636SOL    HW1 2807   5.160   5.299   0.212
  636SOL    HW2 2808   5.084   5.154   0.206
  637SOL     OW 2809   5.428   4.734   0.988
  637SOL    HW1 2810   5.391   4.768   1.075
  637SOL    HW2 2811   5.412   4.635   0.982
  638SOL     OW 2812   5.457   1.237   2.590
  638SOL    HW1 2813   5.452   1.139   2.607
  638SOL    HW2 2814   5.548   1.261   2.555
  639SOL     OW 2815   4.530   4.464   2.588
  639SOL    HW1 2816   4.530   4.374   2.544
  639SOL    HW2 2817   4.604   4.520   2.551
  640SOL     OW 2818   2.893   4.100   5.740
  640SOL    HW1 2819   2.960   4.103   5.666
  640SOL    HW2 2820   2.801   4.110   5.702
  641SOL     OW 2821   6.917   5.882   5.045
  641SOL    HW1 2822   6.837   5.892   5.105
  641SOL    HW2 2823   6.965   5.797   5.067
  642SOL     OW 2824   1.659   4.731   5.965
  642SOL    HW1 2825   1.573   4.773   5.994
  642SOL    HW2 2826   1.710   4.699   6.045
  643SOL     OW 2827   5.549   6.048   4.698
  643SOL    HW1 2828   5.538   6.125   4.635
  643SOL    HW2 2829   5.466   6.036   4.752
  644SOL     OW 2830   2.227   6.044   2.058
  644SOL    HW1 2831   2.163   6.118   2.039
  644SOL    HW2 2832   2.221   5.976   1.984
  645SOL     OW 2833   5.997   3.143   3.892
  645SOL    HW1 2834   5.942   3.146   3.808
  645SOL    HW2 2835   5.937   3.124   3.970
  646SOL     OW 2836   1.034   1.475   4.468
  646SOL    HW1 2837   1.134   1.465   4.468
  646SOL    HW2 2838   1.007   1.540   4.397
  647SOL     OW 2839   5.059   3.256   0.407
  647SOL    HW1 2840   5.061   3.228   0.503
  647SOL    HW2 2841   5.146   3.230   0.363
  648SOL     OW 2842   5.354   2.229   3.060
  648SOL    HW1 2843   5.452   2.218   3.079
  648SOL    HW2 2844   5.304   2.237   3.146
  649SOL     OW 2845   4.323   4.661   2.203
  649SOL    HW1 2846   4.323   4.567   2.170
  649SOL    HW2 2847   4.269   4.718   2.141
  650SOL     OW 2848   4.221   3.772   0.941
  650SOL    HW1 2849   4.142   3.759   1.002
  650SOL    HW2 2850   4.288   3.700   0.959
  651SOL     OW 2851   1.264   5.579   6.006
  651SOL    HW1 2852   1.269   5.586   6.105
  651SOL    HW2 2853   1.293   5.488   5.977
  652SOL     OW 2854   4.432   1.427   2.433
  652SOL    HW1 2855   4.509   1.374   2.399
  652SOL    HW2 2856   4.391   1.478   2.358
  653SOL     OW 2857   4.087   5.081   3.646
  653SOL    HW1 2858   4.133   5.020   3.583
  653SOL    HW2 2859   4.027   5.143   3.595
  654SOL     OW 2860   6.403   5.179   0.400
  654SOL    HW1 2861   6.489   5.227   0.384
  654SOL    HW2 2862   6.386   5.173   0.498
  655SOL     OW 2863   0.360   0.749   6.906
  655SOL    HW1 2864   0.425   0.797   6.965
  655SOL    HW2 2865   0.410   0.696   6.838
  656SOL     OW 2866   2.842   6.313   1.944
  656SOL    HW1 2867   2.801   6.382   2.003
  656SOL    HW2 2868   2.941   6.312   1.958
  657SOL     OW 2869   4.049   1.308   6.771
  657SOL    HW1 2870   3.998   1.378   6.822
  657SOL    HW2 2871   3.986   1.257   6.713
  658SOL     OW 2872   3.330   5.202   6.241
  658SOL    HW1 2873   3.252   5.260   6.218
  658SOL    HW2 2874   3.413   5.240   6.200
  659SOL     OW 2875   2.826   0.167   6.685
  659SOL    HW1 2876   2.778   0.208   6.607
  659SOL    HW2 2877   2.892   0.233   6.722
  660SOL     OW 2878   3.839   5.431   3.090
  660SOL    HW1 2879   3.859   5.433   2.992
  660SOL    HW2 2880   3.890   5.356   3.133
  661SOL     OW 2881   5.552   5.661   3.061
  661SOL    HW1 2882   5.609   5.636   2.983
  661SOL    HW2 2883   5.478   5.594   3.070
  662SOL     OW 2884   3.654   1.247   0.619
  662SOL    HW1 2885   3.733   1.185   0.629
  662SOL    HW2 2886   3.640   1.295   0.706
  663SOL     OW 2887   2.293   4.752   4.850
  663SOL    HW1 2888   2.343   4.816   4.908
  663SOL    HW2 2889   2.342   4.665   4.847
  664SOL     OW 2890   6.180   1.208   6.585
  664SOL    HW1 2891   6.270   1.164   6.586
  664SOL    HW2 2892   6.122   1.162   6.518
  665SOL     OW 2893   1.893   4.761   2.338
  665SOL    HW1 2894   1.872   4.852   2.373
  665SOL    HW2 2895   1.936   4.770   2.248
  666SOL     OW 2896   3.995   1.255   1.177
  666SOL    HW1 2897   3.962   1.288   1.266
  666SOL    HW2 2898   4.071   1.192   1.190
  667SOL     OW 2899   0.986   6.346   2.344
  667SOL    HW1 2900   0.950   6.256   2.319
  667SOL    HW2 2901   0.928   6.386   2.415
  668SOL     OW 2902   5.296   3.680   0.612
  668SOL    HW1 2903   5.278   3.746   0.685
  668SOL    HW2 2904   5.210   3.656   0.567
  669SOL     OW 2905   5.089   1.236   2.551
  669SOL    HW1 2906   5.105   1.198   2.642
  669SOL    HW2 2907   5.071   1.334   2.560
  670SOL     OW 2908   3.202   1.943   3.197
  670SOL    HW1 2909   3.249   1.993   3.125
  670SOL    HW2 2910   3.155   1.864   3.159
  671SOL     OW 2911   3.123   6.812   1.404
  671SOL    HW1 2912   3.167   6.901   1.397
  671SOL    HW2 2913   3.074   6.791   1.320
  672SOL     OW 2914   1.618   6.683   2.093
  672SOL    HW1 2915   1.650   6.757   2.152
  672SOL    HW2 2916   1.619   6.597   2.144
  673SOL     OW 2917   5.768   6.577   0.590
  673SOL    HW1 2918   5.738   6.648   0.653
  673SOL    HW2 2919   5.771   6.489   0.638
  674SOL     OW 2920   6.212   1.064   4.124
  674SOL    HW1 2921   6.302   1.086   4.161
  674SOL    HW2 2922   6.141   1.104   4.182
  675SOL     OW 2923   0.318   3.167   3.068
  675SOL    HW1 2924   0.350   3.155   3.161
  675SOL    HW2 2925   0.257   3.092   3.043
  676SOL     OW 2926   2.552   6.372   5.918
  676SOL    HW1 2927   2.633   6.416   5.956
  676SOL    HW2 2928   2.532   6.411   5.827
  677SOL     OW 2929   5.172   1.405   1.188
  677SOL    HW1 2930   5.238   1.415   1.262
  677SOL    HW2 2931   5.201   1.461   1.110
  678SOL     OW 2932   1.477   4.694   4.184
  678SOL    HW1 2933   1.530   4.717   4.266
  678SOL    HW2 2934   1.476   4.772   4.122
  679SOL     OW 2935   4.776   2.174   5.264
  679SOL    HW1 2936   4.861   2.180   5.211
  679SOL    HW2 2937   4.700   2.149   5.204
  680SOL     OW 2938   5.690   6.519   4.319
  680SOL    HW1 2939   5.668   6.522   4.222
  680SOL    HW2 2940   5.728   6.429   4.342
  681SOL     OW 2941   4.703   5.066   2.499
  681SOL    HW1 2942   4.655   5.093   2.416
  681SOL    HW2 2943   4.771   4.996   2.478
  682SOL     OW 2944   0.406   0.782   3.180
  682SOL    HW1 2945   0.432   0.767   3.085
  682SOL    HW2 2946   0.435   0.874   3.208
  683SOL     OW 2947   3.506   3.856   1.433
  683SOL    HW1 2948   3.492   3.796   1.512
  683SOL    HW2 2949   3.605   3.865   1.415
  684SOL     OW 2950   6.281   1.121   6.137
  684SOL    HW1 2951   6.220   1.160   6.205
  684SOL    HW2 2952   6.228   1.077   6.065
  685SOL     OW 2953   3.385   0.480   3.112
  685SOL    HW1 2954   3.449   0.471   3.036
  685SOL    HW2 2955   3.329   0.398   3.119
  686SOL     OW 2956   4.437   0.504   4.748
  686SOL    HW1 2957   4.524   0.540   4.716
  686SOL    HW2 2958   4.441   0.489   4.847
  687SOL     OW 2959   0.517   1.808   3.667
  687SOL    HW1 2960   0.590   1.795   3.599
  687SOL    HW2 2961   0.488   1.718   3.702
  688SOL     OW 2962   6.714   1.237   6.820
  688SOL    HW1 2963   6.642   1.305   6.836
  688SOL    HW2 2964   6.801   1.284   6.804
  689SOL     OW 2965   1.848   5.709   5.582
  689SOL    HW1 2966   1.870   5.614   5.561
  689SOL    HW2 2967   1.871   5.767   5.503
  690SOL     OW 2968   5.220   3.354   2.508
  690SOL    HW1 2969   5.228   3.387   2.414
  690SOL    HW2 2970   5.249   3.258   2.513
  691SOL     OW 2971   5.813   1.517   0.974
  691SOL    HW1 2972   5.748   1.522   0.898
  691SOL    HW2 2973   5.869   1.434   0.964
  692SOL     OW 2974   1.992   0.242   4.543
  692SOL    HW1 2975   1.930   0.219   4.618
  692SOL    HW2 2976   2.086   0.237   4.575
  693SOL     OW 2977   5.518   6.156   3.593
  693SOL    HW1 2978   5.421   6.161   3.573
  693SOL    HW2 2979   5.532   6.135   3.690
  694SOL     OW 2980   4.395   6.441   5.416
  694SOL    HW1 2981   4.335   6.508   5.373
  694SOL    HW2 2982   4.466   6.488   5.468
  695SOL     OW 2983   3.924   0.050   3.917
  695SOL    HW1 2984   3.910   0.112   3.995
  695SOL    HW2 2985   3.867   0.080   3.841
  696SOL     OW 2986   5.639   4.225   3.280
  696SOL    HW1 2987   5.720   4.191   3.328
  696SOL    HW2 2988   5.624   4.321   3.305
  697SOL     OW 2989   1.305   6.408   1.913
  697SOL    HW1 2990   1.398   6.379   1.937
  697SOL    HW2 2991   1.302   6.508   1.911
  698SOL     OW 2992   5.837   6.784   0.131
  698SOL    HW1 2993   5.777   6.834   0.069
  698SOL    HW2 2994   5.931   6.787   0.096
  699SOL     OW 2995   2.975   2.684   1.689
  699SOL    HW1 2996   2.980   2.585   1.685
  699SOL    HW2 2997   3.028   2.724   1.614
  700SOL     OW 2998   3.555   0.128   4.145
  700SOL    HW1 2999   3.459   0.132   4.171
  700SOL    HW2 3000   3.591   0.036   4.163
  701SOL     OW 3001   4.995   5.256   1.515
  701SOL    HW1 3002   5.003   5.329   1.448
  701SOL    HW2 3003   5.080   5.204   1.519
  702SOL     OW 3004   3.387   0.897   3.966
  702SOL    HW1 3005   3.337   0.884   4.052
  702SOL    HW2 3006   3.323   0.892   3.890
  703SOL     OW 3007   3.184   2.005   6.691
  703SOL    HW1 3008   3.235   2.075   6.741
  703SOL    HW2 3009   3.102   1.980   6.742
  704SOL     OW 3010   1.651   2.657   5.336
  704SOL    HW1 3011   1.607   2.595   5.401
  704SOL    HW2 3012   1.658   2.612   5.246
  705SOL     OW 3013   0.181   6.515   5.108
  705SOL    HW1 3014   0.206   6.612   5.108
  705SOL    HW2 3015   0.091   6.504   5.149
  706SOL     OW 3016   4.576   1.333   5.421
  706SOL    HW1 3017   4.582   1.417   5.475
  706SOL    HW2 3018   4.483   1.322   5.387
  707SOL     OW 3019   3.254   5.270   4.332
  707SOL    HW1 3020   3.236   5.365   4.303
  707SOL    HW2 3021   3.330   5.269   4.396
  708SOL     OW 3022   4.391   6.174   3.784
  708SOL    HW1 3023   4.386   6.172   3.684
  708SOL    HW2 3024   4.473   6.126   3.814
  709SOL     OW 3025   2.815   0.117   1.157
  709SOL    HW1 3026   2.872   0.116   1.239
  709SOL    HW2 3027   2.722   0.143   1.182
  710SOL     OW 3028   4.727   2.827   1.735
  710SOL    HW1 3029   4.675   2.907   1.765
  710SOL    HW2 3030   4.751   2.772   1.815
  711SOL     OW 3031   6.841   2.490   6.570
  711SOL    HW1 3032   6.765   2.461   6.513
  711SOL    HW2 3033   6.821   2.580   6.610
  712SOL     OW 3034   5.117   4.376   0.757
  712SOL    HW1 3035   5.075   4.448   0.702
  712SOL    HW2 3036   5.164   4.311   0.698
  713SOL     OW 3037   3.942   2.934   5.287
  713SOL    HW1 3038   3.895   2.965   5.369
  713SOL    HW2 3039   3.963   3.012   5.229
  714SOL     OW 3040   5.204   5.928   2.696
  714SOL    HW1 3041   5.115   5.912   2.737
  714SOL    HW2 3042   5.246   5.841   2.672
  715SOL     OW 3043   6.459   5.202   5.535
  715SOL    HW1 3044   6.366   5.236   5.550
  715SOL    HW2 3045   6.501   5.178   5.622
  716SOL     OW 3046   1.579   2.071   3.157
  716SOL    HW1 3047   1.553   2.157   3.202
  716SOL    HW2 3048   1.533   1.995   3.203
  717SOL     OW 3049   5.320   4.550   4.057
  717SOL    HW1 3050   5.373   4.531   4.140
  717SOL    HW2 3051   5.228   4.579   4.083
  718SOL     OW 3052   5.837   1.801   5.258
  718SOL    HW1 3053   5.854   1.900   5.253
  718SOL    HW2 3054   5.818   1.767   5.166
  719SOL     OW 3055   5.179   6.955   3.711
  719SOL    HW1 3056   5.134   0.014   3.665
  719SOL    HW2 3057   5.256   6.989   3.765
  720SOL     OW 3058   2.610   1.540   0.927
  720SOL    HW1 3059   2.587   1.602   0.851
  720SOL    HW2 3060   2.547   1.463   0.927
  721SOL     OW 3061   0.009   1.676   2.677
  721SOL    HW1 3062   0.025   1.590   2.724
  721SOL    HW2 3063   0.050   1.751   2.729
  722SOL     OW 3064   4.876   6.458   1.060
  722SOL    HW1 3065   4.819   6.380   1.088
  722SOL    HW2 3066   4.950   6.470   1.127
  723SOL     OW 3067   2.255   5.677   4.080
  723SOL    HW1 3068   2.200   5.752   4.043
  723SOL    HW2 3069   2.268   5.690   4.178
  724SOL     OW 3070   0.883   1.456   3.886
  724SOL    HW1 3071   0.866   1.553   3.868
  724SOL    HW2 3072   0.860   1.435   3.981
  725SOL     OW 3073   1.286   3.963   2.959
  725SOL    HW1 3074   1.216   3.922   3.018
  725SOL    HW2 3075   1.304   4.057   2.989
  726SOL     OW 3076   1.563   3.946   0.847
  726SOL    HW1 3077   1.480   3.913   0.892
  726SOL    HW2 3078   1.572   3.902   0.758
  727SOL     OW 3079   3.848   5.919   5.222
  727SOL    HW1 3080   3.805   5.829   5.222
  727SOL    HW2 3081   3.896   5.933   5.135
  728SOL     OW 3082   6.570   3.431   3.869
  728SOL    HW1 3083   6.656   3.473   3.843
  728SOL    HW2 3084   6.525   3.394   3.788
  729SOL     OW 3085   0.358   4.181   0.919
  729SOL    HW1 3086   0.400   4.271   0.929
  729SOL    HW2 3087   0.281   4.173   0.983
  730SOL     OW 3088   4.416   0.576   3.507
  730SOL    HW1 3089   4.490   0.552   3.445
  730SOL    HW2 3090   4.362   0.494   3.527
  731SOL     OW 3091   4.588   4.896   5.605
  731SOL    HW1 3092   4.556   4.883   5.698
  731SOL    HW2 3093   4.532   4.965   5.560
  732SOL     OW 3094   4.163   1.572   5.095
  732SOL    HW1 3095   4.161   1.473   5.109
  732SOL    HW2 3096   4.190   1.617   5.180
  733SOL     OW 3097   5.824   5.890   2.804
  733SOL    HW1 3098   5.797   5.794   2.816
  733SOL    HW2 3099   5.923   5.896   2.793
  734SOL     OW 3100   6.337   6.496   2.323
  734SOL    HW1 3101   6.306   6.467   2.233
  734SOL    HW2 3102   6.290   6.442   2.393
  735SOL     OW 3103   4.565   0.431   2.157
  735SOL    HW1 3104   4.636   0.425   2.087
  735SOL    HW2 3105   4.506   0.351   2.152
  736SOL     OW 3106   1.698   1.229   4.012
  736SOL    HW1 3107   1.698   1.300   3.942
  736SOL    HW2 3108   1.745   1.148   3.978
  737SOL     OW 3109   3.972   0.905   5.846
  737SOL    HW1 3110   3.913   0.983   5.822
  737SOL    HW2 3111   4.066   0.926   5.820
  738SOL     OW 3112   1.599   4.564   0.290
  738SOL    HW1 3113   1.695   4.569   0.261
  738SOL    HW2 3114   1.594   4.529   0.383
  739SOL     OW 3115   3.015   0.057   4.125
  739SOL    HW1 3116   2.977   7.007   4.187
  739SOL    HW2 3117   2.979   0.147   4.148
  740SOL     OW 3118   5.000   3.325   2.661
  740SOL    HW1 3119   4.923   3.270   2.628
  740SOL    HW2 3120   5.070   3.330   2.590
  741SOL     OW 3121   2.275   1.078   3.232
  741SOL    HW1 3122   2.303   0.982   3.227
  741SOL    HW2 3123   2.177   1.085   3.211
  742SOL     OW 3124   2.143   6.993   1.986
  742SOL    HW1 3125   2.212   6.930   2.022
  742SOL    HW2 3126   2.079   6.943   1.929
  743SOL     OW 3127   0.510   6.512   3.076
  743SOL    HW1 3128   0.587   6.540   3.019
  743SOL    HW2 3129   0.506   6.412   3.081
  744SOL     OW 3130   5.210   2.067   0.354
  744SOL    HW1 3131   5.262   2.151   0.336
  744SOL    HW2 3132   5.135   2.060   0.288
  745SOL     OW 3133   2.636   0.028   4.665
  745SOL    HW1 3134   2.722   0.022   4.716
  745SOL    HW2 3135   2.607   0.124   4.660
  746SOL     OW 3136   6.755   4.672   5.868
  746SOL    HW1 3137   6.775   4.759   5.915
  746SOL    HW2 3138   6.840   4.634   5.832
  747SOL     OW 3139   5.141   5.813   2.975
  747SOL    HW1 3140   5.207   5.846   3.043
  747SOL    HW2 3141   5.165   5.719   2.949
  748SOL     OW 3142   5.229   5.389   1.830
  748SOL    HW1 3143   5.225   5.290   1.813
  748SOL    HW2 3144   5.204   5.437   1.746
  749SOL     OW 3145   4.859   3.753   4.019
  749SOL    HW1 3146   4.946   3.783   4.057
  749SOL    HW2 3147   4.810   3.697   4.086
  750SOL     OW 3148   2.331   2.066   2.417
  750SOL    HW1 3149   2.416   2.100   2.376
  750SOL    HW2 3150   2.265   2.140   2.422
  751SOL     OW 3151   3.799   0.449   0.875
  751SOL    HW1 3152   3.814   0.385   0.799
  751SOL    HW2 3153   3.815   0.402   0.961
  752SOL     OW 3154   3.524   2.338   5.442
  752SOL    HW1 3155   3.450   2.281   5.407
  752SOL    HW2 3156   3.601   2.337   5.379
  753SOL     OW 3157   3.562   3.949   4.740
  753SOL    HW1 3158   3.529   4.002   4.818
  753SOL    HW2 3159   3.662   3.945   4.743
  754SOL     OW 3160   6.085   0.703   0.308
  754SOL    HW1 3161   6.169   0.671   0.263
  754SOL    HW2 3162   6.041   0.773   0.252
  755SOL     OW 3163   4.048   4.301   5.327
  755SOL    HW1 3164   4.117   4.330   5.260
  755SOL    HW2 3165   3.967   4.268   5.280
  756SOL     OW 3166   2.277   5.600   6.327
  756SOL    HW1 3167   2.209   5.571   6.260
  756SOL    HW2 3168   2.288   5.528   6.396
  757SOL     OW 3169   2.716   6.200   2.406
  757SOL    HW1 3170   2.698   6.139   2.483
  757SOL    HW2 3171   2.794   6.165   2.354
  758SOL     OW 3172   4.305   0.744   4.329
  758SOL    HW1 3173   4.371   0.816   4.303
  758SOL    HW2 3174   4.306   0.732   4.428
  759SOL     OW 3175   0.636   3.084   3.967
  759SOL    HW1 3176   0.714   3.021   3.963
  759SOL    HW2 3177   0.657   3.166   3.914
  760SOL     OW 3178   6.064   5.532   2.909
  760SOL    HW1 3179   6.060   5.593   2.988
  760SOL    HW2 3180   6.138   5.560   2.848
  761SOL     OW 3181   4.046   3.817   6.468
  761SOL    HW1 3182   4.032   3.895   6.407
  761SOL    HW2 3183   3.963   3.761   6.470
  762SOL     OW 3184   3.228   5.616   3.859
  762SOL    HW1 3185   3.145   5.585   3.814
  762SOL    HW2 3186   3.205   5.682   3.931
  763SOL     OW 3187   5.875   0.528   0.039
  763SOL    HW1 3188   5.922   0.495   0.120
  763SOL    HW2 3189   5.885   0.627   0.031
  764SOL     OW 3190   5.586   7.007   5.904
  764SOL    HW1 3191   5.656   0.036   5.957
  764SOL    HW2 3192   5.564   0.043   5.822
  765SOL     OW 3193   6.878   6.936   0.761
  765SOL    HW1 3194   6.816   6.915   0.685
  765SOL    HW2 3195   6.870   0.015   0.785
  766SOL     OW 3196   2.422   2.211   5.119
  766SOL    HW1 3197   2.393   2.273   5.046
  766SOL    HW2 3198   2.450   2.264   5.199
  767SOL     OW 3199   6.110   5.626   4.345
  767SOL    HW1 3200   6.185   5.572   4.383
  767SOL    HW2 3201   6.086   5.700   4.408
  768SOL     OW 3202   2.115   5.196   2.884
  768SOL    HW1 3203   2.210   5.167   2.878
  768SOL    HW2 3204   2.059   5.142   2.822
  769SOL     OW 3205   2.736   1.902   5.031
  769SOL    HW1 3206   2.696   1.962   4.963
  769SOL    HW2 3207   2.804   1.843   4.988
  770SOL     OW 3208   1.549   4.842   5.528
  770SOL    HW1 3209   1.595   4.783   5.461
  770SOL    HW2 3210   1.472   4.793   5.568
  771SOL     OW 3211   1.237   5.291   2.488
  771SOL    HW1 3212   1.257   5.222   2.419
  771SOL    HW2 3213   1.226   5.246   2.577
  772SOL     OW 3214   5.624   4.536   0.428
  772SOL    HW1 3215   5.524   4.526   0.433
  772SOL    HW2 3216   5.662   4.540   0.521
  773SOL     OW 3217   1.040   3.968   3.680
  773SOL    HW1 3218   0.998   3.994   3.593
  773SOL    HW2 3219   1.028   4.043   3.746
  774SOL     OW 3220   2.477   0.173   3.369
  774SOL    HW1 3221   2.417   0.250   3.389
  774SOL    HW2 3222   2.571   0.205   3.364
  775SOL     OW 3223   1.495   4.193   2.360
  775SOL    HW1 3224   1.567   4.218   2.295
  775SOL    HW2 3225   1.501   4.095   2.381
  776SOL     OW 3226   2.545   5.402   6.580
  776SOL    HW1 3227   2.589   5.492   6.577
  776SOL    HW2 3228   2.585   5.348   6.654
  777SOL     OW 3229   2.155   4.227   6.812
  777SOL    HW1 3230   2.177   4.129   6.810
  777SOL    HW2 3231   2.181   4.265   6.901
  778SOL     OW 3232   2.732   6.135   0.203
  778SOL    HW1 3233   2.809   6.198   0.214
  778SOL    HW2 3234   2.738   6.063   0.272
  779SOL     OW 3235   6.985   2.333   3.441
  779SOL    HW1 3236   0.023   2.281   3.505
  779SOL    HW2 3237   7.005   2.430   3.451
  780SOL     OW 3238   0.378   2.108   4.038
  780SOL    HW1 3239   0.367   2.196   3.993
  780SOL    HW2 3240   0.422   2.043   3.976
  781SOL     OW 3241   0.571   4.381   0.089
  781SOL    HW1 3242   0.618   4.415   0.170
  781SOL    HW2 3243   0.620   4.302   0.053
  782SOL     OW 3244   1.628   3.329   4.960
  782SOL    HW1 3245   1.572   3.274   4.898
  782SOL    HW2 3246   1.713   3.281   4.980
  783SOL     OW 3247   6.642   4.782   6.823
  783SOL    HW1 3248   6.558   4.758   6.775
  783SOL    HW2 3249   6.631   4.764   6.921
  784SOL     OW 3250   2.275   6.044   0.784
  784SOL    HW1 3251   2.272   6.143   0.789
  784SOL    HW2 3252   2.258   6.005   0.875
  785SOL     OW 3253   1.212   0.320   4.657
  785SOL    HW1 3254   1.264   0.302   4.741
  785SOL    HW2 3255   1.134   0.257   4.653
  786SOL     OW 3256   6.104   1.550   4.207
  786SOL    HW1 3257   6.202   1.547   4.188
  786SOL    HW2 3258   6.057   1.596   4.132
  787SOL     OW 3259   2.170   0.157   0.720
  787SOL    HW1 3260   2.259   0.150   0.676
  787SOL    HW2 3261   2.180   0.194   0.812
  788SOL     OW 3262   1.826   2.256   1.506
  788SOL    HW1 3263   1.741   2.248   1.558
  788SOL    HW2 3264   1.859   2.351   1.511
  789SOL     OW 3265   4.432   4.800   2.407
  789SOL    HW1 3266   4.399   4.734   2.340
  789SOL    HW2 3267   4.531   4.790   2.418
  790SOL     OW 3268   0.875   2.202   2.580
  790SOL    HW1 3269   0.868   2.242   2.671
  790SOL    HW2 3270   0.963   2.156   2.570
  791SOL     OW 3271   2.911   5.981   4.133
  791SOL    HW1 3272   2.894   5.996   4.230
  791SOL    HW2 3273   2.843   6.033   4.079
  792SOL     OW 3274   1.838   0.811   0.059
  792SOL    HW1 3275   1.749   0.834   0.098
  792SOL    HW2 3276   1.832   0.725   0.008
  793SOL     OW 3277   2.742   6.206   4.004
  793SOL    HW1 3278   2.699   6.143   3.941
  793SOL    HW2 3279   2.776   6.286   3.954
  794SOL     OW 3280   3.814   3.139   2.507
  794SOL    HW1 3281   3.742   3.174   2.446
  794SOL    HW2 3282   3.817   3.039   2.501
  795SOL     OW 3283   3.766   0.485   6.082
  795SOL    HW1 3284   3.816   0.491   5.995
  795SOL    HW2 3285   3.733   0.391   6.095
  796SOL     OW 3286   0.837   2.815   0.874
  796SOL    HW1 3287   0.840   2.789   0.777
  796SOL    HW2 3288   0.813   2.912   0.882
  797SOL     OW 3289   4.786   6.965   0.556
  797SOL    HW1 3290   4.872   7.014   0.572
  797SOL    HW2 3291   4.740   6.950   0.644
  798SOL     OW 3292   4.587   6.553   0.825
  798SOL    HW1 3293   4.684   6.571   0.811
  798SOL    HW2 3294   4.576   6.475   0.887
  799SOL     OW 3295   2.202   2.000   5.723
  799SOL    HW1 3296   2.157   2.042   5.803
  799SOL    HW2 3297   2.137   1.939   5.678
  800SOL     OW 3298   6.341   3.313   2.939
  800SOL    HW1 3299   6.410   3.304   3.011
  800SOL    HW2 3300   6.323   3.223   2.900
  801SOL     OW 3301   2.430   5.897   5.900
  801SOL    HW1 3302   2.503   5.948   5.945
  801SOL    HW2 3303   2.353   5.886   5.963
  802SOL     OW 3304   5.356   2.467   6.844
  802SOL    HW1 3305   5.327   2.558   6.815
  802SOL    HW2 3306   5.282   2.422   6.894
  803SOL     OW 3307   2.788   1.445   4.849
  803SOL    HW1 3308   2.822   1.358   4.885
  803SOL    HW2 3309   2.703   1.469   4.895
  804SOL     OW 3310   5.593   0.653   3.018
  804SOL    HW1 3311   5.626   0.642   3.112
  804SOL    HW2 3312   5.618   0.744   2.985
  805SOL     OW 3313   3.456   1.094   3.679
  805SOL    HW1 3314   3.434   1.145   3.762
  805SOL    HW2 3315   3.555   1.092   3.666
  806SOL     OW 3316   2.434   6.350   5.356
  806SOL    HW1 3317   2.395   6.442   5.363
  806SOL    HW2 3318   2.497   6.335   5.432
  807SOL     OW 3319   1.402   6.187   5.836
  807SOL    HW1 3320   1.482   6.169   5.778
  807SOL    HW2 3321   1.419   6.268   5.892
  808SOL     OW 3322   5.449   2.552   6.396
  808SOL    HW1 3323   5.414   2.551   6.303
  808SOL    HW2 3324   5.399   2.621   6.449
  809SOL     OW 3325   2.370   5.031   0.329
  809SOL    HW1 3326   2.272   5.016   0.321
  809SOL    HW2 3327   2.390   5.081   0.413
  810SOL     OW 3328   3.508   3.132   6.928
  810SOL    HW1 3329   3.490   3.230   6.917
  810SOL    HW2 3330   3.554   3.097   6.847
  811SOL     OW 3331   6.150   4.994   4.532
  811SOL    HW1 3332   6.186   4.953   4.449
  811SOL    HW2 3333   6.156   4.929   4.608
  812SOL     OW 3334   0.457   3.127   2.030
  812SOL    HW1 3335   0.385   3.120   1.961
  812SOL    HW2 3336   0.516   3.047   2.026
  813SOL     OW 3337   1.265   1.642   4.820
  813SOL    HW1 3338   1.259   1.545   4.799
  813SOL    HW2 3339   1.357   1.676   4.800
  814SOL     OW 3340   1.001   5.403   2.986
  814SOL    HW1 3341   0.942   5.331   2.951
  814SOL    HW2 3342   0.957   5.492   2.973
  815SOL     OW 3343   4.686   1.746   4.938
  815SOL    HW1 3344   4.621   1.809   4.895
  815SOL    HW2 3345   4.635   1.673   4.985
  816SOL     OW 3346   5.992   4.858   6.583
  816SOL    HW1 3347   5.966   4.774   6.631
  816SOL    HW2 3348   5.960   4.853   6.488
  817SOL     OW 3349   0.453   4.612   6.722
  817SOL    HW1 3350   0.430   4.629   6.817
  817SOL    HW2 3351   0.513   4.532   6.716
  818SOL     OW 3352   6.570   2.187   4.971
  818SOL    HW1 3353   6.515   2.204   4.889
  818SOL    HW2 3354   6.665   2.213   4.954
  819SOL     OW 3355   5.143   2.973   1.469
  819SOL    HW1 3356   5.066   2.968   1.533
  819SOL    HW2 3357   5.170   2.881   1.443
  820SOL     OW 3358   2.521   1.696   5.176
  820SOL    HW1 3359   2.597   1.722   5.236
  820SOL    HW2 3360   2.434   1.718   5.221
  821SOL     OW 3361   4.864   3.469   6.220
  821SOL    HW1 3362   4.893   3.554   6.264
  821SOL    HW2 3363   4.764   3.472   6.208
  822SOL     OW 3364   0.457   4.993   3.467
  822SOL    HW1 3365   0.407   4.944   3.539
  822SOL    HW2 3366   0.405   5.073   3.438
  823SOL     OW 3367   1.282   3.269   4.873
  823SOL    HW1 3368   1.310   3.174   4.858
  823SOL    HW2 3369   1.281   3.318   4.786
  824SOL     OW 3370   5.177   0.856   6.771
  824SOL    HW1 3371   5.096   0.912   6.750
  824SOL    HW2 3372   5.180   0.778   6.709
  825SOL     OW 3373   5.803   5.762   0.980
  825SOL    HW1 3374   5.799   5.666   1.008
  825SOL    HW2 3375   5.859   5.813   1.046
  826SOL     OW 3376   3.949   2.735   6.894
  826SOL    HW1 3377   3.852   2.743   6.873
  826SOL    HW2 3378   3.979   2.815   6.946
  827SOL     OW 3379   4.197   3.894   5.620
  827SOL    HW1 3380   4.191   3.993   5.614
  827SOL    HW2 3381   4.136   3.852   5.552
  828SOL     OW 3382   6.684   6.091   6.083
  828SOL    HW1 3383   6.720   6.026   6.016
  828SOL    HW2 3384   6.595   6.058   6.116
  829SOL     OW 3385   3.240   3.601   2.777
  829SOL    HW1 3386   3.297   3.678   2.805
  829SOL    HW2 3387   3.224   3.606   2.679
  830SOL     OW 3388   6.700   4.573   0.215
  830SOL    HW1 3389   6.673   4.488   0.170
  830SOL    HW2 3390   6.680   4.567   0.313
  831SOL     OW 3391   4.905   0.036   1.570
  831SOL    HW1 3392   4.925   0.032   1.667
  831SOL    HW2 3393   4.875   0.128   1.546
  832SOL     OW 3394   3.081   1.404   4.563
  832SOL    HW1 3395   3.119   1.495   4.579
  832SOL    HW2 3396   2.982   1.407   4.575
  833SOL     OW 3397   3.551   2.347   0.112
  833SOL    HW1 3398   3.548   2.405   0.030
  833SOL    HW2 3399   3.457   2.327   0.141
  834SOL     OW 3400   5.868   3.013   0.344
  834SOL    HW1 3401   5.955   3.059   0.362
  834SOL    HW2 3402   5.872   2.919   0.379
  835SOL     OW 3403   0.189   6.997   4.051
  835SOL    HW1 3404   0.224   6.931   4.118
  835SOL    HW2 3405   0.167   6.950   3.966
  836SOL     OW 3406   4.903   0.872   4.709
  836SOL    HW1 3407   4.966   0.847   4.782
  836SOL    HW2 3408   4.821   0.816   4.715
  837SOL     OW 3409   1.538   0.956   0.465
  837SOL    HW1 3410   1.442   0.932   0.454
  837SOL    HW2 3411   1.582   0.894   0.530
  838SOL     OW 3412   1.205   5.372   3.720
  838SOL    HW1 3413   1.263   5.311   3.775
  838SOL    HW2 3414   1.141   5.420   3.780
  839SOL     OW 3415   1.556   1.914   0.276
  839SOL    HW1 3416   1.527   1.879   0.187
  839SOL    HW2 3417   1.578   2.012   0.268
  840SOL     OW 3418   4.872   5.135   6.818
  840SOL    HW1 3419   4.788   5.083   6.798
  840SOL    HW2 3420   4.908   5.173   6.732
  841SOL     OW 3421   3.171   4.699   0.300
  841SOL    HW1 3422   3.132   4.707   0.208
  841SOL    HW2 3423   3.098   4.685   0.366
  842SOL     OW 3424   4.047   5.812   0.498
  842SOL    HW1 3425   3.983   5.837   0.425
  842SOL    HW2 3426   3.996   5.778   0.577
  843SOL     OW 3427   0.966   1.023   2.103
  843SOL    HW1 3428   0.972   0.932   2.145
  843SOL    HW2 3429   0.871   1.044   2.083
  844SOL     OW 3430   6.796   0.759   1.296
  844SOL    HW1 3431   6.805   0.757   1.395
  844SOL    HW2 3432   6.784   0.853   1.265
  845SOL     OW 3433   3.438   1.073   2.299
  845SOL    HW1 3434   3.479   1.148   2.351
  845SOL    HW2 3435   3.491   1.059   2.215
  846SOL     OW 3436   3.110   1.486   1.150
  846SOL    HW1 3437   3.056   1.474   1.067
  846SOL    HW2 3438   3.195   1.534   1.128
  847SOL     OW 3439   2.722   3.959   1.622
  847SOL    HW1 3440   2.703   3.922   1.531
  847SOL    HW2 3441   2.819   3.945   1.643
  848SOL     OW 3442   0.036   5.870   0.329
  848SOL    HW1 3443   0.121   5.863   0.381
  848SOL    HW2 3444   6.982   5.905   0.389
  849SOL     OW 3445   5.986   3.682   6.505
  849SOL    HW1 3446   5.976   3.758   6.440
  849SOL    HW2 3447   5.992   3.596   6.454
  850SOL     OW 3448   1.098   0.378   5.039
  850SOL    HW1 3449   1.110   0.303   4.974
  850SOL    HW2 3450   1.160   0.364   5.117
  851SOL     OW 3451   5.580   3.645   6.052
  851SOL    HW1 3452   5.597   3.743   6.047
  851SOL    HW2 3453   5.667   3.597   6.068
  852SOL     OW 3454   0.365   3.921   2.128
  852SOL    HW1 3455   0.274   3.909   2.088
  852SOL    HW2 3456   0.434   3.887   2.064
  853SOL     OW 3457   2.777   2.462   0.165
  853SOL    HW1 3458   2.790   2.457   0.264
  853SOL    HW2 3459   2.799   2.554   0.132
  854SOL     OW 3460   5.644   6.118   6.337
  854SOL    HW1 3461   5.691   6.172   6.407
  854SOL    HW2 3462   5.645   6.021   6.363
  855SOL     OW 3463   5.384   1.504   0.520
  855SOL    HW1 3464   5.357   1.408   0.530
  855SOL    HW2 3465   5.362   1.535   0.428
  856SOL     OW 3466   2.104   5.114   1.532
  856SOL    HW1 3467   2.039   5.086   1.603
  856SOL    HW2 3468   2.063   5.186   1.476
  857SOL     OW 3469   6.696   5.610   5.400
  857SOL    HW1 3470   6.669   5.675   5.472
  857SOL    HW2 3471   6.628   5.537   5.394
  858SOL     OW 3472   4.639   3.090   0.039
  858SOL    HW1 3473   4.724   3.143   0.036
  858SOL    HW2 3474   4.659   2.995   0.063
  859SOL     OW 3475   4.892   6.598   5.272
  859SOL    HW1 3476   4.985   6.634   5.275
  859SOL    HW2 3477   4.880   6.546   5.187
  860SOL     OW 3478   5.007   3.170   6.057
  860SOL    HW1 3479   4.935   3.173   5.987
  860SOL    HW2 3480   5.073   3.099   6.032
  861SOL     OW 3481   1.941   5.639   1.749
  861SOL    HW1 3482   2.017   5.580   1.722
  861SOL    HW2 3483   1.939   5.720   1.690
  862SOL     OW 3484   0.422   3.904   3.601
  862SOL    HW1 3485   0.367   3.976   3.561
  862SOL    HW2 3486   0.382   3.815   3.580
  863SOL     OW 3487   6.613   0.465   0.697
  863SOL    HW1 3488   6.528   0.472   0.645
  863SOL    HW2 3489   6.599   0.501   0.789
  864SOL     OW 3490   5.556   6.530   4.576
  864SOL    HW1 3491   5.627   6.580   4.526
  864SOL    HW2 3492   5.469   6.578   4.566
  865SOL     OW 3493   1.568   6.483   5.130
  865SOL    HW1 3494   1.523   6.459   5.216
  865SOL    HW2 3495   1.587   6.399   5.079
  866SOL     OW 3496   3.865   6.886   2.099
  866SOL    HW1 3497   3.767   6.900   2.083
  866SOL    HW2 3498   3.882   6.887   2.198
  867SOL     OW 3499   5.712   2.673   6.412
  867SOL    HW1 3500   5.617   2.646   6.398
  867SOL    HW2 3501   5.717   2.739   6.487
  868SOL     OW 3502   6.864   2.026   2.502
  868SOL    HW1 3503   6.919   2.049   2.422
  868SOL    HW2 3504   6.914   2.051   2.585
  869SOL     OW 3505   6.942   3.895   3.709
  869SOL    HW1 3506   6.851   3.932   3.691
  869SOL    HW2 3507   6.988   3.952   3.777
  870SOL     OW 3508   3.361   5.350   2.080
  870SOL    HW1 3509   3.309   5.317   2.160
  870SOL    HW2 3510   3.452   5.309   2.080
  871SOL     OW 3511   4.503   1.392   3.331
  871SOL    HW1 3512   4.446   1.452   3.275
  871SOL    HW2 3513   4.555   1.330   3.271
  872SOL     OW 3514   0.161   2.405   5.031
  872SOL    HW1 3515   0.170   2.413   5.130
  872SOL    HW2 3516   0.073   2.444   5.002
  873SOL     OW 3517   4.516   6.621   5.965
  873SOL    HW1 3518   4.591   6.685   5.950
  873SOL    HW2 3519   4.551   6.527   5.963
  874SOL     OW 3520   4.526   3.892   1.080
  874SOL    HW1 3521   4.461   3.934   1.017
  874SOL    HW2 3522   4.521   3.938   1.169
  875SOL     OW 3523   5.332   5.420   1.340
  875SOL    HW1 3524   5.373   5.446   1.428
  875SOL    HW2 3525   5.370   5.477   1.267
  876SOL     OW 3526   6.934   6.728   1.305
  876SOL    HW1 3527   6.968   6.799   1.368
  876SOL    HW2 3528   7.004   6.660   1.290
  877SOL     OW 3529   2.139   2.721   6.431
  877SOL    HW1 3530   2.072   2.647   6.433
  877SOL    HW2 3531   2.092   2.808   6.417
  878SOL     OW 3532   4.534   6.239   4.054
  878SOL    HW1 3533   4.488   6.169   4.107
  878SOL    HW2 3534   4.468   6.282   3.991
  879SOL     OW 3535   6.001   0.458   0.287
  879SOL    HW1 3536   6.036   0.546   0.318
  879SOL    HW2 3537   6.053   0.384   0.330
  880SOL     OW 3538   2.940   3.769   2.886
  880SOL    HW1 3539   2.927   3.681   2.931
  880SOL    HW2 3540   2.974   3.836   2.952
  881SOL     OW 3541   4.046   1.700   0.016
  881SOL    HW1 3542   4.000   1.623   6.990
  881SOL    HW2 3543   4.137   1.672   0.047
  882SOL     OW 3544   1.245   3.709   4.170
  882SOL    HW1 3545   1.165   3.765   4.195
  882SOL    HW2 3546   1.260   3.639   4.239
  883SOL     OW 3547   2.511   0.344   2.618
  883SOL    HW1 3548   2.530   0.253   2.654
  883SOL    HW2 3549   2.471   0.401   2.690
  884SOL     OW 3550   4.857   3.419   5.581
  884SOL    HW1 3551   4.841   3.517   5.597
  884SOL    HW2 3552   4.813   3.392   5.495
  885SOL     OW 3553   3.639   2.523   5.968
  885SOL    HW1 3554   3.700   2.538   6.046
  885SOL    HW2 3555   3.584   2.441   5.983
  886SOL     OW 3556   3.468   0.078   6.481
  886SOL    HW1 3557   3.419   0.144   6.538
  886SOL    HW2 3558   3.447   7.004   6.512
  887SOL     OW 3559   4.738   1.752   4.450
  887SOL    HW1 3560   4.783   1.750   4.539
  887SOL    HW2 3561   4.763   1.670   4.398
  888SOL     OW 3562   6.737   0.164   3.072
  888SOL    HW1 3563   6.640   0.153   3.052
  888SOL    HW2 3564   6.753   0.144   3.169
  889SOL     OW 3565   0.503   3.364   6.741
  889SOL    HW1 3566   0.416   3.360   6.790
  889SOL    HW2 3567   0.566   3.297   6.779
  890SOL     OW 3568   2.819   5.092   4.251
  890SOL    HW1 3569   2.830   5.072   4.348
  890SOL    HW2 3570   2.741   5.153   4.238
  891SOL     OW 3571   5.533   5.421   1.521
  891SOL    HW1 3572   5.515   5.442   1.617
  891SOL    HW2 3573   5.630   5.439   1.501
  892SOL     OW 3574   2.890   4.498   0.348
  892SOL    HW1 3575   2.859   4.565   0.280
  892SOL    HW2 3576   2.943   4.545   0.419
  893SOL     OW 3577   2.447   6.352   2.479
  893SOL    HW1 3578   2.506   6.299   2.418
  893SOL    HW2 3579   2.358   6.365   2.436
  894SOL     OW 3580   1.110   3.968   1.124
  894SOL    HW1 3581   1.162   3.968   1.210
  894SOL    HW2 3582   1.018   4.004   1.141
  895SOL     OW 3583   0.437   5.853   4.144
  895SOL    HW1 3584   0.382   5.936   4.147
  895SOL    HW2 3585   0.435   5.815   4.051
  896SOL     OW 3586   6.972   6.502   5.271
  896SOL    HW1 3587   6.980   6.600   5.287
  896SOL    HW2 3588   6.884   6.483   5.226
  897SOL     OW 3589   5.328   1.099   6.878
  897SOL    HW1 3590   5.428   1.100   6.877
  897SOL    HW2 3591   5.296   1.004   6.875
  898SOL     OW 3592   3.947   6.105   3.018
  898SOL    HW1 3593   4.025   6.161   3.047
  898SOL    HW2 3594   3.964   6.010   3.043
  899SOL     OW 3595   0.167   4.883   0.323
  899SOL    HW1 3596   0.098   4.923   0.263
  899SOL    HW2 3597   0.136   4.792   0.354
  900SOL     OW 3598   4.945   5.426   0.518
  900SOL    HW1 3599   4.876   5.432   0.590
  900SOL    HW2 3600   5.036   5.422   0.559
  901SOL     OW 3601   1.761   0.901   2.228
  901SOL    HW1 3602   1.662   0.907   2.232
  901SOL    HW2 3603   1.801   0.991   2.242
  902SOL     OW 3604   6.332   3.998   2.151
  902SOL    HW1 3605   6.269   3.921   2.148
  902SOL    HW2 3606   6.418   3.974   2.106
  903SOL     OW 3607   0.358   2.568   0.708
  903SOL    HW1 3608   0.349   2.490   0.646
  903SOL    HW2 3609   0.322   2.651   0.664
  904SOL     OW 3610   2.650   1.640   2.346
  904SOL    HW1 3611   2.652   1.721   2.287
  904SOL    HW2 3612   2.566   1.589   2.330
  905SOL     OW 3613   6.227   2.788   6.737
  905SOL    HW1 3614   6.273   2.706   6.706
  905SOL    HW2 3615   6.276   2.869   6.705
  906SOL     OW 3616   6.062   3.707   6.760
  906SOL    HW1 3617   6.033   3.691   6.666
  906SOL    HW2 3618   6.021   3.638   6.820
  907SOL     OW 3619   5.037   3.834   6.720
  907SOL    HW1 3620   4.963   3.844   6.654
  907SOL    HW2 3621   5.076   3.924   6.740
  908SOL     OW 3622   1.945   4.219   2.793
  908SOL    HW1 3623   2.020   4.213   2.728
  908SOL    HW2 3624   1.867   4.265   2.750
  909SOL     OW 3625   5.406   5.216   6.588
  909SOL    HW1 3626   5.406   5.215   6.488
  909SOL    HW2 3627   5.485   5.165   6.621
  910SOL     OW 3628   2.280   3.416   1.013
  910SOL    HW1 3629   2.253   3.371   0.928
  910SOL    HW2 3630   2.208   3.478   1.042
  911SOL     OW 3631   1.185   5.274   6.290
  911SOL    HW1 3632   1.093   5.300   6.318
  911SOL    HW2 3633   1.242   5.355   6.282
  912SOL     OW 3634   4.895   2.175   2.707
  912SOL    HW1 3635   4.948   2.096   2.738
  912SOL    HW2 3636   4.847   2.216   2.785
  913SOL     OW 3637   4.708   6.654   3.336
  913SOL    HW1 3638   4.661   6.737   3.308
  913SOL    HW2 3639   4.652   6.604   3.402
  914SOL     OW 3640   3.116   6.458   0.278
  914SOL    HW1 3641   3.199   6.475   0.331
  914SOL    HW2 3642   3.061   6.542   0.275
  915SOL     OW 3643   5.981   5.626   0.569
  915SOL    HW1 3644   6.050   5.558   0.543
  915SOL    HW2 3645   5.967   5.690   0.494
  916SOL     OW 3646   0.812   2.127   2.342
  916SOL    HW1 3647   0.897   2.116   2.290
  916SOL    HW2 3648   0.833   2.162   2.433
  917SOL     OW 3649   6.511   6.752   0.971
  917SOL    HW1 3650   6.474   6.671   1.017
  917SOL    HW2 3651   6.534   6.822   1.038
  918SOL     OW 3652   2.192   5.470   0.255
  918SOL    HW1 3653   2.130   5.447   0.180
  918SOL    HW2 3654   2.190   5.569   0.270
  919SOL     OW 3655   5.741   2.214   4.949
  919SOL    HW1 3656   5.779   2.294   4.902
  919SOL    HW2 3657   5.653   2.190   4.907
  920SOL     OW 3658   2.827   4.800   2.149
  920SOL    HW1 3659   2.822   4.736   2.073
  920SOL    HW2 3660   2.751   4.783   2.212
  921SOL     OW 3661   4.772   4.929   5.051
  921SOL    HW1 3662   4.816   4.862   5.111
  921SOL    HW2 3663   4.812   4.923   4.960
  922SOL     OW 3664   3.463   2.844   3.716
  922SOL    HW1 3665   3.514   2.915   3.668
  922SOL    HW2 3666   3.520   2.762   3.724
  923SOL     OW 3667   2.205   3.554   5.301
  923SOL    HW1 3668   2.252   3.477   5.343
  923SOL    HW2 3669   2.170   3.527   5.211
  924SOL     OW 3670   0.224   3.919   2.966
  924SOL    HW1 3671   0.230   3.944   2.869
  924SOL    HW2 3672   0.301   3.861   2.990
  925SOL     OW 3673   6.736   1.761   0.004
  925SOL    HW1 3674   6.693   1.720   0.084
  925SOL    HW2 3675   6.700   1.854   7.008
  926SOL     OW 3676   0.853   1.578   2.159
  926SOL    HW1 3677   0.787   1.622   2.099
  926SOL    HW2 3678   0.935   1.553   2.107
  927SOL     OW 3679   5.979   3.826   3.707
  927SOL    HW1 3680   6.043   3.812   3.783
  927SOL    HW2 3681   5.953   3.737   3.669
  928SOL     OW 3682   2.685   4.836   6.487
  928SOL    HW1 3683   2.595   4.845   6.445
  928SOL    HW2 3684   2.685   4.880   6.577
  929SOL     OW 3685   6.768   1.303   5.271
  929SOL    HW1 3686   6.691   1.274   5.327
  929SOL    HW2 3687   6.817   1.377   5.318
  930SOL     OW 3688   5.608   4.892   6.010
  930SOL    HW1 3689   5.537   4.922   5.946
  930SOL    HW2 3690   5.567   4.868   6.097
  931SOL     OW 3691   6.607   2.175   3.249
  931SOL    HW1 3692   6.654   2.204   3.332
  931SOL    HW2 3693   6.635   2.232   3.172
  932SOL     OW 3694   3.977   0.452   3.248
  932SOL    HW1 3695   3.912   0.409   3.311
  932SOL    HW2 3696   3.979   0.550   3.265
  933SOL     OW 3697   1.242   5.292   1.300
  933SOL    HW1 3698   1.264   5.271   1.395
  933SOL    HW2 3699   1.291   5.230   1.239
  934SOL     OW 3700   1.434   3.977   0.148
  934SOL    HW1 3701   1.439   4.077   0.144
  934SOL    HW2 3702   1.348   3.947   0.107
  935SOL     OW 3703   5.835   3.335   4.185
  935SOL    HW1 3704   5.774   3.354   4.262
  935SOL    HW2 3705   5.807   3.390   4.106
  936SOL     OW 3706   1.489   6.961   6.041
  936SOL    HW1 3707   1.425   6.996   5.972
  936SOL    HW2 3708   1.455   6.873   6.076
  937SOL     OW 3709   4.258   1.741   6.000
  937SOL    HW1 3710   4.193   1.665   5.996
  937SOL    HW2 3711   4.276   1.764   6.096
  938SOL     OW 3712   5.664   5.741   4.053
  938SOL    HW1 3713   5.705   5.653   4.077
  938SOL    HW2 3714   5.585   5.757   4.112
  939SOL     OW 3715   0.240   6.718   5.710
  939SOL    HW1 3716   0.193   6.630   5.707
  939SOL    HW2 3717   0.256   6.745   5.805
  940SOL     OW 3718   1.865   4.809   0.398
  940SOL    HW1 3719   1.956   4.848   0.411
  940SOL    HW2 3720   1.867   4.744   0.322
  941SOL     OW 3721   3.467   0.489   6.996
  941SOL    HW1 3722   3.536   0.552   0.016
  941SOL    HW2 3723   3.481   0.480   6.898
  942SOL     OW 3724   7.008   5.347   0.376
  942SOL    HW1 3725   0.049   5.288   0.431
  942SOL    HW2 3726   0.043   5.387   0.301
  943SOL     OW 3727   3.120   5.517   2.503
  943SOL    HW1 3728   3.119   5.471   2.591
  943SOL    HW2 3729   3.137   5.615   2.516
  944SOL     OW 3730   6.376   6.851   4.149
  944SOL    HW1 3731   6.460   6.822   4.196
  944SOL    HW2 3732   6.399   6.915   4.076
  945SOL     OW 3733   0.875   5.589   0.219
  945SOL    HW1 3734   0.824   5.667   0.181
  945SOL    HW2 3735   0.816   5.537   0.280
  946SOL     OW 3736   4.927   2.963   3.792
  946SOL    HW1 3737   4.855   2.897   3.816
  946SOL    HW2 3738   4.936   2.967   3.693
  947SOL     OW 3739   3.930   4.002   4.137
  947SOL    HW1 3740   3.918   4.080   4.076
  947SOL    HW2 3741   3.906   3.918   4.088
  948SOL     OW 3742   4.172   0.868   2.754
  948SOL    HW1 3743   4.102   0.903   2.692
  948SOL    HW2 3744   4.246   0.826   2.700
  949SOL     OW 3745   2.558   6.711   6.236
  949SOL    HW1 3746   2.627   6.662   6.290
  949SOL    HW2 3747   2.561   6.808   6.260
  950SOL     OW 3748   6.905   0.297   1.921
  950SOL    HW1 3749   6.887   0.241   1.840
  950SOL    HW2 3750   6.973   0.367   1.899
  951SOL     OW 3751   2.074   6.385   3.013
  951SOL    HW1 3752   2.001   6.357   3.075
  951SOL    HW2 3753   2.146   6.431   3.065
  952SOL     OW 3754   2.816   1.441   2.397
  952SOL    HW1 3755   2.871   1.476   2.473
  952SOL    HW2 3756   2.762   1.515   2.357
  953SOL     OW 3757   6.456   4.334   5.712
  953SOL    HW1 3758   6.500   4.398   5.775
  953SOL    HW2 3759   6.372   4.375   5.676
  954SOL     OW 3760   4.330   5.807   2.741
  954SOL    HW1 3761   4.316   5.756   2.826
  954SOL    HW2 3762   4.408   5.768   2.692
  955SOL     OW 3763   1.618   4.943   6.738
  955SOL    HW1 3764   1.589   5.020   6.795
  955SOL    HW2 3765   1.579   4.953   6.646
  956SOL     OW 3766   5.485   0.636   1.348
  956SOL    HW1 3767   5.420   0.635   1.424
  956SOL    HW2 3768   5.466   0.714   1.288
  957SOL     OW 3769   5.743   0.957   3.410
  957SOL    HW1 3770   5.833   0.978   3.449
  957SOL    HW2 3771   5.683   0.923   3.483
  958SOL     OW 3772   5.165   6.907   1.858
  958SOL    HW1 3773   5.204   6.927   1.948
  958SOL    HW2 3774   5.074   6.950   1.851
  959SOL     OW 3775   4.159   6.888   4.415
  959SOL    HW1 3776   4.109   6.910   4.331
  959SOL    HW2 3777   4.178   6.972   4.465
  960SOL     OW 3778   1.548   0.048   6.632
  960SOL    HW1 3779   1.627   0.059   6.692
  960SOL    HW2 3780   1.564   6.991   6.568
  961SOL     OW 3781   3.281   6.978   3.106
  961SOL    HW1 3782   3.203   6.964   3.044
  961SOL    HW2 3783   3.268   6.921   3.188
  962SOL     OW 3784   6.175   0.916   5.057
  962SOL    HW1 3785   6.225   0.880   5.136
  962SOL    HW2 3786   6.108   0.849   5.027
  963SOL     OW 3787   5.659   3.331   0.940
  963SOL    HW1 3788   5.586   3.395   0.919
  963SOL    HW2 3789   5.634   3.278   1.022
  964SOL     OW 3790   4.717   4.663   5.540
  964SOL    HW1 3791   4.676   4.753   5.550
  964SOL    HW2 3792   4.654   4.603   5.489
  965SOL     OW 3793   5.952   2.672   3.461
  965SOL    HW1 3794   5.915   2.583   3.488
  965SOL    HW2 3795   5.960   2.730   3.542
  966SOL     OW 3796   4.709   1.427   4.827
  966SOL    HW1 3797   4.639   1.403   4.760
  966SOL    HW2 3798   4.668   1.438   4.917
  967SOL     OW 3799   4.822   3.772   5.969
  967SOL    HW1 3800   4.834   3.785   5.871
  967SOL    HW2 3801   4.777   3.683   5.986
  968SOL     OW 3802   3.807   0.492   1.691
  968SOL    HW1 3803   3.734   0.426   1.709
  968SOL    HW2 3804   3.871   0.492   1.769
  969SOL     OW 3805   3.278   3.993   6.681
  969SOL    HW1 3806   3.296   3.896   6.665
  969SOL    HW2 3807   3.232   4.032   6.601
  970SOL     OW 3808   5.367   6.969   6.095
  970SOL    HW1 3809   5.406   6.964   6.003
  970SOL    HW2 3810   5.408   0.028   6.144
  971SOL     OW 3811   5.460   4.020   3.251
  971SOL    HW1 3812   5.478   3.980   3.341
  971SOL    HW2 3813   5.511   4.106   3.242
  972SOL     OW 3814   0.157   2.997   0.503
  972SOL    HW1 3815   0.165   2.908   0.547
  972SOL    HW2 3816   0.111   3.061   0.565
  973SOL     OW 3817   7.005   3.271   6.304
  973SOL    HW1 3818   0.033   3.284   6.216
  973SOL    HW2 3819   0.047   3.305   6.377
  974SOL     OW 3820   6.919   4.934   2.855
  974SOL    HW1 3821   6.938   4.941   2.953
  974SOL    HW2 3822   7.001   4.957   2.803
  975SOL     OW 3823   2.755   0.741   1.973
  975SOL    HW1 3824   2.792   0.826   1.936
  975SOL    HW2 3825   2.658   0.753   1.993
  976SOL     OW 3826   6.988   3.196   3.072
  976SOL    HW1 3827   0.026   3.114   3.071
  976SOL    HW2 3828   6.899   3.177   3.030
  977SOL     OW 3829   6.758   0.890   2.471
  977SOL    HW1 3830   6.769   0.937   2.558
  977SOL    HW2 3831   6.669   0.845   2.468
  978SOL     OW 3832   5.281   3.323   1.693
  978SOL    HW1 3833   5.182   3.314   1.690
  978SOL    HW2 3834   5.323   3.256   1.632
  979SOL     OW 3835   0.908   4.018   6.832
  979SOL    HW1 3836   0.881   4.072   6.911
  979SOL    HW2 3837   0.848   4.041   6.754
  980SOL     OW 3838   3.457   1.129   4.247
  980SOL    HW1 3839   3.531   1.124   4.180
  980SOL    HW2 3840   3.468   1.212   4.302
  981SOL     OW 3841   6.986   6.766   5.337
  981SOL    HW1 3842   6.957   6.729   5.426
  981SOL    HW2 3843   6.959   6.861   5.329
  982SOL     OW 3844   6.247   1.201   5.486
  982SOL    HW1 3845   6.304   1.278   5.514
  982SOL    HW2 3846   6.206   1.159   5.567
  983SOL     OW 3847   0.312   4.734   4.191
  983SOL    HW1 3848   0.234   4.776   4.143
  983SOL    HW2 3849   0.279   4.674   4.263
  984SOL     OW 3850   0.242   3.371   3.675
  984SOL    HW1 3851   0.191   3.378   3.589
  984SOL    HW2 3852   0.203   3.434   3.743
  985SOL     OW 3853   6.707   4.568   5.451
  985SOL    HW1 3854   6.806   4.567   5.441
  985SOL    HW2 3855   6.678   4.655   5.491
  986SOL     OW 3856   5.221   5.107   1.530
  986SOL    HW1 3857   5.310   5.150   1.514
  986SOL    HW2 3858   5.234   5.026   1.587
  987SOL     OW 3859   4.739   4.641   4.372
  987SOL    HW1 3860   4.687   4.617   4.454
  987SOL    HW2 3861   4.755   4.558   4.317
  988SOL     OW 3862   2.588   4.171   1.764
  988SOL    HW1 3863   2.606   4.268   1.747
  988SOL    HW2 3864   2.648   4.116   1.706
  989SOL     OW 3865   0.977   1.297   0.597
  989SOL    HW1 3866   0.960   1.395   0.606
  989SOL    HW2 3867   0.909   1.246   0.649
  990SOL     OW 3868   3.916   6.725   3.713
  990SOL    HW1 3869   3.830   6.691   3.750
  990SOL    HW2 3870   3.975   6.756   3.788
  991SOL     OW 3871   6.946   5.195   3.316
  991SOL    HW1 3872   6.912   5.144   3.394
  991SOL    HW2 3873   6.894   5.280   3.307
  992SOL     OW 3874   0.116   2.207   0.497
  992SOL    HW1 3875   0.068   2.147   0.432
  992SOL    HW2 3876   0.171   2.151   0.559
  993SOL     OW 3877   1.511   5.166   6.846
  993SOL    HW1 3878   1.598   5.210   6.869
  993SOL    HW2 3879   1.440   5.201   6.907
  994SOL     OW 3880   3.408   6.159   6.977
  994SOL    HW1 3881   3.314   6.146   7.010
  994SOL    HW2 3882   3.433   6.082   6.918
  995SOL     OW 3883   6.093   4.114   5.819
  995SOL    HW1 3884   6.049   4.090   5.733
  995SOL    HW2 3885   6.049   4.196   5.857
  996SOL     OW 3886   3.539   5.946   4.979
  996SOL    HW1 3887   3.518   6.016   4.911
  996SOL    HW2 3888   3.606   5.882   4.942
  997SOL     OW 3889   1.512   6.083   2.765
  997SOL    HW1 3890   1.509   5.983   2.757
  997SOL    HW2 3891   1.436   6.115   2.821
  998SOL     OW 3892   5.741   0.807   6.307
  998SOL    HW1 3893   5.732   0.717   6.349
  998SOL    HW2 3894   5.721   0.878   6.374
  999SOL     OW 3895   4.905   3.978   2.624
  999SOL    HW1 3896   4.838   4.050   2.644
  999SOL    HW2 3897   4.895   3.950   2.528
 1000SOL     OW 3898   4.853   2.380   1.238
 1000SOL    HW1 3899   4.888   2.315   1.304
 1000SOL    HW2 3900   4.863   2.473   1.274
 1001SOL     OW 3901   2.962   6.991   2.356
 1001SOL    HW1 3902   2.951   0.068   2.327
 1001SOL    HW2 3903   2.918   6.930   2.289
 1002SOL     OW 3904   5.331   2.713   0.647
 1002SOL    HW1 3905   5.427   2.726   0.675
 1002SOL    HW2 3906   5.274   2.701   0.728
 1003SOL     OW 3907   0.802   0.761   3.058
 1003SOL    HW1 3908   0.735   0.834   3.047
 1003SOL    HW2 3909   0.875   0.791   3.120
 1004SOL     OW 3910   5.617   1.834   3.756
 1004SOL    HW1 3911   5.664   1.853   3.669
 1004SOL    HW2 3912   5.534   1.888   3.761
 1005SOL     OW 3913   1.228   4.691   1.992
 1005SOL    HW1 3914   1.274   4.629   2.056
 1005SOL    HW2 3915   1.172   4.756   2.043
 1006SOL     OW 3916   2.607   3.645   0.806
 1006SOL    HW1 3917   2.570   3.616   0.894
 1006SOL    HW2 3918   2.707   3.645   0.810
 1007SOL     OW 3919   4.954   1.004   6.701
 1007SOL    HW1 3920   4.932   1.066   6.777
 1007SOL    HW2 3921   4.934   1.048   6.614
 1008SOL     OW 3922   0.386   4.931   5.597
 1008SOL    HW1 3923   0.430   4.984   5.524
 1008SOL    HW2 3924   0.426   4.956   5.685
 1009SOL     OW 3925   0.156   5.398   6.157
 1009SOL    HW1 3926   0.123   5.312   6.196
 1009SOL    HW2 3927   0.128   5.404   6.061
 1010SOL     OW 3928   2.857   2.994   0.972
 1010SOL    HW1 3929   2.917   2.951   1.040
 1010SOL    HW2 3930   2.794   2.926   0.936
 1011SOL     OW 3931   6.930   5.354   2.341
 1011SOL    HW1 3932   6.977   5.349   2.253
 1011SOL    HW2 3933   6.965   5.432   2.393
 1012SOL     OW 3934   4.596   6.931   3.517
 1012SOL    HW1 3935   4.638   6.906   3.430
 1012SOL    HW2 3936   4.559   0.006   3.511
 1013SOL     OW 3937   0.236   6.205   6.291
 1013SOL    HW1 3938   0.272   6.125   6.339
 1013SOL    HW2 3939   0.309   6.247   6.236
 1014SOL     OW 3940   1.121   4.441   5.379
 1014SOL    HW1 3941   1.129   4.500   5.298
 1014SOL    HW2 3942   1.044   4.471   5.435
 1015SOL     OW 3943   3.058   6.165   6.952
 1015SOL    HW1 3944   3.060   6.174   6.852
 1015SOL    HW2 3945   3.027   6.251   6.992
 1016SOL     OW 3946   6.045   4.338   1.943
 1016SOL    HW1 3947   6.090   4.405   2.002
 1016SOL    HW2 3948   6.107   4.261   1.926
 1017SOL     OW 3949   1.924   1.718   1.970
 1017SOL    HW1 3950   1.920   1.636   1.913
 1017SOL    HW2 3951   1.944   1.797   1.912
 1018SOL     OW 3952   6.190   6.493   4.074
 1018SOL    HW1 3953   6.220   6.476   4.168
 1018SOL    HW2 3954   6.205   6.412   4.019
 1019SOL     OW 3955   6.242   4.529   0.821
 1019SOL    HW1 3956   6.255   4.580   0.906
 1019SOL    HW2 3957   6.147   4.501   0.813
 1020SOL     OW 3958   6.027   1.311   0.968
 1020SOL    HW1 3959   6.039   1.317   0.869
 1020SOL    HW2 3960   6.019   1.215   0.995
 1021SOL     OW 3961   0.325   6.511   1.099
 1021SOL    HW1 3962   0.339   6.595   1.045
 1021SOL    HW2 3963   0.352   6.432   1.045
 1022SOL     OW 3964   2.662   5.814   0.029
 1022SOL    HW1 3965   2.626   5.874   0.100
 1022SOL    HW2 3966   2.750   5.848   7.015
 1023SOL     OW 3967   0.785   0.994   3.251
 1023SOL    HW1 3968   0.824   1.061   3.188
 1023SOL    HW2 3969   0.686   1.008   3.257
 1024SOL     OW 3970   1.648   1.536   4.635
 1024SOL    HW1 3971   1.674   1.518   4.541
 1024SOL    HW2 3972   1.688   1.622   4.665
 1025SOL     OW 3973   4.403   3.868   0.325
 1025SOL    HW1 3974   4.460   3.787   0.311
 1025SOL    HW2 3975   4.408   3.927   0.244
 1026SOL     OW 3976   3.098   2.485   1.279
 1026SOL    HW1 3977   3.162   2.420   1.238
 1026SOL    HW2 3978   3.121   2.497   1.376
 1027SOL     OW 3979   0.653   6.827   0.835
 1027SOL    HW1 3980   0.568   6.863   0.797
 1027SOL    HW2 3981   0.641   6.730   0.858
 1028SOL     OW 3982   1.411   6.202   2.078
 1028SOL    HW1 3983   1.421   6.138   2.154
 1028SOL    HW2 3984   1.335   6.173   2.020
 1029SOL     OW 3985   0.650   1.072   6.072
 1029SOL    HW1 3986   0.749   1.087   6.070
 1029SOL    HW2 3987   0.603   1.158   6.053
 1030SOL     OW 3988   3.499   3.167   1.387
 1030SOL    HW1 3989   3.577   3.113   1.418
 1030SOL    HW2 3990   3.519   3.264   1.397
 1031SOL     OW 3991   3.834   3.241   0.987
 1031SOL    HW1 3992   3.886   3.174   0.934
 1031SOL    HW2 3993   3.764   3.194   1.042
 1032SOL     OW 3994   2.241   1.704   6.338
 1032SOL    HW1 3995   2.161   1.759   6.315
 1032SOL    HW2 3996   2.280   1.736   6.424
 1033SOL     OW 3997   0.547   6.396   1.878
 1033SOL    HW1 3998   0.639   6.385   1.917
 1033SOL    HW2 3999   0.496   6.463   1.931
 1034SOL     OW 4000   3.152   0.347   4.224
 1034SOL    HW1 4001   3.071   0.403   4.240
 1034SOL    HW2 4002   3.189   0.369   4.134
 1035SOL     OW 4003   1.431   1.924   6.254
 1035SOL    HW1 4004   1.475   1.845   6.297
 1035SOL    HW2 4005   1.457   1.930   6.158
 1036SOL     OW 4006   5.142   1.666   1.010
 1036SOL    HW1 4007   5.151   1.755   1.055
 1036SOL    HW2 4008   5.057   1.622   1.040
 1037SOL     OW 4009   1.302   2.925   1.825
 1037SOL    HW1 4010   1.208   2.949   1.803
 1037SOL    HW2 4011   1.364   2.996   1.793
 1038SOL     OW 4012   2.687   6.170   6.947
 1038SOL    HW1 4013   2.702   6.149   0.025
 1038SOL    HW2 4014   2.655   6.088   6.899
 1039SOL     OW 4015   3.538   2.903   3.032
 1039SOL    HW1 4016   3.485   2.904   3.117
 1039SOL    HW2 4017   3.630   2.868   3.051
 1040SOL     OW 4018   3.581   1.499   3.049
 1040SOL    HW1 4019   3.533   1.538   2.971
 1040SOL    HW2 4020   3.535   1.416   3.079
 1041SOL     OW 4021   6.474   5.710   6.266
 1041SOL    HW1 4022   6.412   5.747   6.335
 1041SOL    HW2 4023   6.556   5.767   6.262
 1042SOL     OW 4024   5.297   4.880   2.904
 1042SOL    HW1 4025   5.307   4.915   2.810
 1042SOL    HW2 4026   5.366   4.809   2.921
 1043SOL     OW 4027   3.295   2.192   3.675
 1043SOL    HW1 4028   3.279   2.226   3.582
 1043SOL    HW2 4029   3.213   2.208   3.730
 1044SOL     OW 4030   5.453   4.656   1.577
 1044SOL    HW1 4031   5.456   4.625   1.482
 1044SOL    HW2 4032   5.470   4.578   1.637
 1045SOL     OW 4033   2.022   0.486   2.366
 1045SOL    HW1 4034   2.026   0.582   2.393
 1045SOL    HW2 4035   2.083   0.471   2.288
 1046SOL     OW 4036   3.333   1.265   0.863
 1046SOL    HW1 4037   3.396   1.285   0.937
 1046SOL    HW2 4038   3.360   1.179   0.818
 1047SOL     OW 4039   3.881   6.229   4.016
 1047SOL    HW1 4040   3.890   6.253   3.919
 1047SOL    HW2 4041   3.917   6.137   4.031
 1048SOL     OW 4042   1.696   5.941   2.526
 1048SOL    HW1 4043   1.658   5.912   2.614
 1048SOL    HW2 4044   1.760   6.016   2.540
 1049SOL     OW 4045   4.196   6.170   4.946
 1049SOL    HW1 4046   4.232   6.159   4.854
 1049SOL    HW2 4047   4.208   6.084   4.997
 1050SOL     OW 4048   3.193   5.535   3.007
 1050SOL    HW1 4049   3.238   5.573   2.927
 1050SOL    HW2 4050   3.245   5.456   3.040
 1051SOL     OW 4051   0.819   0.223   6.315
 1051SOL    HW1 4052   0.762   0.276   6.377
 1051SOL    HW2 4053   0.913   0.220   6.350
 1052SOL     OW 4054   3.100   0.906   0.273
 1052SOL    HW1 4055   3.055   0.989   0.306
 1052SOL    HW2 4056   3.198   0.922   0.264
 1053SOL     OW 4057   5.688   2.581   3.218
 1053SOL    HW1 4058   5.621   2.642   3.260
 1053SOL    HW2 4059   5.745   2.632   3.154
 1054SOL     OW 4060   3.320   4.676   6.183
 1054SOL    HW1 4061   3.420   4.676   6.179
 1054SOL    HW2 4062   3.282   4.700   6.093
 1055SOL     OW 4063   5.132   6.012   6.303
 1055SOL    HW1 4064   5.054   5.973   6.352
 1055SOL    HW2 4065   5.154   6.102   6.342
 1056SOL     OW 4066   3.009   3.744   6.828
 1056SOL    HW1 4067   2.943   3.697   6.887
 1056SOL    HW2 4068   3.019   3.839   6.858
 1057SOL     OW 4069   2.543   1.667   1.187
 1057SOL    HW1 4070   2.620   1.623   1.234
 1057SOL    HW2 4071   2.495   1.599   1.132
 1058SOL     OW 4072   2.863   2.188   2.675
 1058SOL    HW1 4073   2.925   2.225   2.743
 1058SOL    HW2 4074   2.798   2.126   2.718
 1059SOL     OW 4075   2.606   6.890   1.964
 1059SOL    HW1 4076   2.572   6.930   1.879
 1059SOL    HW2 4077   2.552   6.809   1.987
 1060SOL     OW 4078   5.849   6.533   5.142
 1060SOL    HW1 4079   5.790   6.502   5.216
 1060SOL    HW2 4080   5.913   6.460   5.117
 1061SOL     OW 4081   0.121   3.712   6.677
 1061SOL    HW1 4082   0.081   3.655   6.605
 1061SOL    HW2 4083   0.178   3.783   6.636
 1062SOL     OW 4084   3.764   6.776   4.797
 1062SOL    HW1 4085   3.847   6.729   4.827
 1062SOL    HW2 4086   3.688   6.749   4.856
 1063SOL     OW 4087   3.112   6.991   5.593
 1063SOL    HW1 4088   3.184   0.021   5.643
 1063SOL    HW2 4089   3.026   0.023   5.600
 1064SOL     OW 4090   1.868   3.568   0.346
 1064SOL    HW1 4091   1.871   3.582   0.247
 1064SOL    HW2 4092   1.911   3.646   0.392
 1065SOL     OW 4093   4.530   0.954   4.626
 1065SOL    HW1 4094   4.576   0.942   4.538
 1065SOL    HW2 4095   4.467   1.032   4.621
 1066SOL     OW 4096   5.379   6.612   1.831
 1066SOL    HW1 4097   5.463   6.574   1.792
 1066SOL    HW2 4098   5.381   6.601   1.930
 1067SOL     OW 4099   2.828   1.935   0.072
 1067SOL    HW1 4100   2.864   2.028   0.077
 1067SOL    HW2 4101   2.745   1.934   0.015
 1068SOL     OW 4102   6.869   3.364   1.495
 1068SOL    HW1 4103   6.814   3.283   1.516
 1068SOL    HW2 4104   6.837   3.442   1.548
 1069SOL     OW 4105   6.669   3.644   1.656
 1069SOL    HW1 4106   6.685   3.736   1.693
 1069SOL    HW2 4107   6.595   3.601   1.708
 1070SOL     OW 4108   1.192   6.647   2.136
 1070SOL    HW1 4109   1.229   6.667   2.046
 1070SOL    HW2 4110   1.247   6.576   2.180
 1071SOL     OW 4111   0.375   3.151   5.571
 1071SOL    HW1 4112   0.469   3.121   5.582
 1071SOL    HW2 4113   0.329   3.151   5.659
 1072SOL     OW 4114   2.012   1.515   2.169
 1072SOL    HW1 4115   1.985   1.554   2.257
 1072SOL    HW2 4116   1.999   1.584   2.097
 1073SOL     OW 4117   4.493   2.342   3.470
 1073SOL    HW1 4118   4.394   2.344   3.473
 1073SOL    HW2 4119   4.524   2.261   3.420
 1074SOL     OW 4120   2.621   4.455   1.755
 1074SOL    HW1 4121   2.718   4.444   1.777
 1074SOL    HW2 4122   2.592   4.549   1.775
 1075SOL     OW 4123   6.018   3.983   5.318
 1075SOL    HW1 4124   6.045   3.894   5.355
 1075SOL    HW2 4125   5.929   3.975   5.275
 1076SOL     OW 4126   2.240   4.286   4.930
 1076SOL    HW1 4127   2.298   4.363   4.957
 1076SOL    HW2 4128   2.276   4.202   4.971
 1077SOL     OW 4129   0.503   0.093   0.164
 1077SOL    HW1 4130   0.547   0.069   0.078
 1077SOL    HW2 4131   0.572   0.097   0.237
 1078SOL     OW 4132   6.195   6.848   4.362
 1078SOL    HW1 4133   6.180   6.775   4.428
 1078SOL    HW2 4134   6.265   6.820   4.297
 1079SOL     OW 4135   0.624   0.175   2.073
 1079SOL    HW1 4136   0.610   0.208   2.166
 1079SOL    HW2 4137   0.633   0.075   2.074
 1080SOL     OW 4138   3.209   6.039   6.170
 1080SOL    HW1 4139   3.111   6.039   6.187
 1080SOL    HW2 4140   3.251   6.118   6.214
 1081SOL     OW 4141   6.528   5.650   4.283
 1081SOL    HW1 4142   6.457   5.676   4.217
 1081SOL    HW2 4143   6.549   5.553   4.272
 1082SOL     OW 4144   4.540   6.340   6.442
 1082SOL    HW1 4145   4.602   6.281   6.390
 1082SOL    HW2 4146   4.549   6.435   6.410
 1083SOL     OW 4147   5.427   3.994   1.427
 1083SOL    HW1 4148   5.378   3.924   1.478
 1083SOL    HW2 4149   5.454   3.958   1.337
 1084SOL     OW 4150   6.380   0.518   5.183
 1084SOL    HW1 4151   6.416   0.496   5.274
 1084SOL    HW2 4152   6.310   0.452   5.157
 1085SOL     OW 4153   1.242   4.042   4.258
 1085SOL    HW1 4154   1.271   4.128   4.217
 1085SOL    HW2 4155   1.239   3.971   4.188
 1086SOL     OW 4156   6.004   5.443   0.778
 1086SOL    HW1 4157   6.008   5.527   0.724
 1086SOL    HW2 4158   5.965   5.462   0.868
 1087SOL     OW 4159   3.592   0.443   5.292
 1087SOL    HW1 4160   3.678   0.494   5.286
 1087SOL    HW2 4161   3.605   0.363   5.350
 1088SOL     OW 4162   6.937   4.951   3.133
 1088SOL    HW1 4163   6.986   4.871   3.168
 1088SOL    HW2 4164   6.943   5.025   3.199
 1089SOL     OW 4165   6.596   4.588   4.476
 1089SOL    HW1 4166   6.602   4.683   4.504
 1089SOL    HW2 4167   6.636   4.577   4.386
 1090SOL     OW 4168   5.410   1.785   5.202
 1090SOL    HW1 4169   5.447   1.740   5.284
 1090SOL    HW2 4170   5.311   1.772   5.199
 1091SOL     OW 4171   2.488   2.612   2.933
 1091SOL    HW1 4172   2.543   2.558   2.997
 1091SOL    HW2 4173   2.541   2.629   2.850
 1092SOL     OW 4174   0.522   5.573   1.269
 1092SOL    HW1 4175   0.597   5.509   1.252
 1092SOL    HW2 4176   0.444   5.524   1.307
 1093SOL     OW 4177   1.709   0.073   2.527
 1093SOL    HW1 4178   1.751   0.098   2.615
 1093SOL    HW2 4179   1.626   0.127   2.513
 1094SOL     OW 4180   0.593   0.266   3.007
 1094SOL    HW1 4181   0.519   0.292   3.068
 1094SOL    HW2 4182   0.681   0.280   3.053
 1095SOL     OW 4183   5.206   3.301   0.724
 1095SOL    HW1 4184   5.234   3.387   0.682
 1095SOL    HW2 4185   5.284   3.239   0.726
 1096SOL     OW 4186   2.622   6.098   1.543
 1096SOL    HW1 4187   2.691   6.025   1.547
 1096SOL    HW2 4188   2.655   6.178   1.592
 1097SOL     OW 4189   3.468   5.430   4.476
 1097SOL    HW1 4190   3.487   5.468   4.385
 1097SOL    HW2 4191   3.540   5.366   4.501
 1098SOL     OW 4192   6.117   4.810   0.769
 1098SOL    HW1 4193   6.194   4.757   0.805
 1098SOL    HW2 4194   6.052   4.749   0.725
 1099SOL     OW 4195   4.466   6.804   5.645
 1099SOL    HW1 4196   4.373   6.828   5.674
 1099SOL    HW2 4197   4.529   6.875   5.675
 1100SOL     OW 4198   3.449   1.780   4.317
 1100SOL    HW1 4199   3.367   1.729   4.340
 1100SOL    HW2 4200   3.434   1.877   4.335
 1101SOL     OW 4201   5.987   2.975   6.414
 1101SOL    HW1 4202   6.077   2.934   6.403
 1101SOL    HW2 4203   5.917   2.908   6.391
 1102SOL     OW 4204   2.492   1.415   3.424
 1102SOL    HW1 4205   2.409   1.359   3.420
 1102SOL    HW2 4206   2.475   1.502   3.378
 1103SOL     OW 4207   2.760   6.915   0.283
 1103SOL    HW1 4208   2.806   6.962   0.207
 1103SOL    HW2 4209   2.693   6.850   0.247
 1104SOL     OW 4210   0.616   3.218   4.215
 1104SOL    HW1 4211   0.622   3.208   4.115
 1104SOL    HW2 4212   0.708   3.214   4.254
 1105SOL     OW 4213   5.480   1.209   5.650
 1105SOL    HW1 4214   5.399   1.231   5.596
 1105SOL    HW2 4215   5.454   1.152   5.728
 1106SOL     OW 4216   0.030   1.816   0.750
 1106SOL    HW1 4217   0.068   1.735   0.706
 1106SOL    HW2 4218   0.007   1.884   0.680
 1107SOL     OW 4219   0.848   1.152   6.407
 1107SOL    HW1 4220   0.861   1.067   6.459
 1107SOL    HW2 4221   0.897   1.146   6.320
 1108SOL     OW 4222   2.604   6.707   3.356
 1108SOL    HW1 4223   2.687   6.708   3.410
 1108SOL    HW2 4224   2.526   6.686   3.414
 1109SOL     OW 4225   4.496   2.221   4.620
 1109SOL    HW1 4226   4.432   2.145   4.605
 1109SOL    HW2 4227   4.489   2.252   4.715
 1110SOL     OW 4228   2.872   0.767   2.216
 1110SOL    HW1 4229   2.787   0.773   2.267
 1110SOL    HW2 4230   2.855   0.725   2.127
 1111SOL     OW 4231   5.580   4.294   6.346
 1111SOL    HW1 4232   5.512   4.221   6.346
 1111SOL    HW2 4233   5.656   4.270   6.406
 1112SOL     OW 4234   5.140   0.409   2.347
 1112SOL    HW1 4235   5.175   0.466   2.421
 1112SOL    HW2 4236   5.082   0.336   2.385
 1113SOL     OW 4237   5.816   4.673   2.724
 1113SOL    HW1 4238   5.747   4.703   2.658
 1113SOL    HW2 4239   5.841   4.578   2.705
 1114SOL     OW 4240   3.588   3.827   5.231
 1114SOL    HW1 4241   3.535   3.809   5.314
 1114SOL    HW2 4242   3.669   3.768   5.229
 1115SOL     OW 4243   2.862   4.407   5.755
 1115SOL    HW1 4244   2.917   4.459   5.820
 1115SOL    HW2 4245   2.908   4.321   5.733
 1116SOL     OW 4246   4.403   6.797   6.562
 1116SOL    HW1 4247   4.433   6.734   6.633
 1116SOL    HW2 4248   4.329   6.755   6.509
 1117SOL     OW 4249   1.414   2.479   1.620
 1117SOL    HW1 4250   1.350   2.550   1.649
 1117SOL    HW2 4251   1.490   2.520   1.570
 1118SOL     OW 4252   3.770   4.951   0.590
 1118SOL    HW1 4253   3.769   5.032   0.530
 1118SOL    HW2 4254   3.736   4.977   0.680
 1119SOL     OW 4255   2.819   4.994   4.553
 1119SOL    HW1 4256   2.774   4.922   4.605
 1119SOL    HW2 4257   2.754   5.067   4.535
 1120SOL     OW 4258   6.648   4.268   0.777
 1120SOL    HW1 4259   6.623   4.177   0.744
 1120SOL    HW2 4260   6.747   4.272   0.789
 1121SOL     OW 4261   6.704   4.579   4.209
 1121SOL    HW1 4262   6.760   4.553   4.130
 1121SOL    HW2 4263   6.740   4.663   4.249
 1122SOL     OW 4264   5.734   2.657   1.964
 1122SOL    HW1 4265   5.763   2.565   1.940
 1122SOL    HW2 4266   5.635   2.667   1.949
 1123SOL     OW 4267   3.959   1.461   2.930
 1123SOL    HW1 4268   3.936   1.477   3.026
 1123SOL    HW2 4269   3.900   1.388   2.894
 1124SOL     OW 4270   2.368   2.655   4.361
 1124SOL    HW1 4271   2.352   2.748   4.394
 1124SOL    HW2 4272   2.288   2.624   4.308
 1125SOL     OW 4273   2.074   4.106   3.691
 1125SOL    HW1 4274   2.141   4.113   3.765
 1125SOL    HW2 4275   2.108   4.043   3.621
 1126SOL     OW 4276   3.689   5.253   4.883
 1126SOL    HW1 4277   3.639   5.171   4.855
 1126SOL    HW2 4278   3.639   5.299   4.957
 1127SOL     OW 4279   6.107   0.180   2.408
 1127SOL    HW1 4280   6.202   0.168   2.440
 1127SOL    HW2 4281   6.052   0.102   2.437
 1128SOL     OW 4282   5.287   1.683   3.939
 1128SOL    HW1 4283   5.329   1.620   4.003
 1128SOL    HW2 4284   5.289   1.643   3.847
 1129SOL     OW 4285   1.809   1.072   0.427
 1129SOL    HW1 4286   1.711   1.058   0.442
 1129SOL    HW2 4287   1.849   0.988   0.390
 1130SOL     OW 4288   1.928   4.471   1.879
 1130SOL    HW1 4289   1.973   4.390   1.842
 1130SOL    HW2 4290   1.930   4.544   1.810
 1131SOL     OW 4291   1.056   5.445   4.343
 1131SOL    HW1 4292   1.090   5.530   4.303
 1131SOL    HW2 4293   1.090   5.368   4.290
 1132SOL     OW 4294   2.237   1.644   2.325
 1132SOL    HW1 4295   2.225   1.621   2.228
 1132SOL    HW2 4296   2.167   1.598   2.379
 1133SOL     OW 4297   0.748   0.021   5.305
 1133SOL    HW1 4298   0.824   0.013   5.241
 1133SOL    HW2 4299   0.747   0.112   5.346
 1134SOL     OW 4300   3.354   0.006   1.718
 1134SOL    HW1 4301   3.448   7.001   1.744
 1134SOL    HW2 4302   3.356   0.078   1.649
 1135SOL     OW 4303   2.027   5.597   3.580
 1135SOL    HW1 4304   2.103   5.653   3.546
 1135SOL    HW2 4305   1.954   5.596   3.511
 1136SOL     OW 4306   1.797   5.429   1.544
 1136SOL    HW1 4307   1.789   5.419   1.643
 1136SOL    HW2 4308   1.732   5.498   1.512
 1137SOL     OW 4309   0.646   5.175   5.518
 1137SOL    HW1 4310   0.601   5.261   5.543
 1137SOL    HW2 4311   0.706   5.147   5.592
 1138SOL     OW 4312   1.733   3.030   4.680
 1138SOL    HW1 4313   1.771   2.943   4.711
 1138SOL    HW2 4314   1.634   3.022   4.671
 1139SOL     OW 4315   2.668   5.603   4.726
 1139SOL    HW1 4316   2.715   5.689   4.703
 1139SOL    HW2 4317   2.730   5.527   4.711
 1140SOL     OW 4318   1.529   1.558   0.507
 1140SOL    HW1 4319   1.570   1.494   0.572
 1140SOL    HW2 4320   1.600   1.593   0.446
 1141SOL     OW 4321   6.527   4.522   5.898
 1141SOL    HW1 4322   6.617   4.566   5.898
 1141SOL    HW2 4323   6.457   4.592   5.911
 1142SOL     OW 4324   2.207   6.364   2.324
 1142SOL    HW1 4325   2.244   6.277   2.293
 1142SOL    HW2 4326   2.122   6.349   2.374
 1143SOL     OW 4327   1.449   3.846   1.847
 1143SOL    HW1 4328   1.418   3.803   1.932
 1143SOL    HW2 4329   1.403   3.934   1.835
 1144SOL     OW 4330   5.615   4.574   1.211
 1144SOL    HW1 4331   5.652   4.649   1.266
 1144SOL    HW2 4332   5.685   4.503   1.201
 1145SOL     OW 4333   6.348   0.700   0.925
 1145SOL    HW1 4334   6.332   0.791   0.885
 1145SOL    HW2 4335   6.439   0.668   0.899
 1146SOL     OW 4336   0.678   1.014   1.145
 1146SOL    HW1 4337   0.689   1.056   1.055
 1146SOL    HW2 4338   0.582   1.024   1.174
 1147SOL     OW 4339   3.007   6.388   1.514
 1147SOL    HW1 4340   2.964   6.476   1.533
 1147SOL    HW2 4341   2.979   6.321   1.583
 1148SOL     OW 4342   4.798   5.381   3.463
 1148SOL    HW1 4343   4.808   5.353   3.368
 1148SOL    HW2 4344   4.780   5.479   3.467
 1149SOL     OW 4345   4.725   3.184   1.455
 1149SOL    HW1 4346   4.734   3.085   1.459
 1149SOL    HW2 4347   4.698   3.212   1.363
 1150SOL     OW 4348   1.716   4.261   0.285
 1150SOL    HW1 4349   1.716   4.266   0.185
 1150SOL    HW2 4350   1.797   4.210   0.315
 1151SOL     OW 4351   5.957   5.819   3.566
 1151SOL    HW1 4352   6.005   5.903   3.589
 1151SOL    HW2 4353   5.911   5.783   3.647
 1152SOL     OW 4354   4.065   6.235   6.860
 1152SOL    HW1 4355   4.107   6.153   6.899
 1152SOL    HW2 4356   3.995   6.208   6.794
 1153SOL     OW 4357   5.765   0.160   1.374
 1153SOL    HW1 4358   5.715   0.229   1.322
 1153SOL    HW2 4359   5.752   0.070   1.332
 1154SOL     OW 4360   1.975   2.556   1.147
 1154SOL    HW1 4361   1.894   2.530   1.094
 1154SOL    HW2 4362   2.020   2.633   1.103
 1155SOL     OW 4363   2.948   6.868   4.509
 1155SOL    HW1 4364   3.007   6.853   4.429
 1155SOL    HW2 4365   3.003   6.873   4.591
 1156SOL     OW 4366   2.666   1.945   3.879
 1156SOL    HW1 4367   2.645   1.964   3.783
 1156SOL    HW2 4368   2.585   1.908   3.924
 1157SOL     OW 4369   3.660   0.607   6.408
 1157SOL    HW1 4370   3.613   0.519   6.395
 1157SOL    HW2 4371   3.757   0.596   6.387
 1158SOL     OW 4372   5.990   5.147   3.072
 1158SOL    HW1 4373   6.060   5.217   3.054
 1158SOL    HW2 4374   5.974   5.095   2.989
 1159SOL     OW 4375   6.290   5.791   1.299
 1159SOL    HW1 4376   6.362   5.724   1.281
 1159SOL    HW2 4377   6.322   5.883   1.276
 1160SOL     OW 4378   5.447   1.668   0.701
 1160SOL    HW1 4379   5.444   1.596   0.631
 1160SOL    HW2 4380   5.399   1.749   0.667
 1161SOL     OW 4381   0.826   5.121   0.761
 1161SOL    HW1 4382   0.886   5.116   0.841
 1161SOL    HW2 4383   0.791   5.029   0.741
 1162SOL     OW 4384   2.807   2.284   4.497
 1162SOL    HW1 4385   2.787   2.356   4.431
 1162SOL    HW2 4386   2.729   2.222   4.505
 1163SOL     OW 4387   5.611   3.350   1.827
 1163SOL    HW1 4388   5.584   3.280   1.761
 1163SOL    HW2 4389   5.672   3.311   1.895
 1164SOL     OW 4390   4.623   1.987   5.429
 1164SOL    HW1 4391   4.575   1.920   5.373
 1164SOL    HW2 4392   4.607   2.079   5.393
 1165SOL     OW 4393   4.213   6.501   3.631
 1165SOL    HW1 4394   4.307   6.484   3.600
 1165SOL    HW2 4395   4.195   6.599   3.632
 1166SOL     OW 4396   2.823   4.696   6.849
 1166SOL    HW1 4397   2.849   4.766   6.916
 1166SOL    HW2 4398   2.728   4.709   6.822
 1167SOL     OW 4399   5.847   4.763   2.426
 1167SOL    HW1 4400   5.895   4.846   2.399
 1167SOL    HW2 4401   5.763   4.788   2.475
 1168SOL     OW 4402   6.200   1.252   3.569
 1168SOL    HW1 4403   6.190   1.201   3.655
 1168SOL    HW2 4404   6.110   1.271   3.531
 1169SOL     OW 4405   5.616   1.288   5.390
 1169SOL    HW1 4406   5.570   1.245   5.467
 1169SOL    HW2 4407   5.713   1.264   5.391
 1170SOL     OW 4408   4.891   6.458   4.367
 1170SOL    HW1 4409   4.955   6.533   4.350
 1170SOL    HW2 4410   4.812   6.467   4.307
 1171SOL     OW 4411   0.802   6.937   1.249
 1171SOL    HW1 4412   0.715   6.961   1.206
 1171SOL    HW2 4413   0.878   6.970   1.193
 1172SOL     OW 4414   6.601   3.323   6.450
 1172SOL    HW1 4415   6.635   3.409   6.412
 1172SOL    HW2 4416   6.674   3.277   6.500
 1173SOL     OW 4417   3.688   1.495   0.569
 1173SOL    HW1 4418   3.707   1.400   0.595
 1173SOL    HW2 4419   3.770   1.550   0.586
 1174SOL     OW 4420   2.874   3.418   0.738
 1174SOL    HW1 4421   2.912   3.413   0.645
 1174SOL    HW2 4422   2.919   3.349   0.795
 1175SOL     OW 4423   3.150   3.028   4.101
 1175SOL    HW1 4424   3.173   2.996   4.009
 1175SOL    HW2 4425   3.188   2.965   4.169
 1176SOL     OW 4426   5.560   3.935   6.304
 1176SOL    HW1 4427   5.576   4.012   6.242
 1176SOL    HW2 4428   5.594   3.851   6.262
 1177SOL     OW 4429   6.940   2.059   4.874
 1177SOL    HW1 4430   0.017   2.079   4.894
 1177SOL    HW2 4431   6.894   2.028   4.957
 1178SOL     OW 4432   3.378   5.322   0.425
 1178SOL    HW1 4433   3.372   5.313   0.525
 1178SOL    HW2 4434   3.411   5.236   0.387
 1179SOL     OW 4435   2.157   5.728   0.308
 1179SOL    HW1 4436   2.058   5.731   0.325
 1179SOL    HW2 4437   2.201   5.803   0.358
 1180SOL     OW 4438   3.294   5.720   0.732
 1180SOL    HW1 4439   3.259   5.630   0.704
 1180SOL    HW2 4440   3.220   5.787   0.727
 1181SOL     OW 4441   0.651   5.687   0.899
 1181SOL    HW1 4442   0.679   5.594   0.875
 1181SOL    HW2 4443   0.729   5.749   0.888
 1182SOL     OW 4444   4.582   4.721   2.892
 1182SOL    HW1 4445   4.621   4.663   2.963
 1182SOL    HW2 4446   4.483   4.725   2.903
 1183SOL     OW 4447   2.180   3.240   5.636
 1183SOL    HW1 4448   2.138   3.180   5.568
 1183SOL    HW2 4449   2.109   3.279   5.695
 1184SOL     OW 4450   1.123   6.918   5.483
 1184SOL    HW1 4451   1.125   6.839   5.544
 1184SOL    HW2 4452   1.062   6.988   5.521
 1185SOL     OW 4453   0.151   1.335   6.541
 1185SOL    HW1 4454   0.114   1.421   6.506
 1185SOL    HW2 4455   0.250   1.331   6.524
 1186SOL     OW 4456   5.525   6.018   5.070
 1186SOL    HW1 4457   5.564   5.945   5.015
 1186SOL    HW2 4458   5.495   5.981   5.158
 1187SOL     OW 4459   5.718   0.467   6.131
 1187SOL    HW1 4460   5.781   0.468   6.053
 1187SOL    HW2 4461   5.629   0.433   6.101
 1188SOL     OW 4462   2.604   6.529   5.696
 1188SOL    HW1 4463   2.684   6.470   5.706
 1188SOL    HW2 4464   2.634   6.625   5.688
 1189SOL     OW 4465   5.816   3.146   3.408
 1189SOL    HW1 4466   5.813   3.046   3.405
 1189SOL    HW2 4467   5.732   3.183   3.368
 1190SOL     OW 4468   1.943   6.249   2.423
 1190SOL    HW1 4469   1.863   6.253   2.483
 1190SOL    HW2 4470   1.913   6.232   2.329
 1191SOL     OW 4471   4.287   5.540   2.558
 1191SOL    HW1 4472   4.315   5.558   2.464
 1191SOL    HW2 4473   4.368   5.524   2.615
 1192SOL     OW 4474   5.286   6.398   3.764
 1192SOL    HW1 4475   5.230   6.479   3.782
 1192SOL    HW2 4476   5.248   6.347   3.687
 1193SOL     OW 4477   6.384   5.495   4.048
 1193SOL    HW1 4478   6.368   5.594   4.052
 1193SOL    HW2 4479   6.296   5.448   4.038
 1194SOL     OW 4480   4.223   1.065   1.327
 1194SOL    HW1 4481   4.147   1.006   1.353
 1194SOL    HW2 4482   4.238   1.135   1.397
 1195SOL     OW 4483   5.607   2.167   3.148
 1195SOL    HW1 4484   5.681   2.140   3.086
 1195SOL    HW2 4485   5.566   2.086   3.189
 1196SOL     OW 4486   6.177   6.621   4.550
 1196SOL    HW1 4487   6.127   6.665   4.624
 1196SOL    HW2 4488   6.123   6.547   4.512
 1197SOL     OW 4489   2.780   6.360   0.481
 1197SOL    HW1 4490   2.734   6.425   0.421
 1197SOL    HW2 4491   2.840   6.410   0.544
 1198SOL     OW 4492   1.300   2.343   0.507
 1198SOL    HW1 4493   1.251   2.426   0.532
 1198SOL    HW2 4494   1.237   2.265   0.512
 1199SOL     OW 4495   5.072   4.165   2.340
 1199SOL    HW1 4496   5.058   4.082   2.285
 1199SOL    HW2 4497   5.167   4.169   2.370
 1200SOL     OW 4498   3.168   3.631   2.218
 1200SOL    HW1 4499   3.193   3.720   2.180
 1200SOL    HW2 4500   3.101   3.587   2.159
 1201SOL     OW 4501   1.500   1.797   4.789
 1201SOL    HW1 4502   1.589   1.825   4.753
 1201SOL    HW2 4503   1.454   1.877   4.829
 1202SOL     OW 4504   0.235   5.284   6.552
 1202SOL    HW1 4505   0.331   5.258   6.567
 1202SOL    HW2 4506   0.214   5.275   6.454
 1203SOL     OW 4507   4.516   5.758   5.821
 1203SOL    HW1 4508   4.556   5.757   5.729
 1203SOL    HW2 4509   4.440   5.694   5.825
 1204SOL     OW 4510   1.837   0.139   2.180
 1204SOL    HW1 4511   1.768   0.204   2.212
 1204SOL    HW2 4512   1.928   0.175   2.198
 1205SOL     OW 4513   5.101   4.182   1.596
 1205SOL    HW1 4514   5.025   4.225   1.645
 1205SOL    HW2 4515   5.142   4.111   1.653
 1206SOL     OW 4516   3.105   3.530   5.525
 1206SOL    HW1 4517   3.111   3.535   5.425
 1206SOL    HW2 4518   3.170   3.461   5.559
 1207SOL     OW 4519   1.893   6.464   2.020
 1207SOL    HW1 4520   1.892   6.533   1.948
 1207SOL    HW2 4521   1.909   6.509   2.108
 1208SOL     OW 4522   3.269   4.019   6.145
 1208SOL    HW1 4523   3.343   3.966   6.185
 1208SOL    HW2 4524   3.214   3.961   6.084
 1209SOL     OW 4525   3.792   6.668   5.644
 1209SOL    HW1 4526   3.878   6.619   5.628
 1209SOL    HW2 4527   3.799   6.761   5.608
 1210SOL     OW 4528   3.260   0.958   3.042
 1210SOL    HW1 4529   3.176   0.938   2.992
 1210SOL    HW2 4530   3.339   0.941   2.982
 1211SOL     OW 4531   1.081   3.884   0.449
 1211SOL    HW1 4532   1.022   3.911   0.525
 1211SOL    HW2 4533   1.147   3.957   0.431
 1212SOL     OW 4534   1.229   6.315   6.856
 1212SOL    HW1 4535   1.150   6.358   6.812
 1212SOL    HW2 4536   1.240   6.222   6.820
 1213SOL     OW 4537   5.372   3.031   0.912
 1213SOL    HW1 4538   5.335   3.109   0.962
 1213SOL    HW2 4539   5.455   3.059   0.864
 1214SOL     OW 4540   0.209   2.448   1.762
 1214SOL    HW1 4541   0.251   2.525   1.808
 1214SOL    HW2 4542   0.279   2.396   1.713
 1215SOL     OW 4543   1.000   5.511   4.597
 1215SOL    HW1 4544   1.048   5.476   4.517
 1215SOL    HW2 4545   0.940   5.440   4.633
 1216SOL     OW 4546   4.046   6.855   6.866
 1216SOL    HW1 4547   4.113   6.785   6.889
 1216SOL    HW2 4548   3.974   6.856   6.935
 1217SOL     OW 4549   2.892   4.696   0.155
 1217SOL    HW1 4550   2.922   4.776   0.103
 1217SOL    HW2 4551   2.856   4.628   0.092
 1218SOL     OW 4552   1.881   4.255   3.856
 1218SOL    HW1 4553   1.785   4.244   3.884
 1218SOL    HW2 4554   1.909   4.175   3.803
 1219SOL     OW 4555   4.322   6.087   2.698
 1219SOL    HW1 4556   4.309   5.992   2.670
 1219SOL    HW2 4557   4.416   6.101   2.730
 1220SOL     OW 4558   1.325   4.689   2.701
 1220SOL    HW1 4559   1.306   4.714   2.606
 1220SOL    HW2 4560   1.271   4.608   2.726
 1221SOL     OW 4561   5.706   3.884   6.079
 1221SOL    HW1 4562   5.712   3.859   5.982
 1221SOL    HW2 4563   5.784   3.942   6.103
 1222SOL     OW 4564   6.869   6.271   6.965
 1222SOL    HW1 4565   6.950   6.293   6.912
 1222SOL    HW2 4566   6.884   6.187   7.017
 1223SOL     OW 4567   3.606   6.244   0.657
 1223SOL    HW1 4568   3.681   6.179   0.643
 1223SOL    HW2 4569   3.519   6.195   0.656
 1224SOL     OW 4570   2.920   0.534   2.458
 1224SOL    HW1 4571   2.821   0.517   2.449
 1224SOL    HW2 4572   2.963   0.528   2.368
 1225SOL     OW 4573   2.598   4.076   0.008
 1225SOL    HW1 4574   2.626   4.171   0.001
 1225SOL    HW2 4575   2.588   4.051   0.105
 1226SOL     OW 4576   1.976   4.447   0.739
 1226SOL    HW1 4577   1.916   4.427   0.817
 1226SOL    HW2 4578   1.929   4.508   0.675
 1227SOL     OW 4579   0.122   3.425   6.499
 1227SOL    HW1 4580   0.165   3.505   6.458
 1227SOL    HW2 4581   0.033   3.451   6.537
 1228SOL     OW 4582   4.141   1.481   5.924
 1228SOL    HW1 4583   4.086   1.479   5.841
 1228SOL    HW2 4584   4.083   1.506   6.002
 1229SOL     OW 4585   3.536   4.269   6.204
 1229SOL    HW1 4586   3.503   4.240   6.114
 1229SOL    HW2 4587   3.462   4.263   6.271
 1230SOL     OW 4588   4.583   6.355   3.281
 1230SOL    HW1 4589   4.666   6.345   3.336
 1230SOL    HW2 4590   4.532   6.269   3.281
 1231SOL     OW 4591   1.634   4.147   4.152
 1231SOL    HW1 4592   1.568   4.074   4.135
 1231SOL    HW2 4593   1.726   4.114   4.133
 1232SOL     OW 4594   2.064   2.091   4.472
 1232SOL    HW1 4595   2.120   2.011   4.450
 1232SOL    HW2 4596   2.087   2.122   4.565
 1233SOL     OW 4597   0.819   3.560   4.219
 1233SOL    HW1 4598   0.826   3.483   4.283
 1233SOL    HW2 4599   0.790   3.526   4.129
 1234SOL     OW 4600   6.290   4.375   4.283
 1234SOL    HW1 4601   6.343   4.421   4.211
 1234SOL    HW2 4602   6.316   4.411   4.372
 1235SOL     OW 4603   6.357   6.025   4.075
 1235SOL    HW1 4604   6.355   5.937   4.123
 1235SOL    HW2 4605   6.451   6.056   4.068
 1236SOL     OW 4606   5.263   0.340   0.252
 1236SOL    HW1 4607   5.185   0.402   0.254
 1236SOL    HW2 4608   5.303   0.340   0.161
 1237SOL     OW 4609   3.127   4.745   6.725
 1237SOL    HW1 4610   3.156   4.766   6.631
 1237SOL    HW2 4611   3.057   4.674   6.723
 1238SOL     OW 4612   1.603   1.846   1.035
 1238SOL    HW1 4613   1.597   1.931   1.088
 1238SOL    HW2 4614   1.691   1.841   0.989
 1239SOL     OW 4615   0.168   6.377   6.779
 1239SOL    HW1 4616   0.212   6.420   6.858
 1239SOL    HW2 4617   0.237   6.329   6.725
 1240SOL     OW 4618   5.025   5.976   1.749
 1240SOL    HW1 4619   5.015   6.064   1.795
 1240SOL    HW2 4620   5.051   5.992   1.653
 1241SOL     OW 4621   6.437   3.216   3.717
 1241SOL    HW1 4622   6.450   3.269   3.633
 1241SOL    HW2 4623   6.525   3.208   3.765
 1242SOL     OW 4624   2.174   3.807   0.181
 1242SOL    HW1 4625   2.152   3.713   0.155
 1242SOL    HW2 4626   2.252   3.839   0.128
 1243SOL     OW 4627   3.000   5.403   5.426
 1243SOL    HW1 4628   2.996   5.464   5.347
 1243SOL    HW2 4629   3.069   5.332   5.409
 1244SOL     OW 4630   0.756   0.880   3.662
 1244SOL    HW1 4631   0.793   0.800   3.711
 1244SOL    HW2 4632   0.666   0.857   3.624
 1245SOL     OW 4633   3.086   3.654   6.577
 1245SOL    HW1 4634   3.149   3.578   6.595
 1245SOL    HW2 4635   3.064   3.701   6.662
 1246SOL     OW 4636   1.230   6.277   2.428
 1246SOL    HW1 4637   1.139   6.310   2.402
 1246SOL    HW2 4638   1.243   6.184   2.394
 1247SOL     OW 4639   1.995   6.607   6.233
 1247SOL    HW1 4640   2.039   6.653   6.156
 1247SOL    HW2 4641   1.903   6.577   6.205
 1248SOL     OW 4642   1.844   5.585   3.374
 1248SOL    HW1 4643   1.871   5.494   3.344
 1248SOL    HW2 4644   1.757   5.580   3.424
 1249SOL     OW 4645   6.323   3.367   3.296
 1249SOL    HW1 4646   6.280   3.457   3.295
 1249SOL    HW2 4647   6.253   3.296   3.305
 1250SOL     OW 4648   0.861   5.167   4.866
 1250SOL    HW1 4649   0.873   5.171   4.767
 1250SOL    HW2 4650   0.784   5.107   4.889
 1251SOL     OW 4651   3.878   0.338   4.908
 1251SOL    HW1 4652   3.822   0.399   4.853
 1251SOL    HW2 4653   3.825   0.258   4.935
 1252SOL     OW 4654   3.657   3.630   6.159
 1252SOL    HW1 4655   3.598   3.549   6.160
 1252SOL    HW2 4656   3.716   3.628   6.078
 1253SOL     OW 4657   3.923   5.733   2.843
 1253SOL    HW1 4658   3.908   5.798   2.918
 1253SOL    HW2 4659   4.015   5.696   2.850
 1254SOL     OW 4660   6.682   2.146   2.824
 1254SOL    HW1 4661   6.618   2.072   2.804
 1254SOL    HW2 4662   6.677   2.168   2.922
 1255SOL     OW 4663   6.416   6.953   6.857
 1255SOL    HW1 4664   6.446   6.886   6.925
 1255SOL    HW2 4665   6.410   6.909   6.767
 1256SOL     OW 4666   4.697   1.310   3.665
 1256SOL    HW1 4667   4.764   1.318   3.591
 1256SOL    HW2 4668   4.702   1.219   3.705
 1257SOL     OW 4669   5.983   1.751   4.057
 1257SOL    HW1 4670   6.000   1.804   4.140
 1257SOL    HW2 4671   5.890   1.767   4.025
 1258SOL     OW 4672   6.967   6.730   3.313
 1258SOL    HW1 4673   6.951   6.815   3.262
 1258SOL    HW2 4674   0.028   6.742   3.372
 1259SOL     OW 4675   4.447   2.491   5.501
 1259SOL    HW1 4676   4.453   2.444   5.589
 1259SOL    HW2 4677   4.383   2.568   5.509
 1260SOL     OW 4678   1.323   1.003   6.409
 1260SOL    HW1 4679   1.316   0.978   6.312
 1260SOL    HW2 4680   1.243   0.969   6.458
 1261SOL     OW 4681   6.533   4.515   0.761
 1261SOL    HW1 4682   6.572   4.424   0.775
 1261SOL    HW2 4683   6.442   4.520   0.802
 1262SOL     OW 4684   5.451   6.049   2.007
 1262SOL    HW1 4685   5.538   6.008   1.980
 1262SOL    HW2 4686   5.378   5.981   1.998
 1263SOL     OW 4687   0.973   2.164   3.243
 1263SOL    HW1 4688   1.016   2.231   3.183
 1263SOL    HW2 4689   0.877   2.188   3.256
 1264SOL     OW 4690   0.999   2.524   5.348
 1264SOL    HW1 4691   0.988   2.622   5.329
 1264SOL    HW2 4692   1.083   2.491   5.304
 1265SOL     OW 4693   5.801   6.080   4.851
 1265SOL    HW1 4694   5.791   6.094   4.753
 1265SOL    HW2 4695   5.750   5.998   4.878
 1266SOL     OW 4696   1.966   0.946   4.809
 1266SOL    HW1 4697   2.064   0.954   4.793
 1266SOL    HW2 4698   1.938   1.009   4.881
 1267SOL     OW 4699   3.383   0.352   3.396
 1267SOL    HW1 4700   3.425   0.441   3.377
 1267SOL    HW2 4701   3.447   0.279   3.374
 1268SOL     OW 4702   4.505   2.816   5.746
 1268SOL    HW1 4703   4.576   2.806   5.677
 1268SOL    HW2 4704   4.415   2.797   5.706
 1269SOL     OW 4705   6.249   2.089   4.077
 1269SOL    HW1 4706   6.305   2.116   4.155
 1269SOL    HW2 4707   6.240   2.166   4.014
 1270SOL     OW 4708   6.528   5.681   2.631
 1270SOL    HW1 4709   6.558   5.596   2.589
 1270SOL    HW2 4710   6.586   5.756   2.601
 1271SOL     OW 4711   1.856   1.522   0.889
 1271SOL    HW1 4712   1.840   1.616   0.917
 1271SOL    HW2 4713   1.823   1.508   0.795
 1272SOL     OW 4714   5.982   3.711   5.982
 1272SOL    HW1 4715   5.913   3.661   6.035
 1272SOL    HW2 4716   6.018   3.786   6.037
 1273SOL     OW 4717   1.087   4.504   4.836
 1273SOL    HW1 4718   1.008   4.504   4.897
 1273SOL    HW2 4719   1.092   4.592   4.787
 1274SOL     OW 4720   0.006   5.501   3.016
 1274SOL    HW1 4721   6.971   5.492   2.932
 1274SOL    HW2 4722   0.040   5.594   3.025
 1275SOL     OW 4723   1.972   1.360   2.911
 1275SOL    HW1 4724   1.904   1.310   2.964
 1275SOL    HW2 4725   2.044   1.393   2.973
 1276SOL     OW 4726   5.522   5.060   4.073
 1276SOL    HW1 4727   5.619   5.042   4.090
 1276SOL    HW2 4728   5.488   4.998   4.003
 1277SOL     OW 4729   0.927   5.930   0.413
 1277SOL    HW1 4730   0.896   5.991   0.486
 1277SOL    HW2 4731   0.979   5.983   0.346
 1278SOL     OW 4732   1.095   5.969   2.842
 1278SOL    HW1 4733   1.024   5.982   2.912
 1278SOL    HW2 4734   1.056   5.986   2.752
 1279SOL     OW 4735   2.704   2.647   1.721
 1279SOL    HW1 4736   2.690   2.560   1.770
 1279SOL    HW2 4737   2.802   2.666   1.715
 1280SOL     OW 4738   2.156   2.100   3.826
 1280SOL    HW1 4739   2.228   2.079   3.891
 1280SOL    HW2 4740   2.194   2.156   3.751
 1281SOL     OW 4741   4.868   6.448   5.008
 1281SOL    HW1 4742   4.935   6.422   4.938
 1281SOL    HW2 4743   4.811   6.522   4.973
 1282SOL     OW 4744   6.959   2.484   0.955
 1282SOL    HW1 4745   6.998   2.457   0.867
 1282SOL    HW2 4746   0.013   2.523   1.013
 1283SOL     OW 4747   0.167   3.061   4.864
 1283SOL    HW1 4748   0.170   3.111   4.950
 1283SOL    HW2 4749   0.073   3.035   4.843
 1284SOL     OW 4750   4.262   2.230   1.791
 1284SOL    HW1 4751   4.228   2.160   1.853
 1284SOL    HW2 4752   4.325   2.291   1.840
 1285SOL     OW 4753   4.342   1.105   5.366
 1285SOL    HW1 4754   4.271   1.047   5.326
 1285SOL    HW2 4755   4.306   1.149   5.448
 1286SOL     OW 4756   5.301   2.525   1.345
 1286SOL    HW1 4757   5.269   2.436   1.376
 1286SOL    HW2 4758   5.350   2.515   1.258
 1287SOL     OW 4759   6.411   4.879   4.593
 1287SOL    HW1 4760   6.454   4.867   4.503
 1287SOL    HW2 4761   6.348   4.803   4.609
 1288SOL     OW 4762   4.579   4.240   0.124
 1288SOL    HW1 4763   4.499   4.292   0.154
 1288SOL    HW2 4764   4.622   4.286   0.047
 1289SOL     OW 4765   0.186   0.277   1.597
 1289SOL    HW1 4766   0.236   0.359   1.570
 1289SOL    HW2 4767   0.240   0.196   1.575
 1290SOL     OW 4768   1.889   6.824   5.685
 1290SOL    HW1 4769   1.803   6.871   5.707
 1290SOL    HW2 4770   1.920   6.773   5.765
 1291SOL     OW 4771   6.315   4.653   3.235
 1291SOL    HW1 4772   6.266   4.731   3.197
 1291SOL    HW2 4773   6.298   4.572   3.179
 1292SOL     OW 4774   0.981   6.695   1.705
 1292SOL    HW1 4775   0.907   6.629   1.699
 1292SOL    HW2 4776   1.016   6.715   1.613
 1293SOL     OW 4777   4.103   1.310   0.063
 1293SOL    HW1 4778   4.109   1.214   0.091
 1293SOL    HW2 4779   4.015   1.327   0.020
 1294SOL     OW 4780   2.001   3.805   5.054
 1294SOL    HW1 4781   2.074   3.834   5.116
 1294SOL    HW2 4782   1.915   3.848   5.082
 1295SOL     OW 4783   5.953   4.424   0.779
 1295SOL    HW1 4784   5.971   4.511   0.734
 1295SOL    HW2 4785   5.865   4.387   0.747
 1296SOL     OW 4786   5.494   0.125   5.669
 1296SOL    HW1 4787   5.437   0.205   5.651
 1296SOL    HW2 4788   5.553   0.107   5.591
 1297SOL     OW 4789   0.660   0.475   2.101
 1297SOL    HW1 4790   0.676   0.445   2.195
 1297SOL    HW2 4791   0.643   0.395   2.043
 1298SOL     OW 4792   5.151   6.769   2.604
 1298SOL    HW1 4793   5.057   6.799   2.585
 1298SOL    HW2 4794   5.153   6.721   2.692
 1299SOL     OW 4795   0.541   3.743   4.676
 1299SOL    HW1 4796   0.558   3.838   4.703
 1299SOL    HW2 4797   0.617   3.686   4.705
 1300SOL     OW 4798   1.065   4.555   1.832
 1300SOL    HW1 4799   1.144   4.600   1.874
 1300SOL    HW2 4800   0.981   4.586   1.878
 1301SOL     OW 4801   0.805   0.301   0.583
 1301SOL    HW1 4802   0.726   0.242   0.571
 1301SOL    HW2 4803   0.871   0.283   0.511
 1302SOL     OW 4804   5.756   0.028   4.739
 1302SOL    HW1 4805   5.680   6.982   4.728
 1302SOL    HW2 4806   5.780   0.067   4.650
 1303SOL     OW 4807   3.797   6.259   2.090
 1303SOL    HW1 4808   3.872   6.192   2.087
 1303SOL    HW2 4809   3.802   6.317   2.009
 1304SOL     OW 4810   0.757   0.839   0.444
 1304SOL    HW1 4811   0.702   0.809   0.367
 1304SOL    HW2 4812   0.763   0.765   0.511
 1305SOL     OW 4813   4.777   3.176   6.220
 1305SOL    HW1 4814   4.795   3.273   6.199
 1305SOL    HW2 4815   4.846   3.120   6.175
 1306SOL     OW 4816   2.698   5.480   4.138
 1306SOL    HW1 4817   2.645   5.542   4.079
 1306SOL    HW2 4818   2.651   5.392   4.145
 1307SOL     OW 4819   2.638   2.068   3.619
 1307SOL    HW1 4820   2.693   2.022   3.549
 1307SOL    HW2 4821   2.561   2.114   3.575
 1308SOL     OW 4822   0.879   4.538   6.144
 1308SOL    HW1 4823   0.958   4.567   6.090
 1308SOL    HW2 4824   0.795   4.556   6.093
 1309SOL     OW 4825   5.740   4.432   6.755
 1309SOL    HW1 4826   5.705   4.339   6.744
 1309SOL    HW2 4827   5.671   4.488   6.802
 1310SOL     OW 4828   1.118   3.862   3.371
 1310SOL    HW1 4829   1.129   3.787   3.436
 1310SOL    HW2 4830   1.026   3.901   3.379
 1311SOL     OW 4831   6.468   5.556   0.816
 1311SOL    HW1 4832   6.422   5.609   0.887
 1311SOL    HW2 4833   6.450   5.596   0.727
 1312SOL     OW 4834   2.640   1.034   6.127
 1312SOL    HW1 4835   2.651   0.962   6.058
 1312SOL    HW2 4836   2.562   1.013   6.186
 1313SOL     OW 4837   6.612   6.233   2.272
 1313SOL    HW1 4838   6.596   6.295   2.348
 1313SOL    HW2 4839   6.708   6.205   2.271
 1314SOL     OW 4840   2.579   1.552   4.958
 1314SOL    HW1 4841   2.494   1.545   4.905
 1314SOL    HW2 4842   2.562   1.605   5.041
 1315SOL     OW 4843   6.052   1.892   3.427
 1315SOL    HW1 4844   5.987   1.925   3.495
 1315SOL    HW2 4845   6.077   1.798   3.447
 1316SOL     OW 4846   4.626   0.582   5.708
 1316SOL    HW1 4847   4.559   0.639   5.660
 1316SOL    HW2 4848   4.695   0.551   5.642
 1317SOL     OW 4849   3.099   3.623   6.166
 1317SOL    HW1 4850   3.029   3.694   6.157
 1317SOL    HW2 4851   3.061   3.545   6.217
 1318SOL     OW 4852   1.959   2.473   6.182
 1318SOL    HW1 4853   1.918   2.383   6.169
 1318SOL    HW2 4854   1.889   2.538   6.210
 1319SOL     OW 4855   6.883   6.707   0.933
 1319SOL    HW1 4856   6.837   6.786   0.892
 1319SOL    HW2 4857   6.966   6.737   0.980
 1320SOL     OW 4858   3.305   3.244   5.853
 1320SOL    HW1 4859   3.258   3.157   5.864
 1320SOL    HW2 4860   3.281   3.304   5.929
 1321SOL     OW 4861   5.919   2.787   0.464
 1321SOL    HW1 4862   5.847   2.721   0.488
 1321SOL    HW2 4863   5.997   2.739   0.424
 1322SOL     OW 4864   3.522   1.707   0.544
 1322SOL    HW1 4865   3.571   1.621   0.541
 1322SOL    HW2 4866   3.579   1.777   0.587
 1323SOL     OW 4867   3.859   0.029   0.422
 1323SOL    HW1 4868   3.761   0.014   0.438
 1323SOL    HW2 4869   3.903   0.055   0.508
 1324SOL     OW 4870   1.539   3.504   0.254
 1324SOL    HW1 4871   1.462   3.509   0.191
 1324SOL    HW2 4872   1.519   3.560   0.335
 1325SOL     OW 4873   3.070   5.666   5.718
 1325SOL    HW1 4874   3.076   5.668   5.618
 1325SOL    HW2 4875   2.978   5.636   5.745
 1326SOL     OW 4876   4.755   2.755   3.519
 1326SOL    HW1 4877   4.664   2.735   3.482
 1326SOL    HW2 4878   4.779   2.850   3.498
 1327SOL     OW 4879   5.774   5.826   1.837
 1327SOL    HW1 4880   5.760   5.728   1.855
 1327SOL    HW2 4881   5.837   5.864   1.904
 1328SOL     OW 4882   2.087   3.141   4.972
 1328SOL    HW1 4883   2.074   3.179   4.880
 1328SOL    HW2 4884   2.181   3.108   4.981
 1329SOL     OW 4885   1.152   3.139   3.710
 1329SOL    HW1 4886   1.136   3.152   3.807
 1329SOL    HW2 4887   1.089   3.196   3.657
 1330SOL     OW 4888   6.651   2.827   1.525
 1330SOL    HW1 4889   6.585   2.894   1.560
 1330SOL    HW2 4890   6.619   2.735   1.547
 1331SOL     OW 4891   4.562   2.095   3.423
 1331SOL    HW1 4892   4.495   2.020   3.423
 1331SOL    HW2 4893   4.638   2.071   3.483
 1332SOL     OW 4894   1.618   6.186   6.876
 1332SOL    HW1 4895   1.552   6.167   6.803
 1332SOL    HW2 4896   1.670   6.103   6.896
 1333SOL     OW 4897   3.968   3.948   3.423
 1333SOL    HW1 4898   3.941   3.882   3.493
 1333SOL    HW2 4899   3.962   4.040   3.459
 1334SOL     OW 4900   6.990   3.518   1.997
 1334SOL    HW1 4901   0.006   3.490   2.087
 1334SOL    HW2 4902   6.943   3.441   1.954
 1335SOL     OW 4903   1.245   3.542   2.348
 1335SOL    HW1 4904   1.239   3.642   2.342
 1335SOL    HW2 4905   1.213   3.501   2.263
 1336SOL     OW 4906   2.861   0.793   5.209
 1336SOL    HW1 4907   2.919   0.869   5.180
 1336SOL    HW2 4908   2.832   0.807   5.303
 1337SOL     OW 4909   6.498   1.279   3.572
 1337SOL    HW1 4910   6.558   1.348   3.533
 1337SOL    HW2 4911   6.403   1.304   3.554
 1338SOL     OW 4912   6.575   3.844   5.347
 1338SOL    HW1 4913   6.631   3.887   5.418
 1338SOL    HW2 4914   6.479   3.846   5.374
 1339SOL     OW 4915   0.413   0.128   6.842
 1339SOL    HW1 4916   0.362   0.053   6.802
 1339SOL    HW2 4917   0.361   0.168   6.917
 1340SOL     OW 4918   4.164   2.768   1.610
 1340SOL    HW1 4919   4.095   2.696   1.611
 1340SOL    HW2 4920   4.131   2.847   1.662
 1341SOL     OW 4921   5.134   6.344   0.226
 1341SOL    HW1 4922   5.199   6.353   0.302
 1341SOL    HW2 4923   5.065   6.275   0.249
 1342SOL     OW 4924   2.683   6.729   1.563
 1342SOL    HW1 4925   2.637   6.682   1.488
 1342SOL    HW2 4926   2.777   6.695   1.571
 1343SOL     OW 4927   5.802   5.988   3.048
 1343SOL    HW1 4928   5.853   6.074   3.046
 1343SOL    HW2 4929   5.793   5.953   2.955
 1344SOL     OW 4930   0.446   0.388   4.904
 1344SOL    HW1 4931   0.480   0.326   4.974
 1344SOL    HW2 4932   0.524   0.430   4.856
 1345SOL     OW 4933   0.281   6.058   0.454
 1345SOL    HW1 4934   0.233   6.112   0.384
 1345SOL    HW2 4935   0.271   6.103   0.543
 1346SOL     OW 4936   3.112   5.507   5.066
 1346SOL    HW1 4937   3.101   5.599   5.103
 1346SOL    HW2 4938   3.029   5.454   5.081
 1347SOL     OW 4939   1.164   0.006   6.236
 1347SOL    HW1 4940   1.203   0.080   6.181
 1347SOL    HW2 4941   1.235   6.957   6.257
 1348SOL     OW 4942   0.772   6.458   5.472
 1348SOL    HW1 4943   0.702   6.509   5.423
 1348SOL    HW2 4944   0.860   6.467   5.424
 1349SOL     OW 4945   4.865   3.165   3.978
 1349SOL    HW1 4946   4.774   3.206   3.969
 1349SOL    HW2 4947   4.886   3.113   3.895
 1350SOL     OW 4948   4.239   3.914   0.076
 1350SOL    HW1 4949   4.175   3.881   0.146
 1350SOL    HW2 4950   4.249   4.013   0.086
 1351SOL     OW 4951   6.748   2.542   5.690
 1351SOL    HW1 4952   6.788   2.491   5.614
 1351SOL    HW2 4953   6.696   2.620   5.655
 1352SOL     OW 4954   6.684   0.332   2.079
 1352SOL    HW1 4955   6.771   0.315   2.033
 1352SOL    HW2 4956   6.701   0.348   2.176
 1353SOL     OW 4957   0.563   1.099   6.970
 1353SOL    HW1 4958   0.482   1.116   0.009
 1353SOL    HW2 4959   0.602   1.010   6.994
 1354SOL     OW 4960   5.406   4.996   2.611
 1354SOL    HW1 4961   5.340   5.071   2.617
 1354SOL    HW2 4962   5.375   4.928   2.545
 1355SOL     OW 4963   5.817   3.507   6.098
 1355SOL    HW1 4964   5.874   3.498   6.180
 1355SOL    HW2 4965   5.804   3.417   6.056
 1356SOL     OW 4966   3.145   3.256   0.586
 1356SOL    HW1 4967   3.138   3.169   0.635
 1356SOL    HW2 4968   3.238   3.291   0.593
 1357SOL     OW 4969   0.270   3.653   5.067
 1357SOL    HW1 4970   0.245   3.637   5.162
 1357SOL    HW2 4971   0.227   3.583   5.010
 1358SOL     OW 4972   1.630   6.619   6.546
 1358SOL    HW1 4973   1.553   6.555   6.546
 1358SOL    HW2 4974   1.680   6.611   6.632
 1359SOL     OW 4975   0.215   4.550   1.823
 1359SOL    HW1 4976   0.179   4.550   1.729
 1359SOL    HW2 4977   0.139   4.550   1.887
 1360SOL     OW 4978   2.486   2.560   0.458
 1360SOL    HW1 4979   2.497   2.637   0.520
 1360SOL    HW2 4980   2.484   2.593   0.363
 1361SOL     OW 4981   0.251   5.351   5.017
 1361SOL    HW1 4982   0.199   5.370   5.101
 1361SOL    HW2 4983   0.244   5.254   4.995
 1362SOL     OW 4984   2.903   3.269   2.962
 1362SOL    HW1 4985   2.888   3.312   3.051
 1362SOL    HW2 4986   2.904   3.339   2.890
 1363SOL     OW 4987   1.497   5.909   4.318
 1363SOL    HW1 4988   1.439   5.990   4.322
 1363SOL    HW2 4989   1.509   5.872   4.411
 1364SOL     OW 4990   3.945   3.968   1.047
 1364SOL    HW1 4991   3.981   3.878   1.069
 1364SOL    HW2 4992   3.959   4.030   1.125
 1365SOL     OW 4993   0.237   3.308   6.849
 1365SOL    HW1 4994   0.249   3.219   6.895
 1365SOL    HW2 4995   0.174   3.364   6.902
 1366SOL     OW 4996   3.203   0.264   5.380
 1366SOL    HW1 4997   3.285   0.271   5.323
 1366SOL    HW2 4998   3.230   0.239   5.473
 1367SOL     OW 4999   2.198   1.119   2.766
 1367SOL    HW1 5000   2.149   1.099   2.851
 1367SOL    HW2 5001   2.223   1.216   2.764
 1368SOL     OW 5002   5.364   6.667   3.425
 1368SOL    HW1 5003   5.394   6.646   3.518
 1368SOL    HW2 5004   5.303   6.746   3.425
 1369SOL     OW 5005   1.181   0.853   3.204
 1369SOL    HW1 5006   1.114   0.789   3.241
 1369SOL    HW2 5007   1.135   0.926   3.155
 1370SOL     OW 5008   2.593   0.624   1.514
 1370SOL    HW1 5009   2.584   0.529   1.485
 1370SOL    HW2 5010   2.688   0.653   1.506
 1371SOL     OW 5011   4.110   0.611   6.651
 1371SOL    HW1 5012   4.031   0.553   6.671
 1371SOL    HW2 5013   4.191   0.572   6.693
 1372SOL     OW 5014   3.147   1.770   1.974
 1372SOL    HW1 5015   3.051   1.763   1.998
 1372SOL    HW2 5016   3.194   1.831   2.037
 1373SOL     OW 5017   1.418   6.159   0.904
 1373SOL    HW1 5018   1.393   6.064   0.888
 1373SOL    HW2 5019   1.495   6.183   0.845
 1374SOL     OW 5020   4.844   3.037   0.386
 1374SOL    HW1 5021   4.942   3.018   0.388
 1374SOL    HW2 5022   4.828   3.135   0.374
 1375SOL     OW 5023   0.352   3.902   5.242
 1375SOL    HW1 5024   0.280   3.968   5.264
 1375SOL    HW2 5025   0.432   3.951   5.207
 1376SOL     OW 5026   4.824   1.645   2.597
 1376SOL    HW1 5027   4.828   1.594   2.511
 1376SOL    HW2 5028   4.917   1.658   2.633
 1377SOL     OW 5029   0.621   5.870   4.590
 1377SOL    HW1 5030   0.610   5.967   4.569
 1377SOL    HW2 5031   0.536   5.822   4.573
 1378SOL     OW 5032   2.115   1.989   6.769
 1378SOL    HW1 5033   2.060   1.933   6.706
 1378SOL    HW2 5034   2.119   2.083   6.735
 1379SOL     OW 5035   3.704   6.277   1.133
 1379SOL    HW1 5036   3.643   6.234   1.067
 1379SOL    HW2 5037   3.670   6.368   1.156
 1380SOL     OW 5038   6.406   6.703   2.617
 1380SOL    HW1 5039   6.401   6.605   2.599
 1380SOL    HW2 5040   6.466   6.747   2.550
 1381SOL     OW 5041   6.165   0.351   1.297
 1381SOL    HW1 5042   6.238   0.416   1.275
 1381SOL    HW2 5043   6.083   0.374   1.244
 1382SOL     OW 5044   6.952   4.857   6.278
 1382SOL    HW1 5045   0.010   4.816   6.328
 1382SOL    HW2 5046   6.901   4.919   6.338
 1383SOL     OW 5047   2.527   0.024   0.519
 1383SOL    HW1 5048   2.510   0.070   0.606
 1383SOL    HW2 5049   2.603   6.979   0.529
 1384SOL     OW 5050   2.887   1.734   2.136
 1384SOL    HW1 5051   2.834   1.794   2.196
 1384SOL    HW2 5052   2.824   1.689   2.072
 1385SOL     OW 5053   5.714   2.979   2.858
 1385SOL    HW1 5054   5.621   3.015   2.859
 1385SOL    HW2 5055   5.778   3.054   2.841
 1386SOL     OW 5056   2.230   2.430   4.124
 1386SOL    HW1 5057   2.201   2.525   4.132
 1386SOL    HW2 5058   2.162   2.378   4.071
 1387SOL     OW 5059   2.542   0.295   4.718
 1387SOL    HW1 5060   2.570   0.381   4.677
 1387SOL    HW2 5061   2.535   0.305   4.817
 1388SOL     OW 5062   6.287   1.130   4.903
 1388SOL    HW1 5063   6.242   1.063   4.962
 1388SOL    HW2 5064   6.379   1.150   4.939
 1389SOL     OW 5065   6.472   1.108   4.268
 1389SOL    HW1 5066   6.464   1.022   4.318
 1389SOL    HW2 5067   6.501   1.180   4.330
 1390SOL     OW 5068   4.504   2.499   2.101
 1390SOL    HW1 5069   4.472   2.479   2.194
 1390SOL    HW2 5070   4.580   2.438   2.079
 1391SOL     OW 5071   5.664   1.524   4.708
 1391SOL    HW1 5072   5.663   1.623   4.722
 1391SOL    HW2 5073   5.750   1.487   4.743
 1392SOL     OW 5074   4.578   5.936   6.031
 1392SOL    HW1 5075   4.568   5.850   5.981
 1392SOL    HW2 5076   4.650   5.927   6.099
 1393SOL     OW 5077   5.419   0.336   6.693
 1393SOL    HW1 5078   5.397   0.398   6.768
 1393SOL    HW2 5079   5.352   0.348   6.620
 1394SOL     OW 5080   4.263   0.180   3.960
 1394SOL    HW1 5081   4.287   0.224   3.874
 1394SOL    HW2 5082   4.176   0.217   3.994
 1395SOL     OW 5083   1.354   5.444   2.194
 1395SOL    HW1 5084   1.285   5.381   2.158
 1395SOL    HW2 5085   1.415   5.471   2.120
 1396SOL     OW 5086   1.663   1.209   3.705
 1396SOL    HW1 5087   1.746   1.264   3.717
 1396SOL    HW2 5088   1.685   1.125   3.655
 1397SOL     OW 5089   0.687   5.462   4.741
 1397SOL    HW1 5090   0.616   5.527   4.713
 1397SOL    HW2 5091   0.692   5.387   4.676
 1398SOL     OW 5092   1.852   6.759   6.931
 1398SOL    HW1 5093   1.797   6.824   6.984
 1398SOL    HW2 5094   1.927   6.725   6.988
 1399SOL     OW 5095   3.956   0.298   0.122
 1399SOL    HW1 5096   3.890   0.246   0.068
 1399SOL    HW2 5097   3.933   0.396   0.117
 1400SOL     OW 5098   0.269   0.926   5.021
 1400SOL    HW1 5099   0.357   0.881   5.007
 1400SOL    HW2 5100   0.257   0.948   5.118
 1401SOL     OW 5101   5.576   0.434   2.832
 1401SOL    HW1 5102   5.656   0.400   2.781
 1401SOL    HW2 5103   5.606   0.506   2.895
 1402SOL     OW 5104   6.917   4.585   2.596
 1402SOL    HW1 5105   6.885   4.491   2.587
 1402SOL    HW2 5106   7.014   4.586   2.619
 1403SOL     OW 5107   3.083   3.259   6.346
 1403SOL    HW1 5108   3.058   3.334   6.406
 1403SOL    HW2 5109   3.000   3.209   6.320
 1404SOL     OW 5110   4.055   6.221   0.605
 1404SOL    HW1 5111   4.128   6.265   0.553
 1404SOL    HW2 5112   4.002   6.291   0.653
 1405SOL     OW 5113   0.770   3.848   0.847
 1405SOL    HW1 5114   0.727   3.770   0.892
 1405SOL    HW2 5115   0.704   3.923   0.838
 1406SOL     OW 5116   1.672   3.295   0.359
 1406SOL    HW1 5117   1.636   3.386   0.336
 1406SOL    HW2 5118   1.770   3.301   0.372
 1407SOL     OW 5119   0.368   3.125   1.361
 1407SOL    HW1 5120   0.449   3.131   1.420
 1407SOL    HW2 5121   0.336   3.217   1.339
 1408SOL     OW 5122   5.671   6.683   0.900
 1408SOL    HW1 5123   5.673   6.764   0.842
 1408SOL    HW2 5124   5.583   6.636   0.889
 1409SOL     OW 5125   6.106   1.331   5.920
 1409SOL    HW1 5126   6.043   1.308   5.996
 1409SOL    HW2 5127   6.175   1.395   5.953
 1410SOL     OW 5128   3.370   0.277   6.643
 1410SOL    HW1 5129   3.406   0.367   6.621
 1410SOL    HW2 5130   3.420   0.239   6.720
 1411SOL     OW 5131   3.455   4.682   0.042
 1411SOL    HW1 5132   3.444   4.657   6.964
 1411SOL    HW2 5133   3.411   4.613   0.099
 1412SOL     OW 5134   2.831   2.210   0.187
 1412SOL    HW1 5135   2.744   2.163   0.203
 1412SOL    HW2 5136   2.813   2.305   0.159
 1413SOL     OW 5137   2.046   1.928   5.165
 1413SOL    HW1 5138   2.015   1.908   5.259
 1413SOL    HW2 5139   2.036   2.026   5.147
 1414SOL     OW 5140   0.385   4.653   2.567
 1414SOL    HW1 5141   0.406   4.629   2.662
 1414SOL    HW2 5142   0.469   4.671   2.517
 1415SOL     OW 5143   2.879   1.715   4.850
 1415SOL    HW1 5144   2.940   1.746   4.777
 1415SOL    HW2 5145   2.848   1.622   4.830
 1416SOL     OW 5146   4.542   0.370   4.972
 1416SOL    HW1 5147   4.549   0.396   5.069
 1416SOL    HW2 5148   4.611   0.302   4.950
 1417SOL     OW 5149   3.729   3.699   4.860
 1417SOL    HW1 5150   3.676   3.628   4.907
 1417SOL    HW2 5151   3.776   3.756   4.927
 1418SOL     OW 5152   3.766   4.022   6.011
 1418SOL    HW1 5153   3.844   3.960   6.007
 1418SOL    HW2 5154   3.714   4.006   6.095
 1419SOL     OW 5155   1.618   5.957   1.926
 1419SOL    HW1 5156   1.653   5.915   2.010
 1419SOL    HW2 5157   1.687   6.018   1.888
 1420SOL     OW 5158   2.764   6.461   2.491
 1420SOL    HW1 5159   2.864   6.458   2.488
 1420SOL    HW2 5160   2.728   6.373   2.460
 1421SOL     OW 5161   1.335   5.061   6.129
 1421SOL    HW1 5162   1.316   5.098   6.220
 1421SOL    HW2 5163   1.267   5.094   6.065
 1422SOL     OW 5164   1.729   2.907   6.591
 1422SOL    HW1 5165   1.733   2.991   6.537
 1422SOL    HW2 5166   1.815   2.897   6.641
 1423SOL     OW 5167   4.206   0.916   5.190
 1423SOL    HW1 5168   4.217   0.996   5.131
 1423SOL    HW2 5169   4.255   0.838   5.150
 1424SOL     OW 5170   6.629   3.175   0.900
 1424SOL    HW1 5171   6.604   3.086   0.937
 1424SOL    HW2 5172   6.656   3.164   0.804
 1425SOL     OW 5173   5.489   0.518   3.791
 1425SOL    HW1 5174   5.518   0.441   3.848
 1425SOL    HW2 5175   5.442   0.483   3.710
 1426SOL     OW 5176   4.045   0.925   6.936
 1426SOL    HW1 5177   4.109   0.981   6.883
 1426SOL    HW2 5178   3.954   0.932   6.895
 1427SOL     OW 5179   1.945   0.208   3.844
 1427SOL    HW1 5180   1.854   0.214   3.803
 1427SOL    HW2 5181   1.937   0.204   3.943
 1428SOL     OW 5182   1.369   3.264   4.088
 1428SOL    HW1 5183   1.335   3.334   4.024
 1428SOL    HW2 5184   1.401   3.308   4.171
 1429SOL     OW 5185   6.389   0.612   2.269
 1429SOL    HW1 5186   6.481   0.638   2.299
 1429SOL    HW2 5187   6.396   0.558   2.185
 1430SOL     OW 5188   1.957   3.468   4.769
 1430SOL    HW1 5189   1.969   3.369   4.755
 1430SOL    HW2 5190   2.017   3.518   4.707
 1431SOL     OW 5191   2.869   1.407   0.172
 1431SOL    HW1 5192   2.873   1.455   0.260
 1431SOL    HW2 5193   2.962   1.392   0.138
 1432SOL     OW 5194   3.833   0.209   2.209
 1432SOL    HW1 5195   3.878   0.168   2.289
 1432SOL    HW2 5196   3.777   0.286   2.239
 1433SOL     OW 5197   2.881   1.183   4.153
 1433SOL    HW1 5198   2.859   1.280   4.164
 1433SOL    HW2 5199   2.800   1.135   4.119
 1434SOL     OW 5200   5.530   4.029   0.416
 1434SOL    HW1 5201   5.520   4.044   0.514
 1434SOL    HW2 5202   5.487   3.942   0.391
 1435SOL     OW 5203   1.361   6.989   3.747
 1435SOL    HW1 5204   1.452   6.969   3.784
 1435SOL    HW2 5205   1.350   0.070   3.738
 1436SOL     OW 5206   5.667   1.362   0.514
 1436SOL    HW1 5207   5.569   1.368   0.495
 1436SOL    HW2 5208   5.686   1.404   0.602
 1437SOL     OW 5209   3.713   0.945   0.584
 1437SOL    HW1 5210   3.726   0.872   0.651
 1437SOL    HW2 5211   3.794   1.005   0.584
 1438SOL     OW 5212   2.337   0.785   2.753
 1438SOL    HW1 5213   2.282   0.831   2.684
 1438SOL    HW2 5214   2.417   0.842   2.775
 1439SOL     OW 5215   6.819   5.005   0.018
 1439SOL    HW1 5216   6.748   4.935   0.033
 1439SOL    HW2 5217   6.863   4.989   6.948
 1440SOL     OW 5218   3.456   2.913   2.737
 1440SOL    HW1 5219   3.469   2.922   2.835
 1440SOL    HW2 5220   3.361   2.932   2.714
 1441SOL     OW 5221   6.438   2.226   4.759
 1441SOL    HW1 5222   6.509   2.213   4.691
 1441SOL    HW2 5223   6.351   2.244   4.713
 1442SOL     OW 5224   5.600   0.075   0.356
 1442SOL    HW1 5225   5.583   0.157   0.412
 1442SOL    HW2 5226   5.519   0.016   0.359
 1443SOL     OW 5227   1.140   2.468   3.396
 1443SOL    HW1 5228   1.099   2.530   3.330
 1443SOL    HW2 5229   1.081   2.462   3.477
 1444SOL     OW 5230   5.264   0.327   5.455
 1444SOL    HW1 5231   5.355   0.353   5.486
 1444SOL    HW2 5232   5.222   0.403   5.405
 1445SOL     OW 5233   6.464   2.113   0.562
 1445SOL    HW1 5234   6.365   2.100   0.555
 1445SOL    HW2 5235   6.500   2.058   0.636
 1446SOL     OW 5236   3.876   6.843   0.910
 1446SOL    HW1 5237   3.853   6.771   0.844
 1446SOL    HW2 5238   3.974   6.864   0.903
 1447SOL     OW 5239   5.795   1.370   5.039
 1447SOL    HW1 5240   5.868   1.429   5.073
 1447SOL    HW2 5241   5.710   1.390   5.088
 1448SOL     OW 5242   5.424   0.533   6.878
 1448SOL    HW1 5243   5.378   0.532   6.967
 1448SOL    HW2 5244   5.505   0.592   6.883
 1449SOL     OW 5245   4.962   5.861   0.900
 1449SOL    HW1 5246   4.869   5.833   0.922
 1449SOL    HW2 5247   4.972   5.867   0.801
 1450SOL     OW 5248   5.850   2.418   3.560
 1450SOL    HW1 5249   5.796   2.387   3.482
 1450SOL    HW2 5250   5.789   2.452   3.631
 1451SOL     OW 5251   1.897   6.878   1.971
 1451SOL    HW1 5252   1.861   6.935   1.896
 1451SOL    HW2 5253   1.822   6.853   2.032
 1452SOL     OW 5254   4.337   0.681   5.073
 1452SOL    HW1 5255   4.327   0.631   5.160
 1452SOL    HW2 5256   4.431   0.715   5.066
 1453SOL     OW 5257   4.372   4.644   4.358
 1453SOL    HW1 5258   4.369   4.725   4.300
 1453SOL    HW2 5259   4.407   4.567   4.305
 1454SOL     OW 5260   4.769   4.733   1.191
 1454SOL    HW1 5261   4.823   4.650   1.176
 1454SOL    HW2 5262   4.830   4.812   1.198
 1455SOL     OW 5263   2.325   2.254   1.677
 1455SOL    HW1 5264   2.410   2.298   1.650
 1455SOL    HW2 5265   2.345   2.174   1.734
 1456SOL     OW 5266   5.993   5.412   4.152
 1456SOL    HW1 5267   5.996   5.313   4.169
 1456SOL    HW2 5268   6.029   5.461   4.232
 1457SOL     OW 5269   1.742   0.020   3.594
 1457SOL    HW1 5270   1.806   0.094   3.575
 1457SOL    HW2 5271   1.774   6.985   3.673
 1458SOL     OW 5272   0.207   5.822   0.075
 1458SOL    HW1 5273   0.213   5.748   0.007
 1458SOL    HW2 5274   0.149   5.794   0.150
 1459SOL     OW 5275   2.493   0.165   0.771
 1459SOL    HW1 5276   2.432   0.211   0.835
 1459SOL    HW2 5277   2.508   0.070   0.801
 1460SOL     OW 5278   1.033   6.817   0.215
 1460SOL    HW1 5279   0.933   6.819   0.207
 1460SOL    HW2 5280   1.073   6.881   0.149
 1461SOL     OW 5281   4.635   5.122   2.210
 1461SOL    HW1 5282   4.678   5.043   2.167
 1461SOL    HW2 5283   4.702   5.194   2.224
 1462SOL     OW 5284   5.117   0.540   5.398
 1462SOL    HW1 5285   5.108   0.569   5.494
 1462SOL    HW2 5286   5.044   0.579   5.344
 1463SOL     OW 5287   0.437   1.268   5.210
 1463SOL    HW1 5288   0.520   1.221   5.240
 1463SOL    HW2 5289   0.457   1.366   5.200
 1464SOL     OW 5290   0.151   0.699   1.682
 1464SOL    HW1 5291   0.189   0.643   1.608
 1464SOL    HW2 5292   0.112   0.782   1.644
 1465SOL     OW 5293   0.590   0.333   4.644
 1465SOL    HW1 5294   0.512   0.288   4.688
 1465SOL    HW2 5295   0.577   0.332   4.545
 1466SOL     OW 5296   5.519   5.024   4.451
 1466SOL    HW1 5297   5.439   4.971   4.421
 1466SOL    HW2 5298   5.513   5.117   4.415
 1467SOL     OW 5299   5.723   3.593   3.256
 1467SOL    HW1 5300   5.744   3.548   3.343
 1467SOL    HW2 5301   5.795   3.660   3.235
 1468SOL     OW 5302   5.936   6.981   2.439
 1468SOL    HW1 5303   5.872   6.952   2.511
 1468SOL    HW2 5304   5.922   6.925   2.358
 1469SOL     OW 5305   0.506   0.841   2.172
 1469SOL    HW1 5306   0.441   0.917   2.178
 1469SOL    HW2 5307   0.555   0.833   2.258
 1470SOL     OW 5308   6.744   0.919   3.395
 1470SOL    HW1 5309   6.693   0.923   3.480
 1470SOL    HW2 5310   6.802   0.838   3.395
 1471SOL     OW 5311   6.354   0.289   0.964
 1471SOL    HW1 5312   6.437   0.265   1.014
 1471SOL    HW2 5313   6.347   0.232   0.882
 1472SOL     OW 5314   4.072   5.870   5.008
 1472SOL    HW1 5315   4.085   5.787   4.954
 1472SOL    HW2 5316   4.136   5.870   5.085
 1473SOL     OW 5317   5.931   3.775   3.235
 1473SOL    HW1 5318   5.938   3.848   3.304
 1473SOL    HW2 5319   5.898   3.813   3.149
 1474SOL     OW 5320   4.381   5.032   3.912
 1474SOL    HW1 5321   4.425   4.946   3.885
 1474SOL    HW2 5322   4.343   5.075   3.830
 1475SOL     OW 5323   6.327   1.117   3.337
 1475SOL    HW1 5324   6.257   1.133   3.408
 1475SOL    HW2 5325   6.302   1.036   3.284
 1476SOL     OW 5326   6.342   2.264   1.545
 1476SOL    HW1 5327   6.363   2.324   1.467
 1476SOL    HW2 5328   6.256   2.293   1.586
 1477SOL     OW 5329   2.722   6.064   3.584
 1477SOL    HW1 5330   2.668   6.118   3.519
 1477SOL    HW2 5331   2.762   5.986   3.536
 1478SOL     OW 5332   0.152   4.536   1.560
 1478SOL    HW1 5333   0.190   4.620   1.520
 1478SOL    HW2 5334   0.201   4.457   1.523
 1479SOL     OW 5335   0.700   4.878   0.741
 1479SOL    HW1 5336   0.671   4.877   0.645
 1479SOL    HW2 5337   0.685   4.788   0.781
 1480SOL     OW 5338   3.060   0.671   0.394
 1480SOL    HW1 5339   3.070   0.746   0.328
 1480SOL    HW2 5340   3.008   0.597   0.352
 1481SOL     OW 5341   6.535   2.691   6.249
 1481SOL    HW1 5342   6.609   2.626   6.264
 1481SOL    HW2 5343   6.573   2.784   6.244
 1482SOL     OW 5344   5.263   1.183   6.553
 1482SOL    HW1 5345   5.190   1.250   6.564
 1482SOL    HW2 5346   5.340   1.207   6.613
 1483SOL     OW 5347   6.179   2.382   6.561
 1483SOL    HW1 5348   6.272   2.416   6.547
 1483SOL    HW2 5349   6.152   2.396   6.656
 1484SOL     OW 5350   6.933   6.904   2.900
 1484SOL    HW1 5351   6.921   6.993   2.858
 1484SOL    HW2 5352   6.890   6.834   2.842
 1485SOL     OW 5353   5.937   2.638   4.044
 1485SOL    HW1 5354   5.912   2.701   4.118
 1485SOL    HW2 5355   5.867   2.566   4.036
 1486SOL     OW 5356   5.396   2.541   1.794
 1486SOL    HW1 5357   5.299   2.515   1.792
 1486SOL    HW2 5358   5.421   2.585   1.708
 1487SOL     OW 5359   6.314   1.165   5.773
 1487SOL    HW1 5360   6.294   1.068   5.786
 1487SOL    HW2 5361   6.235   1.219   5.803
 1488SOL     OW 5362   4.772   1.789   3.167
 1488SOL    HW1 5363   4.812   1.880   3.177
 1488SOL    HW2 5364   4.673   1.795   3.183
 1489SOL     OW 5365   4.109   5.357   4.821
 1489SOL    HW1 5366   4.029   5.297   4.832
 1489SOL    HW2 5367   4.127   5.370   4.724
 1490SOL     OW 5368   2.195   2.366   0.954
 1490SOL    HW1 5369   2.148   2.448   0.922
 1490SOL    HW2 5370   2.191   2.361   1.054
 1491SOL     OW 5371   6.641   2.033   5.837
 1491SOL    HW1 5372   6.677   2.120   5.803
 1491SOL    HW2 5373   6.542   2.042   5.853
 1492SOL     OW 5374   6.030   2.928   1.634
 1492SOL    HW1 5375   6.018   2.866   1.556
 1492SOL    HW2 5376   6.006   3.021   1.605
 1493SOL     OW 5377   5.973   1.554   5.129
 1493SOL    HW1 5378   5.995   1.600   5.215
 1493SOL    HW2 5379   5.931   1.619   5.066
 1494SOL     OW 5380   5.586   2.288   4.475
 1494SOL    HW1 5381   5.648   2.247   4.408
 1494SOL    HW2 5382   5.494   2.251   4.462
 1495SOL     OW 5383   1.222   2.566   3.095
 1495SOL    HW1 5384   1.206   2.625   3.016
 1495SOL    HW2 5385   1.320   2.547   3.103
 1496SOL     OW 5386   0.989   0.630   3.279
 1496SOL    HW1 5387   0.902   0.596   3.316
 1496SOL    HW2 5388   1.018   0.571   3.204
 1497SOL     OW 5389   5.076   4.386   5.563
 1497SOL    HW1 5390   5.080   4.329   5.646
 1497SOL    HW2 5391   5.153   4.363   5.504
 1498SOL     OW 5392   2.234   5.641   0.013
 1498SOL    HW1 5393   2.204   5.733   0.037
 1498SOL    HW2 5394   2.295   5.605   0.083
 1499SOL     OW 5395   0.513   4.583   4.679
 1499SOL    HW1 5396   0.597   4.529   4.691
 1499SOL    HW2 5397   0.536   4.680   4.678
 1500SOL     OW 5398   4.470   6.771   5.333
 1500SOL    HW1 5399   4.370   6.771   5.333
 1500SOL    HW2 5400   4.504   6.777   5.427
 1501SOL     OW 5401   4.276   0.465   6.789
 1501SOL    HW1 5402   4.333   0.413   6.726
 1501SOL    HW2 5403   4.327   0.480   6.874
 1502SOL     OW 5404   0.399   6.251   0.017
 1502SOL    HW1 5405   0.349   6.197   6.967
 1502SOL    HW2 5406   0.492   6.215   0.027
 1503SOL     OW 5407   3.279   4.209   5.219
 1503SOL    HW1 5408   3.188   4.190   5.183
 1503SOL    HW2 5409   3.343   4.220   5.144
 1504SOL     OW 5410   2.809   6.550   4.335
 1504SOL    HW1 5411   2.828   6.549   4.433
 1504SOL    HW2 5412   2.748   6.626   4.313
 1505SOL     OW 5413   5.171   5.547   2.533
 1505SOL    HW1 5414   5.107   5.623   2.516
 1505SOL    HW2 5415   5.234   5.539   2.456
 1506SOL     OW 5416   0.919   6.249   2.856
 1506SOL    HW1 5417   0.924   6.260   2.955
 1506SOL    HW2 5418   0.969   6.323   2.812
 1507SOL     OW 5419   2.871   1.930   6.567
 1507SOL    HW1 5420   2.938   1.982   6.515
 1507SOL    HW2 5421   2.906   1.837   6.583
 1508SOL     OW 5422   4.308   0.341   0.419
 1508SOL    HW1 5423   4.326   0.386   0.331
 1508SOL    HW2 5424   4.392   0.339   0.472
 1509SOL     OW 5425   5.361   1.585   0.238
 1509SOL    HW1 5426   5.355   1.674   0.192
 1509SOL    HW2 5427   5.407   1.519   0.178
 1510SOL     OW 5428   0.432   1.985   3.166
 1510SOL    HW1 5429   0.473   2.075   3.169
 1510SOL    HW2 5430   0.347   1.985   3.220
 1511SOL     OW 5431   1.867   2.462   0.792
 1511SOL    HW1 5432   1.819   2.533   0.740
 1511SOL    HW2 5433   1.860   2.482   0.890
 1512SOL     OW 5434   6.239   0.990   2.475
 1512SOL    HW1 5435   6.268   0.947   2.389
 1512SOL    HW2 5436   6.189   0.924   2.530
 1513SOL     OW 5437   3.753   1.146   2.360
 1513SOL    HW1 5438   3.796   1.233   2.336
 1513SOL    HW2 5439   3.751   1.136   2.460
 1514SOL     OW 5440   4.895   1.144   6.443
 1514SOL    HW1 5441   4.927   1.194   6.362
 1514SOL    HW2 5442   4.834   1.070   6.414
 1515SOL     OW 5443   6.359   5.464   4.933
 1515SOL    HW1 5444   6.271   5.459   4.886
 1515SOL    HW2 5445   6.396   5.556   4.925
 1516SOL     OW 5446   0.361   0.869   0.621
 1516SOL    HW1 5447   0.284   0.817   0.586
 1516SOL    HW2 5448   0.403   0.819   0.698
 1517SOL     OW 5449   3.601   4.933   3.558
 1517SOL    HW1 5450   3.558   4.926   3.468
 1517SOL    HW2 5451   3.530   4.941   3.628
 1518SOL     OW 5452   0.918   4.796   0.999
 1518SOL    HW1 5453   0.923   4.794   0.899
 1518SOL    HW2 5454   0.980   4.866   1.034
 1519SOL     OW 5455   6.837   3.987   1.403
 1519SOL    HW1 5456   6.882   4.069   1.368
 1519SOL    HW2 5457   6.782   4.011   1.483
 1520SOL     OW 5458   1.717   2.466   2.583
 1520SOL    HW1 5459   1.727   2.522   2.500
 1520SOL    HW2 5460   1.745   2.520   2.663
 1521SOL     OW 5461   2.830   4.243   5.340
 1521SOL    HW1 5462   2.887   4.317   5.303
 1521SOL    HW2 5463   2.887   4.172   5.380
 1522SOL     OW 5464   1.185   2.689   6.364
 1522SOL    HW1 5465   1.241   2.615   6.326
 1522SOL    HW2 5466   1.117   2.649   6.426
 1523SOL     OW 5467   6.838   1.390   0.730
 1523SOL    HW1 5468   6.830   1.348   0.640
 1523SOL    HW2 5469   6.754   1.375   0.782
 1524SOL     OW 5470   6.139   0.994   3.127
 1524SOL    HW1 5471   6.117   0.897   3.130
 1524SOL    HW2 5472   6.057   1.048   3.144
 1525SOL     OW 5473   4.816   1.451   6.099
 1525SOL    HW1 5474   4.815   1.453   5.999
 1525SOL    HW2 5475   4.722   1.453   6.134
 1526SOL     OW 5476   7.006   1.717   6.961
 1526SOL    HW1 5477   0.009   1.695   6.865
 1526SOL    HW2 5478   6.909   1.701   6.978
 1527SOL     OW 5479   2.493   1.671   5.813
 1527SOL    HW1 5480   2.509   1.619   5.897
 1527SOL    HW2 5481   2.404   1.646   5.776
 1528SOL     OW 5482   4.982   5.522   3.980
 1528SOL    HW1 5483   4.908   5.549   3.919
 1528SOL    HW2 5484   5.033   5.603   4.009
 1529SOL     OW 5485   3.363   0.900   5.072
 1529SOL    HW1 5486   3.333   0.821   5.018
 1529SOL    HW2 5487   3.417   0.961   5.015
 1530SOL     OW 5488   3.299   0.055   2.433
 1530SOL    HW1 5489   3.225   0.056   2.365
 1530SOL    HW2 5490   3.368   7.006   2.406
 1531SOL     OW 5491   5.968   0.459   6.261
 1531SOL    HW1 5492   5.980   0.500   6.351
 1531SOL    HW2 5493   5.873   0.470   6.232
 1532SOL     OW 5494   3.281   2.509   5.392
 1532SOL    HW1 5495   3.245   2.465   5.310
 1532SOL    HW2 5496   3.350   2.450   5.434
 1533SOL     OW 5497   5.459   2.881   6.821
 1533SOL    HW1 5498   5.505   2.957   6.866
 1533SOL    HW2 5499   5.406   2.829   6.889
 1534SOL     OW 5500   6.658   0.180   1.740
 1534SOL    HW1 5501   6.660   0.125   1.657
 1534SOL    HW2 5502   6.715   0.261   1.728
 1535SOL     OW 5503   4.785   4.933   3.952
 1535SOL    HW1 5504   4.770   4.845   3.907
 1535SOL    HW2 5505   4.807   5.002   3.884
 1536SOL     OW 5506   3.082   5.122   3.235
 1536SOL    HW1 5507   3.016   5.196   3.244
 1536SOL    HW2 5508   3.170   5.159   3.205
 1537SOL     OW 5509   2.279   5.758   4.359
 1537SOL    HW1 5510   2.321   5.697   4.426
 1537SOL    HW2 5511   2.306   5.853   4.378
 1538SOL     OW 5512   3.181   4.802   6.472
 1538SOL    HW1 5513   3.259   4.778   6.414
 1538SOL    HW2 5514   3.179   4.900   6.487
 1539SOL     OW 5515   3.618   5.372   1.601
 1539SOL    HW1 5516   3.555   5.417   1.537
 1539SOL    HW2 5517   3.662   5.441   1.658
 1540SOL     OW 5518   6.064   0.318   5.594
 1540SOL    HW1 5519   6.045   0.337   5.690
 1540SOL    HW2 5520   6.131   0.243   5.587
 1541SOL     OW 5521   4.832   1.735   0.573
 1541SOL    HW1 5522   4.809   1.730   0.476
 1541SOL    HW2 5523   4.794   1.656   0.621
 1542SOL     OW 5524   1.083   6.370   0.779
 1542SOL    HW1 5525   1.018   6.315   0.833
 1542SOL    HW2 5526   1.118   6.316   0.703
 1543SOL     OW 5527   3.520   4.104   3.762
 1543SOL    HW1 5528   3.566   4.156   3.833
 1543SOL    HW2 5529   3.438   4.061   3.799
 1544SOL     OW 5530   3.530   3.773   2.681
 1544SOL    HW1 5531   3.479   3.748   2.763
 1544SOL    HW2 5532   3.572   3.863   2.694
 1545SOL     OW 5533   6.513   0.489   4.292
 1545SOL    HW1 5534   6.511   0.389   4.289
 1545SOL    HW2 5535   6.607   0.521   4.283
 1546SOL     OW 5536   6.786   6.653   6.190
 1546SOL    HW1 5537   6.850   6.591   6.147
 1546SOL    HW2 5538   6.825   6.745   6.193
 1547SOL     OW 5539   3.727   5.973   6.933
 1547SOL    HW1 5540   3.791   6.014   6.868
 1547SOL    HW2 5541   3.761   5.883   6.960
 1548SOL     OW 5542   5.978   4.343   4.036
 1548SOL    HW1 5543   5.957   4.436   4.007
 1548SOL    HW2 5544   5.926   4.322   4.119
 1549SOL     OW 5545   6.566   2.054   0.783
 1549SOL    HW1 5546   6.654   2.084   0.819
 1549SOL    HW2 5547   6.503   2.132   0.782
 1550SOL     OW 5548   2.198   5.609   2.650
 1550SOL    HW1 5549   2.264   5.604   2.725
 1550SOL    HW2 5550   2.245   5.590   2.564
 1551SOL     OW 5551   0.757   3.560   0.975
 1551SOL    HW1 5552   0.709   3.539   1.060
 1551SOL    HW2 5553   0.706   3.520   0.898
 1552SOL     OW 5554   0.834   6.943   1.504
 1552SOL    HW1 5555   0.816   6.943   1.406
 1552SOL    HW2 5556   0.906   7.009   1.525
 1553SOL     OW 5557   5.632   1.690   6.077
 1553SOL    HW1 5558   5.664   1.785   6.070
 1553SOL    HW2 5559   5.562   1.684   6.149
 1554SOL     OW 5560   2.377   2.030   1.259
 1554SOL    HW1 5561   2.311   2.098   1.228
 1554SOL    HW2 5562   2.395   2.043   1.357
 1555SOL     OW 5563   3.646   0.870   6.449
 1555SOL    HW1 5564   3.650   0.775   6.421
 1555SOL    HW2 5565   3.558   0.889   6.492
 1556SOL     OW 5566   4.199   2.102   6.846
 1556SOL    HW1 5567   4.174   2.006   6.854
 1556SOL    HW2 5568   4.290   2.117   6.885
 1557SOL     OW 5569   1.714   3.117   0.559
 1557SOL    HW1 5570   1.699   3.174   0.478
 1557SOL    HW2 5571   1.674   3.162   0.639
 1558SOL     OW 5572   5.117   2.994   6.349
 1558SOL    HW1 5573   5.072   3.082   6.368
 1558SOL    HW2 5574   5.089   2.962   6.259
 1559SOL     OW 5575   3.456   5.410   2.825
 1559SOL    HW1 5576   3.424   5.379   2.915
 1559SOL    HW2 5577   3.387   5.387   2.756
 1560SOL     OW 5578   3.811   2.355   1.209
 1560SOL    HW1 5579   3.784   2.350   1.305
 1560SOL    HW2 5580   3.857   2.269   1.184
 1561SOL     OW 5581   5.885   6.398   1.001
 1561SOL    HW1 5582   5.798   6.375   0.956
 1561SOL    HW2 5583   5.960   6.352   0.954
 1562SOL     OW 5584   3.260   0.620   2.465
 1562SOL    HW1 5585   3.168   0.656   2.451
 1562SOL    HW2 5586   3.272   0.597   2.562
 1563SOL     OW 5587   2.311   2.035   4.079
 1563SOL    HW1 5588   2.332   1.993   4.168
 1563SOL    HW2 5589   2.385   2.097   4.054
 1564SOL     OW 5590   0.545   0.962   2.941
 1564SOL    HW1 5591   0.482   1.037   2.919
 1564SOL    HW2 5592   0.509   0.876   2.904
 1565SOL     OW 5593   4.002   1.150   4.820
 1565SOL    HW1 5594   4.011   1.097   4.735
 1565SOL    HW2 5595   3.932   1.220   4.808
 1566SOL     OW 5596   5.922   4.334   3.695
 1566SOL    HW1 5597   5.889   4.410   3.752
 1566SOL    HW2 5598   5.976   4.370   3.619
 1567SOL     OW 5599   5.251   0.470   5.138
 1567SOL    HW1 5600   5.171   0.461   5.196
 1567SOL    HW2 5601   5.232   0.536   5.065
 1568SOL     OW 5602   2.933   4.703   1.386
 1568SOL    HW1 5603   2.970   4.643   1.457
 1568SOL    HW2 5604   2.837   4.681   1.369
 1569SOL     OW 5605   2.954   1.053   2.756
 1569SOL    HW1 5606   2.913   1.067   2.846
 1569SOL    HW2 5607   2.895   0.992   2.702
 1570SOL     OW 5608   2.938   6.019   6.159
 1570SOL    HW1 5609   2.943   5.944   6.094
 1570SOL    HW2 5610   2.918   6.104   6.111
 1571SOL     OW 5611   0.030   3.699   4.153
 1571SOL    HW1 5612   0.063   3.618   4.201
 1571SOL    HW2 5613   6.973   3.673   4.092
 1572SOL     OW 5614   2.838   5.627   2.842
 1572SOL    HW1 5615   2.815   5.724   2.838
 1572SOL    HW2 5616   2.756   5.572   2.829
 1573SOL     OW 5617   5.207   5.888   6.987
 1573SOL    HW1 5618   5.209   5.828   0.049
 1573SOL    HW2 5619   5.287   5.871   6.930
 1574SOL     OW 5620   0.933   4.543   3.011
 1574SOL    HW1 5621   0.845   4.502   3.034
 1574SOL    HW2 5622   0.977   4.575   3.095
 1575SOL     OW 5623   6.771   2.793   0.204
 1575SOL    HW1 5624   6.780   2.700   0.167
 1575SOL    HW2 5625   6.735   2.853   0.133
 1576SOL     OW 5626   1.937   6.333   1.264
 1576SOL    HW1 5627   1.883   6.382   1.332
 1576SOL    HW2 5628   1.880   6.311   1.185
 1577SOL     OW 5629   3.988   5.766   4.511
 1577SOL    HW1 5630   3.902   5.767   4.563
 1577SOL    HW2 5631   3.989   5.687   4.450
 1578SOL     OW 5632   5.214   1.089   1.927
 1578SOL    HW1 5633   5.252   1.101   1.835
 1578SOL    HW2 5634   5.211   1.177   1.974
 1579SOL     OW 5635   1.331   2.744   2.051
 1579SOL    HW1 5636   1.336   2.819   1.985
 1579SOL    HW2 5637   1.403   2.678   2.032
 1580SOL     OW 5638   3.022   3.820   2.633
 1580SOL    HW1 5639   2.969   3.785   2.711
 1580SOL    HW2 5640   3.104   3.866   2.666
 1581SOL     OW 5641   6.381   4.468   5.370
 1581SOL    HW1 5642   6.460   4.409   5.388
 1581SOL    HW2 5643   6.380   4.544   5.434
 1582SOL     OW 5644   4.501   5.897   5.299
 1582SOL    HW1 5645   4.517   5.903   5.200
 1582SOL    HW2 5646   4.585   5.865   5.344
 1583SOL     OW 5647   1.120   5.366   5.405
 1583SOL    HW1 5648   1.166   5.290   5.359
 1583SOL    HW2 5649   1.077   5.425   5.337
 1584SOL     OW 5650   6.913   4.074   0.235
 1584SOL    HW1 5651   6.886   4.169   0.245
 1584SOL    HW2 5652   6.869   4.035   0.154
 1585SOL     OW 5653   4.239   6.785   3.678
 1585SOL    HW1 5654   4.179   6.816   3.752
 1585SOL    HW2 5655   4.230   6.847   3.600
 1586SOL     OW 5656   3.825   6.091   3.329
 1586SOL    HW1 5657   3.836   6.042   3.242
 1586SOL    HW2 5658   3.826   6.026   3.405
 1587SOL     OW 5659   2.703   6.340   6.437
 1587SOL    HW1 5660   2.727   6.343   6.534
 1587SOL    HW2 5661   2.610   6.304   6.427
 1588SOL     OW 5662   6.467   1.607   3.743
 1588SOL    HW1 5663   6.494   1.703   3.741
 1588SOL    HW2 5664   6.471   1.573   3.837
 1589SOL     OW 5665   6.373   4.219   3.923
 1589SOL    HW1 5666   6.330   4.174   3.845
 1589SOL    HW2 5667   6.334   4.183   4.008
 1590SOL     OW 5668   6.798   2.181   3.728
 1590SOL    HW1 5669   6.857   2.104   3.705
 1590SOL    HW2 5670   6.825   2.218   3.817
 1591SOL     OW 5671   1.460   6.043   1.176
 1591SOL    HW1 5672   1.370   6.007   1.152
 1591SOL    HW2 5673   1.521   6.037   1.096
 1592SOL     OW 5674   0.290   3.625   6.411
 1592SOL    HW1 5675   0.284   3.678   6.326
 1592SOL    HW2 5676   0.385   3.621   6.441
 1593SOL     OW 5677   3.585   6.752   6.910
 1593SOL    HW1 5678   3.641   6.691   6.966
 1593SOL    HW2 5679   3.613   6.847   6.925
 1594SOL     OW 5680   6.046   0.837   2.560
 1594SOL    HW1 5681   6.003   0.788   2.636
 1594SOL    HW2 5682   6.043   0.781   2.478
 1595SOL     OW 5683   0.557   3.446   0.103
 1595SOL    HW1 5684   0.655   3.453   0.120
 1595SOL    HW2 5685   0.534   3.352   0.079
 1596SOL     OW 5686   4.541   4.871   3.350
 1596SOL    HW1 5687   4.456   4.895   3.304
 1596SOL    HW2 5688   4.538   4.901   3.445
 1597SOL     OW 5689   4.075   5.812   0.084
 1597SOL    HW1 5690   4.109   5.730   0.130
 1597SOL    HW2 5691   3.978   5.802   0.064
 1598SOL     OW 5692   1.060   4.888   6.406
 1598SOL    HW1 5693   1.087   4.792   6.400
 1598SOL    HW2 5694   1.141   4.943   6.428
 1599SOL     OW 5695   4.402   5.030   3.007
 1599SOL    HW1 5696   4.455   4.949   2.982
 1599SOL    HW2 5697   4.358   5.067   2.926
 1600SOL     OW 5698   3.993   0.515   2.035
 1600SOL    HW1 5699   3.936   0.577   2.087
 1600SOL    HW2 5700   3.935   0.455   1.979
 1601SOL     OW 5701   6.505   0.835   4.925
 1601SOL    HW1 5702   6.535   0.930   4.934
 1601SOL    HW2 5703   6.450   0.809   5.004
 1602SOL     OW 5704   4.140   6.124   3.933
 1602SOL    HW1 5705   4.218   6.130   3.870
 1602SOL    HW2 5706   4.096   6.213   3.941
 1603SOL     OW 5707   3.139   4.858   3.324
 1603SOL    HW1 5708   3.086   4.942   3.315
 1603SOL    HW2 5709   3.171   4.848   3.419
 1604SOL     OW 5710   4.343   5.179   2.428
 1604SOL    HW1 5711   4.439   5.205   2.422
 1604SOL    HW2 5712   4.287   5.260   2.446
 1605SOL     OW 5713   4.928   5.058   0.795
 1605SOL    HW1 5714   4.932   5.093   0.702
 1605SOL    HW2 5715   5.021   5.056   0.833
 1606SOL     OW 5716   2.995   6.180   4.352
 1606SOL    HW1 5717   2.985   6.165   4.254
 1606SOL    HW2 5718   2.936   6.116   4.402
 1607SOL     OW 5719   4.452   5.181   3.476
 1607SOL    HW1 5720   4.530   5.129   3.513
 1607SOL    HW2 5721   4.487   5.258   3.422
 1608SOL     OW 5722   5.106   2.142   3.673
 1608SOL    HW1 5723   5.061   2.181   3.593
 1608SOL    HW2 5724   5.065   2.053   3.694
 1609SOL     OW 5725   2.595   6.811   1.200
 1609SOL    HW1 5726   2.569   6.729   1.251
 1609SOL    HW2 5727   2.694   6.812   1.187
 1610SOL     OW 5728   5.537   0.219   1.109
 1610SOL    HW1 5729   5.486   0.303   1.130
 1610SOL    HW2 5730   5.501   0.144   1.164
 1611SOL     OW 5731   1.512   4.612   0.002
 1611SOL    HW1 5732   1.424   4.661   0.009
 1611SOL    HW2 5733   1.567   4.631   0.083
 1612SOL     OW 5734   4.497   0.526   2.462
 1612SOL    HW1 5735   4.462   0.512   2.369
 1612SOL    HW2 5736   4.597   0.523   2.461
 1613SOL     OW 5737   6.596   5.224   2.429
 1613SOL    HW1 5738   6.546   5.288   2.370
 1613SOL    HW2 5739   6.541   5.141   2.441
 1614SOL     OW 5740   6.239   1.469   6.243
 1614SOL    HW1 5741   6.223   1.504   6.151
 1614SOL    HW2 5742   6.319   1.408   6.242
 1615SOL     OW 5743   0.245   3.939   6.498
 1615SOL    HW1 5744   0.244   3.870   6.426
 1615SOL    HW2 5745   0.156   3.985   6.502
 1616SOL     OW 5746   0.918   0.630   4.086
 1616SOL    HW1 5747   0.851   0.621   4.159
 1616SOL    HW2 5748   1.006   0.593   4.117
 1617SOL     OW 5749   6.042   6.313   3.441
 1617SOL    HW1 5750   6.005   6.231   3.397
 1617SOL    HW2 5751   6.112   6.353   3.383
 1618SOL     OW 5752   3.261   5.428   3.359
 1618SOL    HW1 5753   3.211   5.488   3.297
 1618SOL    HW2 5754   3.338   5.387   3.310
 1619SOL     OW 5755   0.951   4.220   7.000
 1619SOL    HW1 5756   1.026   4.282   6.976
 1619SOL    HW2 5757   0.975   4.167   0.062
 1620SOL     OW 5758   3.440   5.777   4.565
 1620SOL    HW1 5759   3.492   5.863   4.566
 1620SOL    HW2 5760   3.373   5.778   4.638
 1621SOL     OW 5761   4.951   5.824   0.596
 1621SOL    HW1 5762   5.011   5.764   0.544
 1621SOL    HW2 5763   4.859   5.785   0.600
 1622SOL     OW 5764   6.674   4.360   4.581
 1622SOL    HW1 5765   6.763   4.371   4.624
 1622SOL    HW2 5766   6.644   4.447   4.542
 1623SOL     OW 5767   6.857   1.851   3.064
 1623SOL    HW1 5768   6.927   1.874   2.997
 1623SOL    HW2 5769   6.892   1.867   3.156
 1624SOL     OW 5770   3.777   2.936   0.920
 1624SOL    HW1 5771   3.708   2.907   0.854
 1624SOL    HW2 5772   3.735   2.951   1.009
 1625SOL     OW 5773   0.546   6.696   1.184
 1625SOL    HW1 5774   0.580   6.662   1.096
 1625SOL    HW2 5775   0.624   6.714   1.245
 1626SOL     OW 5776   2.510   1.991   1.691
 1626SOL    HW1 5777   2.516   1.950   1.601
 1626SOL    HW2 5778   2.584   2.058   1.702
 1627SOL     OW 5779   3.480   2.051   5.834
 1627SOL    HW1 5780   3.409   2.102   5.785
 1627SOL    HW2 5781   3.438   1.976   5.884
 1628SOL     OW 5782   5.521   6.759   1.130
 1628SOL    HW1 5783   5.523   6.676   1.185
 1628SOL    HW2 5784   5.587   6.752   1.056
 1629SOL     OW 5785   1.609   0.271   3.504
 1629SOL    HW1 5786   1.658   0.185   3.513
 1629SOL    HW2 5787   1.645   0.323   3.427
 1630SOL     OW 5788   0.529   3.724   6.150
 1630SOL    HW1 5789   0.601   3.681   6.205
 1630SOL    HW2 5790   0.508   3.667   6.071
 1631SOL     OW 5791   6.381   3.733   0.255
 1631SOL    HW1 5792   6.397   3.640   0.222
 1631SOL    HW2 5793   6.397   3.798   0.180
 1632SOL     OW 5794   6.674   5.849   2.454
 1632SOL    HW1 5795   6.682   5.824   2.357
 1632SOL    HW2 5796   6.683   5.949   2.462
 1633SOL     OW 5797   5.431   3.623   5.117
 1633SOL    HW1 5798   5.388   3.678   5.046
 1633SOL    HW2 5799   5.379   3.633   5.202
 1634SOL     OW 5800   6.537   1.916   5.334
 1634SOL    HW1 5801   6.504   1.822   5.323
 1634SOL    HW2 5802   6.549   1.958   5.243
 1635SOL     OW 5803   3.454   6.209   3.327
 1635SOL    HW1 5804   3.502   6.170   3.249
 1635SOL    HW2 5805   3.519   6.253   3.389
 1636SOL     OW 5806   6.129   6.263   1.355
 1636SOL    HW1 5807   6.090   6.213   1.278
 1636SOL    HW2 5808   6.188   6.202   1.408
 1637SOL     OW 5809   1.129   0.830   2.813
 1637SOL    HW1 5810   1.191   0.844   2.736
 1637SOL    HW2 5811   1.039   0.805   2.779
 1638SOL     OW 5812   6.030   2.679   1.910
 1638SOL    HW1 5813   5.966   2.686   1.833
 1638SOL    HW2 5814   5.982   2.641   1.989
 1639SOL     OW 5815   5.479   2.429   2.301
 1639SOL    HW1 5816   5.488   2.506   2.238
 1639SOL    HW2 5817   5.568   2.407   2.340
 1640SOL     OW 5818   6.292   0.122   6.519
 1640SOL    HW1 5819   6.193   0.116   6.504
 1640SOL    HW2 5820   6.332   0.187   6.455
 1641SOL     OW 5821   5.841   2.313   2.975
 1641SOL    HW1 5822   5.869   2.399   3.017
 1641SOL    HW2 5823   5.859   2.238   3.039
 1642SOL     OW 5824   0.084   2.953   6.358
 1642SOL    HW1 5825   0.039   3.036   6.324
 1642SOL    HW2 5826   0.112   2.966   6.453
 1643SOL     OW 5827   2.359   5.739   3.778
 1643SOL    HW1 5828   2.349   5.747   3.679
 1643SOL    HW2 5829   2.302   5.808   3.823
 1644SOL     OW 5830   6.289   2.749   1.851
 1644SOL    HW1 5831   6.204   2.703   1.876
 1644SOL    HW2 5832   6.272   2.846   1.837
 1645SOL     OW 5833   2.645   0.465   5.674
 1645SOL    HW1 5834   2.577   0.486   5.604
 1645SOL    HW2 5835   2.619   0.507   5.761
 1646SOL     OW 5836   1.339   4.875   0.405
 1646SOL    HW1 5837   1.333   4.926   0.490
 1646SOL    HW2 5838   1.249   4.838   0.381
 1647SOL     OW 5839   5.182   2.947   4.400
 1647SOL    HW1 5840   5.125   2.873   4.436
 1647SOL    HW2 5841   5.161   2.961   4.303
 1648SOL     OW 5842   5.428   6.109   1.244
 1648SOL    HW1 5843   5.377   6.193   1.265
 1648SOL    HW2 5844   5.363   6.034   1.229
 1649SOL     OW 5845   3.888   1.100   3.131
 1649SOL    HW1 5846   3.984   1.084   3.153
 1649SOL    HW2 5847   3.831   1.037   3.183
 1650SOL     OW 5848   2.848   4.290   6.079
 1650SOL    HW1 5849   2.854   4.370   6.139
 1650SOL    HW2 5850   2.845   4.320   5.984
 1651SOL     OW 5851   0.780   2.726   4.029
 1651SOL    HW1 5852   0.829   2.808   4.000
 1651SOL    HW2 5853   0.693   2.751   4.071
 1652SOL     OW 5854   0.573   3.264   1.478
 1652SOL    HW1 5855   0.524   3.348   1.457
 1652SOL    HW2 5856   0.607   3.268   1.572
 1653SOL     OW 5857   0.303   5.009   2.496
 1653SOL    HW1 5858   0.351   5.081   2.546
 1653SOL    HW2 5859   0.288   4.931   2.557
 1654SOL     OW 5860   0.351   2.898   2.346
 1654SOL    HW1 5861   0.386   2.838   2.274
 1654SOL    HW2 5862   0.283   2.848   2.401
 1655SOL     OW 5863   6.859   0.363   5.073
 1655SOL    HW1 5864   6.795   0.341   5.147
 1655SOL    HW2 5865   6.941   0.306   5.081
 1656SOL     OW 5866   1.781   4.381   3.314
 1656SOL    HW1 5867   1.777   4.466   3.366
 1656SOL    HW2 5868   1.824   4.310   3.370
 1657SOL     OW 5869   0.501   6.766   5.602
 1657SOL    HW1 5870   0.421   6.737   5.655
 1657SOL    HW2 5871   0.528   6.693   5.540
 1658SOL     OW 5872   5.430   6.712   6.215
 1658SOL    HW1 5873   5.493   6.667   6.151
 1658SOL    HW2 5874   5.408   6.803   6.181
 1659SOL     OW 5875   4.144   6.662   6.136
 1659SOL    HW1 5876   4.126   6.681   6.233
 1659SOL    HW2 5877   4.071   6.603   6.100
 1660SOL     OW 5878   2.174   0.765   2.037
 1660SOL    HW1 5879   2.213   0.774   1.946
 1660SOL    HW2 5880   2.074   0.760   2.031
 1661SOL     OW 5881   4.947   4.463   2.792
 1661SOL    HW1 5882   4.994   4.396   2.734
 1661SOL    HW2 5883   4.876   4.417   2.846
 1662SOL     OW 5884   0.372   1.536   3.787
 1662SOL    HW1 5885   0.354   1.565   3.881
 1662SOL    HW2 5886   0.296   1.563   3.728
 1663SOL     OW 5887   5.344   4.906   0.506
 1663SOL    HW1 5888   5.401   4.914   0.588
 1663SOL    HW2 5889   5.399   4.932   0.426
 1664SOL     OW 5890   0.902   0.031   6.112
 1664SOL    HW1 5891   0.846   0.107   6.144
 1664SOL    HW2 5892   0.989   0.030   6.161
 1665SOL     OW 5893   3.006   4.186   0.167
 1665SOL    HW1 5894   2.962   4.115   0.221
 1665SOL    HW2 5895   3.083   4.147   0.116
 1666SOL     OW 5896   5.276   6.486   5.923
 1666SOL    HW1 5897   5.233   6.494   5.833
 1666SOL    HW2 5898   5.232   6.550   5.986
 1667SOL     OW 5899   0.054   6.519   1.222
 1667SOL    HW1 5900   0.007   6.441   1.182
 1667SOL    HW2 5901   0.147   6.525   1.184
 1668SOL     OW 5902   5.879   4.104   2.453
 1668SOL    HW1 5903   5.823   4.146   2.381
 1668SOL    HW2 5904   5.819   4.059   2.519
 1669SOL     OW 5905   6.783   3.489   5.640
 1669SOL    HW1 5906   6.874   3.527   5.660
 1669SOL    HW2 5907   6.725   3.560   5.601
 1670SOL     OW 5908   2.264   4.593   5.977
 1670SOL    HW1 5909   2.308   4.537   6.048
 1670SOL    HW2 5910   2.185   4.545   5.941
 1671SOL     OW 5911   6.213   2.263   1.069
 1671SOL    HW1 5912   6.265   2.348   1.072
 1671SOL    HW2 5913   6.188   2.236   1.163
 1672SOL     OW 5914   0.550   2.876   1.011
 1672SOL    HW1 5915   0.609   2.954   1.033
 1672SOL    HW2 5916   0.553   2.858   0.913
 1673SOL     OW 5917   1.789   0.309   4.353
 1673SOL    HW1 5918   1.852   0.309   4.430
 1673SOL    HW2 5919   1.700   0.276   4.382
 1674SOL     OW 5920   5.060   1.926   2.783
 1674SOL    HW1 5921   4.988   1.877   2.832
 1674SOL    HW2 5922   5.130   1.955   2.848
 1675SOL     OW 5923   5.169   0.312   1.622
 1675SOL    HW1 5924   5.204   0.218   1.628
 1675SOL    HW2 5925   5.155   0.336   1.525
 1676SOL     OW 5926   1.158   2.484   2.710
 1676SOL    HW1 5927   1.148   2.385   2.694
 1676SOL    HW2 5928   1.230   2.520   2.651
 1677SOL     OW 5929   3.712   2.906   3.405
 1677SOL    HW1 5930   3.736   2.929   3.311
 1677SOL    HW2 5931   3.640   2.968   3.438
 1678SOL     OW 5932   1.500   0.454   0.855
 1678SOL    HW1 5933   1.543   0.459   0.765
 1678SOL    HW2 5934   1.426   0.387   0.854
 1679SOL     OW 5935   0.222   2.146   6.653
 1679SOL    HW1 5936   0.292   2.123   6.585
 1679SOL    HW2 5937   0.254   2.224   6.707
 1680SOL     OW 5938   5.438   2.591   3.433
 1680SOL    HW1 5939   5.402   2.498   3.429
 1680SOL    HW2 5940   5.481   2.606   3.522
 1681SOL     OW 5941   2.807   6.556   4.631
 1681SOL    HW1 5942   2.759   6.642   4.617
 1681SOL    HW2 5943   2.858   6.558   4.717
 1682SOL     OW 5944   3.651   6.876   3.842
 1682SOL    HW1 5945   3.701   6.948   3.794
 1682SOL    HW2 5946   3.715   6.818   3.891
 1683SOL     OW 5947   6.164   4.173   3.153
 1683SOL    HW1 5948   6.134   4.219   3.069
 1683SOL    HW2 5949   6.109   4.091   3.167
 1684SOL     OW 5950   2.413   4.778   1.978
 1684SOL    HW1 5951   2.450   4.736   2.061
 1684SOL    HW2 5952   2.488   4.802   1.917
 1685SOL     OW 5953   7.010   0.911   5.737
 1685SOL    HW1 5954   6.972   0.944   5.650
 1685SOL    HW2 5955   0.090   0.929   5.739
 1686SOL     OW 5956   4.609   5.162   2.733
 1686SOL    HW1 5957   4.641   5.095   2.800
 1686SOL    HW2 5958   4.639   5.134   2.641
 1687SOL     OW 5959   5.036   4.564   1.497
 1687SOL    HW1 5960   5.046   4.530   1.403
 1687SOL    HW2 5961   4.966   4.635   1.499
 1688SOL     OW 5962   1.459   0.750   2.392
 1688SOL    HW1 5963   1.416   0.660   2.395
 1688SOL    HW2 5964   1.428   0.800   2.311
 1689SOL     OW 5965   4.164   0.399   1.609
 1689SOL    HW1 5966   4.227   0.461   1.564
 1689SOL    HW2 5967   4.083   0.385   1.552
 1690SOL     OW 5968   0.234   5.499   3.601
 1690SOL    HW1 5969   0.311   5.524   3.542
 1690SOL    HW2 5970   0.151   5.546   3.569
 1691SOL     OW 5971   4.259   2.744   5.325
 1691SOL    HW1 5972   4.229   2.730   5.420
 1691SOL    HW2 5973   4.214   2.678   5.266
 1692SOL     OW 5974   4.864   4.798   1.537
 1692SOL    HW1 5975   4.882   4.825   1.632
 1692SOL    HW2 5976   4.933   4.838   1.477
 1693SOL     OW 5977   5.659   6.760   5.325
 1693SOL    HW1 5978   5.685   6.665   5.343
 1693SOL    HW2 5979   5.566   6.776   5.356
 1694SOL     OW 5980   4.404   1.803   6.282
 1694SOL    HW1 5981   4.473   1.821   6.211
 1694SOL    HW2 5982   4.374   1.889   6.321
 1695SOL     OW 5983   3.789   0.665   6.812
 1695SOL    HW1 5984   3.833   0.613   6.739
 1695SOL    HW2 5985   3.819   0.760   6.809
 1696SOL     OW 5986   5.192   6.478   0.727
 1696SOL    HW1 5987   5.260   6.430   0.672
 1696SOL    HW2 5988   5.105   6.480   0.677
 1697SOL     OW 5989   4.963   3.087   1.825
 1697SOL    HW1 5990   4.935   3.036   1.744
 1697SOL    HW2 5991   4.885   3.094   1.888
 1698SOL     OW 5992   4.434   0.718   1.573
 1698SOL    HW1 5993   4.515   0.697   1.628
 1698SOL    HW2 5994   4.394   0.804   1.603
 1699SOL     OW 5995   2.314   0.041   0.343
 1699SOL    HW1 5996   2.287   6.965   0.362
 1699SOL    HW2 5997   2.406   0.058   0.380
 1700SOL     OW 5998   5.425   2.882   3.047
 1700SOL    HW1 5999   5.448   2.801   2.994
 1700SOL    HW2 6000   5.467   2.963   3.005
 1701SOL     OW 6001   6.825   6.216   5.303
 1701SOL    HW1 6002   6.790   6.269   5.381
 1701SOL    HW2 6003   6.923   6.235   5.291
 1702SOL     OW 6004   2.369   2.142   6.700
 1702SOL    HW1 6005   2.343   2.226   6.654
 1702SOL    HW2 6006   2.430   2.163   6.776
 1703SOL     OW 6007   1.635   1.702   1.751
 1703SOL    HW1 6008   1.564   1.656   1.805
 1703SOL    HW2 6009   1.640   1.798   1.779
 1704SOL     OW 6010   3.488   2.010   0.839
 1704SOL    HW1 6011   3.432   2.092   0.856
 1704SOL    HW2 6012   3.439   1.929   0.873
 1705SOL     OW 6013   4.299   2.522   0.896
 1705SOL    HW1 6014   4.289   2.456   0.822
 1705SOL    HW2 6015   4.236   2.499   0.970
 1706SOL     OW 6016   5.860   2.434   6.537
 1706SOL    HW1 6017   5.901   2.504   6.596
 1706SOL    HW2 6018   5.818   2.477   6.458
 1707SOL     OW 6019   4.387   1.818   1.936
 1707SOL    HW1 6020   4.437   1.735   1.912
 1707SOL    HW2 6021   4.317   1.796   2.004
 1708SOL     OW 6022   3.225   5.103   2.195
 1708SOL    HW1 6023   3.148   5.052   2.158
 1708SOL    HW2 6024   3.311   5.061   2.163
 1709SOL     OW 6025   4.796   5.377   0.730
 1709SOL    HW1 6026   4.747   5.434   0.796
 1709SOL    HW2 6027   4.750   5.288   0.722
 1710SOL     OW 6028   5.082   4.631   2.955
 1710SOL    HW1 6029   5.031   4.571   2.893
 1710SOL    HW2 6030   5.021   4.663   3.027
 1711SOL     OW 6031   3.969   4.697   6.974
 1711SOL    HW1 6032   3.876   4.720   7.002
 1711SOL    HW2 6033   4.021   4.781   6.956
 1712SOL     OW 6034   0.670   1.752   2.055
 1712SOL    HW1 6035   0.639   1.761   1.960
 1712SOL    HW2 6036   0.654   1.838   2.103
 1713SOL     OW 6037   3.784   1.222   2.899
 1713SOL    HW1 6038   3.825   1.184   2.983
 1713SOL    HW2 6039   3.685   1.212   2.904
 1714SOL     OW 6040   3.023   3.739   0.099
 1714SOL    HW1 6041   2.926   3.733   0.074
 1714SOL    HW2 6042   3.065   3.649   0.091
 1715SOL     OW 6043   2.260   6.549   2.125
 1715SOL    HW1 6044   2.171   6.594   2.122
 1715SOL    HW2 6045   2.258   6.473   2.191
 1716SOL     OW 6046   4.421   1.114   3.446
 1716SOL    HW1 6047   4.507   1.111   3.396
 1716SOL    HW2 6048   4.379   1.205   3.435
 1717SOL     OW 6049   3.149   6.388   4.844
 1717SOL    HW1 6050   3.216   6.320   4.872
 1717SOL    HW2 6051   3.128   6.375   4.747
 1718SOL     OW 6052   1.469   2.876   1.525
 1718SOL    HW1 6053   1.535   2.903   1.455
 1718SOL    HW2 6054   1.518   2.839   1.604
 1719SOL     OW 6055   0.970   5.719   2.700
 1719SOL    HW1 6056   1.067   5.702   2.682
 1719SOL    HW2 6057   0.955   5.723   2.798
 1720SOL     OW 6058   0.855   3.523   5.633
 1720SOL    HW1 6059   0.766   3.481   5.617
 1720SOL    HW2 6060   0.927   3.458   5.608
 1721SOL     OW 6061   1.651   2.717   0.376
 1721SOL    HW1 6062   1.711   2.637   0.375
 1721SOL    HW2 6063   1.555   2.687   0.374
 1722SOL     OW 6064   2.716   2.192   4.222
 1722SOL    HW1 6065   2.816   2.191   4.212
 1722SOL    HW2 6066   2.684   2.286   4.224
 1723SOL     OW 6067   5.863   4.414   1.163
 1723SOL    HW1 6068   5.874   4.497   1.108
 1723SOL    HW2 6069   5.911   4.338   1.119
 1724SOL     OW 6070   6.085   2.852   1.166
 1724SOL    HW1 6071   6.025   2.921   1.126
 1724SOL    HW2 6072   6.110   2.784   1.097
 1725SOL     OW 6073   1.759   6.169   6.043
 1725SOL    HW1 6074   1.847   6.146   6.087
 1725SOL    HW2 6075   1.702   6.087   6.038
 1726SOL     OW 6076   5.406   4.323   3.087
 1726SOL    HW1 6077   5.503   4.346   3.084
 1726SOL    HW2 6078   5.395   4.232   3.129
 1727SOL     OW 6079   3.338   4.135   3.262
 1727SOL    HW1 6080   3.356   4.188   3.345
 1727SOL    HW2 6081   3.349   4.038   3.282
 1728SOL     OW 6082   5.289   2.662   4.472
 1728SOL    HW1 6083   5.269   2.749   4.426
 1728SOL    HW2 6084   5.216   2.596   4.452
 1729SOL     OW 6085   1.182   2.752   2.923
 1729SOL    HW1 6086   1.085   2.727   2.926
 1729SOL    HW2 6087   1.191   2.840   2.876
 1730SOL     OW 6088   1.916   5.396   4.193
 1730SOL    HW1 6089   1.833   5.435   4.232
 1730SOL    HW2 6090   1.958   5.335   4.261
 1731SOL     OW 6091   5.975   5.094   3.426
 1731SOL    HW1 6092   5.998   5.177   3.476
 1731SOL    HW2 6093   5.903   5.114   3.359
 1732SOL     OW 6094   2.327   3.295   5.385
 1732SOL    HW1 6095   2.407   3.340   5.345
 1732SOL    HW2 6096   2.350   3.260   5.476
 1733SOL     OW 6097   1.916   3.054   5.789
 1733SOL    HW1 6098   1.900   3.123   5.719
 1733SOL    HW2 6099   1.998   3.001   5.766
 1734SOL     OW 6100   6.717   3.104   0.619
 1734SOL    HW1 6101   6.713   3.040   0.542
 1734SOL    HW2 6102   6.714   3.198   0.584
 1735SOL     OW 6103   3.852   5.032   6.610
 1735SOL    HW1 6104   3.834   5.100   6.539
 1735SOL    HW2 6105   3.767   5.015   6.661
 1736SOL     OW 6106   5.041   2.441   0.352
 1736SOL    HW1 6107   5.002   2.516   0.299
 1736SOL    HW2 6108   4.993   2.356   0.330
 1737SOL     OW 6109   4.009   1.525   5.689
 1737SOL    HW1 6110   3.980   1.471   5.610
 1737SOL    HW2 6111   4.080   1.589   5.660
 1738SOL     OW 6112   1.952   3.083   3.963
 1738SOL    HW1 6113   1.888   3.043   3.897
 1738SOL    HW2 6114   1.912   3.080   4.054
 1739SOL     OW 6115   5.766   0.598   3.278
 1739SOL    HW1 6116   5.700   0.567   3.346
 1739SOL    HW2 6117   5.834   0.526   3.263
 1740SOL     OW 6118   6.187   3.177   4.801
 1740SOL    HW1 6119   6.094   3.144   4.783
 1740SOL    HW2 6120   6.203   3.260   4.747
 1741SOL     OW 6121   0.150   1.851   5.103
 1741SOL    HW1 6122   0.085   1.873   5.176
 1741SOL    HW2 6123   0.179   1.756   5.112
 1742SOL     OW 6124   6.448   6.624   6.730
 1742SOL    HW1 6125   6.467   6.559   6.657
 1742SOL    HW2 6126   6.394   6.700   6.694
 1743SOL     OW 6127   1.562   1.504   2.253
 1743SOL    HW1 6128   1.569   1.404   2.244
 1743SOL    HW2 6129   1.615   1.534   2.333
 1744SOL     OW 6130   3.514   1.916   5.223
 1744SOL    HW1 6131   3.498   1.913   5.124
 1744SOL    HW2 6132   3.587   1.981   5.243
 1745SOL     OW 6133   5.899   6.732   1.264
 1745SOL    HW1 6134   5.863   6.639   1.275
 1745SOL    HW2 6135   5.974   6.731   1.198
 1746SOL     OW 6136   2.676   4.668   3.138
 1746SOL    HW1 6137   2.751   4.614   3.175
 1746SOL    HW2 6138   2.644   4.626   3.053
 1747SOL     OW 6139   4.308   0.355   2.887
 1747SOL    HW1 6140   4.231   0.392   2.940
 1747SOL    HW2 6141   4.337   0.268   2.926
 1748SOL     OW 6142   6.963   2.525   4.923
 1748SOL    HW1 6143   6.949   2.577   5.008
 1748SOL    HW2 6144   6.995   2.587   4.851
 1749SOL     OW 6145   0.669   5.194   1.614
 1749SOL    HW1 6146   0.725   5.266   1.653
 1749SOL    HW2 6147   0.728   5.129   1.565
 1750SOL     OW 6148   3.474   0.022   6.826
 1750SOL    HW1 6149   3.474   7.009   6.921
 1750SOL    HW2 6150   3.559   0.070   6.806
 1751SOL     OW 6151   5.950   3.065   5.206
 1751SOL    HW1 6152   6.006   3.035   5.129
 1751SOL    HW2 6153   5.964   3.004   5.284
 1752SOL     OW 6154   6.942   1.169   2.186
 1752SOL    HW1 6155   6.907   1.141   2.097
 1752SOL    HW2 6156   6.873   1.224   2.233
 1753SOL     OW 6157   5.975   1.580   1.476
 1753SOL    HW1 6158   5.937   1.624   1.557
 1753SOL    HW2 6159   6.058   1.628   1.448
 1754SOL     OW 6160   2.927   5.544   3.533
 1754SOL    HW1 6161   2.987   5.566   3.610
 1754SOL    HW2 6162   2.837   5.516   3.568
 1755SOL     OW 6163   6.100   6.495   5.031
 1755SOL    HW1 6164   6.084   6.561   4.957
 1755SOL    HW2 6165   6.101   6.543   5.118
 1756SOL     OW 6166   4.921   5.845   0.293
 1756SOL    HW1 6167   4.821   5.839   0.293
 1756SOL    HW2 6168   4.950   5.933   0.331
 1757SOL     OW 6169   2.685   4.816   5.129
 1757SOL    HW1 6170   2.656   4.802   5.224
 1757SOL    HW2 6171   2.757   4.751   5.106
 1758SOL     OW 6172   1.723   5.934   4.150
 1758SOL    HW1 6173   1.639   5.915   4.202
 1758SOL    HW2 6174   1.763   6.020   4.181
 1759SOL     OW 6175   1.127   6.148   0.046
 1759SOL    HW1 6176   1.175   6.120   6.981
 1759SOL    HW2 6177   1.140   6.246   0.061
 1760SOL     OW 6178   7.015   1.447   4.929
 1760SOL    HW1 6179   6.985   1.354   4.910
 1760SOL    HW2 6180   0.077   1.444   4.989
 1761SOL     OW 6181   5.767   1.304   2.824
 1761SOL    HW1 6182   5.781   1.300   2.725
 1761SOL    HW2 6183   5.753   1.212   2.859
 1762SOL     OW 6184   0.957   1.428   5.713
 1762SOL    HW1 6185   0.977   1.352   5.650
 1762SOL    HW2 6186   1.042   1.462   5.753
 1763SOL     OW 6187   1.214   4.424   3.733
 1763SOL    HW1 6188   1.123   4.401   3.698
 1763SOL    HW2 6189   1.206   4.486   3.811
 1764SOL     OW 6190   1.250   5.676   3.503
 1764SOL    HW1 6191   1.300   5.591   3.495
 1764SOL    HW2 6192   1.226   5.692   3.599
 1765SOL     OW 6193   5.456   3.841   2.144
 1765SOL    HW1 6194   5.443   3.789   2.228
 1765SOL    HW2 6195   5.553   3.846   2.122
 1766SOL     OW 6196   4.232   4.690   3.786
 1766SOL    HW1 6197   4.211   4.665   3.691
 1766SOL    HW2 6198   4.158   4.747   3.822
 1767SOL     OW 6199   0.337   5.191   2.274
 1767SOL    HW1 6200   0.304   5.256   2.342
 1767SOL    HW2 6201   0.280   5.109   2.276
 1768SOL     OW 6202   5.586   4.666   2.144
 1768SOL    HW1 6203   5.529   4.605   2.200
 1768SOL    HW2 6204   5.634   4.611   2.075
 1769SOL     OW 6205   5.684   0.535   0.773
 1769SOL    HW1 6206   5.642   0.460   0.721
 1769SOL    HW2 6207   5.625   0.616   0.766
 1770SOL     OW 6208   1.714   5.041   0.538
 1770SOL    HW1 6209   1.691   5.038   0.635
 1770SOL    HW2 6210   1.739   4.950   0.507
 1771SOL     OW 6211   1.922   3.008   6.062
 1771SOL    HW1 6212   1.926   3.073   5.986
 1771SOL    HW2 6213   1.834   2.962   6.062
 1772SOL     OW 6214   2.125   4.106   2.633
 1772SOL    HW1 6215   2.109   4.016   2.674
 1772SOL    HW2 6216   2.146   4.096   2.536
 1773SOL     OW 6217   2.408   6.130   6.205
 1773SOL    HW1 6218   2.498   6.114   6.164
 1773SOL    HW2 6219   2.419   6.153   6.302
 1774SOL     OW 6220   5.376   5.662   0.882
 1774SOL    HW1 6221   5.424   5.612   0.810
 1774SOL    HW2 6222   5.348   5.751   0.848
 1775SOL     OW 6223   1.902   5.130   0.760
 1775SOL    HW1 6224   1.898   5.041   0.715
 1775SOL    HW2 6225   1.990   5.173   0.742
 1776SOL     OW 6226   4.573   2.585   5.915
 1776SOL    HW1 6227   4.663   2.553   5.886
 1776SOL    HW2 6228   4.560   2.680   5.885
 1777SOL     OW 6229   4.549   6.578   0.400
 1777SOL    HW1 6230   4.606   6.523   0.339
 1777SOL    HW2 6231   4.471   6.615   0.350
 1778SOL     OW 6232   6.306   0.081   4.381
 1778SOL    HW1 6233   6.268   7.012   4.351
 1778SOL    HW2 6234   6.239   0.154   4.363
 1779SOL     OW 6235   5.557   0.359   4.055
 1779SOL    HW1 6236   5.647   0.335   4.090
 1779SOL    HW2 6237   5.501   0.397   4.129
 1780SOL     OW 6238   2.848   5.181   5.503
 1780SOL    HW1 6239   2.751   5.195   5.487
 1780SOL    HW2 6240   2.898   5.266   5.485
 1781SOL     OW 6241   4.255   0.371   5.636
 1781SOL    HW1 6242   4.332   0.378   5.572
 1781SOL    HW2 6243   4.232   0.274   5.649
 1782SOL     OW 6244   6.083   1.851   2.321
 1782SOL    HW1 6245   6.156   1.796   2.282
 1782SOL    HW2 6246   6.112   1.888   2.410
 1783SOL     OW 6247   1.662   3.922   0.010
 1783SOL    HW1 6248   1.670   3.824   0.023
 1783SOL    HW2 6249   1.565   3.946   7.016
 1784SOL     OW 6250   2.993   7.007   2.032
 1784SOL    HW1 6251   2.945   6.939   2.088
 1784SOL    HW2 6252   3.015   6.967   1.943
 1785SOL     OW 6253   1.176   6.573   4.939
 1785SOL    HW1 6254   1.139   6.480   4.937
 1785SOL    HW2 6255   1.207   6.595   5.032
 1786SOL     OW 6256   0.929   6.602   1.159
 1786SOL    HW1 6257   0.908   6.669   1.087
 1786SOL    HW2 6258   1.028   6.591   1.166
 1787SOL     OW 6259   1.965   3.205   5.453
 1787SOL    HW1 6260   1.985   3.117   5.409
 1787SOL    HW2 6261   2.045   3.265   5.444
 1788SOL     OW 6262   4.671   3.663   0.608
 1788SOL    HW1 6263   4.754   3.671   0.663
 1788SOL    HW2 6264   4.596   3.712   0.652
 1789SOL     OW 6265   6.373   3.625   2.323
 1789SOL    HW1 6266   6.443   3.573   2.275
 1789SOL    HW2 6267   6.303   3.654   2.257
 1790SOL     OW 6268   1.422   2.027   4.901
 1790SOL    HW1 6269   1.325   2.024   4.926
 1790SOL    HW2 6270   1.478   2.006   4.981
 1791SOL     OW 6271   4.849   0.677   3.969
 1791SOL    HW1 6272   4.877   0.771   3.987
 1791SOL    HW2 6273   4.816   0.669   3.875
 1792SOL     OW 6274   0.453   2.430   6.738
 1792SOL    HW1 6275   0.413   2.475   6.658
 1792SOL    HW2 6276   0.518   2.360   6.708
 1793SOL     OW 6277   6.655   0.578   5.549
 1793SOL    HW1 6278   6.711   0.526   5.613
 1793SOL    HW2 6279   6.710   0.650   5.506
 1794SOL     OW 6280   0.382   0.676   6.361
 1794SOL    HW1 6281   0.344   0.759   6.400
 1794SOL    HW2 6282   0.308   0.613   6.337
 1795SOL     OW 6283   5.076   4.728   1.010
 1795SOL    HW1 6284   5.069   4.685   1.100
 1795SOL    HW2 6285   5.037   4.668   0.940
 1796SOL     OW 6286   0.156   6.963   0.372
 1796SOL    HW1 6287   0.111   6.874   0.376
 1796SOL    HW2 6288   0.203   6.973   0.284
 1797SOL     OW 6289   2.772   5.335   5.737
 1797SOL    HW1 6290   2.830   5.282   5.675
 1797SOL    HW2 6291   2.733   5.276   5.807
 1798SOL     OW 6292   2.189   3.854   5.274
 1798SOL    HW1 6293   2.211   3.758   5.287
 1798SOL    HW2 6294   2.256   3.896   5.212
 1799SOL     OW 6295   3.198   0.969   1.551
 1799SOL    HW1 6296   3.263   0.903   1.589
 1799SOL    HW2 6297   3.244   1.055   1.534
 1800SOL     OW 6298   6.034   2.848   5.358
 1800SOL    HW1 6299   6.133   2.839   5.347
 1800SOL    HW2 6300   6.009   2.834   5.454
 1801SOL     OW 6301   0.672   0.595   3.266
 1801SOL    HW1 6302   0.694   0.671   3.204
 1801SOL    HW2 6303   0.701   0.509   3.225
 1802SOL     OW 6304   6.731   5.217   3.920
 1802SOL    HW1 6305   6.697   5.239   4.011
 1802SOL    HW2 6306   6.655   5.183   3.864
 1803SOL     OW 6307   0.404   0.299   3.205
 1803SOL    HW1 6308   0.476   0.250   3.255
 1803SOL    HW2 6309   0.336   0.333   3.270
 1804SOL     OW 6310   2.034   2.965   6.353
 1804SOL    HW1 6311   2.017   3.040   6.289
 1804SOL    HW2 6312   2.056   3.003   6.443
 1805SOL     OW 6313   6.694   4.686   0.892
 1805SOL    HW1 6314   6.762   4.735   0.838
 1805SOL    HW2 6315   6.632   4.636   0.832
 1806SOL     OW 6316   6.994   1.098   0.998
 1806SOL    HW1 6317   0.054   1.147   1.037
 1806SOL    HW2 6318   6.955   1.150   0.923
 1807SOL     OW 6319   6.453   2.763   2.762
 1807SOL    HW1 6320   6.418   2.856   2.773
 1807SOL    HW2 6321   6.396   2.714   2.696
 1808SOL     OW 6322   5.153   1.613   6.668
 1808SOL    HW1 6323   5.107   1.527   6.648
 1808SOL    HW2 6324   5.249   1.595   6.689
 1809SOL     OW 6325   5.022   0.196   5.420
 1809SOL    HW1 6326   5.103   0.252   5.438
 1809SOL    HW2 6327   5.001   0.140   5.500
 1810SOL     OW 6328   1.211   0.459   3.956
 1810SOL    HW1 6329   1.195   0.507   4.042
 1810SOL    HW2 6330   1.150   0.494   3.885
 1811SOL     OW 6331   3.656   5.841   1.967
 1811SOL    HW1 6332   3.705   5.887   1.893
 1811SOL    HW2 6333   3.571   5.891   1.986
 1812SOL     OW 6334   4.450   6.077   6.552
 1812SOL    HW1 6335   4.513   6.016   6.504
 1812SOL    HW2 6336   4.434   6.158   6.496
 1813SOL     OW 6337   4.887   3.736   2.021
 1813SOL    HW1 6338   4.891   3.734   1.921
 1813SOL    HW2 6339   4.835   3.658   2.055
 1814SOL     OW 6340   6.675   6.003   0.459
 1814SOL    HW1 6341   6.640   5.966   0.545
 1814SOL    HW2 6342   6.774   6.011   0.464
 1815SOL     OW 6343   5.750   6.216   1.536
 1815SOL    HW1 6344   5.747   6.172   1.446
 1815SOL    HW2 6345   5.676   6.180   1.593
 1816SOL     OW 6346   4.281   4.909   5.095
 1816SOL    HW1 6347   4.198   4.964   5.102
 1816SOL    HW2 6348   4.360   4.968   5.087
 1817SOL     OW 6349   0.360   2.608   3.580
 1817SOL    HW1 6350   0.350   2.538   3.510
 1817SOL    HW2 6351   0.450   2.651   3.573
 1818SOL     OW 6352   2.472   0.923   0.884
 1818SOL    HW1 6353   2.393   0.869   0.854
 1818SOL    HW2 6354   2.523   0.955   0.804
 1819SOL     OW 6355   1.700   4.092   2.601
 1819SOL    HW1 6356   1.730   4.187   2.600
 1819SOL    HW2 6357   1.752   4.041   2.532
 1820SOL     OW 6358   3.221   0.374   4.871
 1820SOL    HW1 6359   3.247   0.459   4.824
 1820SOL    HW2 6360   3.255   0.296   4.819
 1821SOL     OW 6361   3.466   1.788   2.635
 1821SOL    HW1 6362   3.527   1.841   2.694
 1821SOL    HW2 6363   3.495   1.797   2.540
 1822SOL     OW 6364   0.611   3.787   3.120
 1822SOL    HW1 6365   0.598   3.725   3.198
 1822SOL    HW2 6366   0.538   3.772   3.053
 1823SOL     OW 6367   4.627   6.807   2.526
 1823SOL    HW1 6368   4.662   6.818   2.433
 1823SOL    HW2 6369   4.703   6.789   2.588
 1824SOL     OW 6370   4.371   3.112   1.702
 1824SOL    HW1 6371   4.447   3.058   1.737
 1824SOL    HW2 6372   4.406   3.189   1.648
 1825SOL     OW 6373   1.125   2.930   5.556
 1825SOL    HW1 6374   1.142   2.855   5.492
 1825SOL    HW2 6375   1.085   3.007   5.506
 1826SOL     OW 6376   3.316   2.366   1.180
 1826SOL    HW1 6377   3.410   2.372   1.147
 1826SOL    HW2 6378   3.306   2.288   1.242
 1827SOL     OW 6379   5.590   5.103   0.810
 1827SOL    HW1 6380   5.586   5.063   0.901
 1827SOL    HW2 6381   5.682   5.140   0.794
 1828SOL     OW 6382   1.729   3.906   5.140
 1828SOL    HW1 6383   1.648   3.870   5.185
 1828SOL    HW2 6384   1.704   3.946   5.052
 1829SOL     OW 6385   4.125   0.026   2.122
 1829SOL    HW1 6386   4.172   0.073   2.048
 1829SOL    HW2 6387   4.027   0.021   2.101
 1830SOL     OW 6388   4.494   1.038   6.529
 1830SOL    HW1 6389   4.561   1.111   6.521
 1830SOL    HW2 6390   4.403   1.073   6.503
 1831SOL     OW 6391   3.376   4.774   0.806
 1831SOL    HW1 6392   3.411   4.808   0.894
 1831SOL    HW2 6393   3.451   4.771   0.740
 1832SOL     OW 6394   2.535   3.214   6.484
 1832SOL    HW1 6395   2.480   3.161   6.548
 1832SOL    HW2 6396   2.533   3.172   6.394
 1833SOL     OW 6397   5.855   1.423   0.140
 1833SOL    HW1 6398   5.778   1.372   0.179
 1833SOL    HW2 6399   5.889   1.489   0.206
 1834SOL     OW 6400   0.829   3.189   5.781
 1834SOL    HW1 6401   0.733   3.163   5.771
 1834SOL    HW2 6402   0.863   3.156   5.869
 1835SOL     OW 6403   6.958   6.318   1.069
 1835SOL    HW1 6404   6.905   6.355   0.992
 1835SOL    HW2 6405   6.895   6.296   1.144
 1836SOL     OW 6406   5.254   1.870   2.411
 1836SOL    HW1 6407   5.222   1.962   2.389
 1836SOL    HW2 6408   5.304   1.832   2.333
 1837SOL     OW 6409   3.213   2.147   0.055
 1837SOL    HW1 6410   3.223   2.047   0.056
 1837SOL    HW2 6411   3.192   2.179   0.147
 1838SOL     OW 6412   4.730   1.012   1.407
 1838SOL    HW1 6413   4.790   1.032   1.329
 1838SOL    HW2 6414   4.635   1.015   1.377
 1839SOL     OW 6415   6.431   0.293   0.356
 1839SOL    HW1 6416   6.383   0.208   0.380
 1839SOL    HW2 6417   6.520   0.295   0.401
 1840SOL     OW 6418   4.524   6.187   4.461
 1840SOL    HW1 6419   4.443   6.163   4.407
 1840SOL    HW2 6420   4.526   6.285   4.477
 1841SOL     OW 6421   1.036   0.890   1.875
 1841SOL    HW1 6422   0.937   0.882   1.873
 1841SOL    HW2 6423   1.063   0.957   1.945
 1842SOL     OW 6424   0.825   4.971   1.470
 1842SOL    HW1 6425   0.827   4.968   1.370
 1842SOL    HW2 6426   0.913   5.005   1.504
 1843SOL     OW 6427   2.756   0.680   0.066
 1843SOL    HW1 6428   2.672   0.736   0.068
 1843SOL    HW2 6429   2.748   0.610   7.014
 1844SOL     OW 6430   5.708   2.815   6.659
 1844SOL    HW1 6431   5.766   2.742   6.696
 1844SOL    HW2 6432   5.674   2.872   6.734
 1845SOL     OW 6433   0.730   2.273   3.293
 1845SOL    HW1 6434   0.704   2.298   3.386
 1845SOL    HW2 6435   0.648   2.262   3.237
 1846SOL     OW 6436   2.533   1.855   1.445
 1846SOL    HW1 6437   2.630   1.855   1.424
 1846SOL    HW2 6438   2.501   1.761   1.458
 1847SOL     OW 6439   2.109   5.541   6.118
 1847SOL    HW1 6440   2.122   5.529   6.020
 1847SOL    HW2 6441   2.032   5.486   6.149
 1848SOL     OW 6442   3.503   6.821   3.393
 1848SOL    HW1 6443   3.512   6.766   3.476
 1848SOL    HW2 6444   3.545   6.773   3.316
 1849SOL     OW 6445   4.899   2.893   2.167
 1849SOL    HW1 6446   4.912   2.938   2.256
 1849SOL    HW2 6447   4.845   2.953   2.108
 1850SOL     OW 6448   4.000   2.247   0.654
 1850SOL    HW1 6449   4.034   2.164   0.698
 1850SOL    HW2 6450   4.063   2.322   0.671
 1851SOL     OW 6451   6.826   4.824   4.305
 1851SOL    HW1 6452   6.895   4.856   4.241
 1851SOL    HW2 6453   6.861   4.829   4.399
 1852SOL     OW 6454   0.894   0.391   2.801
 1852SOL    HW1 6455   0.915   0.489   2.794
 1852SOL    HW2 6456   0.874   0.369   2.896
 1853SOL     OW 6457   0.618   2.251   5.768
 1853SOL    HW1 6458   0.576   2.340   5.754
 1853SOL    HW2 6459   0.683   2.256   5.844
 1854SOL     OW 6460   0.590   6.972   3.281
 1854SOL    HW1 6461   0.524   6.982   3.207
 1854SOL    HW2 6462   0.596   0.039   3.333
 1855SOL     OW 6463   5.967   2.609   4.914
 1855SOL    HW1 6464   6.034   2.552   4.961
 1855SOL    HW2 6465   5.885   2.620   4.971
 1856SOL     OW 6466   4.310   3.497   0.204
 1856SOL    HW1 6467   4.211   3.493   0.194
 1856SOL    HW2 6468   4.333   3.536   0.293
 1857SOL     OW 6469   3.811   1.162   6.644
 1857SOL    HW1 6470   3.841   1.100   6.572
 1857SOL    HW2 6471   3.772   1.244   6.603
 1858SOL     OW 6472   5.010   2.073   4.500
 1858SOL    HW1 6473   5.100   2.114   4.515
 1858SOL    HW2 6474   4.959   2.072   4.586
 1859SOL     OW 6475   6.800   0.577   4.253
 1859SOL    HW1 6476   6.876   0.531   4.208
 1859SOL    HW2 6477   6.822   0.591   4.350
 1860SOL     OW 6478   2.395   1.091   6.506
 1860SOL    HW1 6479   2.385   1.045   6.418
 1860SOL    HW2 6480   2.306   1.129   6.534
 1861SOL     OW 6481   6.077   6.335   4.674
 1861SOL    HW1 6482   5.980   6.336   4.699
 1861SOL    HW2 6483   6.096   6.254   4.618
 1862SOL     OW 6484   3.343   5.677   5.718
 1862SOL    HW1 6485   3.373   5.623   5.640
 1862SOL    HW2 6486   3.244   5.672   5.727
 1863SOL     OW 6487   6.865   1.949   1.284
 1863SOL    HW1 6488   6.923   1.925   1.205
 1863SOL    HW2 6489   6.769   1.939   1.258
 1864SOL     OW 6490   3.090   5.653   1.687
 1864SOL    HW1 6491   3.033   5.733   1.709
 1864SOL    HW2 6492   3.031   5.575   1.665
 1865SOL     OW 6493   6.656   2.845   6.004
 1865SOL    HW1 6494   6.747   2.807   6.023
 1865SOL    HW2 6495   6.628   2.817   5.912
 1866SOL     OW 6496   0.876   5.816   3.649
 1866SOL    HW1 6497   0.952   5.881   3.640
 1866SOL    HW2 6498   0.791   5.866   3.666
 1867SOL     OW 6499   0.561   2.132   1.605
 1867SOL    HW1 6500   0.574   2.230   1.590
 1867SOL    HW2 6501   0.475   2.117   1.653
 1868SOL     OW 6502   5.756   3.738   6.641
 1868SOL    HW1 6503   5.843   3.720   6.595
 1868SOL    HW2 6504   5.719   3.652   6.677
 1869SOL     OW 6505   5.047   0.865   4.929
 1869SOL    HW1 6506   5.025   0.888   5.024
 1869SOL    HW2 6507   5.092   0.944   4.886
 1870SOL     OW 6508   6.441   7.015   5.726
 1870SOL    HW1 6509   6.399   0.041   5.646
 1870SOL    HW2 6510   6.438   0.060   5.804
 1871SOL     OW 6511   0.811   6.239   6.806
 1871SOL    HW1 6512   0.739   6.282   6.751
 1871SOL    HW2 6513   0.852   6.163   6.755
 1872SOL     OW 6514   2.747   3.079   1.391
 1872SOL    HW1 6515   2.844   3.099   1.403
 1872SOL    HW2 6516   2.730   2.983   1.409
 1873SOL     OW 6517   6.359   1.393   1.144
 1873SOL    HW1 6518   6.274   1.437   1.114
 1873SOL    HW2 6519   6.373   1.411   1.241
 1874SOL     OW 6520   1.023   5.379   0.067
 1874SOL    HW1 6521   0.959   5.320   0.018
 1874SOL    HW2 6522   0.974   5.429   0.138
 1875SOL     OW 6523   0.401   5.799   2.190
 1875SOL    HW1 6524   0.405   5.760   2.098
 1875SOL    HW2 6525   0.412   5.727   2.258
 1876SOL     OW 6526   0.364   4.778   0.559
 1876SOL    HW1 6527   0.365   4.707   0.488
 1876SOL    HW2 6528   0.379   4.868   0.516
 1877SOL     OW 6529   1.339   1.848   2.298
 1877SOL    HW1 6530   1.265   1.816   2.239
 1877SOL    HW2 6531   1.414   1.882   2.241
 1878SOL     OW 6532   5.419   3.895   4.208
 1878SOL    HW1 6533   5.365   3.922   4.128
 1878SOL    HW2 6534   5.442   3.798   4.201
 1879SOL     OW 6535   4.697   6.272   4.801
 1879SOL    HW1 6536   4.785   6.226   4.810
 1879SOL    HW2 6537   4.697   6.327   4.717
 1880SOL     OW 6538   0.216   1.074   4.409
 1880SOL    HW1 6539   0.161   1.155   4.427
 1880SOL    HW2 6540   0.195   1.039   4.317
 1881SOL     OW 6541   1.993   1.276   3.870
 1881SOL    HW1 6542   2.090   1.263   3.853
 1881SOL    HW2 6543   1.958   1.202   3.927
 1882SOL     OW 6544   2.406   5.328   0.312
 1882SOL    HW1 6545   2.376   5.233   0.308
 1882SOL    HW2 6546   2.328   5.389   0.299
 1883SOL     OW 6547   2.613   2.447   3.141
 1883SOL    HW1 6548   2.549   2.370   3.133
 1883SOL    HW2 6549   2.592   2.500   3.223
 1884SOL     OW 6550   4.525   1.055   0.689
 1884SOL    HW1 6551   4.594   1.103   0.744
 1884SOL    HW2 6552   4.526   1.091   0.596
 1885SOL     OW 6553   0.136   1.542   0.620
 1885SOL    HW1 6554   0.068   1.516   0.551
 1885SOL    HW2 6555   0.227   1.540   0.580
 1886SOL     OW 6556   3.408   2.739   6.172
 1886SOL    HW1 6557   3.492   2.786   6.146
 1886SOL    HW2 6558   3.333   2.805   6.176
 1887SOL     OW 6559   0.711   6.225   5.202
 1887SOL    HW1 6560   0.760   6.297   5.152
 1887SOL    HW2 6561   0.633   6.266   5.250
 1888SOL     OW 6562   1.974   1.835   5.411
 1888SOL    HW1 6563   1.985   1.847   5.510
 1888SOL    HW2 6564   1.881   1.806   5.392
 1889SOL     OW 6565   2.530   3.150   0.275
 1889SOL    HW1 6566   2.574   3.086   0.338
 1889SOL    HW2 6567   2.595   3.174   0.202
 1890SOL     OW 6568   6.371   6.008   6.976
 1890SOL    HW1 6569   6.468   6.031   6.983
 1890SOL    HW2 6570   6.326   6.069   6.912
 1891SOL     OW 6571   5.118   3.636   6.926
 1891SOL    HW1 6572   5.065   3.715   6.893
 1891SOL    HW2 6573   5.127   3.568   6.853
 1892SOL     OW 6574   4.250   0.049   2.382
 1892SOL    HW1 6575   4.322   0.110   2.413
 1892SOL    HW2 6576   4.259   0.034   2.283
 1893SOL     OW 6577   3.193   1.247   5.531
 1893SOL    HW1 6578   3.266   1.315   5.529
 1893SOL    HW2 6579   3.135   1.262   5.611
 1894SOL     OW 6580   4.886   3.878   1.238
 1894SOL    HW1 6581   4.870   3.910   1.144
 1894SOL    HW2 6582   4.890   3.957   1.299
 1895SOL     OW 6583   4.461   6.437   3.529
 1895SOL    HW1 6584   4.502   6.444   3.438
 1895SOL    HW2 6585   4.418   6.348   3.540
 1896SOL     OW 6586   6.282   1.581   5.975
 1896SOL    HW1 6587   6.372   1.562   5.935
 1896SOL    HW2 6588   6.243   1.663   5.933
 1897SOL     OW 6589   5.879   4.853   3.526
 1897SOL    HW1 6590   5.891   4.947   3.494
 1897SOL    HW2 6591   5.883   4.791   3.448
 1898SOL     OW 6592   5.768   6.565   6.742
 1898SOL    HW1 6593   5.742   6.477   6.780
 1898SOL    HW2 6594   5.867   6.569   6.730
 1899SOL     OW 6595   1.742   2.327   3.447
 1899SOL    HW1 6596   1.764   2.403   3.507
 1899SOL    HW2 6597   1.819   2.310   3.385
 1900SOL     OW 6598   3.075   6.330   2.168
 1900SOL    HW1 6599   3.051   6.275   2.248
 1900SOL    HW2 6600   3.127   6.275   2.104
 1901SOL     OW 6601   1.336   0.931   6.112
 1901SOL    HW1 6602   1.342   1.031   6.120
 1901SOL    HW2 6603   1.260   0.907   6.051
 1902SOL     OW 6604   1.290   2.706   5.293
 1902SOL    HW1 6605   1.196   2.740   5.283
 1902SOL    HW2 6606   1.353   2.774   5.256
 1903SOL     OW 6607   0.182   4.477   4.001
 1903SOL    HW1 6608   0.277   4.474   4.030
 1903SOL    HW2 6609   0.151   4.572   3.997
 1904SOL     OW 6610   0.600   0.315   4.371
 1904SOL    HW1 6611   0.670   0.287   4.305
 1904SOL    HW2 6612   0.522   0.354   4.323
 1905SOL     OW 6613   6.658   2.737   4.409
 1905SOL    HW1 6614   6.571   2.783   4.424
 1905SOL    HW2 6615   6.652   2.642   4.436
 1906SOL     OW 6616   2.841   5.930   6.620
 1906SOL    HW1 6617   2.852   5.983   6.535
 1906SOL    HW2 6618   2.744   5.929   6.646
 1907SOL     OW 6619   4.750   6.436   3.704
 1907SOL    HW1 6620   4.757   6.393   3.614
 1907SOL    HW2 6621   4.653   6.452   3.725
 1908SOL     OW 6622   4.753   0.015   0.138
 1908SOL    HW1 6623   4.740   0.109   0.105
 1908SOL    HW2 6624   4.846   7.003   0.116
 1909SOL     OW 6625   4.181   5.159   4.279
 1909SOL    HW1 6626   4.171   5.085   4.346
 1909SOL    HW2 6627   4.277   5.188   4.276
 1910SOL     OW 6628   5.244   3.562   4.821
 1910SOL    HW1 6629   5.266   3.465   4.833
 1910SOL    HW2 6630   5.226   3.580   4.724
 1911SOL     OW 6631   0.251   3.669   5.711
 1911SOL    HW1 6632   0.247   3.739   5.640
 1911SOL    HW2 6633   0.328   3.608   5.695
 1912SOL     OW 6634   2.467   5.570   3.158
 1912SOL    HW1 6635   2.440   5.497   3.221
 1912SOL    HW2 6636   2.489   5.652   3.211
 1913SOL     OW 6637   1.501   4.354   4.964
 1913SOL    HW1 6638   1.465   4.261   4.979
 1913SOL    HW2 6639   1.596   4.348   4.933
 1914SOL     OW 6640   4.641   1.283   5.909
 1914SOL    HW1 6641   4.592   1.211   5.860
 1914SOL    HW2 6642   4.660   1.359   5.847
 1915SOL     OW 6643   3.299   0.994   5.347
 1915SOL    HW1 6644   3.254   1.071   5.303
 1915SOL    HW2 6645   3.304   0.917   5.282
 1916SOL     OW 6646   4.240   6.227   2.399
 1916SOL    HW1 6647   4.225   6.316   2.355
 1916SOL    HW2 6648   4.224   6.235   2.497
 1917SOL     OW 6649   3.467   3.133   4.309
 1917SOL    HW1 6650   3.517   3.188   4.242
 1917SOL    HW2 6651   3.489   3.036   4.295
 1918SOL     OW 6652   6.434   6.224   5.236
 1918SOL    HW1 6653   6.499   6.221   5.160
 1918SOL    HW2 6654   6.344   6.252   5.201
 1919SOL     OW 6655   6.421   0.063   1.798
 1919SOL    HW1 6656   6.503   0.119   1.786
 1919SOL    HW2 6657   6.371   0.059   1.712
 1920SOL     OW 6658   6.203   6.162   4.493
 1920SOL    HW1 6659   6.242   6.070   4.492
 1920SOL    HW2 6660   6.168   6.184   4.402
 1921SOL     OW 6661   1.332   6.823   6.680
 1921SOL    HW1 6662   1.381   6.757   6.737
 1921SOL    HW2 6663   1.360   6.915   6.705
 1922SOL     OW 6664   3.730   4.326   1.123
 1922SOL    HW1 6665   3.669   4.337   1.201
 1922SOL    HW2 6666   3.675   4.321   1.039
 1923SOL     OW 6667   1.908   2.730   0.573
 1923SOL    HW1 6668   1.964   2.812   0.559
 1923SOL    HW2 6669   1.812   2.752   0.555
 1924SOL     OW 6670   1.030   4.071   1.736
 1924SOL    HW1 6671   0.980   4.108   1.658
 1924SOL    HW2 6672   1.062   4.146   1.794
 1925SOL     OW 6673   3.843   3.906   0.588
 1925SOL    HW1 6674   3.856   3.961   0.505
 1925SOL    HW2 6675   3.930   3.865   0.614
 1926SOL     OW 6676   0.836   0.490   3.540
 1926SOL    HW1 6677   0.895   0.570   3.553
 1926SOL    HW2 6678   0.741   0.518   3.551
 1927SOL     OW 6679   4.311   3.900   0.581
 1927SOL    HW1 6680   4.348   3.987   0.612
 1927SOL    HW2 6681   4.318   3.895   0.481
 1928SOL     OW 6682   0.419   5.388   5.370
 1928SOL    HW1 6683   0.479   5.317   5.333
 1928SOL    HW2 6684   0.445   5.407   5.465
 1929SOL     OW 6685   1.744   6.160   2.924
 1929SOL    HW1 6686   1.665   6.150   2.864
 1929SOL    HW2 6687   1.792   6.072   2.931
 1930SOL     OW 6688   6.618   5.036   6.699
 1930SOL    HW1 6689   6.647   4.945   6.729
 1930SOL    HW2 6690   6.623   5.041   6.599
 1931SOL     OW 6691   0.658   1.871   5.445
 1931SOL    HW1 6692   0.687   1.924   5.365
 1931SOL    HW2 6693   0.687   1.917   5.528
 1932SOL     OW 6694   5.782   2.755   2.653
 1932SOL    HW1 6695   5.738   2.671   2.684
 1932SOL    HW2 6696   5.765   2.828   2.720
 1933SOL     OW 6697   2.172   4.388   0.544
 1933SOL    HW1 6698   2.106   4.366   0.615
 1933SOL    HW2 6699   2.233   4.461   0.576
 1934SOL     OW 6700   6.883   5.952   4.352
 1934SOL    HW1 6701   6.911   5.969   4.447
 1934SOL    HW2 6702   6.962   5.964   4.292
 1935SOL     OW 6703   2.396   0.893   3.525
 1935SOL    HW1 6704   2.334   0.844   3.585
 1935SOL    HW2 6705   2.388   0.857   3.432
 1936SOL     OW 6706   6.767   6.112   5.729
 1936SOL    HW1 6707   6.710   6.181   5.774
 1936SOL    HW2 6708   6.721   6.078   5.648
 1937SOL     OW 6709   4.513   0.593   2.870
 1937SOL    HW1 6710   4.506   0.688   2.898
 1937SOL    HW2 6711   4.421   0.552   2.867
 1938SOL     OW 6712   5.098   0.691   4.338
 1938SOL    HW1 6713   5.114   0.723   4.245
 1938SOL    HW2 6714   5.180   0.643   4.371
 1939SOL     OW 6715   2.552   0.574   3.417
 1939SOL    HW1 6716   2.546   0.583   3.516
 1939SOL    HW2 6717   2.605   0.493   3.393
 1940SOL     OW 6718   6.458   5.133   6.487
 1940SOL    HW1 6719   6.382   5.074   6.460
 1940SOL    HW2 6720   6.431   5.188   6.566
 1941SOL     OW 6721   5.630   5.052   2.784
 1941SOL    HW1 6722   5.604   5.144   2.752
 1941SOL    HW2 6723   5.559   4.987   2.757
 1942SOL     OW 6724   6.282   4.500   2.998
 1942SOL    HW1 6725   6.375   4.463   3.001
 1942SOL    HW2 6726   6.286   4.597   2.972
 1943SOL     OW 6727   2.909   6.067   2.231
 1943SOL    HW1 6728   2.972   6.001   2.272
 1943SOL    HW2 6729   2.864   6.025   2.151
 1944SOL     OW 6730   6.847   6.747   2.168
 1944SOL    HW1 6731   6.888   6.834   2.142
 1944SOL    HW2 6732   6.748   6.752   2.154
 1945SOL     OW 6733   3.162   5.026   3.861
 1945SOL    HW1 6734   3.088   4.958   3.854
 1945SOL    HW2 6735   3.168   5.059   3.955
 1946SOL     OW 6736   1.968   0.288   0.296
 1946SOL    HW1 6737   2.051   0.340   0.314
 1946SOL    HW2 6738   1.958   0.217   0.366
 1947SOL     OW 6739   5.384   7.017   3.862
 1947SOL    HW1 6740   5.469   7.010   3.915
 1947SOL    HW2 6741   5.310   0.027   3.923
 1948SOL     OW 6742   6.994   3.635   5.710
 1948SOL    HW1 6743   0.074   3.649   5.725
 1948SOL    HW2 6744   6.950   3.723   5.696
 1949SOL     OW 6745   5.129   4.030   6.399
 1949SOL    HW1 6746   5.060   4.094   6.434
 1949SOL    HW2 6747   5.102   4.000   6.307
 1950SOL     OW 6748   2.936   5.143   1.005
 1950SOL    HW1 6749   2.852   5.112   1.049
 1950SOL    HW2 6750   2.965   5.229   1.047
 1951SOL     OW 6751   6.869   2.940   6.860
 1951SOL    HW1 6752   6.936   2.887   6.912
 1951SOL    HW2 6753   6.809   2.877   6.810
 1952SOL     OW 6754   3.526   2.776   5.210
 1952SOL    HW1 6755   3.476   2.754   5.126
 1952SOL    HW2 6756   3.613   2.818   5.187
 1953SOL     OW 6757   0.081   3.309   5.172
 1953SOL    HW1 6758   0.118   3.354   5.254
 1953SOL    HW2 6759   0.120   3.351   5.091
 1954SOL     OW 6760   2.595   2.399   3.823
 1954SOL    HW1 6761   2.572   2.318   3.877
 1954SOL    HW2 6762   2.533   2.473   3.847
 1955SOL     OW 6763   6.436   5.482   1.782
 1955SOL    HW1 6764   6.505   5.502   1.852
 1955SOL    HW2 6765   6.345   5.490   1.822
 1956SOL     OW 6766   5.380   6.598   2.510
 1956SOL    HW1 6767   5.293   6.641   2.535
 1956SOL    HW2 6768   5.363   6.504   2.481
 1957SOL     OW 6769   1.063   6.660   5.704
 1957SOL    HW1 6770   1.019   6.584   5.657
 1957SOL    HW2 6771   1.003   6.694   5.777
 1958SOL     OW 6772   4.524   3.069   5.864
 1958SOL    HW1 6773   4.504   3.037   5.957
 1958SOL    HW2 6774   4.506   2.996   5.799
 1959SOL     OW 6775   2.450   2.232   0.035
 1959SOL    HW1 6776   2.489   2.317   0.071
 1959SOL    HW2 6777   2.359   2.218   0.075
 1960SOL     OW 6778   5.190   6.788   2.273
 1960SOL    HW1 6779   5.184   6.815   2.369
 1960SOL    HW2 6780   5.199   6.869   2.216
 1961SOL     OW 6781   5.706   5.014   4.923
 1961SOL    HW1 6782   5.670   4.950   4.991
 1961SOL    HW2 6783   5.707   5.106   4.962
 1962SOL     OW 6784   6.673   6.694   3.317
 1962SOL    HW1 6785   6.621   6.655   3.241
 1962SOL    HW2 6786   6.768   6.709   3.288
 1963SOL     OW 6787   2.335   0.230   2.905
 1963SOL    HW1 6788   2.431   0.203   2.892
 1963SOL    HW2 6789   2.280   0.194   2.830
 1964SOL     OW 6790   5.716   4.163   2.184
 1964SOL    HW1 6791   5.747   4.254   2.213
 1964SOL    HW2 6792   5.682   4.168   2.090
 1965SOL     OW 6793   2.358   5.006   3.788
 1965SOL    HW1 6794   2.377   4.913   3.755
 1965SOL    HW2 6795   2.264   5.011   3.820
 1966SOL     OW 6796   6.588   6.352   6.287
 1966SOL    HW1 6797   6.676   6.349   6.240
 1966SOL    HW2 6798   6.514   6.359   6.220
 1967SOL     OW 6799   4.885   3.664   4.287
 1967SOL    HW1 6800   4.927   3.604   4.355
 1967SOL    HW2 6801   4.883   3.758   4.321
 1968SOL     OW 6802   3.665   5.366   5.697
 1968SOL    HW1 6803   3.712   5.286   5.735
 1968SOL    HW2 6804   3.602   5.337   5.625
 1969SOL     OW 6805   6.725   1.981   1.883
 1969SOL    HW1 6806   6.715   1.884   1.859
 1969SOL    HW2 6807   6.664   2.003   1.958
 1970SOL     OW 6808   1.617   6.270   3.333
 1970SOL    HW1 6809   1.557   6.249   3.410
 1970SOL    HW2 6810   1.595   6.360   3.297
 1971SOL     OW 6811   0.209   0.599   5.950
 1971SOL    HW1 6812   0.195   0.524   6.014
 1971SOL    HW2 6813   0.304   0.600   5.920
 1972SOL     OW 6814   1.341   5.241   4.142
 1972SOL    HW1 6815   1.370   5.234   4.238
 1972SOL    HW2 6816   1.388   5.318   4.099
 1973SOL     OW 6817   2.612   2.886   6.717
 1973SOL    HW1 6818   2.532   2.857   6.664
 1973SOL    HW2 6819   2.672   2.941   6.658
 1974SOL     OW 6820   5.590   0.082   4.366
 1974SOL    HW1 6821   5.494   0.093   4.339
 1974SOL    HW2 6822   5.618   7.006   4.351
 1975SOL     OW 6823   2.717   0.713   3.616
 1975SOL    HW1 6824   2.772   0.633   3.590
 1975SOL    HW2 6825   2.714   0.778   3.540
 1976SOL     OW 6826   6.957   4.767   0.166
 1976SOL    HW1 6827   6.868   4.723   0.177
 1976SOL    HW2 6828   0.010   4.697   0.156
 1977SOL     OW 6829   2.630   2.476   4.897
 1977SOL    HW1 6830   2.689   2.494   4.976
 1977SOL    HW2 6831   2.547   2.531   4.904
 1978SOL     OW 6832   6.866   1.668   5.078
 1978SOL    HW1 6833   6.773   1.635   5.094
 1978SOL    HW2 6834   6.913   1.607   5.014
 1979SOL     OW 6835   5.672   4.170   2.995
 1979SOL    HW1 6836   5.668   4.165   3.095
 1979SOL    HW2 6837   5.615   4.098   2.956
 1980SOL     OW 6838   4.100   0.491   1.203
 1980SOL    HW1 6839   4.047   0.572   1.178
 1980SOL    HW2 6840   4.108   0.430   1.124
 1981SOL     OW 6841   4.651   3.309   1.706
 1981SOL    HW1 6842   4.652   3.237   1.776
 1981SOL    HW2 6843   4.676   3.269   1.618
 1982SOL     OW 6844   5.875   0.160   5.159
 1982SOL    HW1 6845   5.834   0.195   5.243
 1982SOL    HW2 6846   5.802   0.139   5.093
 1983SOL     OW 6847   0.633   4.444   2.416
 1983SOL    HW1 6848   0.554   4.412   2.363
 1983SOL    HW2 6849   0.631   4.544   2.422
 1984SOL     OW 6850   4.498   1.185   6.118
 1984SOL    HW1 6851   4.574   1.236   6.079
 1984SOL    HW2 6852   4.424   1.248   6.141
 1985SOL     OW 6853   1.562   0.290   1.120
 1985SOL    HW1 6854   1.586   0.287   1.217
 1985SOL    HW2 6855   1.530   0.381   1.096
 1986SOL     OW 6856   0.741   2.193   6.428
 1986SOL    HW1 6857   0.660   2.184   6.371
 1986SOL    HW2 6858   0.760   2.105   6.473
 1987SOL     OW 6859   2.534   3.740   0.153
 1987SOL    HW1 6860   2.507   3.674   0.222
 1987SOL    HW2 6861   2.542   3.831   0.194
 1988SOL     OW 6862   4.541   3.253   0.377
 1988SOL    HW1 6863   4.562   3.289   0.468
 1988SOL    HW2 6864   4.622   3.262   0.319
 1989SOL     OW 6865   2.576   0.417   4.239
 1989SOL    HW1 6866   2.572   0.451   4.145
 1989SOL    HW2 6867   2.565   0.494   4.303
 1990SOL     OW 6868   2.239   1.449   2.734
 1990SOL    HW1 6869   2.174   1.519   2.761
 1990SOL    HW2 6870   2.307   1.436   2.806
 1991SOL     OW 6871   4.105   5.315   4.008
 1991SOL    HW1 6872   4.128   5.278   4.098
 1991SOL    HW2 6873   4.015   5.280   3.980
 1992SOL     OW 6874   2.348   6.604   5.348
 1992SOL    HW1 6875   2.423   6.664   5.319
 1992SOL    HW2 6876   2.339   6.608   5.447
 1993SOL     OW 6877   2.989   3.209   4.306
 1993SOL    HW1 6878   3.006   3.171   4.216
 1993SOL    HW2 6879   3.051   3.168   4.373
 1994SOL     OW 6880   6.010   2.565   2.288
 1994SOL    HW1 6881   6.045   2.478   2.253
 1994SOL    HW2 6882   6.062   2.590   2.371
 1995SOL     OW 6883   4.814   2.497   0.885
 1995SOL    HW1 6884   4.816   2.416   0.943
 1995SOL    HW2 6885   4.756   2.567   0.927
 1996SOL     OW 6886   2.797   4.019   6.017
 1996SOL    HW1 6887   2.818   4.110   6.053
 1996SOL    HW2 6888   2.794   4.022   5.917
 1997SOL     OW 6889   5.058   0.279   4.205
 1997SOL    HW1 6890   5.041   0.366   4.160
 1997SOL    HW2 6891   5.038   0.287   4.303
 1998SOL     OW 6892   2.908   5.160   4.865
 1998SOL    HW1 6893   2.931   5.128   4.957
 1998SOL    HW2 6894   2.987   5.147   4.805
 1999SOL     OW 6895   1.841   1.183   2.231
 1999SOL    HW1 6896   1.858   1.174   2.329
 1999SOL    HW2 6897   1.919   1.227   2.187
 2000SOL     OW 6898   4.064   1.879   4.505
 2000SOL    HW1 6899   4.004   1.955   4.529
 2000SOL    HW2 6900   4.064   1.866   4.406
 2001SOL     OW 6901   2.423   3.258   0.694
 2001SOL    HW1 6902   2.435   3.304   0.606
 2001SOL    HW2 6903   2.508   3.261   0.746
 2002SOL     OW 6904   2.186   5.238   4.999
 2002SOL    HW1 6905   2.276   5.282   5.009
 2002SOL    HW2 6906   2.198   5.140   4.986
 2003SOL     OW 6907   6.159   4.831   3.108
 2003SOL    HW1 6908   6.074   4.782   3.095
 2003SOL    HW2 6909   6.165   4.906   3.041
 2004SOL     OW 6910   3.510   0.360   5.990
 2004SOL    HW1 6911   3.538   0.451   5.959
 2004SOL    HW2 6912   3.483   0.365   6.086
 2005SOL     OW 6913   2.888   6.680   5.419
 2005SOL    HW1 6914   2.958   6.676   5.490
 2005SOL    HW2 6915   2.857   6.587   5.398
 2006SOL     OW 6916   4.103   5.625   3.441
 2006SOL    HW1 6917   4.034   5.649   3.510
 2006SOL    HW2 6918   4.176   5.572   3.484
 2007SOL     OW 6919   6.207   5.173   0.206
 2007SOL    HW1 6920   6.284   5.183   0.269
 2007SOL    HW2 6921   6.233   5.112   0.131
 2008SOL     OW 6922   6.588   6.257   4.239
 2008SOL    HW1 6923   6.572   6.345   4.193
 2008SOL    HW2 6924   6.562   6.265   4.335
 2009SOL     OW 6925   0.297   0.680   0.952
 2009SOL    HW1 6926   0.209   0.720   0.926
 2009SOL    HW2 6927   0.289   0.580   0.952
 2010SOL     OW 6928   1.145   6.912   0.595
 2010SOL    HW1 6929   1.108   6.819   0.590
 2010SOL    HW2 6930   1.099   6.962   0.668
 2011SOL     OW 6931   6.822   2.661   5.140
 2011SOL    HW1 6932   6.787   2.621   5.225
 2011SOL    HW2 6933   6.840   2.758   5.154
 2012SOL     OW 6934   0.598   3.617   1.217
 2012SOL    HW1 6935   0.673   3.674   1.250
 2012SOL    HW2 6936   0.568   3.557   1.291
 2013SOL     OW 6937   4.627   1.254   2.327
 2013SOL    HW1 6938   4.642   1.282   2.232
 2013SOL    HW2 6939   4.597   1.159   2.329
 2014SOL     OW 6940   2.636   5.368   3.379
 2014SOL    HW1 6941   2.682   5.318   3.452
 2014SOL    HW2 6942   2.565   5.311   3.338
 2015SOL     OW 6943   3.108   6.775   6.720
 2015SOL    HW1 6944   3.010   6.789   6.705
 2015SOL    HW2 6945   3.121   6.705   6.791
 2016SOL     OW 6946   6.620   4.939   3.384
 2016SOL    HW1 6947   6.586   4.897   3.300
 2016SOL    HW2 6948   6.595   5.036   3.386
 2017SOL     OW 6949   2.494   5.462   1.927
 2017SOL    HW1 6950   2.579   5.503   1.957
 2017SOL    HW2 6951   2.505   5.426   1.834
 2018SOL     OW 6952   0.410   5.096   6.293
 2018SOL    HW1 6953   0.447   5.051   6.375
 2018SOL    HW2 6954   0.430   5.039   6.213
 2019SOL     OW 6955   5.466   1.935   3.189
 2019SOL    HW1 6956   5.453   1.900   3.097
 2019SOL    HW2 6957   5.420   1.876   3.255
 2020SOL     OW 6958   2.309   5.505   2.922
 2020SOL    HW1 6959   2.228   5.447   2.915
 2020SOL    HW2 6960   2.333   5.518   3.018
 2021SOL     OW 6961   1.553   6.858   1.326
 2021SOL    HW1 6962   1.607   6.918   1.267
 2021SOL    HW2 6963   1.457   6.865   1.301
 2022SOL     OW 6964   2.548   4.376   1.102
 2022SOL    HW1 6965   2.588   4.352   1.190
 2022SOL    HW2 6966   2.448   4.374   1.108
 2023SOL     OW 6967   6.479   1.340   6.185
 2023SOL    HW1 6968   6.506   1.254   6.143
 2023SOL    HW2 6969   6.557   1.403   6.186
 2024SOL     OW 6970   6.244   0.630   3.242
 2024SOL    HW1 6971   6.217   0.605   3.335
 2024SOL    HW2 6972   6.176   0.693   3.204
 2025SOL     OW 6973   6.504   0.664   0.399
 2025SOL    HW1 6974   6.433   0.731   0.418
 2025SOL    HW2 6975   6.588   0.691   0.445
 2026SOL     OW 6976   1.545   1.566   5.001
 2026SOL    HW1 6977   1.545   1.653   4.951
 2026SOL    HW2 6978   1.497   1.497   4.947
 2027SOL     OW 6979   0.153   1.563   2.415
 2027SOL    HW1 6980   0.108   1.546   2.327
 2027SOL    HW2 6981   0.103   1.634   2.465
 2028SOL     OW 6982   4.235   3.685   6.207
 2028SOL    HW1 6983   4.239   3.773   6.159
 2028SOL    HW2 6984   4.290   3.618   6.157
 2029SOL     OW 6985   1.502   0.567   0.323
 2029SOL    HW1 6986   1.550   0.646   0.285
 2029SOL    HW2 6987   1.529   0.484   0.272
 2030SOL     OW 6988   1.077   1.310   2.860
 2030SOL    HW1 6989   1.062   1.256   2.943
 2030SOL    HW2 6990   1.117   1.398   2.885
 2031SOL     OW 6991   4.923   0.110   2.649
 2031SOL    HW1 6992   4.997   0.068   2.703
 2031SOL    HW2 6993   4.909   0.204   2.680
 2032SOL     OW 6994   5.142   6.675   1.566
 2032SOL    HW1 6995   5.191   6.620   1.498
 2032SOL    HW2 6996   5.050   6.638   1.579
 2033SOL     OW 6997   6.933   4.802   6.593
 2033SOL    HW1 6998   0.011   4.773   6.600
 2033SOL    HW2 6999   6.876   4.722   6.571
 2034SOL     OW 7000   2.527   6.784   2.886
 2034SOL    HW1 7001   2.552   6.689   2.869
 2034SOL    HW2 7002   2.599   6.844   2.851
 2035SOL     OW 7003   1.300   3.326   1.834
 2035SOL    HW1 7004   1.368   3.267   1.791
 2035SOL    HW2 7005   1.332   3.353   1.925
 2036SOL     OW 7006   1.318   4.587   0.248
 2036SOL    HW1 7007   1.417   4.599   0.252
 2036SOL    HW2 7008   1.274   4.674   0.228
 2037SOL     OW 7009   0.013   1.019   6.179
 2037SOL    HW1 7010   0.056   1.052   6.262
 2037SOL    HW2 7011   0.068   0.944   6.141
 2038SOL     OW 7012   0.867   0.320   4.713
 2038SOL    HW1 7013   0.767   0.328   4.703
 2038SOL    HW2 7014   0.907   0.291   4.626
 2039SOL     OW 7015   0.858   5.490   2.196
 2039SOL    HW1 7016   0.803   5.568   2.168
 2039SOL    HW2 7017   0.946   5.522   2.232
 2040SOL     OW 7018   3.423   3.744   4.646
 2040SOL    HW1 7019   3.480   3.798   4.708
 2040SOL    HW2 7020   3.447   3.647   4.655
 2041SOL     OW 7021   5.896   4.071   6.147
 2041SOL    HW1 7022   5.865   4.116   6.231
 2041SOL    HW2 7023   5.912   4.140   6.077
 2042SOL     OW 7024   3.825   5.703   6.979
 2042SOL    HW1 7025   3.768   5.621   6.981
 2042SOL    HW2 7026   3.905   5.687   6.921
 2043SOL     OW 7027   4.656   4.224   2.429
 2043SOL    HW1 7028   4.585   4.154   2.422
 2043SOL    HW2 7029   4.703   4.233   2.341
 2044SOL     OW 7030   5.960   0.910   1.885
 2044SOL    HW1 7031   6.042   0.904   1.942
 2044SOL    HW2 7032   5.899   0.834   1.906
 2045SOL     OW 7033   1.861   5.349   6.109
 2045SOL    HW1 7034   1.850   5.336   6.011
 2045SOL    HW2 7035   1.863   5.259   6.154
 2046SOL     OW 7036   5.962   0.865   4.751
 2046SOL    HW1 7037   5.954   0.960   4.779
 2046SOL    HW2 7038   5.908   0.807   4.813
 2047SOL     OW 7039   5.799   2.790   0.185
 2047SOL    HW1 7040   5.800   2.888   0.203
 2047SOL    HW2 7041   5.707   2.761   0.159
 2048SOL     OW 7042   4.233   6.914   5.756
 2048SOL    HW1 7043   4.285   6.999   5.747
 2048SOL    HW2 7044   4.192   6.910   5.848
 2049SOL     OW 7045   4.945   6.505   0.588
 2049SOL    HW1 7046   4.927   6.583   0.527
 2049SOL    HW2 7047   4.887   6.428   0.562
 2050SOL     OW 7048   5.444   2.225   4.099
 2050SOL    HW1 7049   5.363   2.208   4.155
 2050SOL    HW2 7050   5.518   2.259   4.158
 2051SOL     OW 7051   1.948   5.181   0.442
 2051SOL    HW1 7052   1.875   5.133   0.492
 2051SOL    HW2 7053   1.907   5.247   0.380
 2052SOL     OW 7054   1.101   3.217   1.012
 2052SOL    HW1 7055   1.071   3.126   1.040
 2052SOL    HW2 7056   1.143   3.264   1.089
 2053SOL     OW 7057   5.379   0.298   0.484
 2053SOL    HW1 7058   5.362   0.307   0.386
 2053SOL    HW2 7059   5.293   0.304   0.534
 2054SOL     OW 7060   6.465   3.242   1.335
 2054SOL    HW1 7061   6.514   3.303   1.273
 2054SOL    HW2 7062   6.526   3.170   1.367
 2055SOL     OW 7063   6.768   2.538   4.036
 2055SOL    HW1 7064   6.691   2.541   3.973
 2055SOL    HW2 7065   6.772   2.623   4.089
 2056SOL     OW 7066   1.306   0.833   2.615
 2056SOL    HW1 7067   1.376   0.861   2.681
 2056SOL    HW2 7068   1.350   0.799   2.532
 2057SOL     OW 7069   6.869   2.276   3.997
 2057SOL    HW1 7070   6.909   2.235   4.079
 2057SOL    HW2 7071   6.846   2.371   4.014
 2058SOL     OW 7072   0.004   2.313   1.620
 2058SOL    HW1 7073   0.045   2.277   1.537
 2058SOL    HW2 7074   0.067   2.376   1.665
 2059SOL     OW 7075   1.610   1.416   6.322
 2059SOL    HW1 7076   1.702   1.445   6.293
 2059SOL    HW2 7077   1.591   1.325   6.285
 2060SOL     OW 7078   0.268   5.350   2.481
 2060SOL    HW1 7079   0.310   5.295   2.553
 2060SOL    HW2 7080   0.176   5.378   2.510
 2061SOL     OW 7081   6.709   1.398   1.847
 2061SOL    HW1 7082   6.724   1.496   1.859
 2061SOL    HW2 7083   6.797   1.353   1.833
 2062SOL     OW 7084   4.591   0.813   3.170
 2062SOL    HW1 7085   4.550   0.860   3.248
 2062SOL    HW2 7086   4.655   0.875   3.123
 2063SOL     OW 7087   2.586   2.095   0.309
 2063SOL    HW1 7088   2.494   2.056   0.301
 2063SOL    HW2 7089   2.580   2.186   0.350
 2064SOL     OW 7090   0.591   2.301   0.228
 2064SOL    HW1 7091   0.620   2.360   0.302
 2064SOL    HW2 7092   0.575   2.208   0.263
 2065SOL     OW 7093   6.378   2.756   2.126
 2065SOL    HW1 7094   6.372   2.774   2.028
 2065SOL    HW2 7095   6.471   2.724   2.148
 2066SOL     OW 7096   1.955   6.290   4.028
 2066SOL    HW1 7097   2.034   6.281   4.088
 2066SOL    HW2 7098   1.929   6.200   3.994
 2067SOL     OW 7099   7.007   0.032   1.107
 2067SOL    HW1 7100   0.073   0.019   1.160
 2067SOL    HW2 7101   0.009   0.085   1.025
 2068SOL     OW 7102   2.033   1.477   5.080
 2068SOL    HW1 7103   2.043   1.501   4.983
 2068SOL    HW2 7104   2.060   1.381   5.093
 2069SOL     OW 7105   0.114   1.933   1.907
 2069SOL    HW1 7106   0.038   1.995   1.927
 2069SOL    HW2 7107   0.189   1.985   1.866
 2070SOL     OW 7108   0.518   1.228   2.666
 2070SOL    HW1 7109   0.453   1.292   2.626
 2070SOL    HW2 7110   0.611   1.265   2.658
 2071SOL     OW 7111   1.402   6.435   4.339
 2071SOL    HW1 7112   1.429   6.401   4.249
 2071SOL    HW2 7113   1.477   6.423   4.403
 2072SOL     OW 7114   5.079   5.134   2.119
 2072SOL    HW1 7115   5.146   5.166   2.051
 2072SOL    HW2 7116   5.102   5.171   2.209
 2073SOL     OW 7117   2.878   0.092   5.593
 2073SOL    HW1 7118   2.908   0.177   5.549
 2073SOL    HW2 7119   2.780   0.098   5.615
 2074SOL     OW 7120   5.588   1.724   1.451
 2074SOL    HW1 7121   5.669   1.769   1.414
 2074SOL    HW2 7122   5.507   1.759   1.404
 2075SOL     OW 7123   4.661   3.391   5.965
 2075SOL    HW1 7124   4.723   3.316   5.942
 2075SOL    HW2 7125   4.576   3.381   5.913
 2076SOL     OW 7126   5.138   0.231   1.095
 2076SOL    HW1 7127   5.182   0.205   1.010
 2076SOL    HW2 7128   5.042   0.202   1.093
 2077SOL     OW 7129   5.663   1.312   3.676
 2077SOL    HW1 7130   5.654   1.409   3.699
 2077SOL    HW2 7131   5.699   1.263   3.755
 2078SOL     OW 7132   4.038   5.597   5.488
 2078SOL    HW1 7133   4.059   5.598   5.390
 2078SOL    HW2 7134   4.043   5.690   5.524
 2079SOL     OW 7135   5.695   1.551   4.173
 2079SOL    HW1 7136   5.767   1.555   4.103
 2079SOL    HW2 7137   5.737   1.556   4.263
 2080SOL     OW 7138   3.045   2.144   4.799
 2080SOL    HW1 7139   3.093   2.184   4.877
 2080SOL    HW2 7140   2.951   2.177   4.798
 2081SOL     OW 7141   0.359   6.407   5.263
 2081SOL    HW1 7142   0.308   6.342   5.318
 2081SOL    HW2 7143   0.296   6.459   5.205
 2082SOL     OW 7144   5.125   0.348   1.357
 2082SOL    HW1 7145   5.151   0.314   1.266
 2082SOL    HW2 7146   5.136   0.447   1.360
 2083SOL     OW 7147   3.718   5.668   5.274
 2083SOL    HW1 7148   3.722   5.679   5.373
 2083SOL    HW2 7149   3.623   5.650   5.247
 2084SOL     OW 7150   0.381   3.137   3.322
 2084SOL    HW1 7151   0.287   3.105   3.329
 2084SOL    HW2 7152   0.441   3.073   3.371
 2085SOL     OW 7153   5.588   6.714   6.629
 2085SOL    HW1 7154   5.654   6.660   6.681
 2085SOL    HW2 7155   5.632   6.798   6.596
 2086SOL     OW 7156   2.713   5.060   0.694
 2086SOL    HW1 7157   2.630   5.086   0.744
 2086SOL    HW2 7158   2.760   4.987   0.744
 2087SOL     OW 7159   5.474   6.600   3.686
 2087SOL    HW1 7160   5.571   6.576   3.691
 2087SOL    HW2 7161   5.419   6.523   3.719
 2088SOL     OW 7162   3.094   6.666   0.706
 2088SOL    HW1 7163   3.167   6.613   0.749
 2088SOL    HW2 7164   3.132   6.748   0.663
 2089SOL     OW 7165   2.830   6.904   6.748
 2089SOL    HW1 7166   2.830   6.996   6.710
 2089SOL    HW2 7167   2.745   6.857   6.722
 2090SOL     OW 7168   3.104   3.494   4.134
 2090SOL    HW1 7169   3.136   3.415   4.081
 2090SOL    HW2 7170   3.027   3.467   4.191
 2091SOL     OW 7171   1.927   4.854   0.732
 2091SOL    HW1 7172   1.960   4.865   0.825
 2091SOL    HW2 7173   1.900   4.758   0.717
 2092SOL     OW 7174   6.087   6.184   1.047
 2092SOL    HW1 7175   6.183   6.170   1.070
 2092SOL    HW2 7176   6.064   6.131   0.965
 2093SOL     OW 7177   1.272   1.971   1.359
 2093SOL    HW1 7178   1.215   1.896   1.326
 2093SOL    HW2 7179   1.267   2.047   1.294
 2094SOL     OW 7180   6.041   0.498   2.154
 2094SOL    HW1 7181   6.056   0.510   2.253
 2094SOL    HW2 7182   6.092   0.418   2.123
 2095SOL     OW 7183   6.883   4.819   4.580
 2095SOL    HW1 7184   6.942   4.878   4.635
 2095SOL    HW2 7185   6.798   4.801   4.629
 2096SOL     OW 7186   4.835   3.938   3.184
 2096SOL    HW1 7187   4.821   3.984   3.097
 2096SOL    HW2 7188   4.836   3.839   3.170
 2097SOL     OW 7189   0.036   2.760   6.972
 2097SOL    HW1 7190   0.047   2.681   0.014
 2097SOL    HW2 7191   0.123   2.809   6.965
 2098SOL     OW 7192   4.697   0.556   4.647
 2098SOL    HW1 7193   4.695   0.629   4.715
 2098SOL    HW2 7194   4.743   0.589   4.565
 2099SOL     OW 7195   3.060   1.577   4.148
 2099SOL    HW1 7196   3.006   1.494   4.158
 2099SOL    HW2 7197   3.057   1.609   4.053
 2100SOL     OW 7198   3.940   3.888   6.996
 2100SOL    HW1 7199   3.967   3.926   6.907
 2100SOL    HW2 7200   4.022   3.864   0.030
 2101SOL     OW 7201   0.227   0.407   3.379
 2101SOL    HW1 7202   0.240   0.506   3.381
 2101SOL    HW2 7203   0.140   0.386   3.334
 2102SOL     OW 7204   0.085   5.039   2.207
 2102SOL    HW1 7205   0.010   5.000   2.154
 2102SOL    HW2 7206   0.096   5.136   2.184
 2103SOL     OW 7207   2.922   3.812   6.433
 2103SOL    HW1 7208   2.829   3.798   6.467
 2103SOL    HW2 7209   2.987   3.775   6.500
 2104SOL     OW 7210   1.226   4.034   5.149
 2104SOL    HW1 7211   1.239   4.068   5.242
 2104SOL    HW2 7212   1.179   4.103   5.094
 2105SOL     OW 7213   6.058   5.437   1.646
 2105SOL    HW1 7214   6.142   5.450   1.594
 2105SOL    HW2 7215   6.006   5.523   1.647
 2106SOL     OW 7216   5.434   5.824   6.868
 2106SOL    HW1 7217   5.450   5.726   6.880
 2106SOL    HW2 7218   5.521   5.871   6.855
 2107SOL     OW 7219   3.816   3.990   6.689
 2107SOL    HW1 7220   3.786   3.949   6.603
 2107SOL    HW2 7221   3.741   3.987   6.755
 2108SOL     OW 7222   5.035   4.614   5.757
 2108SOL    HW1 7223   5.048   4.660   5.670
 2108SOL    HW2 7224   5.029   4.515   5.742
 2109SOL     OW 7225   5.710   0.067   2.857
 2109SOL    HW1 7226   5.633   0.046   2.918
 2109SOL    HW2 7227   5.710   0.005   2.779
 2110SOL     OW 7228   2.651   5.135   5.908
 2110SOL    HW1 7229   2.588   5.086   5.968
 2110SOL    HW2 7230   2.739   5.148   5.955
 2111SOL     OW 7231   1.457   2.754   0.012
 2111SOL    HW1 7232   1.513   2.794   6.958
 2111SOL    HW2 7233   1.416   2.827   0.067
 2112SOL     OW 7234   5.073   3.500   1.054
 2112SOL    HW1 7235   4.982   3.458   1.047
 2112SOL    HW2 7236   5.143   3.432   1.035
 2113SOL     OW 7237   6.944   1.127   3.210
 2113SOL    HW1 7238   6.881   1.061   3.252
 2113SOL    HW2 7239   0.019   1.090   3.212
 2114SOL     OW 7240   1.715   4.231   0.012
 2114SOL    HW1 7241   1.688   4.138   7.004
 2114SOL    HW2 7242   1.789   4.263   6.971
 2115SOL     OW 7243   2.600   4.794   2.344
 2115SOL    HW1 7244   2.657   4.755   2.416
 2115SOL    HW2 7245   2.518   4.833   2.384
 2116SOL     OW 7246   0.026   3.908   3.269
 2116SOL    HW1 7247   0.042   3.820   3.314
 2116SOL    HW2 7248   0.039   3.982   3.335
 2117SOL     OW 7249   6.677   4.880   1.095
 2117SOL    HW1 7250   6.720   4.811   1.038
 2117SOL    HW2 7251   6.666   4.846   1.188
 2118SOL     OW 7252   6.786   3.730   2.058
 2118SOL    HW1 7253   6.851   3.806   2.057
 2118SOL    HW2 7254   6.836   3.644   2.068
 2119SOL     OW 7255   2.773   5.971   1.212
 2119SOL    HW1 7256   2.786   5.917   1.129
 2119SOL    HW2 7257   2.715   6.050   1.192
 2120SOL     OW 7258   0.012   5.348   2.097
 2120SOL    HW1 7259   0.085   5.410   2.069
 2120SOL    HW2 7260   6.996   5.297   2.018
 2121SOL     OW 7261   0.508   4.859   4.873
 2121SOL    HW1 7262   0.449   4.921   4.821
 2121SOL    HW2 7263   0.569   4.913   4.932
 2122SOL     OW 7264   4.715   4.325   5.255
 2122SOL    HW1 7265   4.767   4.401   5.294
 2122SOL    HW2 7266   4.706   4.252   5.323
 2123SOL     OW 7267   5.925   4.689   3.082
 2123SOL    HW1 7268   5.913   4.596   3.046
 2123SOL    HW2 7269   5.877   4.754   3.023
 2124SOL     OW 7270   2.572   1.732   0.738
 2124SOL    HW1 7271   2.603   1.814   0.786
 2124SOL    HW2 7272   2.508   1.758   0.665
 2125SOL     OW 7273   3.100   6.591   1.182
 2125SOL    HW1 7274   3.004   6.563   1.186
 2125SOL    HW2 7275   3.116   6.641   1.097
 2126SOL     OW 7276   2.451   1.182   1.694
 2126SOL    HW1 7277   2.441   1.085   1.670
 2126SOL    HW2 7278   2.548   1.203   1.708
 2127SOL     OW 7279   5.642   3.109   5.194
 2127SOL    HW1 7280   5.699   3.066   5.125
 2127SOL    HW2 7281   5.659   3.208   5.195
 2128SOL     OW 7282   0.247   5.107   4.183
 2128SOL    HW1 7283   0.147   5.098   4.180
 2128SOL    HW2 7284   0.279   5.146   4.097
 2129SOL     OW 7285   3.727   1.696   5.785
 2129SOL    HW1 7286   3.808   1.638   5.771
 2129SOL    HW2 7287   3.645   1.639   5.786
 2130SOL     OW 7288   3.951   6.291   3.764
 2130SOL    HW1 7289   3.909   6.310   3.676
 2130SOL    HW2 7290   4.010   6.367   3.790
 2131SOL     OW 7291   6.054   2.380   6.816
 2131SOL    HW1 7292   5.975   2.379   6.755
 2131SOL    HW2 7293   6.030   2.340   6.904
 2132SOL     OW 7294   2.341   2.799   0.667
 2132SOL    HW1 7295   2.257   2.749   0.688
 2132SOL    HW2 7296   2.419   2.751   0.706
 2133SOL     OW 7297   3.017   3.431   5.872
 2133SOL    HW1 7298   3.069   3.432   5.957
 2133SOL    HW2 7299   3.012   3.523   5.834
 2134SOL     OW 7300   1.256   0.080   1.094
 2134SOL    HW1 7301   1.278   0.163   1.145
 2134SOL    HW2 7302   1.320   0.071   1.017
 2135SOL     OW 7303   0.096   4.248   4.223
 2135SOL    HW1 7304   0.099   4.149   4.240
 2135SOL    HW2 7305   0.020   4.269   4.162
 2136SOL     OW 7306   1.674   4.860   1.509
 2136SOL    HW1 7307   1.660   4.957   1.488
 2136SOL    HW2 7308   1.655   4.845   1.607
 2137SOL     OW 7309   1.717   5.631   4.157
 2137SOL    HW1 7310   1.740   5.720   4.198
 2137SOL    HW2 7311   1.761   5.624   4.067
 2138SOL     OW 7312   5.036   1.623   1.651
 2138SOL    HW1 7313   4.999   1.702   1.699
 2138SOL    HW2 7314   5.124   1.648   1.609
 2139SOL     OW 7315   2.840   1.032   5.534
 2139SOL    HW1 7316   2.907   0.958   5.527
 2139SOL    HW2 7317   2.881   1.117   5.500
 2140SOL     OW 7318   2.229   0.900   4.788
 2140SOL    HW1 7319   2.240   0.827   4.721
 2140SOL    HW2 7320   2.319   0.938   4.811
 2141SOL     OW 7321   6.632   3.900   2.752
 2141SOL    HW1 7322   6.541   3.927   2.720
 2141SOL    HW2 7323   6.634   3.897   2.852
 2142SOL     OW 7324   1.439   2.362   2.834
 2142SOL    HW1 7325   1.342   2.357   2.807
 2142SOL    HW2 7326   1.496   2.365   2.752
 2143SOL     OW 7327   1.111   4.479   0.026
 2143SOL    HW1 7328   1.193   4.508   0.075
 2143SOL    HW2 7329   1.031   4.525   0.065
 2144SOL     OW 7330   5.934   4.899   3.778
 2144SOL    HW1 7331   5.902   4.870   3.688
 2144SOL    HW2 7332   5.862   4.886   3.845
 2145SOL     OW 7333   4.021   0.187   3.538
 2145SOL    HW1 7334   3.942   0.232   3.496
 2145SOL    HW2 7335   4.084   0.257   3.573
 2146SOL     OW 7336   2.136   2.739   0.040
 2146SOL    HW1 7337   2.161   2.834   0.061
 2146SOL    HW2 7338   2.096   2.696   0.121
 2147SOL     OW 7339   5.840   0.517   4.518
 2147SOL    HW1 7340   5.821   0.423   4.490
 2147SOL    HW2 7341   5.939   0.533   4.517
 2148SOL     OW 7342   0.356   3.307   6.512
 2148SOL    HW1 7343   0.295   3.386   6.514
 2148SOL    HW2 7344   0.418   3.309   6.590
 2149SOL     OW 7345   0.835   0.373   0.101
 2149SOL    HW1 7346   0.836   0.278   0.133
 2149SOL    HW2 7347   0.903   0.384   0.028
 2150SOL     OW 7348   2.751   2.815   1.433
 2150SOL    HW1 7349   2.691   2.741   1.402
 2150SOL    HW2 7350   2.806   2.784   1.510
 2151SOL     OW 7351   1.537   5.690   0.303
 2151SOL    HW1 7352   1.450   5.648   0.280
 2151SOL    HW2 7353   1.547   5.693   0.403
 2152SOL     OW 7354   4.975   5.757   4.329
 2152SOL    HW1 7355   4.941   5.734   4.238
 2152SOL    HW2 7356   5.055   5.700   4.350
 2153SOL     OW 7357   4.644   1.565   3.500
 2153SOL    HW1 7358   4.646   1.519   3.589
 2153SOL    HW2 7359   4.611   1.501   3.430
 2154SOL     OW 7360   3.043   0.214   3.668
 2154SOL    HW1 7361   3.119   0.176   3.616
 2154SOL    HW2 7362   3.053   0.314   3.674
 2155SOL     OW 7363   4.407   0.152   0.810
 2155SOL    HW1 7364   4.384   0.134   0.906
 2155SOL    HW2 7365   4.377   0.244   0.784
 2156SOL     OW 7366   5.406   1.433   4.942
 2156SOL    HW1 7367   5.390   1.531   4.944
 2156SOL    HW2 7368   5.439   1.406   4.852
 2157SOL     OW 7369   3.095   6.101   3.912
 2157SOL    HW1 7370   3.124   6.170   3.979
 2157SOL    HW2 7371   3.021   6.047   3.951
 2158SOL     OW 7372   3.725   0.595   0.327
 2158SOL    HW1 7373   3.728   0.496   0.341
 2158SOL    HW2 7374   3.707   0.614   0.231
 2159SOL     OW 7375   0.602   1.091   5.571
 2159SOL    HW1 7376   0.617   1.080   5.473
 2159SOL    HW2 7377   0.617   1.187   5.597
 2160SOL     OW 7378   6.106   6.903   0.372
 2160SOL    HW1 7379   6.078   6.861   0.458
 2160SOL    HW2 7380   6.176   6.972   0.390
 2161SOL     OW 7381   1.505   2.565   1.944
 2161SOL    HW1 7382   1.458   2.487   1.903
 2161SOL    HW2 7383   1.590   2.534   1.988
 2162SOL     OW 7384   0.978   6.870   1.958
 2162SOL    HW1 7385   0.957   6.811   2.036
 2162SOL    HW2 7386   0.992   6.814   1.877
 2163SOL     OW 7387   1.779   3.125   2.500
 2163SOL    HW1 7388   1.872   3.162   2.501
 2163SOL    HW2 7389   1.783   3.026   2.509
 2164SOL     OW 7390   2.007   2.850   2.627
 2164SOL    HW1 7391   1.921   2.812   2.661
 2164SOL    HW2 7392   2.048   2.788   2.561
 2165SOL     OW 7393   6.825   1.524   3.879
 2165SOL    HW1 7394   6.797   1.601   3.822
 2165SOL    HW2 7395   6.853   1.448   3.819
 2166SOL     OW 7396   6.844   4.291   2.658
 2166SOL    HW1 7397   6.922   4.290   2.594
 2166SOL    HW2 7398   6.866   4.235   2.738
 2167SOL     OW 7399   2.394   2.150   3.514
 2167SOL    HW1 7400   2.360   2.220   3.577
 2167SOL    HW2 7401   2.398   2.189   3.421
 2168SOL     OW 7402   1.499   2.210   3.451
 2168SOL    HW1 7403   1.506   2.110   3.446
 2168SOL    HW2 7404   1.591   2.249   3.458
 2169SOL     OW 7405   0.471   6.917   1.452
 2169SOL    HW1 7406   0.533   6.890   1.525
 2169SOL    HW2 7407   0.450   7.014   1.460
 2170SOL     OW 7408   0.857   3.888   5.288
 2170SOL    HW1 7409   0.910   3.962   5.329
 2170SOL    HW2 7410   0.814   3.921   5.204
 2171SOL     OW 7411   0.296   5.439   1.696
 2171SOL    HW1 7412   0.330   5.345   1.690
 2171SOL    HW2 7413   0.196   5.439   1.702
 2172SOL     OW 7414   1.465   1.243   4.963
 2172SOL    HW1 7415   1.404   1.173   4.926
 2172SOL    HW2 7416   1.504   1.211   5.049
 2173SOL     OW 7417   5.980   0.679   5.074
 2173SOL    HW1 7418   5.965   0.585   5.044
 2173SOL    HW2 7419   5.923   0.699   5.153
 2174SOL     OW 7420   6.044   0.198   6.148
 2174SOL    HW1 7421   5.958   0.166   6.108
 2174SOL    HW2 7422   6.026   0.275   6.208
 2175SOL     OW 7423   2.491   3.763   5.340
 2175SOL    HW1 7424   2.487   3.854   5.299
 2175SOL    HW2 7425   2.463   3.768   5.436
 2176SOL     OW 7426   5.663   2.411   1.647
 2176SOL    HW1 7427   5.568   2.443   1.646
 2176SOL    HW2 7428   5.689   2.389   1.741
 2177SOL     OW 7429   0.379   0.350   4.153
 2177SOL    HW1 7430   0.427   0.300   4.081
 2177SOL    HW2 7431   0.385   0.449   4.135
 2178SOL     OW 7432   0.442   1.884   2.617
 2178SOL    HW1 7433   0.540   1.893   2.600
 2178SOL    HW2 7434   0.427   1.822   2.693
 2179SOL     OW 7435   1.278   4.228   6.136
 2179SOL    HW1 7436   1.220   4.237   6.055
 2179SOL    HW2 7437   1.368   4.269   6.118
 2180SOL     OW 7438   0.706   6.273   2.597
 2180SOL    HW1 7439   0.786   6.290   2.655
 2180SOL    HW2 7440   0.624   6.263   2.654
 2181SOL     OW 7441   3.305   4.918   4.398
 2181SOL    HW1 7442   3.343   4.922   4.305
 2181SOL    HW2 7443   3.206   4.903   4.393
 2182SOL     OW 7444   0.225   6.348   2.854
 2182SOL    HW1 7445   0.320   6.319   2.846
 2182SOL    HW2 7446   0.213   6.400   2.938
 2183SOL     OW 7447   3.091   2.710   6.464
 2183SOL    HW1 7448   3.115   2.643   6.394
 2183SOL    HW2 7449   3.019   2.672   6.522
 2184SOL     OW 7450   6.734   1.560   6.806
 2184SOL    HW1 7451   6.708   1.647   6.848
 2184SOL    HW2 7452   6.651   1.513   6.773
 2185SOL     OW 7453   0.979   0.014   6.702
 2185SOL    HW1 7454   1.006   0.083   6.635
 2185SOL    HW2 7455   1.053   7.016   6.766
 2186SOL     OW 7456   0.205   4.822   5.955
 2186SOL    HW1 7457   0.237   4.788   5.867
 2186SOL    HW2 7458   0.142   4.898   5.941
 2187SOL     OW 7459   0.392   5.919   2.772
 2187SOL    HW1 7460   0.441   5.844   2.816
 2187SOL    HW2 7461   0.450   5.961   2.703
 2188SOL     OW 7462   2.495   0.366   0.569
 2188SOL    HW1 7463   2.449   0.438   0.621
 2188SOL    HW2 7464   2.559   0.317   0.628
 2189SOL     OW 7465   2.115   1.578   1.585
 2189SOL    HW1 7466   2.080   1.634   1.661
 2189SOL    HW2 7467   2.040   1.551   1.526
 2190SOL     OW 7468   6.533   3.810   2.018
 2190SOL    HW1 7469   6.546   3.868   1.938
 2190SOL    HW2 7470   6.621   3.772   2.047
 2191SOL     OW 7471   2.984   6.914   0.078
 2191SOL    HW1 7472   3.060   6.956   0.028
 2191SOL    HW2 7473   2.900   6.921   0.025
 2192SOL     OW 7474   4.845   1.624   1.014
 2192SOL    HW1 7475   4.869   1.617   0.917
 2192SOL    HW2 7476   4.773   1.557   1.035
 2193SOL     OW 7477   1.685   6.621   5.976
 2193SOL    HW1 7478   1.660   6.608   6.072
 2193SOL    HW2 7479   1.767   6.678   5.971
 2194SOL     OW 7480   1.160   3.717   5.744
 2194SOL    HW1 7481   1.225   3.752   5.811
 2194SOL    HW2 7482   1.117   3.794   5.697
 2195SOL     OW 7483   0.456   3.522   5.601
 2195SOL    HW1 7484   0.476   3.583   5.524
 2195SOL    HW2 7485   0.539   3.473   5.628
 2196SOL     OW 7486   2.736   0.283   6.461
 2196SOL    HW1 7487   2.736   0.199   6.407
 2196SOL    HW2 7488   2.746   0.362   6.400
 2197SOL     OW 7489   3.312   5.262   5.731
 2197SOL    HW1 7490   3.353   5.345   5.693
 2197SOL    HW2 7491   3.342   5.183   5.677
 2198SOL     OW 7492   0.445   0.350   6.704
 2198SOL    HW1 7493   0.425   0.272   6.763
 2198SOL    HW2 7494   0.382   0.351   6.627
 2199SOL     OW 7495   3.951   6.638   4.910
 2199SOL    HW1 7496   4.008   6.557   4.892
 2199SOL    HW2 7497   3.987   6.686   4.990
 2200SOL     OW 7498   2.786   1.827   4.191
 2200SOL    HW1 7499   2.723   1.764   4.145
 2200SOL    HW2 7500   2.874   1.826   4.144
 2201SOL     OW 7501   6.378   4.138   4.186
 2201SOL    HW1 7502   6.449   4.089   4.237
 2201SOL    HW2 7503   6.347   4.217   4.239
 2202SOL     OW 7504   3.543   6.130   2.103
 2202SOL    HW1 7505   3.633   6.174   2.094
 2202SOL    HW2 7506   3.478   6.173   2.042
 2203SOL     OW 7507   1.757   3.643   0.681
 2203SOL    HW1 7508   1.764   3.554   0.636
 2203SOL    HW2 7509   1.844   3.665   0.725
 2204SOL     OW 7510   5.675   3.600   1.194
 2204SOL    HW1 7511   5.646   3.578   1.101
 2204SOL    HW2 7512   5.773   3.587   1.203
 2205SOL     OW 7513   0.717   5.311   0.269
 2205SOL    HW1 7514   0.814   5.292   0.286
 2205SOL    HW2 7515   0.673   5.230   0.231
 2206SOL     OW 7516   3.120   2.055   5.871
 2206SOL    HW1 7517   3.096   2.013   5.783
 2206SOL    HW2 7518   3.040   2.102   5.909
 2207SOL     OW 7519   4.490   6.236   1.343
 2207SOL    HW1 7520   4.561   6.275   1.400
 2207SOL    HW2 7521   4.424   6.308   1.318
 2208SOL     OW 7522   6.686   6.261   3.580
 2208SOL    HW1 7523   6.668   6.163   3.586
 2208SOL    HW2 7524   6.768   6.277   3.526
 2209SOL     OW 7525   2.865   5.773   3.897
 2209SOL    HW1 7526   2.900   5.838   3.964
 2209SOL    HW2 7527   2.799   5.712   3.940
 2210SOL     OW 7528   4.684   0.092   0.812
 2210SOL    HW1 7529   4.591   0.131   0.814
 2210SOL    HW2 7530   4.680   7.015   0.844
 2211SOL     OW 7531   0.207   1.711   1.089
 2211SOL    HW1 7532   0.202   1.761   1.176
 2211SOL    HW2 7533   0.139   1.637   1.089
 2212SOL     OW 7534   2.581   5.923   6.760
 2212SOL    HW1 7535   2.482   5.913   6.756
 2212SOL    HW2 7536   2.615   5.888   6.848
 2213SOL     OW 7537   3.539   1.470   4.660
 2213SOL    HW1 7538   3.628   1.484   4.704
 2213SOL    HW2 7539   3.466   1.476   4.728
 2214SOL     OW 7540   4.531   3.753   0.027
 2214SOL    HW1 7541   4.599   3.713   6.985
 2214SOL    HW2 7542   4.506   3.688   0.099
 2215SOL     OW 7543   4.239   7.017   6.746
 2215SOL    HW1 7544   4.177   6.967   6.806
 2215SOL    HW2 7545   4.249   6.966   6.660
 2216SOL     OW 7546   0.574   6.694   6.413
 2216SOL    HW1 7547   0.557   6.746   6.496
 2216SOL    HW2 7548   0.607   6.755   6.341
 2217SOL     OW 7549   3.958   0.494   3.750
 2217SOL    HW1 7550   3.869   0.449   3.763
 2217SOL    HW2 7551   3.986   0.537   3.836
 2218SOL     OW 7552   0.742   5.990   5.636
 2218SOL    HW1 7553   0.787   6.039   5.561
 2218SOL    HW2 7554   0.644   6.011   5.634
 2219SOL     OW 7555   6.155   0.994   0.678
 2219SOL    HW1 7556   6.214   1.056   0.625
 2219SOL    HW2 7557   6.200   0.969   0.763
 2220SOL     OW 7558   0.397   5.826   5.241
 2220SOL    HW1 7559   0.419   5.741   5.193
 2220SOL    HW2 7560   0.474   5.890   5.233
 2221SOL     OW 7561   6.506   1.240   3.843
 2221SOL    HW1 7562   6.408   1.235   3.862
 2221SOL    HW2 7563   6.521   1.237   3.744
 2222SOL     OW 7564   5.026   6.654   2.077
 2222SOL    HW1 7565   5.110   6.671   2.128
 2222SOL    HW2 7566   4.969   6.736   2.077
 2223SOL     OW 7567   0.197   6.061   5.634
 2223SOL    HW1 7568   0.239   6.103   5.554
 2223SOL    HW2 7569   0.193   5.962   5.621
 2224SOL     OW 7570   5.705   4.317   0.673
 2224SOL    HW1 7571   5.643   4.242   0.698
 2224SOL    HW2 7572   5.760   4.289   0.594
 2225SOL     OW 7573   0.197   6.788   2.897
 2225SOL    HW1 7574   0.161   6.706   2.852
 2225SOL    HW2 7575   0.121   6.847   2.924
 2226SOL     OW 7576   2.281   5.391   0.872
 2226SOL    HW1 7577   2.185   5.378   0.850
 2226SOL    HW2 7578   2.290   5.411   0.970
 2227SOL     OW 7579   3.729   2.122   1.688
 2227SOL    HW1 7580   3.642   2.073   1.694
 2227SOL    HW2 7581   3.733   2.192   1.759
 2228SOL     OW 7582   5.599   5.079   6.667
 2228SOL    HW1 7583   5.632   5.094   6.760
 2228SOL    HW2 7584   5.668   5.111   6.602
 2229SOL     OW 7585   3.589   3.209   3.741
 2229SOL    HW1 7586   3.507   3.243   3.786
 2229SOL    HW2 7587   3.655   3.284   3.728
 2230SOL     OW 7588   5.623   0.278   0.663
 2230SOL    HW1 7589   5.551   0.308   0.600
 2230SOL    HW2 7590   5.597   0.190   0.703
 2231SOL     OW 7591   1.299   0.184   6.698
 2231SOL    HW1 7592   1.320   0.276   6.667
 2231SOL    HW2 7593   1.373   0.122   6.672
 2232SOL     OW 7594   1.036   0.723   5.484
 2232SOL    HW1 7595   0.971   0.795   5.460
 2232SOL    HW2 7596   1.103   0.713   5.410
 2233SOL     OW 7597   2.695   4.089   0.831
 2233SOL    HW1 7598   2.713   4.185   0.853
 2233SOL    HW2 7599   2.623   4.054   0.891
 2234SOL     OW 7600   4.970   1.435   1.471
 2234SOL    HW1 7601   4.965   1.498   1.394
 2234SOL    HW2 7602   4.987   1.486   1.555
 2235SOL     OW 7603   1.254   1.683   3.394
 2235SOL    HW1 7604   1.312   1.628   3.454
 2235SOL    HW2 7605   1.157   1.663   3.413
 2236SOL     OW 7606   2.026   4.184   5.209
 2236SOL    HW1 7607   1.957   4.167   5.279
 2236SOL    HW2 7608   1.988   4.165   5.119
 2237SOL     OW 7609   6.463   5.448   5.885
 2237SOL    HW1 7610   6.373   5.492   5.884
 2237SOL    HW2 7611   6.511   5.473   5.969
 2238SOL     OW 7612   5.479   4.385   2.092
 2238SOL    HW1 7613   5.510   4.306   2.039
 2238SOL    HW2 7614   5.517   4.380   2.185
 2239SOL     OW 7615   4.048   6.913   3.360
 2239SOL    HW1 7616   4.108   6.914   3.440
 2239SOL    HW2 7617   3.960   6.873   3.386
 2240SOL     OW 7618   5.043   4.997   3.341
 2240SOL    HW1 7619   5.098   4.975   3.261
 2240SOL    HW2 7620   4.946   4.999   3.315
 2241SOL     OW 7621   0.531   0.638   1.599
 2241SOL    HW1 7622   0.498   0.729   1.625
 2241SOL    HW2 7623   0.586   0.645   1.516
 2242SOL     OW 7624   4.851   3.088   3.122
 2242SOL    HW1 7625   4.756   3.114   3.134
 2242SOL    HW2 7626   4.911   3.164   3.147
 2243SOL     OW 7627   1.618   6.175   0.726
 2243SOL    HW1 7628   1.632   6.112   0.649
 2243SOL    HW2 7629   1.688   6.246   0.724
 2244SOL     OW 7630   2.756   0.620   0.588
 2244SOL    HW1 7631   2.790   0.533   0.554
 2244SOL    HW2 7632   2.674   0.646   0.538
 2245SOL     OW 7633   0.653   0.046   6.958
 2245SOL    HW1 7634   0.643   6.965   6.950
 2245SOL    HW2 7635   0.589   0.091   6.895
 2246SOL     OW 7636   2.475   0.981   4.866
 2246SOL    HW1 7637   2.562   0.943   4.835
 2246SOL    HW2 7638   2.471   0.980   4.966
 2247SOL     OW 7639   3.261   3.954   2.730
 2247SOL    HW1 7640   3.358   3.931   2.734
 2247SOL    HW2 7641   3.226   3.970   2.822
 2248SOL     OW 7642   4.705   4.150   4.732
 2248SOL    HW1 7643   4.695   4.164   4.830
 2248SOL    HW2 7644   4.626   4.190   4.685
 2249SOL     OW 7645   1.880   6.272   3.139
 2249SOL    HW1 7646   1.815   6.329   3.189
 2249SOL    HW2 7647   1.834   6.232   3.059
 2250SOL     OW 7648   4.424   4.741   6.421
 2250SOL    HW1 7649   4.467   4.828   6.397
 2250SOL    HW2 7650   4.495   4.670   6.427
 2251SOL     OW 7651   5.629   6.760   5.761
 2251SOL    HW1 7652   5.549   6.753   5.701
 2251SOL    HW2 7653   5.644   6.855   5.787
 2252SOL     OW 7654   4.468   1.566   2.898
 2252SOL    HW1 7655   4.529   1.598   2.970
 2252SOL    HW2 7656   4.511   1.490   2.848
 2253SOL     OW 7657   0.280   3.476   0.933
 2253SOL    HW1 7658   0.261   3.566   0.893
 2253SOL    HW2 7659   0.200   3.443   0.982
 2254SOL     OW 7660   3.594   3.548   2.558
 2254SOL    HW1 7661   3.520   3.492   2.594
 2254SOL    HW2 7662   3.588   3.640   2.596
 2255SOL     OW 7663   3.348   3.682   5.985
 2255SOL    HW1 7664   3.268   3.626   6.008
 2255SOL    HW2 7665   3.380   3.729   6.067
 2256SOL     OW 7666   4.745   0.027   2.338
 2256SOL    HW1 7667   4.808   0.105   2.335
 2256SOL    HW2 7668   4.695   0.029   2.425
 2257SOL     OW 7669   0.657   1.104   4.950
 2257SOL    HW1 7670   0.601   1.186   4.957
 2257SOL    HW2 7671   0.737   1.113   5.009
 2258SOL     OW 7672   2.689   6.000   3.846
 2258SOL    HW1 7673   2.692   6.020   3.748
 2258SOL    HW2 7674   2.702   5.902   3.861
 2259SOL     OW 7675   6.106   2.141   4.461
 2259SOL    HW1 7676   6.121   2.057   4.408
 2259SOL    HW2 7677   6.058   2.208   4.406
 2260SOL     OW 7678   1.170   3.687   1.442
 2260SOL    HW1 7679   1.094   3.743   1.475
 2260SOL    HW2 7680   1.256   3.731   1.464
 2261SOL     OW 7681   5.405   4.109   6.437
 2261SOL    HW1 7682   5.311   4.093   6.406
 2261SOL    HW2 7683   5.463   4.033   6.408
 2262SOL     OW 7684   6.555   0.197   4.342
 2262SOL    HW1 7685   6.604   0.201   4.429
 2262SOL    HW2 7686   6.463   0.160   4.357
 2263SOL     OW 7687   1.148   4.882   6.768
 2263SOL    HW1 7688   1.067   4.845   6.723
 2263SOL    HW2 7689   1.124   4.966   6.816
 2264SOL     OW 7690   2.276   0.174   5.481
 2264SOL    HW1 7691   2.201   0.136   5.535
 2264SOL    HW2 7692   2.361   0.165   5.533
 2265SOL     OW 7693   0.832   6.300   4.617
 2265SOL    HW1 7694   0.781   6.282   4.532
 2265SOL    HW2 7695   0.793   6.380   4.662
 2266SOL     OW 7696   4.555   1.534   6.738
 2266SOL    HW1 7697   4.481   1.579   6.688
 2266SOL    HW2 7698   4.520   1.449   6.779
 2267SOL     OW 7699   4.691   2.784   4.449
 2267SOL    HW1 7700   4.706   2.750   4.357
 2267SOL    HW2 7701   4.596   2.768   4.476
 2268SOL     OW 7702   0.154   5.065   5.859
 2268SOL    HW1 7703   0.095   5.057   5.779
 2268SOL    HW2 7704   0.134   5.151   5.907
 2269SOL     OW 7705   2.111   2.594   5.124
 2269SOL    HW1 7706   2.150   2.563   5.211
 2269SOL    HW2 7707   2.165   2.670   5.089
 2270SOL     OW 7708   4.604   1.829   6.096
 2270SOL    HW1 7709   4.594   1.849   5.998
 2270SOL    HW2 7710   4.693   1.861   6.128
 2271SOL     OW 7711   5.351   4.938   5.914
 2271SOL    HW1 7712   5.292   4.862   5.940
 2271SOL    HW2 7713   5.345   4.953   5.815
 2272SOL     OW 7714   5.684   1.154   5.945
 2272SOL    HW1 7715   5.647   1.243   5.918
 2272SOL    HW2 7716   5.714   1.104   5.864
 2273SOL     OW 7717   1.295   2.845   2.299
 2273SOL    HW1 7718   1.270   2.753   2.328
 2273SOL    HW2 7719   1.322   2.843   2.203
 2274SOL     OW 7720   0.446   1.334   6.586
 2274SOL    HW1 7721   0.541   1.363   6.575
 2274SOL    HW2 7722   0.435   1.240   6.555
 2275SOL     OW 7723   5.978   5.007   2.424
 2275SOL    HW1 7724   5.988   4.976   2.518
 2275SOL    HW2 7725   5.938   5.099   2.423
 2276SOL     OW 7726   1.109   2.036   1.025
 2276SOL    HW1 7727   1.110   2.090   1.109
 2276SOL    HW2 7728   1.119   1.939   1.047
 2277SOL     OW 7729   3.705   3.555   3.556
 2277SOL    HW1 7730   3.747   3.527   3.470
 2277SOL    HW2 7731   3.607   3.569   3.542
 2278SOL     OW 7732   0.546   1.908   3.913
 2278SOL    HW1 7733   0.639   1.936   3.934
 2278SOL    HW2 7734   0.545   1.854   3.828
 2279SOL     OW 7735   0.486   6.139   5.459
 2279SOL    HW1 7736   0.396   6.154   5.421
 2279SOL    HW2 7737   0.549   6.108   5.388
 2280SOL     OW 7738   4.823   1.549   5.252
 2280SOL    HW1 7739   4.731   1.590   5.249
 2280SOL    HW2 7740   4.875   1.578   5.172
 2281SOL     OW 7741   5.428   7.003   2.506
 2281SOL    HW1 7742   5.424   6.903   2.496
 2281SOL    HW2 7743   5.521   0.016   2.487
 2282SOL     OW 7744   4.295   5.781   5.592
 2282SOL    HW1 7745   4.354   5.862   5.595
 2282SOL    HW2 7746   4.203   5.805   5.622
 2283SOL     OW 7747   0.691   0.403   3.865
 2283SOL    HW1 7748   0.737   0.488   3.890
 2283SOL    HW2 7749   0.680   0.346   3.946
 2284SOL     OW 7750   1.417   3.195   6.778
 2284SOL    HW1 7751   1.490   3.244   6.825
 2284SOL    HW2 7752   1.398   3.240   6.691
 2285SOL     OW 7753   1.494   4.478   6.249
 2285SOL    HW1 7754   1.459   4.473   6.342
 2285SOL    HW2 7755   1.591   4.504   6.251
 2286SOL     OW 7756   4.901   6.100   4.197
 2286SOL    HW1 7757   4.806   6.115   4.170
 2286SOL    HW2 7758   4.907   6.093   4.296
 2287SOL     OW 7759   1.952   0.922   3.294
 2287SOL    HW1 7760   1.933   1.019   3.305
 2287SOL    HW2 7761   1.916   0.891   3.206
 2288SOL     OW 7762   0.113   6.490   3.072
 2288SOL    HW1 7763   0.164   6.437   3.140
 2288SOL    HW2 7764   0.153   6.581   3.064
 2289SOL     OW 7765   0.984   5.774   1.844
 2289SOL    HW1 7766   1.037   5.796   1.926
 2289SOL    HW2 7767   0.997   5.845   1.775
 2290SOL     OW 7768   0.897   5.327   0.609
 2290SOL    HW1 7769   0.866   5.246   0.659
 2290SOL    HW2 7770   0.989   5.310   0.573
 2291SOL     OW 7771   2.952   1.888   6.239
 2291SOL    HW1 7772   2.887   1.902   6.164
 2291SOL    HW2 7773   2.902   1.870   6.324
 2292SOL     OW 7774   1.360   1.043   4.535
 2292SOL    HW1 7775   1.425   1.092   4.476
 2292SOL    HW2 7776   1.397   0.953   4.557
 2293SOL     OW 7777   5.604   4.884   2.312
 2293SOL    HW1 7778   5.604   4.806   2.250
 2293SOL    HW2 7779   5.670   4.952   2.279
 2294SOL     OW 7780   4.278   6.402   6.808
 2294SOL    HW1 7781   4.335   6.420   6.888
 2294SOL    HW2 7782   4.192   6.359   6.837
 2295SOL     OW 7783   0.176   2.063   1.147
 2295SOL    HW1 7784   0.256   2.028   1.097
 2295SOL    HW2 7785   0.101   2.078   1.082
 2296SOL     OW 7786   3.331   6.686   0.065
 2296SOL    HW1 7787   3.390   6.766   0.060
 2296SOL    HW2 7788   3.269   6.686   7.004
 2297SOL     OW 7789   4.392   5.215   5.705
 2297SOL    HW1 7790   4.444   5.295   5.734
 2297SOL    HW2 7791   4.434   5.132   5.743
 2298SOL     OW 7792   4.010   3.076   0.846
 2298SOL    HW1 7793   3.937   3.010   0.865
 2298SOL    HW2 7794   4.091   3.028   0.814
 2299SOL     OW 7795   4.914   5.729   6.933
 2299SOL    HW1 7796   4.979   5.707   7.006
 2299SOL    HW2 7797   4.909   5.652   6.869
 2300SOL     OW 7798   1.998   5.152   1.048
 2300SOL    HW1 7799   2.048   5.238   1.054
 2300SOL    HW2 7800   1.937   5.153   0.969
 2301SOL     OW 7801   3.903   3.278   2.744
 2301SOL    HW1 7802   3.846   3.359   2.734
 2301SOL    HW2 7803   3.904   3.227   2.658
 2302SOL     OW 7804   3.204   5.752   2.574
 2302SOL    HW1 7805   3.161   5.779   2.661
 2302SOL    HW2 7806   3.303   5.748   2.586
 2303SOL     OW 7807   1.453   2.459   4.486
 2303SOL    HW1 7808   1.387   2.479   4.413
 2303SOL    HW2 7809   1.544   2.448   4.446
 2304SOL     OW 7810   1.899   1.014   3.984
 2304SOL    HW1 7811   1.911   0.971   4.074
 2304SOL    HW2 7812   1.924   0.949   3.912
 2305SOL     OW 7813   3.082   5.415   2.235
 2305SOL    HW1 7814   3.109   5.484   2.169
 2305SOL    HW2 7815   3.102   5.448   2.328
 2306SOL     OW 7816   1.420   4.047   1.072
 2306SOL    HW1 7817   1.400   3.998   1.156
 2306SOL    HW2 7818   1.515   4.079   1.073
 2307SOL     OW 7819   0.504   2.531   2.907
 2307SOL    HW1 7820   0.513   2.513   2.809
 2307SOL    HW2 7821   0.430   2.474   2.944
 2308SOL     OW 7822   0.262   6.966   0.098
 2308SOL    HW1 7823   0.327   0.019   0.124
 2308SOL    HW2 7824   0.256   6.961   7.017
 2309SOL     OW 7825   3.583   5.407   6.376
 2309SOL    HW1 7826   3.516   5.418   6.449
 2309SOL    HW2 7827   3.656   5.346   6.406
 2310SOL     OW 7828   5.562   1.161   1.979
 2310SOL    HW1 7829   5.507   1.160   1.895
 2310SOL    HW2 7830   5.510   1.119   2.053
 2311SOL     OW 7831   2.808   0.259   3.089
 2311SOL    HW1 7832   2.844   0.167   3.102
 2311SOL    HW2 7833   2.876   0.315   3.041
 2312SOL     OW 7834   4.064   0.694   3.329
 2312SOL    HW1 7835   4.125   0.752   3.275
 2312SOL    HW2 7836   4.085   0.705   3.426
 2313SOL     OW 7837   5.060   3.915   2.162
 2313SOL    HW1 7838   5.155   3.911   2.131
 2313SOL    HW2 7839   5.004   3.854   2.106
 2314SOL     OW 7840   5.950   0.397   3.253
 2314SOL    HW1 7841   5.977   0.345   3.334
 2314SOL    HW2 7842   5.970   0.343   3.171
 2315SOL     OW 7843   4.261   4.598   5.736
 2315SOL    HW1 7844   4.274   4.499   5.740
 2315SOL    HW2 7845   4.344   4.644   5.766
 2316SOL     OW 7846   2.945   1.141   6.017
 2316SOL    HW1 7847   2.896   1.186   6.091
 2316SOL    HW2 7848   2.889   1.141   5.934
 2317SOL     OW 7849   5.997   6.037   3.846
 2317SOL    HW1 7850   5.980   6.124   3.800
 2317SOL    HW2 7851   5.926   6.021   3.915
 2318SOL     OW 7852   1.936   4.686   5.058
 2318SOL    HW1 7853   2.023   4.671   5.104
 2318SOL    HW2 7854   1.952   4.704   4.961
 2319SOL     OW 7855   2.413   5.070   4.459
 2319SOL    HW1 7856   2.407   5.043   4.363
 2319SOL    HW2 7857   2.504   5.108   4.478
 2320SOL     OW 7858   1.107   3.407   5.072
 2320SOL    HW1 7859   1.157   3.366   4.996
 2320SOL    HW2 7860   1.162   3.403   5.155
 2321SOL     OW 7861   2.923   5.115   6.321
 2321SOL    HW1 7862   2.848   5.056   6.288
 2321SOL    HW2 7863   2.891   5.166   6.400
 2322SOL     OW 7864   2.101   3.545   2.437
 2322SOL    HW1 7865   2.111   3.550   2.536
 2322SOL    HW2 7866   2.109   3.450   2.407
 2323SOL     OW 7867   2.497   4.940   1.557
 2323SOL    HW1 7868   2.479   5.038   1.573
 2323SOL    HW2 7869   2.583   4.915   1.601
 2324SOL     OW 7870   0.772   5.271   2.030
 2324SOL    HW1 7871   0.790   5.350   2.089
 2324SOL    HW2 7872   0.716   5.204   2.079
 2325SOL     OW 7873   6.905   5.262   1.880
 2325SOL    HW1 7874   6.953   5.176   1.863
 2325SOL    HW2 7875   6.807   5.249   1.866
 2326SOL     OW 7876   1.130   0.175   6.446
 2326SOL    HW1 7877   1.194   0.145   6.518
 2326SOL    HW2 7878   1.134   0.110   6.370
 2327SOL     OW 7879   6.758   0.405   2.347
 2327SOL    HW1 7880   6.849   0.363   2.338
 2327SOL    HW2 7881   6.713   0.370   2.429
 2328SOL     OW 7882   1.552   2.082   2.353
 2328SOL    HW1 7883   1.458   2.099   2.384
 2328SOL    HW2 7884   1.561   2.113   2.258
 2329SOL     OW 7885   1.004   5.027   3.948
 2329SOL    HW1 7886   1.086   5.056   3.898
 2329SOL    HW2 7887   0.923   5.051   3.894
 2330SOL     OW 7888   6.675   3.277   0.324
 2330SOL    HW1 7889   6.679   3.353   0.388
 2330SOL    HW2 7890   6.597   3.219   0.345
 2331SOL     OW 7891   3.449   5.931   0.459
 2331SOL    HW1 7892   3.403   5.887   0.382
 2331SOL    HW2 7893   3.519   5.870   0.495
 2332SOL     OW 7894   5.282   0.097   6.520
 2332SOL    HW1 7895   5.271   7.017   6.504
 2332SOL    HW2 7896   5.352   0.133   6.458
 2333SOL     OW 7897   0.123   5.006   2.730
 2333SOL    HW1 7898   0.175   5.091   2.735
 2333SOL    HW2 7899   0.071   5.004   2.644
 2334SOL     OW 7900   2.806   1.203   5.775
 2334SOL    HW1 7901   2.761   1.155   5.700
 2334SOL    HW2 7902   2.844   1.289   5.742
 2335SOL     OW 7903   6.064   2.005   3.748
 2335SOL    HW1 7904   6.064   1.942   3.825
 2335SOL    HW2 7905   6.158   2.030   3.725
 2336SOL     OW 7906   2.064   1.739   3.167
 2336SOL    HW1 7907   2.131   1.765   3.097
 2336SOL    HW2 7908   2.112   1.718   3.252
 2337SOL     OW 7909   4.127   2.207   1.375
 2337SOL    HW1 7910   4.209   2.183   1.429
 2337SOL    HW2 7911   4.123   2.307   1.366
 2338SOL     OW 7912   0.425   3.688   4.083
 2338SOL    HW1 7913   0.374   3.707   4.167
 2338SOL    HW2 7914   0.408   3.761   4.017
 2339SOL     OW 7915   2.912   3.425   2.742
 2339SOL    HW1 7916   2.950   3.336   2.719
 2339SOL    HW2 7917   2.967   3.497   2.700
 2340SOL     OW 7918   0.835   5.100   6.644
 2340SOL    HW1 7919   0.848   5.000   6.644
 2340SOL    HW2 7920   0.859   5.137   6.555
 2341SOL     OW 7921   2.302   4.459   3.110
 2341SOL    HW1 7922   2.355   4.426   3.032
 2341SOL    HW2 7923   2.275   4.382   3.167
 2342SOL     OW 7924   3.133   6.818   4.334
 2342SOL    HW1 7925   3.134   6.777   4.243
 2342SOL    HW2 7926   3.226   6.820   4.371
 2343SOL     OW 7927   1.991   6.222   2.776
 2343SOL    HW1 7928   1.892   6.211   2.767
 2343SOL    HW2 7929   2.012   6.250   2.870
 2344SOL     OW 7930   6.437   4.879   0.898
 2344SOL    HW1 7931   6.525   4.853   0.937
 2344SOL    HW2 7932   6.385   4.932   0.965
 2345SOL     OW 7933   2.856   5.717   4.575
 2345SOL    HW1 7934   2.791   5.718   4.499
 2345SOL    HW2 7935   2.942   5.675   4.545
 2346SOL     OW 7936   4.002   3.568   5.961
 2346SOL    HW1 7937   4.100   3.550   5.955
 2346SOL    HW2 7938   3.951   3.495   5.914
 2347SOL     OW 7939   1.089   1.707   1.740
 2347SOL    HW1 7940   1.011   1.751   1.694
 2347SOL    HW2 7941   1.140   1.652   1.674
 2348SOL     OW 7942   1.431   6.269   3.102
 2348SOL    HW1 7943   1.398   6.223   3.020
 2348SOL    HW2 7944   1.525   6.241   3.121
 2349SOL     OW 7945   0.859   3.938   6.332
 2349SOL    HW1 7946   0.935   4.002   6.341
 2349SOL    HW2 7947   0.804   3.964   6.252
 2350SOL     OW 7948   6.023   4.126   5.568
 2350SOL    HW1 7949   6.078   4.082   5.497
 2350SOL    HW2 7950   5.981   4.209   5.531
 2351SOL     OW 7951   2.863   4.734   2.795
 2351SOL    HW1 7952   2.830   4.640   2.790
 2351SOL    HW2 7953   2.894   4.754   2.888
 2352SOL     OW 7954   0.109   3.068   3.349
 2352SOL    HW1 7955   0.114   2.992   3.414
 2352SOL    HW2 7956   0.093   3.153   3.398
 2353SOL     OW 7957   4.202   5.164   5.512
 2353SOL    HW1 7958   4.249   5.219   5.443
 2353SOL    HW2 7959   4.242   5.182   5.602
 2354SOL     OW 7960   3.075   2.213   4.539
 2354SOL    HW1 7961   2.998   2.275   4.530
 2354SOL    HW2 7962   3.097   2.200   4.636
 2355SOL     OW 7963   2.414   6.248   4.620
 2355SOL    HW1 7964   2.506   6.282   4.601
 2355SOL    HW2 7965   2.347   6.321   4.606
 2356SOL     OW 7966   0.949   3.063   6.862
 2356SOL    HW1 7967   0.988   2.975   6.832
 2356SOL    HW2 7968   0.900   3.050   6.948
 2357SOL     OW 7969   3.139   1.140   2.101
 2357SOL    HW1 7970   3.221   1.196   2.088
 2357SOL    HW2 7971   3.068   1.195   2.146
 2358SOL     OW 7972   2.944   4.516   6.247
 2358SOL    HW1 7973   2.924   4.586   6.179
 2358SOL    HW2 7974   2.942   4.556   6.338
 2359SOL     OW 7975   1.378   6.879   5.365
 2359SOL    HW1 7976   1.283   6.868   5.393
 2359SOL    HW2 7977   1.407   6.974   5.381
 2360SOL     OW 7978   6.242   3.848   0.999
 2360SOL    HW1 7979   6.253   3.810   1.090
 2360SOL    HW2 7980   6.262   3.778   0.930
 2361SOL     OW 7981   2.809   1.333   6.183
 2361SOL    HW1 7982   2.825   1.399   6.257
 2361SOL    HW2 7983   2.711   1.314   6.176
 2362SOL     OW 7984   3.399   5.107   3.405
 2362SOL    HW1 7985   3.444   5.052   3.335
 2362SOL    HW2 7986   3.330   5.051   3.452
 2363SOL     OW 7987   4.160   1.879   3.327
 2363SOL    HW1 7988   4.084   1.888   3.263
 2363SOL    HW2 7989   4.128   1.899   3.419
 2364SOL     OW 7990   1.080   2.575   1.422
 2364SOL    HW1 7991   1.118   2.495   1.469
 2364SOL    HW2 7992   1.084   2.655   1.482
 2365SOL     OW 7993   5.879   2.480   0.087
 2365SOL    HW1 7994   5.819   2.432   0.151
 2365SOL    HW2 7995   5.940   2.541   0.137
 2366SOL     OW 7996   3.875   5.315   0.788
 2366SOL    HW1 7997   3.818   5.336   0.868
 2366SOL    HW2 7998   3.903   5.220   0.791
 2367SOL     OW 7999   2.032   2.991   0.540
 2367SOL    HW1 8000   2.097   3.019   0.611
 2367SOL    HW2 8001   1.984   3.072   0.506
 2368SOL     OW 8002   5.874   0.107   4.051
 2368SOL    HW1 8003   5.833   0.196   4.071
 2368SOL    HW2 8004   5.942   0.085   4.122
 2369SOL     OW 8005   1.927   0.211   3.554
 2369SOL    HW1 8006   2.003   0.200   3.490
 2369SOL    HW2 8007   1.950   0.279   3.623
 2370SOL     OW 8008   5.986   2.663   6.687
 2370SOL    HW1 8009   5.958   2.664   6.783
 2370SOL    HW2 8010   6.024   2.752   6.663
 2371SOL     OW 8011   2.195   6.968   1.537
 2371SOL    HW1 8012   2.105   6.994   1.572
 2371SOL    HW2 8013   2.265   6.985   1.607
 2372SOL     OW 8014   0.012   2.693   2.187
 2372SOL    HW1 8015   0.045   2.784   2.210
 2372SOL    HW2 8016   6.987   2.694   2.097
 2373SOL     OW 8017   2.001   3.807   5.758
 2373SOL    HW1 8018   2.019   3.791   5.661
 2373SOL    HW2 8019   1.917   3.760   5.785
 2374SOL     OW 8020   6.539   1.899   5.057
 2374SOL    HW1 8021   6.521   1.811   5.014
 2374SOL    HW2 8022   6.504   1.973   4.999
 2375SOL     OW 8023   3.447   5.458   5.484
 2375SOL    HW1 8024   3.413   5.526   5.418
 2375SOL    HW2 8025   3.546   5.448   5.472
 2376SOL     OW 8026   6.251   3.579   3.621
 2376SOL    HW1 8027   6.228   3.607   3.714
 2376SOL    HW2 8028   6.219   3.486   3.605
 2377SOL     OW 8029   3.341   3.635   4.006
 2377SOL    HW1 8030   3.273   3.567   4.034
 2377SOL    HW2 8031   3.354   3.701   4.080
 2378SOL     OW 8032   5.029   2.019   0.109
 2378SOL    HW1 8033   5.046   1.950   0.039
 2378SOL    HW2 8034   4.940   2.062   0.094
 2379SOL     OW 8035   6.541   0.977   0.660
 2379SOL    HW1 8036   6.569   0.890   0.619
 2379SOL    HW2 8037   6.573   0.981   0.754
 2380SOL     OW 8038   6.841   2.815   0.670
 2380SOL    HW1 8039   6.756   2.865   0.686
 2380SOL    HW2 8040   6.824   2.717   0.678
 2381SOL     OW 8041   1.881   5.574   3.041
 2381SOL    HW1 8042   1.919   5.591   3.132
 2381SOL    HW2 8043   1.954   5.541   2.981
 2382SOL     OW 8044   1.742   3.491   4.503
 2382SOL    HW1 8045   1.763   3.587   4.482
 2382SOL    HW2 8046   1.708   3.485   4.597
 2383SOL     OW 8047   6.834   6.488   0.809
 2383SOL    HW1 8048   6.853   6.580   0.841
 2383SOL    HW2 8049   6.775   6.492   0.728
 2384SOL     OW 8050   4.809   1.889   2.041
 2384SOL    HW1 8051   4.881   1.936   2.092
 2384SOL    HW2 8052   4.727   1.946   2.038
 2385SOL     OW 8053   0.126   0.729   6.794
 2385SOL    HW1 8054   0.057   0.770   6.853
 2385SOL    HW2 8055   0.216   0.737   6.837
 2386SOL     OW 8056   5.033   6.067   5.432
 2386SOL    HW1 8057   5.055   6.064   5.530
 2386SOL    HW2 8058   4.940   6.100   5.419
 2387SOL     OW 8059   1.519   0.804   3.901
 2387SOL    HW1 8060   1.481   0.895   3.916
 2387SOL    HW2 8061   1.509   0.779   3.805
 2388SOL     OW 8062   6.735   3.152   3.755
 2388SOL    HW1 8063   6.732   3.092   3.836
 2388SOL    HW2 8064   6.732   3.095   3.673
 2389SOL     OW 8065   4.479   4.613   3.540
 2389SOL    HW1 8066   4.537   4.549   3.590
 2389SOL    HW2 8067   4.534   4.666   3.476
 2390SOL     OW 8068   3.948   3.761   2.789
 2390SOL    HW1 8069   3.909   3.836   2.736
 2390SOL    HW2 8070   3.977   3.795   2.878
 2391SOL     OW 8071   4.778   4.751   6.282
 2391SOL    HW1 8072   4.721   4.706   6.351
 2391SOL    HW2 8073   4.807   4.683   6.214
 2392SOL     OW 8074   2.574   6.933   6.401
 2392SOL    HW1 8075   2.583   6.860   6.469
 2392SOL    HW2 8076   2.496   6.991   6.425
 2393SOL     OW 8077   4.620   4.561   6.441
 2393SOL    HW1 8078   4.632   4.470   6.401
 2393SOL    HW2 8079   4.654   4.561   6.535
 2394SOL     OW 8080   6.965   4.354   5.039
 2394SOL    HW1 8081   0.035   4.396   5.059
 2394SOL    HW2 8082   6.925   4.318   5.124
 2395SOL     OW 8083   4.464   6.333   5.775
 2395SOL    HW1 8084   4.531   6.352   5.847
 2395SOL    HW2 8085   4.475   6.239   5.744
 2396SOL     OW 8086   4.054   5.438   1.107
 2396SOL    HW1 8087   4.087   5.472   1.195
 2396SOL    HW2 8088   3.981   5.497   1.073
 2397SOL     OW 8089   0.557   4.164   4.354
 2397SOL    HW1 8090   0.648   4.174   4.393
 2397SOL    HW2 8091   0.548   4.073   4.313
 2398SOL     OW 8092   5.143   4.562   6.362
 2398SOL    HW1 8093   5.183   4.565   6.270
 2398SOL    HW2 8094   5.216   4.566   6.430
 2399SOL     OW 8095   4.560   1.319   1.314
 2399SOL    HW1 8096   4.541   1.222   1.334
 2399SOL    HW2 8097   4.608   1.360   1.391
 2400SOL     OW 8098   2.628   4.345   0.344
 2400SOL    HW1 8099   2.658   4.262   0.393
 2400SOL    HW2 8100   2.704   4.410   0.341
 2401SOL     OW 8101   5.969   6.207   5.989
 2401SOL    HW1 8102   6.049   6.163   5.948
 2401SOL    HW2 8103   5.924   6.142   6.051
 2402SOL     OW 8104   0.799   6.851   4.130
 2402SOL    HW1 8105   0.734   6.783   4.167
 2402SOL    HW2 8106   0.866   6.805   4.072
 2403SOL     OW 8107   1.038   2.816   5.271
 2403SOL    HW1 8108   1.063   2.788   5.179
 2403SOL    HW2 8109   0.967   2.886   5.267
 2404SOL     OW 8110   2.252   0.817   1.167
 2404SOL    HW1 8111   2.249   0.912   1.197
 2404SOL    HW2 8112   2.329   0.770   1.212
 2405SOL     OW 8113   3.396   4.135   2.569
 2405SOL    HW1 8114   3.345   4.210   2.526
 2405SOL    HW2 8115   3.332   4.070   2.609
 2406SOL     OW 8116   4.143   1.605   0.922
 2406SOL    HW1 8117   4.155   1.579   1.018
 2406SOL    HW2 8118   4.062   1.560   0.885
 2407SOL     OW 8119   5.259   1.466   3.721
 2407SOL    HW1 8120   5.313   1.403   3.665
 2407SOL    HW2 8121   5.181   1.416   3.760
 2408SOL     OW 8122   4.704   4.481   2.098
 2408SOL    HW1 8123   4.785   4.435   2.061
 2408SOL    HW2 8124   4.623   4.427   2.076
 2409SOL     OW 8125   2.047   3.525   1.098
 2409SOL    HW1 8126   1.969   3.564   1.049
 2409SOL    HW2 8127   2.055   3.570   1.188
 2410SOL     OW 8128   3.116   3.139   3.674
 2410SOL    HW1 8129   3.160   3.176   3.592
 2410SOL    HW2 8130   3.034   3.088   3.648
 2411SOL     OW 8131   5.225   6.492   4.912
 2411SOL    HW1 8132   5.189   6.508   4.819
 2411SOL    HW2 8133   5.254   6.397   4.920
 2412SOL     OW 8134   5.105   4.057   1.111
 2412SOL    HW1 8135   5.055   3.994   1.053
 2412SOL    HW2 8136   5.043   4.098   1.179
 2413SOL     OW 8137   5.168   0.385   1.877
 2413SOL    HW1 8138   5.147   0.367   1.781
 2413SOL    HW2 8139   5.253   0.437   1.884
 2414SOL     OW 8140   4.913   3.450   3.854
 2414SOL    HW1 8141   4.931   3.421   3.948
 2414SOL    HW2 8142   4.844   3.522   3.853
 2415SOL     OW 8143   5.510   1.249   3.040
 2415SOL    HW1 8144   5.439   1.229   2.973
 2415SOL    HW2 8145   5.479   1.321   3.101
 2416SOL     OW 8146   5.119   1.786   6.453
 2416SOL    HW1 8147   5.036   1.752   6.410
 2416SOL    HW2 8148   5.139   1.733   6.535
 2417SOL     OW 8149   3.099   3.045   4.898
 2417SOL    HW1 8150   3.179   3.030   4.957
 2417SOL    HW2 8151   3.016   3.027   4.950
 2418SOL     OW 8152   3.264   3.262   3.465
 2418SOL    HW1 8153   3.236   3.259   3.369
 2418SOL    HW2 8154   3.264   3.357   3.497
 2419SOL     OW 8155   0.359   0.009   3.094
 2419SOL    HW1 8156   0.282   0.066   3.123
 2419SOL    HW2 8157   0.400   0.047   3.011
 2420SOL     OW 8158   2.649   7.015   1.555
 2420SOL    HW1 8159   2.713   0.069   1.583
 2420SOL    HW2 8160   2.696   6.927   1.554
 2421SOL     OW 8161   2.093   2.519   4.877
 2421SOL    HW1 8162   2.012   2.460   4.868
 2421SOL    HW2 8163   2.096   2.556   4.970
 2422SOL     OW 8164   5.084   2.228   1.183
 2422SOL    HW1 8165   5.006   2.179   1.221
 2422SOL    HW2 8166   5.053   2.314   1.143
 2423SOL     OW 8167   2.336   5.538   2.422
 2423SOL    HW1 8168   2.388   5.455   2.399
 2423SOL    HW2 8169   2.361   5.612   2.360
 2424SOL     OW 8170   6.015   1.140   0.434
 2424SOL    HW1 8171   6.060   1.071   0.378
 2424SOL    HW2 8172   6.019   1.228   0.386
 2425SOL     OW 8173   6.182   6.801   3.691
 2425SOL    HW1 8174   6.227   6.781   3.778
 2425SOL    HW2 8175   6.126   6.883   3.700
 2426SOL     OW 8176   2.390   4.382   4.272
 2426SOL    HW1 8177   2.437   4.458   4.318
 2426SOL    HW2 8178   2.426   4.371   4.180
 2427SOL     OW 8179   6.158   6.246   5.148
 2427SOL    HW1 8180   6.147   6.316   5.077
 2427SOL    HW2 8181   6.134   6.284   5.237
 2428SOL     OW 8182   0.539   0.843   0.873
 2428SOL    HW1 8183   0.609   0.795   0.926
 2428SOL    HW2 8184   0.449   0.808   0.897
 2429SOL     OW 8185   4.771   5.864   2.175
 2429SOL    HW1 8186   4.710   5.889   2.100
 2429SOL    HW2 8187   4.863   5.900   2.156
 2430SOL     OW 8188   6.195   0.647   2.870
 2430SOL    HW1 8189   6.242   0.726   2.910
 2430SOL    HW2 8190   6.108   0.676   2.831
 2431SOL     OW 8191   4.234   0.810   1.926
 2431SOL    HW1 8192   4.175   0.733   1.901
 2431SOL    HW2 8193   4.330   0.782   1.918
 2432SOL     OW 8194   3.600   6.279   2.375
 2432SOL    HW1 8195   3.632   6.371   2.353
 2432SOL    HW2 8196   3.603   6.222   2.293
 2433SOL     OW 8197   4.033   0.398   6.858
 2433SOL    HW1 8198   4.018   0.327   6.927
 2433SOL    HW2 8199   4.131   0.418   6.851
 2434SOL     OW 8200   3.825   1.856   5.973
 2434SOL    HW1 8201   3.761   1.915   6.023
 2434SOL    HW2 8202   3.781   1.821   5.891
 2435SOL     OW 8203   6.072   5.477   4.868
 2435SOL    HW1 8204   6.037   5.471   4.962
 2435SOL    HW2 8205   6.009   5.530   4.812
 2436SOL     OW 8206   3.189   5.624   0.407
 2436SOL    HW1 8207   3.250   5.692   0.368
 2436SOL    HW2 8208   3.098   5.634   0.367
 2437SOL     OW 8209   6.726   6.595   5.882
 2437SOL    HW1 8210   6.688   6.632   5.967
 2437SOL    HW2 8211   6.653   6.585   5.815
 2438SOL     OW 8212   2.702   2.303   0.782
 2438SOL    HW1 8213   2.616   2.280   0.827
 2438SOL    HW2 8214   2.741   2.221   0.741
 2439SOL     OW 8215   6.041   4.210   5.172
 2439SOL    HW1 8216   6.043   4.123   5.222
 2439SOL    HW2 8217   6.097   4.202   5.089
 2440SOL     OW 8218   5.885   4.838   6.329
 2440SOL    HW1 8219   5.917   4.826   6.235
 2440SOL    HW2 8220   5.791   4.805   6.337
 2441SOL     OW 8221   5.977   2.415   1.023
 2441SOL    HW1 8222   6.035   2.496   1.022
 2441SOL    HW2 8223   6.033   2.333   1.036
 2442SOL     OW 8224   6.836   3.898   4.800
 2442SOL    HW1 8225   6.775   3.936   4.869
 2442SOL    HW2 8226   6.843   3.799   4.812
 2443SOL     OW 8227   2.837   4.720   6.042
 2443SOL    HW1 8228   2.885   4.756   5.962
 2443SOL    HW2 8229   2.762   4.662   6.012
 2444SOL     OW 8230   2.622   3.603   5.778
 2444SOL    HW1 8231   2.635   3.597   5.877
 2444SOL    HW2 8232   2.703   3.567   5.732
 2445SOL     OW 8233   0.717   0.701   1.013
 2445SOL    HW1 8234   0.799   0.654   0.980
 2445SOL    HW2 8235   0.741   0.766   1.085
 2446SOL     OW 8236   6.550   4.184   6.194
 2446SOL    HW1 8237   6.544   4.121   6.116
 2446SOL    HW2 8238   6.626   4.247   6.180
 2447SOL     OW 8239   0.453   2.053   6.512
 2447SOL    HW1 8240   0.477   2.074   6.418
 2447SOL    HW2 8241   0.473   1.957   6.531
 2448SOL     OW 8242   1.158   0.037   4.446
 2448SOL    HW1 8243   1.146   6.983   4.378
 2448SOL    HW2 8244   1.242   0.088   4.426
 2449SOL     OW 8245   0.325   2.792   5.624
 2449SOL    HW1 8246   0.299   2.697   5.642
 2449SOL    HW2 8247   0.299   2.849   5.703
 2450SOL     OW 8248   2.085   3.263   2.834
 2450SOL    HW1 8249   2.002   3.207   2.829
 2450SOL    HW2 8250   2.086   3.315   2.919
 2451SOL     OW 8251   2.502   6.506   4.036
 2451SOL    HW1 8252   2.493   6.433   3.968
 2451SOL    HW2 8253   2.416   6.515   4.087
 2452SOL     OW 8254   1.176   2.168   4.355
 2452SOL    HW1 8255   1.128   2.111   4.287
 2452SOL    HW2 8256   1.271   2.179   4.328
 2453SOL     OW 8257   0.565   3.941   1.488
 2453SOL    HW1 8258   0.586   3.910   1.580
 2453SOL    HW2 8259   0.600   3.876   1.421
 2454SOL     OW 8260   2.347   0.862   2.239
 2454SOL    HW1 8261   2.268   0.819   2.195
 2454SOL    HW2 8262   2.317   0.942   2.291
 2455SOL     OW 8263   5.510   5.444   0.419
 2455SOL    HW1 8264   5.467   5.354   0.421
 2455SOL    HW2 8265   5.608   5.434   0.404
 2456SOL     OW 8266   3.646   6.548   1.152
 2456SOL    HW1 8267   3.579   6.611   1.193
 2456SOL    HW2 8268   3.732   6.554   1.202
 2457SOL     OW 8269   5.827   6.467   1.279
 2457SOL    HW1 8270   5.852   6.401   1.350
 2457SOL    HW2 8271   5.844   6.428   1.189
 2458SOL     OW 8272   0.528   5.820   3.603
 2458SOL    HW1 8273   0.595   5.894   3.614
 2458SOL    HW2 8274   0.477   5.809   3.688
 2459SOL     OW 8275   1.629   0.760   0.627
 2459SOL    HW1 8276   1.661   0.800   0.713
 2459SOL    HW2 8277   1.616   0.661   0.639
 2460SOL     OW 8278   3.306   5.230   1.334
 2460SOL    HW1 8279   3.317   5.149   1.392
 2460SOL    HW2 8280   3.255   5.300   1.385
 2461SOL     OW 8281   5.791   1.420   3.250
 2461SOL    HW1 8282   5.694   1.398   3.238
 2461SOL    HW2 8283   5.822   1.388   3.339
 2462SOL     OW 8284   2.090   4.278   6.386
 2462SOL    HW1 8285   2.114   4.181   6.384
 2462SOL    HW2 8286   2.151   4.325   6.449
 2463SOL     OW 8287   0.011   1.535   4.067
 2463SOL    HW1 8288   6.949   1.534   4.007
 2463SOL    HW2 8289   0.091   1.564   4.014
 2464SOL     OW 8290   1.151   3.358   1.314
 2464SOL    HW1 8291   1.068   3.302   1.318
 2464SOL    HW2 8292   1.226   3.309   1.358
 2465SOL     OW 8293   6.097   5.465   3.312
 2465SOL    HW1 8294   6.092   5.424   3.403
 2465SOL    HW2 8295   6.166   5.537   3.312
 2466SOL     OW 8296   3.500   1.328   2.027
 2466SOL    HW1 8297   3.476   1.401   1.964
 2466SOL    HW2 8298   3.442   1.333   2.108
 2467SOL     OW 8299   6.550   1.230   5.439
 2467SOL    HW1 8300   6.507   1.151   5.395
 2467SOL    HW2 8301   6.479   1.289   5.478
 2468SOL     OW 8302   6.981   3.913   0.427
 2468SOL    HW1 8303   6.956   3.976   0.354
 2468SOL    HW2 8304   0.045   3.862   0.402
 2469SOL     OW 8305   2.667   3.202   5.510
 2469SOL    HW1 8306   2.709   3.128   5.458
 2469SOL    HW2 8307   2.729   3.231   5.583
 2470SOL     OW 8308   5.438   3.000   0.326
 2470SOL    HW1 8309   5.415   3.097   0.326
 2470SOL    HW2 8310   5.484   2.976   0.241
 2471SOL     OW 8311   0.562   0.382   3.613
 2471SOL    HW1 8312   0.478   0.331   3.598
 2471SOL    HW2 8313   0.583   0.383   3.711
 2472SOL     OW 8314   5.523   1.478   3.489
 2472SOL    HW1 8315   5.564   1.537   3.559
 2472SOL    HW2 8316   5.554   1.384   3.503
 2473SOL     OW 8317   0.386   6.988   5.235
 2473SOL    HW1 8318   0.433   6.907   5.199
 2473SOL    HW2 8319   0.425   7.013   5.323
 2474SOL     OW 8320   5.512   5.613   4.784
 2474SOL    HW1 8321   5.545   5.559   4.861
 2474SOL    HW2 8322   5.422   5.652   4.805
 2475SOL     OW 8323   4.410   2.232   6.586
 2475SOL    HW1 8324   4.422   2.254   6.682
 2475SOL    HW2 8325   4.315   2.204   6.569
 2476SOL     OW 8326   0.268   1.927   3.576
 2476SOL    HW1 8327   0.192   1.862   3.577
 2476SOL    HW2 8328   0.346   1.889   3.626
 2477SOL     OW 8329   4.373   5.075   2.145
 2477SOL    HW1 8330   4.373   5.034   2.055
 2477SOL    HW2 8331   4.465   5.106   2.168
 2478SOL     OW 8332   6.403   6.878   3.139
 2478SOL    HW1 8333   6.310   6.903   3.112
 2478SOL    HW2 8334   6.466   6.894   3.063
 2479SOL     OW 8335   0.813   3.169   0.242
 2479SOL    HW1 8336   0.849   3.173   0.335
 2479SOL    HW2 8337   0.784   3.261   0.214
 2480SOL     OW 8338   1.072   4.285   1.920
 2480SOL    HW1 8339   1.026   4.374   1.911
 2480SOL    HW2 8340   1.169   4.300   1.938
 2481SOL     OW 8341   4.150   5.352   2.707
 2481SOL    HW1 8342   4.054   5.372   2.730
 2481SOL    HW2 8343   4.192   5.433   2.666
 2482SOL     OW 8344   5.043   2.430   4.122
 2482SOL    HW1 8345   4.950   2.399   4.144
 2482SOL    HW2 8346   5.069   2.397   4.031
 2483SOL     OW 8347   0.751   2.471   6.859
 2483SOL    HW1 8348   0.732   2.497   6.953
 2483SOL    HW2 8349   0.691   2.396   6.833
 2484SOL     OW 8350   3.129   2.466   6.291
 2484SOL    HW1 8351   3.068   2.434   6.218
 2484SOL    HW2 8352   3.223   2.470   6.256
 2485SOL     OW 8353   1.134   6.051   1.185
 2485SOL    HW1 8354   1.121   6.117   1.111
 2485SOL    HW2 8355   1.074   5.972   1.170
 2486SOL     OW 8356   0.841   5.141   3.037
 2486SOL    HW1 8357   0.752   5.182   3.055
 2486SOL    HW2 8358   0.852   5.059   3.093
 2487SOL     OW 8359   3.050   0.992   1.235
 2487SOL    HW1 8360   3.064   0.966   1.139
 2487SOL    HW2 8361   3.053   0.910   1.293
 2488SOL     OW 8362   3.409   6.215   6.218
 2488SOL    HW1 8363   3.488   6.158   6.195
 2488SOL    HW2 8364   3.397   6.216   6.317
 2489SOL     OW 8365   6.650   5.802   4.476
 2489SOL    HW1 8366   6.738   5.826   4.435
 2489SOL    HW2 8367   6.597   5.747   4.412
 2490SOL     OW 8368   5.594   3.424   1.389
 2490SOL    HW1 8369   5.600   3.498   1.322
 2490SOL    HW2 8370   5.500   3.389   1.391
 2491SOL     OW 8371   0.419   4.532   2.830
 2491SOL    HW1 8372   0.356   4.477   2.885
 2491SOL    HW2 8373   0.479   4.471   2.778
 2492SOL     OW 8374   4.295   2.444   5.941
 2492SOL    HW1 8375   4.380   2.496   5.937
 2492SOL    HW2 8376   4.308   2.364   6.000
 2493SOL     OW 8377   6.573   1.487   3.987
 2493SOL    HW1 8378   6.672   1.483   3.968
 2493SOL    HW2 8379   6.527   1.412   3.939
 2494SOL     OW 8380   4.214   4.776   1.406
 2494SOL    HW1 8381   4.264   4.696   1.371
 2494SOL    HW2 8382   4.251   4.859   1.366
 2495SOL     OW 8383   6.550   0.868   3.868
 2495SOL    HW1 8384   6.465   0.822   3.844
 2495SOL    HW2 8385   6.578   0.842   3.961
 2496SOL     OW 8386   1.604   5.584   6.557
 2496SOL    HW1 8387   1.514   5.583   6.600
 2496SOL    HW2 8388   1.617   5.670   6.509
 2497SOL     OW 8389   5.536   1.418   6.861
 2497SOL    HW1 8390   5.550   1.319   6.866
 2497SOL    HW2 8391   5.624   1.465   6.871
 2498SOL     OW 8392   1.003   3.466   4.737
 2498SOL    HW1 8393   0.975   3.533   4.807
 2498SOL    HW2 8394   1.103   3.468   4.728
 2499SOL     OW 8395   5.617   0.295   6.489
 2499SOL    HW1 8396   5.537   0.289   6.548
 2499SOL    HW2 8397   5.628   0.390   6.458
 2500SOL     OW 8398   4.659   3.630   6.488
 2500SOL    HW1 8399   4.635   3.689   6.411
 2500SOL    HW2 8400   4.619   3.540   6.475
 2501SOL     OW 8401   6.217   4.936   1.218
 2501SOL    HW1 8402   6.291   4.988   1.176
 2501SOL    HW2 8403   6.130   4.983   1.203
 2502SOL     OW 8404   1.638   6.471   2.736
 2502SOL    HW1 8405   1.570   6.545   2.736
 2502SOL    HW2 8406   1.703   6.486   2.810
 2503SOL     OW 8407   4.617   6.806   4.708
 2503SOL    HW1 8408   4.595   6.840   4.617
 2503SOL    HW2 8409   4.695   6.744   4.703
 2504SOL     OW 8410   1.936   4.213   3.475
 2504SOL    HW1 8411   1.995   4.173   3.544
 2504SOL    HW2 8412   1.890   4.141   3.423
 2505SOL     OW 8413   4.584   4.738   4.099
 2505SOL    HW1 8414   4.629   4.711   4.184
 2505SOL    HW2 8415   4.511   4.803   4.119
 2506SOL     OW 8416   0.353   1.663   0.878
 2506SOL    HW1 8417   0.291   1.706   0.944
 2506SOL    HW2 8418   0.307   1.585   0.835
 2507SOL     OW 8419   6.378   6.272   0.939
 2507SOL    HW1 8420   6.474   6.248   0.955
 2507SOL    HW2 8421   6.367   6.371   0.950
 2508SOL     OW 8422   2.415   2.659   1.926
 2508SOL    HW1 8423   2.474   2.585   1.894
 2508SOL    HW2 8424   2.437   2.743   1.875
 2509SOL     OW 8425   5.284   1.469   3.409
 2509SOL    HW1 8426   5.374   1.457   3.452
 2509SOL    HW2 8427   5.223   1.397   3.440
 2510SOL     OW 8428   4.021   6.034   1.344
 2510SOL    HW1 8429   4.006   6.068   1.437
 2510SOL    HW2 8430   3.946   5.974   1.317
 2511SOL     OW 8431   0.736   6.421   3.826
 2511SOL    HW1 8432   0.832   6.444   3.811
 2511SOL    HW2 8433   0.679   6.470   3.759
 2512SOL     OW 8434   5.157   2.899   4.134
 2512SOL    HW1 8435   5.176   2.942   4.046
 2512SOL    HW2 8436   5.086   2.830   4.123
 2513SOL     OW 8437   0.239   5.018   1.491
 2513SOL    HW1 8438   0.297   5.032   1.410
 2513SOL    HW2 8439   0.238   4.921   1.515
 2514SOL     OW 8440   0.699   1.533   4.420
 2514SOL    HW1 8441   0.619   1.554   4.477
 2514SOL    HW2 8442   0.755   1.464   4.466
 2515SOL     OW 8443   1.118   4.833   0.272
 2515SOL    HW1 8444   1.030   4.842   0.318
 2515SOL    HW2 8445   1.145   4.922   0.235
 2516SOL     OW 8446   4.989   6.241   4.506
 2516SOL    HW1 8447   5.032   6.164   4.459
 2516SOL    HW2 8448   4.956   6.307   4.439
 2517SOL     OW 8449   2.362   5.558   0.682
 2517SOL    HW1 8450   2.333   5.476   0.731
 2517SOL    HW2 8451   2.462   5.556   0.672
 2518SOL     OW 8452   2.390   2.672   6.329
 2518SOL    HW1 8453   2.402   2.588   6.275
 2518SOL    HW2 8454   2.292   2.692   6.338
 2519SOL     OW 8455   5.180   4.118   4.924
 2519SOL    HW1 8456   5.202   4.080   4.834
 2519SOL    HW2 8457   5.245   4.191   4.946
 2520SOL     OW 8458   2.924   5.324   1.945
 2520SOL    HW1 8459   3.006   5.360   1.988
 2520SOL    HW2 8460   2.898   5.238   1.989
 2521SOL     OW 8461   5.836   0.058   6.036
 2521SOL    HW1 8462   5.823   6.987   6.080
 2521SOL    HW2 8463   5.888   0.046   5.952
 2522SOL     OW 8464   1.501   3.779   4.523
 2522SOL    HW1 8465   1.420   3.837   4.531
 2522SOL    HW2 8466   1.580   3.835   4.497
 2523SOL     OW 8467   0.105   2.646   5.804
 2523SOL    HW1 8468   0.164   2.568   5.786
 2523SOL    HW2 8469   0.159   2.721   5.843
 2524SOL     OW 8470   1.243   0.019   5.019
 2524SOL    HW1 8471   1.199   6.947   5.018
 2524SOL    HW2 8472   1.183   0.085   4.974
 2525SOL     OW 8473   1.441   4.452   3.182
 2525SOL    HW1 8474   1.527   4.427   3.228
 2525SOL    HW2 8475   1.368   4.457   3.250
 2526SOL     OW 8476   0.563   2.220   5.368
 2526SOL    HW1 8477   0.511   2.288   5.317
 2526SOL    HW2 8478   0.641   2.264   5.414
 2527SOL     OW 8479   5.957   6.879   3.918
 2527SOL    HW1 8480   5.926   6.804   3.976
 2527SOL    HW2 8481   5.907   6.962   3.942
 2528SOL     OW 8482   5.890   5.249   0.638
 2528SOL    HW1 8483   5.929   5.332   0.679
 2528SOL    HW2 8484   5.958   5.176   0.639
 2529SOL     OW 8485   5.208   3.840   4.598
 2529SOL    HW1 8486   5.208   3.876   4.504
 2529SOL    HW2 8487   5.222   3.741   4.595
 2530SOL     OW 8488   1.050   6.731   3.525
 2530SOL    HW1 8489   0.989   6.810   3.522
 2530SOL    HW2 8490   1.145   6.762   3.520
 2531SOL     OW 8491   5.304   1.245   0.549
 2531SOL    HW1 8492   5.319   1.152   0.514
 2531SOL    HW2 8493   5.324   1.247   0.647
 2532SOL     OW 8494   1.084   4.259   5.945
 2532SOL    HW1 8495   1.034   4.325   6.001
 2532SOL    HW2 8496   1.096   4.297   5.853
 2533SOL     OW 8497   5.683   6.456   5.341
 2533SOL    HW1 8498   5.587   6.475   5.319
 2533SOL    HW2 8499   5.703   6.488   5.433
 2534SOL     OW 8500   6.929   1.937   3.342
 2534SOL    HW1 8501   6.885   1.860   3.388
 2534SOL    HW2 8502   6.866   2.014   3.340
 2535SOL     OW 8503   1.504   1.347   2.933
 2535SOL    HW1 8504   1.574   1.283   2.965
 2535SOL    HW2 8505   1.510   1.356   2.833
 2536SOL     OW 8506   0.295   0.847   4.051
 2536SOL    HW1 8507   0.231   0.892   4.113
 2536SOL    HW2 8508   0.270   0.751   4.039
 2537SOL     OW 8509   4.190   5.391   1.755
 2537SOL    HW1 8510   4.112   5.331   1.769
 2537SOL    HW2 8511   4.217   5.432   1.842
 2538SOL     OW 8512   1.319   4.498   4.675
 2538SOL    HW1 8513   1.246   4.507   4.743
 2538SOL    HW2 8514   1.379   4.577   4.680
 2539SOL     OW 8515   2.423   1.080   5.741
 2539SOL    HW1 8516   2.408   1.075   5.839
 2539SOL    HW2 8517   2.336   1.068   5.693
 2540SOL     OW 8518   5.928   2.009   2.164
 2540SOL    HW1 8519   5.835   1.972   2.169
 2540SOL    HW2 8520   5.986   1.963   2.231
 2541SOL     OW 8521   0.426   6.980   6.022
 2541SOL    HW1 8522   0.370   0.030   5.975
 2541SOL    HW2 8523   0.487   6.936   5.957
 2542SOL     OW 8524   3.920   1.811   3.756
 2542SOL    HW1 8525   3.851   1.869   3.712
 2542SOL    HW2 8526   3.913   1.718   3.720
 2543SOL     OW 8527   0.127   1.990   4.019
 2543SOL    HW1 8528   0.211   2.029   4.055
 2543SOL    HW2 8529   0.049   2.047   4.045
 2544SOL     OW 8530   6.744   6.002   1.998
 2544SOL    HW1 8531   6.839   6.026   2.020
 2544SOL    HW2 8532   6.720   6.042   1.910
 2545SOL     OW 8533   6.385   1.807   0.218
 2545SOL    HW1 8534   6.357   1.831   0.311
 2545SOL    HW2 8535   6.305   1.783   0.164
 2546SOL     OW 8536   6.703   3.711   2.319
 2546SOL    HW1 8537   6.756   3.712   2.234
 2546SOL    HW2 8538   6.626   3.774   2.311
 2547SOL     OW 8539   5.433   4.299   1.139
 2547SOL    HW1 8540   5.513   4.290   1.198
 2547SOL    HW2 8541   5.356   4.335   1.193
 2548SOL     OW 8542   6.064   0.313   5.875
 2548SOL    HW1 8543   6.110   0.367   5.945
 2548SOL    HW2 8544   6.053   0.219   5.907
 2549SOL     OW 8545   2.450   3.399   0.435
 2549SOL    HW1 8546   2.470   3.334   0.361
 2549SOL    HW2 8547   2.359   3.437   0.422
 2550SOL     OW 8548   4.207   6.019   0.219
 2550SOL    HW1 8549   4.154   5.939   0.190
 2550SOL    HW2 8550   4.278   5.990   0.284
 2551SOL     OW 8551   3.592   5.070   0.749
 2551SOL    HW1 8552   3.575   5.067   0.848
 2551SOL    HW2 8553   3.505   5.076   0.700
 2552SOL     OW 8554   2.179   4.820   1.881
 2552SOL    HW1 8555   2.262   4.796   1.931
 2552SOL    HW2 8556   2.188   4.792   1.785
 2553SOL     OW 8557   4.615   1.327   0.156
 2553SOL    HW1 8558   4.556   1.402   0.187
 2553SOL    HW2 8559   4.709   1.344   0.185
 2554SOL     OW 8560   1.233   5.469   1.015
 2554SOL    HW1 8561   1.251   5.548   1.073
 2554SOL    HW2 8562   1.173   5.404   1.063
 2555SOL     OW 8563   5.977   6.623   4.760
 2555SOL    HW1 8564   5.909   6.612   4.832
 2555SOL    HW2 8565   5.988   6.536   4.711
 2556SOL     OW 8566   3.507   6.793   0.542
 2556SOL    HW1 8567   3.439   6.785   0.470
 2556SOL    HW2 8568   3.590   6.744   0.515
 2557SOL     OW 8569   3.045   0.255   6.852
 2557SOL    HW1 8570   3.086   0.267   6.761
 2557SOL    HW2 8571   3.084   0.175   6.897
 2558SOL     OW 8572   4.833   2.395   1.666
 2558SOL    HW1 8573   4.800   2.478   1.620
 2558SOL    HW2 8574   4.756   2.344   1.704
 2559SOL     OW 8575   0.112   5.292   3.721
 2559SOL    HW1 8576   0.145   5.371   3.670
 2559SOL    HW2 8577   0.098   5.215   3.659
 2560SOL     OW 8578   5.222   2.480   2.621
 2560SOL    HW1 8579   5.151   2.524   2.676
 2560SOL    HW2 8580   5.181   2.405   2.569
 2561SOL     OW 8581   3.969   6.971   4.223
 2561SOL    HW1 8582   3.884   6.918   4.225
 2561SOL    HW2 8583   3.996   6.988   4.128
 2562SOL     OW 8584   1.982   0.003   4.771
 2562SOL    HW1 8585   1.888   0.009   4.804
 2562SOL    HW2 8586   2.041   0.063   4.825
 2563SOL     OW 8587   3.544   2.617   6.585
 2563SOL    HW1 8588   3.573   2.536   6.636
 2563SOL    HW2 8589   3.457   2.650   6.621
 2564SOL     OW 8590   1.214   1.722   0.146
 2564SOL    HW1 8591   1.309   1.736   0.174
 2564SOL    HW2 8592   1.203   1.750   0.050
 2565SOL     OW 8593   1.010   0.914   0.367
 2565SOL    HW1 8594   1.014   0.992   0.304
 2565SOL    HW2 8595   0.915   0.899   0.396
 2566SOL     OW 8596   2.733   0.867   1.269
 2566SOL    HW1 8597   2.764   0.962   1.272
 2566SOL    HW2 8598   2.643   0.860   1.311
 2567SOL     OW 8599   1.571   0.632   6.654
 2567SOL    HW1 8600   1.650   0.577   6.682
 2567SOL    HW2 8601   1.599   0.699   6.585
 2568SOL     OW 8602   1.958   5.853   0.815
 2568SOL    HW1 8603   1.975   5.843   0.913
 2568SOL    HW2 8604   1.967   5.949   0.789
 2569SOL     OW 8605   1.777   0.132   0.748
 2569SOL    HW1 8606   1.842   0.063   0.781
 2569SOL    HW2 8607   1.753   0.193   0.824
 2570SOL     OW 8608   0.405   6.208   4.711
 2570SOL    HW1 8609   0.330   6.142   4.720
 2570SOL    HW2 8610   0.454   6.215   4.798
 2571SOL     OW 8611   3.331   4.000   3.926
 2571SOL    HW1 8612   3.385   4.007   4.010
 2571SOL    HW2 8613   3.234   4.003   3.948
 2572SOL     OW 8614   1.753   5.239   2.124
 2572SOL    HW1 8615   1.830   5.242   2.188
 2572SOL    HW2 8616   1.766   5.309   2.054
 2573SOL     OW 8617   0.158   1.768   3.842
 2573SOL    HW1 8618   0.178   1.854   3.890
 2573SOL    HW2 8619   0.109   1.789   3.757
 2574SOL     OW 8620   0.662   3.517   2.128
 2574SOL    HW1 8621   0.721   3.539   2.206
 2574SOL    HW2 8622   0.713   3.529   2.043
 2575SOL     OW 8623   5.405   3.156   6.048
 2575SOL    HW1 8624   5.387   3.111   5.960
 2575SOL    HW2 8625   5.398   3.255   6.036
 2576SOL     OW 8626   1.809   0.110   3.168
 2576SOL    HW1 8627   1.881   0.179   3.167
 2576SOL    HW2 8628   1.720   0.156   3.165
 2577SOL     OW 8629   1.995   5.305   1.375
 2577SOL    HW1 8630   1.985   5.328   1.278
 2577SOL    HW2 8631   1.948   5.374   1.430
 2578SOL     OW 8632   4.514   2.484   4.479
 2578SOL    HW1 8633   4.570   2.536   4.543
 2578SOL    HW2 8634   4.494   2.394   4.516
 2579SOL     OW 8635   6.956   1.551   6.320
 2579SOL    HW1 8636   6.958   1.590   6.412
 2579SOL    HW2 8637   6.869   1.573   6.276
 2580SOL     OW 8638   1.571   1.675   5.871
 2580SOL    HW1 8639   1.577   1.584   5.830
 2580SOL    HW2 8640   1.638   1.682   5.944
 2581SOL     OW 8641   6.341   0.167   4.866
 2581SOL    HW1 8642   6.363   0.233   4.937
 2581SOL    HW2 8643   6.327   0.215   4.779
 2582SOL     OW 8644   0.142   5.748   2.956
 2582SOL    HW1 8645   0.147   5.706   2.865
 2582SOL    HW2 8646   0.218   5.715   3.012
 2583SOL     OW 8647   1.965   1.145   6.497
 2583SOL    HW1 8648   1.961   1.047   6.475
 2583SOL    HW2 8649   2.027   1.159   6.574
 2584SOL     OW 8650   5.373   7.018   2.776
 2584SOL    HW1 8651   5.405   0.082   2.822
 2584SOL    HW2 8652   5.427   7.001   2.694
 2585SOL     OW 8653   4.534   1.052   1.852
 2585SOL    HW1 8654   4.546   1.077   1.948
 2585SOL    HW2 8655   4.611   1.087   1.798
 2586SOL     OW 8656   6.557   1.379   4.399
 2586SOL    HW1 8657   6.565   1.429   4.485
 2586SOL    HW2 8658   6.648   1.370   4.357
 2587SOL     OW 8659   6.689   6.442   2.681
 2587SOL    HW1 8660   6.595   6.449   2.648
 2587SOL    HW2 8661   6.688   6.415   2.777
 2588SOL     OW 8662   4.940   0.075   1.846
 2588SOL    HW1 8663   4.929   0.039   1.939
 2588SOL    HW2 8664   4.939   0.174   1.848
 2589SOL     OW 8665   5.540   6.075   0.410
 2589SOL    HW1 8666   5.635   6.102   0.397
 2589SOL    HW2 8667   5.530   6.031   0.500
 2590SOL     OW 8668   3.705   6.772   2.932
 2590SOL    HW1 8669   3.774   6.725   2.878
 2590SOL    HW2 8670   3.655   6.837   2.874
 2591SOL     OW 8671   5.850   0.306   1.643
 2591SOL    HW1 8672   5.853   0.399   1.607
 2591SOL    HW2 8673   5.844   0.241   1.568
 2592SOL     OW 8674   3.231   5.006   1.578
 2592SOL    HW1 8675   3.277   4.919   1.595
 2592SOL    HW2 8676   3.228   5.059   1.662
 2593SOL     OW 8677   3.223   0.266   2.615
 2593SOL    HW1 8678   3.265   0.220   2.693
 2593SOL    HW2 8679   3.237   0.211   2.533
 2594SOL     OW 8680   1.607   6.863   6.441
 2594SOL    HW1 8681   1.680   6.883   6.375
 2594SOL    HW2 8682   1.633   6.784   6.496
 2595SOL     OW 8683   6.224   3.087   4.287
 2595SOL    HW1 8684   6.167   3.008   4.309
 2595SOL    HW2 8685   6.314   3.055   4.257
 2596SOL     OW 8686   4.351   2.178   1.550
 2596SOL    HW1 8687   4.316   2.192   1.643
 2596SOL    HW2 8688   4.407   2.256   1.524
 2597SOL     OW 8689   1.836   2.291   6.446
 2597SOL    HW1 8690   1.861   2.202   6.409
 2597SOL    HW2 8691   1.760   2.329   6.394
 2598SOL     OW 8692   5.744   2.232   2.720
 2598SOL    HW1 8693   5.662   2.290   2.714
 2598SOL    HW2 8694   5.797   2.258   2.801
 2599SOL     OW 8695   4.328   4.369   6.786
 2599SOL    HW1 8696   4.295   4.443   6.727
 2599SOL    HW2 8697   4.306   4.281   6.744
 2600SOL     OW 8698   6.911   3.354   3.764
 2600SOL    HW1 8699   6.841   3.283   3.777
 2600SOL    HW2 8700   6.955   3.373   3.852
 2601SOL     OW 8701   3.764   3.393   5.321
 2601SOL    HW1 8702   3.673   3.411   5.283
 2601SOL    HW2 8703   3.755   3.352   5.412
 2602SOL     OW 8704   6.066   5.557   5.582
 2602SOL    HW1 8705   6.154   5.545   5.537
 2602SOL    HW2 8706   5.993   5.561   5.513
 2603SOL     OW 8707   2.553   2.733   6.944
 2603SOL    HW1 8708   2.610   2.778   6.876
 2603SOL    HW2 8709   2.523   2.644   6.909
 2604SOL     OW 8710   5.729   1.505   1.833
 2604SOL    HW1 8711   5.655   1.501   1.765
 2604SOL    HW2 8712   5.801   1.440   1.807
 2605SOL     OW 8713   4.828   3.831   3.751
 2605SOL    HW1 8714   4.808   3.929   3.752
 2605SOL    HW2 8715   4.838   3.799   3.845
 2606SOL     OW 8716   0.053   4.591   0.899
 2606SOL    HW1 8717   0.040   4.496   0.926
 2606SOL    HW2 8718   0.065   4.647   0.981
 2607SOL     OW 8719   0.740   1.951   4.768
 2607SOL    HW1 8720   0.740   2.051   4.772
 2607SOL    HW2 8721   0.797   1.921   4.692
 2608SOL     OW 8722   5.357   6.731   0.578
 2608SOL    HW1 8723   5.426   6.737   0.649
 2608SOL    HW2 8724   5.373   6.649   0.522
 2609SOL     OW 8725   0.294   2.690   3.985
 2609SOL    HW1 8726   0.366   2.706   3.917
 2609SOL    HW2 8727   0.327   2.715   4.076
 2610SOL     OW 8728   5.168   5.476   4.861
 2610SOL    HW1 8729   5.083   5.432   4.832
 2610SOL    HW2 8730   5.173   5.568   4.821
 2611SOL     OW 8731   2.863   6.016   1.947
 2611SOL    HW1 8732   2.832   6.109   1.961
 2611SOL    HW2 8733   2.956   6.006   1.983
 2612SOL     OW 8734   6.261   6.914   4.966
 2612SOL    HW1 8735   6.290   7.002   4.927
 2612SOL    HW2 8736   6.274   6.842   4.898
 2613SOL     OW 8737   3.930   0.896   1.338
 2613SOL    HW1 8738   3.877   0.922   1.418
 2613SOL    HW2 8739   3.869   0.887   1.259
 2614SOL     OW 8740   6.889   6.346   6.405
 2614SOL    HW1 8741   6.970   6.289   6.395
 2614SOL    HW2 8742   6.849   6.362   6.315
 2615SOL     OW 8743   5.554   5.157   2.087
 2615SOL    HW1 8744   5.603   5.196   2.009
 2615SOL    HW2 8745   5.595   5.189   2.172
 2616SOL     OW 8746   4.123   3.387   2.662
 2616SOL    HW1 8747   4.042   3.358   2.712
 2616SOL    HW2 8748   4.171   3.307   2.627
 2617SOL     OW 8749   3.854   0.609   1.182
 2617SOL    HW1 8750   3.825   0.686   1.124
 2617SOL    HW2 8751   3.853   0.638   1.278
 2618SOL     OW 8752   0.739   0.617   0.241
 2618SOL    HW1 8753   0.707   0.601   0.335
 2618SOL    HW2 8754   0.749   0.529   0.194
 2619SOL     OW 8755   5.517   1.293   1.092
 2619SOL    HW1 8756   5.606   1.256   1.119
 2619SOL    HW2 8757   5.530   1.373   1.033
 2620SOL     OW 8758   1.619   4.777   4.411
 2620SOL    HW1 8759   1.660   4.713   4.475
 2620SOL    HW2 8760   1.690   4.817   4.353
 2621SOL     OW 8761   1.294   4.791   3.708
 2621SOL    HW1 8762   1.314   4.723   3.779
 2621SOL    HW2 8763   1.375   4.848   3.693
 2622SOL     OW 8764   2.414   3.283   5.995
 2622SOL    HW1 8765   2.442   3.313   5.903
 2622SOL    HW2 8766   2.363   3.197   5.988
 2623SOL     OW 8767   3.455   1.155   6.357
 2623SOL    HW1 8768   3.437   1.096   6.436
 2623SOL    HW2 8769   3.477   1.099   6.277
 2624SOL     OW 8770   6.761   1.988   3.970
 2624SOL    HW1 8771   6.813   2.068   4.000
 2624SOL    HW2 8772   6.663   2.010   3.968
 2625SOL     OW 8773   4.701   0.850   5.720
 2625SOL    HW1 8774   4.667   0.757   5.732
 2625SOL    HW2 8775   4.718   0.892   5.809
 2626SOL     OW 8776   2.229   0.219   2.047
 2626SOL    HW1 8777   2.322   0.242   2.018
 2626SOL    HW2 8778   2.203   0.131   2.007
 2627SOL     OW 8779   6.959   1.024   4.558
 2627SOL    HW1 8780   0.017   1.065   4.608
 2627SOL    HW2 8781   6.890   1.094   4.541
 2628SOL     OW 8782   3.510   5.710   6.195
 2628SOL    HW1 8783   3.581   5.642   6.212
 2628SOL    HW2 8784   3.501   5.724   6.096
 2629SOL     OW 8785   3.081   3.837   1.356
 2629SOL    HW1 8786   3.045   3.827   1.449
 2629SOL    HW2 8787   3.148   3.912   1.355
 2630SOL     OW 8788   2.966   2.169   2.289
 2630SOL    HW1 8789   2.993   2.207   2.201
 2630SOL    HW2 8790   2.884   2.216   2.322
 2631SOL     OW 8791   4.470   6.907   4.963
 2631SOL    HW1 8792   4.479   6.921   4.864
 2631SOL    HW2 8793   4.400   6.837   4.980
 2632SOL     OW 8794   5.780   1.362   1.428
 2632SOL    HW1 8795   5.858   1.422   1.446
 2632SOL    HW2 8796   5.718   1.365   1.506
 2633SOL     OW 8797   6.848   2.866   6.220
 2633SOL    HW1 8798   6.815   2.959   6.202
 2633SOL    HW2 8799   6.873   2.822   6.133
 2634SOL     OW 8800   3.110   4.999   1.259
 2634SOL    HW1 8801   3.158   5.086   1.254
 2634SOL    HW2 8802   3.046   5.000   1.336
 2635SOL     OW 8803   5.829   4.217   3.460
 2635SOL    HW1 8804   5.877   4.130   3.451
 2635SOL    HW2 8805   5.824   4.242   3.557
 2636SOL     OW 8806   5.510   0.533   5.090
 2636SOL    HW1 8807   5.417   0.510   5.118
 2636SOL    HW2 8808   5.524   0.506   4.995
 2637SOL     OW 8809   4.700   6.642   2.907
 2637SOL    HW1 8810   4.697   6.584   2.825
 2637SOL    HW2 8811   4.762   6.719   2.891
 2638SOL     OW 8812   5.742   5.688   0.678
 2638SOL    HW1 8813   5.764   5.732   0.765
 2638SOL    HW2 8814   5.824   5.646   0.641
 2639SOL     OW 8815   6.675   6.452   0.282
 2639SOL    HW1 8816   6.590   6.405   0.257
 2639SOL    HW2 8817   6.717   6.490   0.200
 2640SOL     OW 8818   6.377   6.879   6.582
 2640SOL    HW1 8819   6.360   6.978   6.573
 2640SOL    HW2 8820   6.316   6.829   6.521
 2641SOL     OW 8821   5.482   5.462   0.105
 2641SOL    HW1 8822   5.572   5.491   0.137
 2641SOL    HW2 8823   5.477   5.362   0.108
 2642SOL     OW 8824   6.423   0.116   3.242
 2642SOL    HW1 8825   6.471   0.169   3.311
 2642SOL    HW2 8826   6.468   0.027   3.230
 2643SOL     OW 8827   1.310   0.531   2.431
 2643SOL    HW1 8828   1.266   0.486   2.353
 2643SOL    HW2 8829   1.264   0.505   2.516
 2644SOL     OW 8830   0.419   5.661   6.017
 2644SOL    HW1 8831   0.469   5.674   6.103
 2644SOL    HW2 8832   0.460   5.716   5.945
 2645SOL     OW 8833   6.041   4.888   5.538
 2645SOL    HW1 8834   5.942   4.895   5.549
 2645SOL    HW2 8835   6.083   4.858   5.624
 2646SOL     OW 8836   6.653   6.079   6.994
 2646SOL    HW1 8837   6.686   5.989   0.002
 2646SOL    HW2 8838   6.731   6.136   6.965
 2647SOL     OW 8839   3.526   3.149   0.504
 2647SOL    HW1 8840   3.559   3.055   0.517
 2647SOL    HW2 8841   3.465   3.152   0.425
 2648SOL     OW 8842   3.541   1.066   2.903
 2648SOL    HW1 8843   3.612   1.046   2.971
 2648SOL    HW2 8844   3.516   0.982   2.854
 2649SOL     OW 8845   3.401   2.661   5.589
 2649SOL    HW1 8846   3.342   2.696   5.661
 2649SOL    HW2 8847   3.345   2.619   5.518
 2650SOL     OW 8848   0.117   6.393   1.806
 2650SOL    HW1 8849   0.163   6.307   1.826
 2650SOL    HW2 8850   0.078   6.389   1.714
 2651SOL     OW 8851   0.551   6.962   3.781
 2651SOL    HW1 8852   0.580   6.893   3.848
 2651SOL    HW2 8853   0.521   6.916   3.697
 2652SOL     OW 8854   2.993   3.190   2.683
 2652SOL    HW1 8855   3.084   3.168   2.718
 2652SOL    HW2 8856   2.926   3.127   2.723
 2653SOL     OW 8857   6.593   5.516   6.431
 2653SOL    HW1 8858   6.564   5.424   6.403
 2653SOL    HW2 8859   6.560   5.583   6.364
 2654SOL     OW 8860   5.155   2.141   6.178
 2654SOL    HW1 8861   5.233   2.091   6.215
 2654SOL    HW2 8862   5.174   2.167   6.083
 2655SOL     OW 8863   4.862   5.276   5.002
 2655SOL    HW1 8864   4.831   5.322   5.085
 2655SOL    HW2 8865   4.946   5.225   5.021
 2656SOL     OW 8866   5.278   3.603   3.842
 2656SOL    HW1 8867   5.202   3.607   3.907
 2656SOL    HW2 8868   5.341   3.679   3.859
 2657SOL     OW 8869   2.387   2.163   5.613
 2657SOL    HW1 8870   2.308   2.101   5.611
 2657SOL    HW2 8871   2.362   2.246   5.662
 2658SOL     OW 8872   5.565   4.502   5.597
 2658SOL    HW1 8873   5.537   4.534   5.506
 2658SOL    HW2 8874   5.588   4.405   5.593
 2659SOL     OW 8875   6.953   2.137   2.736
 2659SOL    HW1 8876   6.991   2.229   2.745
 2659SOL    HW2 8877   6.856   2.138   2.763
 2660SOL     OW 8878   6.307   2.195   3.221
 2660SOL    HW1 8879   6.384   2.150   3.267
 2660SOL    HW2 8880   6.316   2.294   3.229
 2661SOL     OW 8881   4.381   6.476   1.561
 2661SOL    HW1 8882   4.471   6.461   1.601
 2661SOL    HW2 8883   4.361   6.574   1.560
 2662SOL     OW 8884   3.537   6.634   3.612
 2662SOL    HW1 8885   3.609   6.594   3.556
 2662SOL    HW2 8886   3.463   6.567   3.625
 2663SOL     OW 8887   0.867   4.512   2.756
 2663SOL    HW1 8888   0.916   4.522   2.843
 2663SOL    HW2 8889   0.831   4.601   2.729
 2664SOL     OW 8890   4.201   3.597   1.853
 2664SOL    HW1 8891   4.162   3.638   1.936
 2664SOL    HW2 8892   4.259   3.664   1.807
 2665SOL     OW 8893   4.088   0.946   4.657
 2665SOL    HW1 8894   4.185   0.961   4.641
 2665SOL    HW2 8895   4.075   0.906   4.748
 2666SOL     OW 8896   5.485   6.297   1.886
 2666SOL    HW1 8897   5.484   6.229   1.959
 2666SOL    HW2 8898   5.574   6.343   1.885
 2667SOL     OW 8899   1.522   5.049   3.782
 2667SOL    HW1 8900   1.617   5.025   3.803
 2667SOL    HW2 8901   1.520   5.105   3.698
 2668SOL     OW 8902   6.799   2.486   6.063
 2668SOL    HW1 8903   6.723   2.464   6.002
 2668SOL    HW2 8904   6.875   2.424   6.046
 2669SOL     OW 8905   4.525   4.990   5.872
 2669SOL    HW1 8906   4.474   4.907   5.893
 2669SOL    HW2 8907   4.612   4.988   5.920
 2670SOL     OW 8908   1.772   0.498   6.096
 2670SOL    HW1 8909   1.800   0.438   6.021
 2670SOL    HW2 8910   1.843   0.497   6.167
 2671SOL     OW 8911   3.368   3.992   5.828
 2671SOL    HW1 8912   3.426   3.917   5.858
 2671SOL    HW2 8913   3.275   3.978   5.862
 2672SOL     OW 8914   0.682   4.317   0.494
 2672SOL    HW1 8915   0.688   4.370   0.579
 2672SOL    HW2 8916   0.656   4.378   0.419
 2673SOL     OW 8917   4.772   2.084   3.591
 2673SOL    HW1 8918   4.840   2.049   3.656
 2673SOL    HW2 8919   4.815   2.153   3.533
 2674SOL     OW 8920   5.379   5.702   5.675
 2674SOL    HW1 8921   5.371   5.792   5.716
 2674SOL    HW2 8922   5.350   5.706   5.579
 2675SOL     OW 8923   0.484   3.720   5.421
 2675SOL    HW1 8924   0.464   3.775   5.340
 2675SOL    HW2 8925   0.579   3.735   5.449
 2676SOL     OW 8926   4.240   0.392   2.112
 2676SOL    HW1 8927   4.170   0.463   2.124
 2676SOL    HW2 8928   4.203   0.304   2.140
 2677SOL     OW 8929   2.560   4.570   2.099
 2677SOL    HW1 8930   2.658   4.569   2.077
 2677SOL    HW2 8931   2.548   4.588   2.196
 2678SOL     OW 8932   0.045   5.661   6.302
 2678SOL    HW1 8933   0.021   5.757   6.287
 2678SOL    HW2 8934   0.102   5.628   6.226
 2679SOL     OW 8935   2.553   4.677   1.049
 2679SOL    HW1 8936   2.466   4.709   1.084
 2679SOL    HW2 8937   2.561   4.579   1.065
 2680SOL     OW 8938   0.868   1.766   1.137
 2680SOL    HW1 8939   0.906   1.691   1.192
 2680SOL    HW2 8940   0.770   1.773   1.154
 2681SOL     OW 8941   1.355   1.278   2.442
 2681SOL    HW1 8942   1.425   1.277   2.370
 2681SOL    HW2 8943   1.321   1.371   2.455
 2682SOL     OW 8944   6.562   2.743   3.517
 2682SOL    HW1 8945   6.637   2.707   3.573
 2682SOL    HW2 8946   6.552   2.687   3.435
 2683SOL     OW 8947   1.350   0.206   1.839
 2683SOL    HW1 8948   1.275   0.140   1.845
 2683SOL    HW2 8949   1.433   0.159   1.806
 2684SOL     OW 8950   2.378   5.962   2.667
 2684SOL    HW1 8951   2.285   5.999   2.660
 2684SOL    HW2 8952   2.374   5.868   2.700
 2685SOL     OW 8953   5.563   5.822   5.356
 2685SOL    HW1 8954   5.625   5.774   5.294
 2685SOL    HW2 8955   5.615   5.885   5.414
 2686SOL     OW 8956   1.180   3.265   4.393
 2686SOL    HW1 8957   1.257   3.329   4.384
 2686SOL    HW2 8958   1.100   3.314   4.427
 2687SOL     OW 8959   5.084   5.292   3.173
 2687SOL    HW1 8960   5.047   5.227   3.239
 2687SOL    HW2 8961   5.128   5.242   3.098
 2688SOL     OW 8962   3.084   4.939   6.150
 2688SOL    HW1 8963   3.150   4.866   6.163
 2688SOL    HW2 8964   3.054   4.974   6.239
 2689SOL     OW 8965   0.055   2.753   4.156
 2689SOL    HW1 8966   0.134   2.769   4.097
 2689SOL    HW2 8967   0.082   2.767   4.252
 2690SOL     OW 8968   2.851   3.529   3.305
 2690SOL    HW1 8969   2.844   3.620   3.344
 2690SOL    HW2 8970   2.886   3.536   3.211
 2691SOL     OW 8971   1.227   6.166   1.441
 2691SOL    HW1 8972   1.197   6.151   1.347
 2691SOL    HW2 8973   1.249   6.079   1.484
 2692SOL     OW 8974   6.717   5.870   3.003
 2692SOL    HW1 8975   6.705   5.773   3.023
 2692SOL    HW2 8976   6.800   5.883   2.949
 2693SOL     OW 8977   1.563   3.650   3.581
 2693SOL    HW1 8978   1.516   3.702   3.509
 2693SOL    HW2 8979   1.631   3.589   3.539
 2694SOL     OW 8980   2.712   0.940   2.909
 2694SOL    HW1 8981   2.644   0.953   2.837
 2694SOL    HW2 8982   2.731   0.842   2.919
 2695SOL     OW 8983   3.925   2.050   2.774
 2695SOL    HW1 8984   3.940   2.069   2.677
 2695SOL    HW2 8985   3.973   2.118   2.829
 2696SOL     OW 8986   3.981   3.165   5.189
 2696SOL    HW1 8987   4.000   3.194   5.095
 2696SOL    HW2 8988   4.026   3.227   5.253
 2697SOL     OW 8989   2.460   2.118   4.561
 2697SOL    HW1 8990   2.394   2.134   4.488
 2697SOL    HW2 8991   2.452   2.025   4.595
 2698SOL     OW 8992   2.150   3.493   6.813
 2698SOL    HW1 8993   2.087   3.453   6.879
 2698SOL    HW2 8994   2.167   3.589   6.838
 2699SOL     OW 8995   3.780   5.716   2.179
 2699SOL    HW1 8996   3.812   5.770   2.256
 2699SOL    HW2 8997   3.735   5.777   2.113
 2700SOL     OW 8998   1.503   3.819   2.855
 2700SOL    HW1 8999   1.484   3.755   2.781
 2700SOL    HW2 9000   1.433   3.890   2.857
 2701SOL     OW 9001   3.281   6.426   6.082
 2701SOL    HW1 9002   3.284   6.492   6.156
 2701SOL    HW2 9003   3.330   6.343   6.109
 2702SOL     OW 9004   0.213   0.315   2.813
 2702SOL    HW1 9005   0.201   0.269   2.901
 2702SOL    HW2 9006   0.179   0.256   2.740
 2703SOL     OW 9007   1.285   1.291   3.087
 2703SOL    HW1 9008   1.327   1.276   3.177
 2703SOL    HW2 9009   1.356   1.299   3.018
 2704SOL     OW 9010   1.690   6.049   0.451
 2704SOL    HW1 9011   1.723   5.961   0.485
 2704SOL    HW2 9012   1.767   6.104   0.419
 2705SOL     OW 9013   0.515   4.777   2.932
 2705SOL    HW1 9014   0.489   4.683   2.909
 2705SOL    HW2 9015   0.557   4.820   2.852
 2706SOL     OW 9016   6.533   1.775   1.750
 2706SOL    HW1 9017   6.575   1.721   1.823
 2706SOL    HW2 9018   6.437   1.747   1.740
 2707SOL     OW 9019   2.271   1.566   5.361
 2707SOL    HW1 9020   2.263   1.664   5.345
 2707SOL    HW2 9021   2.179   1.528   5.377
 2708SOL     OW 9022   1.896   2.844   1.042
 2708SOL    HW1 9023   1.978   2.893   1.015
 2708SOL    HW2 9024   1.815   2.899   1.023
 2709SOL     OW 9025   4.665   6.418   2.003
 2709SOL    HW1 9026   4.630   6.506   2.034
 2709SOL    HW2 9027   4.651   6.349   2.075
 2710SOL     OW 9028   5.741   3.740   2.467
 2710SOL    HW1 9029   5.645   3.713   2.478
 2710SOL    HW2 9030   5.797   3.689   2.532
 2711SOL     OW 9031   1.146   0.031   1.843
 2711SOL    HW1 9032   1.084   6.976   1.871
 2711SOL    HW2 9033   1.122   0.061   1.751
 2712SOL     OW 9034   3.480   4.825   1.052
 2712SOL    HW1 9035   3.392   4.822   1.099
 2712SOL    HW2 9036   3.540   4.891   1.096
 2713SOL     OW 9037   2.000   3.205   4.724
 2713SOL    HW1 9038   1.905   3.175   4.718
 2713SOL    HW2 9039   2.060   3.132   4.691
 2714SOL     OW 9040   5.411   6.861   5.369
 2714SOL    HW1 9041   5.350   6.937   5.347
 2714SOL    HW2 9042   5.384   6.820   5.456
 2715SOL     OW 9043   6.614   0.575   0.166
 2715SOL    HW1 9044   6.568   0.605   0.249
 2715SOL    HW2 9045   6.697   0.630   0.152
 2716SOL     OW 9046   0.549   6.577   2.746
 2716SOL    HW1 9047   0.639   6.567   2.790
 2716SOL    HW2 9048   0.516   6.670   2.759
 2717SOL     OW 9049   1.299   0.186   2.746
 2717SOL    HW1 9050   1.324   0.257   2.811
 2717SOL    HW2 9051   1.228   0.219   2.685
 2718SOL     OW 9052   1.290   4.931   3.367
 2718SOL    HW1 9053   1.232   4.991   3.313
 2718SOL    HW2 9054   1.236   4.855   3.402
 2719SOL     OW 9055   3.835   5.046   2.303
 2719SOL    HW1 9056   3.797   5.138   2.314
 2719SOL    HW2 9057   3.808   5.009   2.214
 2720SOL     OW 9058   1.160   5.950   4.147
 2720SOL    HW1 9059   1.110   5.899   4.076
 2720SOL    HW2 9060   1.099   6.019   4.187
 2721SOL     OW 9061   4.358   0.034   4.694
 2721SOL    HW1 9062   4.386   0.016   4.599
 2721SOL    HW2 9063   4.276   7.000   4.716
 2722SOL     OW 9064   1.567   5.458   1.207
 2722SOL    HW1 9065   1.536   5.363   1.212
 2722SOL    HW2 9066   1.597   5.478   1.114
 2723SOL     OW 9067   1.357   1.354   5.217
 2723SOL    HW1 9068   1.312   1.429   5.168
 2723SOL    HW2 9069   1.434   1.320   5.163
 2724SOL     OW 9070   2.978   5.455   6.339
 2724SOL    HW1 9071   3.062   5.501   6.310
 2724SOL    HW2 9072   2.925   5.427   6.259
 2725SOL     OW 9073   3.296   4.902   3.090
 2725SOL    HW1 9074   3.290   4.816   3.040
 2725SOL    HW2 9075   3.256   4.891   3.181
 2726SOL     OW 9076   5.162   5.883   2.255
 2726SOL    HW1 9077   5.114   5.955   2.205
 2726SOL    HW2 9078   5.134   5.794   2.220
 2727SOL     OW 9079   2.175   5.371   3.205
 2727SOL    HW1 9080   2.232   5.375   3.287
 2727SOL    HW2 9081   2.218   5.309   3.138
 2728SOL     OW 9082   3.570   0.391   5.592
 2728SOL    HW1 9083   3.497   0.454   5.565
 2728SOL    HW2 9084   3.655   0.442   5.605
 2729SOL     OW 9085   6.262   4.711   2.613
 2729SOL    HW1 9086   6.299   4.749   2.698
 2729SOL    HW2 9087   6.333   4.714   2.542
 2730SOL     OW 9088   1.536   4.383   1.590
 2730SOL    HW1 9089   1.609   4.356   1.527
 2730SOL    HW2 9090   1.447   4.363   1.549
 2731SOL     OW 9091   3.007   3.798   1.609
 2731SOL    HW1 9092   3.029   3.700   1.611
 2731SOL    HW2 9093   3.021   3.837   1.700
 2732SOL     OW 9094   5.416   1.833   3.474
 2732SOL    HW1 9095   5.516   1.830   3.466
 2732SOL    HW2 9096   5.390   1.834   3.570
 2733SOL     OW 9097   1.664   0.994   5.370
 2733SOL    HW1 9098   1.665   0.897   5.346
 2733SOL    HW2 9099   1.641   1.005   5.467
 2734SOL     OW 9100   2.426   6.298   3.871
 2734SOL    HW1 9101   2.437   6.203   3.902
 2734SOL    HW2 9102   2.333   6.311   3.837
 2735SOL     OW 9103   2.112   4.310   1.575
 2735SOL    HW1 9104   2.077   4.265   1.658
 2735SOL    HW2 9105   2.174   4.383   1.600
 2736SOL     OW 9106   3.816   6.776   6.173
 2736SOL    HW1 9107   3.839   6.730   6.087
 2736SOL    HW2 9108   3.793   6.708   6.242
 2737SOL     OW 9109   4.265   3.497   5.997
 2737SOL    HW1 9110   4.321   3.572   5.962
 2737SOL    HW2 9111   4.289   3.412   5.950
 2738SOL     OW 9112   5.703   4.746   4.031
 2738SOL    HW1 9113   5.611   4.785   4.036
 2738SOL    HW2 9114   5.711   4.672   4.099
 2739SOL     OW 9115   5.943   3.604   1.012
 2739SOL    HW1 9116   5.947   3.550   0.928
 2739SOL    HW2 9117   5.947   3.543   1.091
 2740SOL     OW 9118   6.592   2.536   2.925
 2740SOL    HW1 9119   6.660   2.585   2.870
 2740SOL    HW2 9120   6.500   2.562   2.895
 2741SOL     OW 9121   1.414   2.132   5.725
 2741SOL    HW1 9122   1.415   2.034   5.708
 2741SOL    HW2 9123   1.386   2.180   5.642
 2742SOL     OW 9124   1.964   6.726   5.959
 2742SOL    HW1 9125   2.017   6.657   5.910
 2742SOL    HW2 9126   2.025   6.782   6.015
 2743SOL     OW 9127   5.487   4.877   0.729
 2743SOL    HW1 9128   5.521   4.967   0.755
 2743SOL    HW2 9129   5.466   4.824   0.811
 2744SOL     OW 9130   4.177   1.023   6.554
 2744SOL    HW1 9131   4.146   0.957   6.486
 2744SOL    HW2 9132   4.189   0.978   6.642
 2745SOL     OW 9133   2.388   5.765   1.017
 2745SOL    HW1 9134   2.447   5.796   0.942
 2745SOL    HW2 9135   2.313   5.830   1.029
 2746SOL     OW 9136   1.674   1.944   6.060
 2746SOL    HW1 9137   1.653   1.985   5.971
 2746SOL    HW2 9138   1.689   1.846   6.049
 2747SOL     OW 9139   5.366   5.531   4.174
 2747SOL    HW1 9140   5.289   5.533   4.239
 2747SOL    HW2 9141   5.429   5.606   4.195
 2748SOL     OW 9142   3.862   1.502   4.425
 2748SOL    HW1 9143   3.773   1.536   4.453
 2748SOL    HW2 9144   3.933   1.539   4.486
 2749SOL     OW 9145   4.249   5.267   3.779
 2749SOL    HW1 9146   4.208   5.295   3.866
 2749SOL    HW2 9147   4.196   5.191   3.741
 2750SOL     OW 9148   0.641   6.068   1.694
 2750SOL    HW1 9149   0.670   6.097   1.603
 2750SOL    HW2 9150   0.676   6.132   1.762
 2751SOL     OW 9151   1.158   6.898   6.996
 2751SOL    HW1 9152   1.115   6.988   6.993
 2751SOL    HW2 9153   1.253   6.906   6.965
 2752SOL     OW 9154   6.457   6.373   5.476
 2752SOL    HW1 9155   6.383   6.338   5.533
 2752SOL    HW2 9156   6.462   6.319   5.392
 2753SOL     OW 9157   2.797   5.897   5.020
 2753SOL    HW1 9158   2.781   5.931   4.927
 2753SOL    HW2 9159   2.782   5.971   5.085
 2754SOL     OW 9160   1.294   6.127   4.349
 2754SOL    HW1 9161   1.238   6.176   4.416
 2754SOL    HW2 9162   1.236   6.065   4.296
 2755SOL     OW 9163   3.443   5.928   2.319
 2755SOL    HW1 9164   3.509   5.964   2.253
 2755SOL    HW2 9165   3.396   5.849   2.279
 2756SOL     OW 9166   0.419   2.764   5.371
 2756SOL    HW1 9167   0.346   2.808   5.318
 2756SOL    HW2 9168   0.419   2.800   5.464
 2757SOL     OW 9169   4.435   3.431   6.782
 2757SOL    HW1 9170   4.350   3.400   6.739
 2757SOL    HW2 9171   4.434   3.406   6.879
 2758SOL     OW 9172   0.081   6.655   1.825
 2758SOL    HW1 9173   0.128   6.705   1.752
 2758SOL    HW2 9174   0.105   6.558   1.819
 2759SOL     OW 9175   3.581   3.573   5.874
 2759SOL    HW1 9176   3.492   3.608   5.903
 2759SOL    HW2 9177   3.588   3.476   5.898
 2760SOL     OW 9178   6.046   5.788   2.408
 2760SOL    HW1 9179   6.024   5.805   2.504
 2760SOL    HW2 9180   6.138   5.821   2.389
 2761SOL     OW 9181   1.290   2.946   3.558
 2761SOL    HW1 9182   1.218   2.886   3.525
 2761SOL    HW2 9183   1.250   3.020   3.611
 2762SOL     OW 9184   3.121   2.083   0.675
 2762SOL    HW1 9185   3.159   1.995   0.648
 2762SOL    HW2 9186   3.189   2.135   0.725
 2763SOL     OW 9187   6.581   1.737   4.110
 2763SOL    HW1 9188   6.603   1.649   4.067
 2763SOL    HW2 9189   6.665   1.780   4.142
 2764SOL     OW 9190   0.743   2.986   3.215
 2764SOL    HW1 9191   0.731   2.929   3.134
 2764SOL    HW2 9192   0.737   3.083   3.189
 2765SOL     OW 9193   5.926   6.746   6.385
 2765SOL    HW1 9194   5.865   6.779   6.458
 2765SOL    HW2 9195   5.896   6.785   6.297
 2766SOL     OW 9196   4.590   6.961   0.342
 2766SOL    HW1 9197   4.642   6.998   0.265
 2766SOL    HW2 9198   4.642   6.974   0.427
 2767SOL     OW 9199   0.526   5.497   6.475
 2767SOL    HW1 9200   0.511   5.457   6.566
 2767SOL    HW2 9201   0.461   5.458   6.410
 2768SOL     OW 9202   3.993   6.970   1.554
 2768SOL    HW1 9203   4.083   6.986   1.513
 2768SOL    HW2 9204   3.981   6.873   1.574
 2769SOL     OW 9205   0.652   4.668   5.736
 2769SOL    HW1 9206   0.628   4.745   5.677
 2769SOL    HW2 9207   0.741   4.686   5.779
 2770SOL     OW 9208   2.558   6.092   0.559
 2770SOL    HW1 9209   2.471   6.119   0.518
 2770SOL    HW2 9210   2.569   6.137   0.648
 2771SOL     OW 9211   4.594   0.389   5.221
 2771SOL    HW1 9212   4.512   0.360   5.269
 2771SOL    HW2 9213   4.674   0.340   5.257
 2772SOL     OW 9214   4.341   1.017   3.965
 2772SOL    HW1 9215   4.432   0.980   3.982
 2772SOL    HW2 9216   4.342   1.074   3.883
 2773SOL     OW 9217   5.840   2.397   4.756
 2773SOL    HW1 9218   5.879   2.487   4.776
 2773SOL    HW2 9219   5.912   2.328   4.766
 2774SOL     OW 9220   5.449   1.934   4.054
 2774SOL    HW1 9221   5.467   2.032   4.047
 2774SOL    HW2 9222   5.351   1.917   4.040
 2775SOL     OW 9223   7.018   3.373   4.004
 2775SOL    HW1 9224   0.089   3.344   4.039
 2775SOL    HW2 9225   6.946   3.349   4.069
 2776SOL     OW 9226   5.155   4.923   6.224
 2776SOL    HW1 9227   5.125   5.003   6.172
 2776SOL    HW2 9228   5.140   4.841   6.169
 2777SOL     OW 9229   2.231   2.116   6.352
 2777SOL    HW1 9230   2.284   2.094   6.271
 2777SOL    HW2 9231   2.268   2.066   6.431
 2778SOL     OW 9232   2.663   0.772   5.981
 2778SOL    HW1 9233   2.721   0.784   5.901
 2778SOL    HW2 9234   2.618   0.683   5.976
 2779SOL     OW 9235   4.849   0.737   1.389
 2779SOL    HW1 9236   4.842   0.829   1.428
 2779SOL    HW2 9237   4.776   0.723   1.322
 2780SOL     OW 9238   6.887   1.071   5.245
 2780SOL    HW1 9239   6.970   1.105   5.290
 2780SOL    HW2 9240   6.815   1.140   5.252
 2781SOL     OW 9241   5.565   0.963   3.632
 2781SOL    HW1 9242   5.476   1.005   3.651
 2781SOL    HW2 9243   5.588   0.898   3.704
 2782SOL     OW 9244   5.550   0.715   6.001
 2782SOL    HW1 9245   5.617   0.756   6.063
 2782SOL    HW2 9246   5.459   0.753   6.020
 2783SOL     OW 9247   6.130   3.811   1.669
 2783SOL    HW1 9248   6.165   3.863   1.591
 2783SOL    HW2 9249   6.188   3.828   1.749
 2784SOL     OW 9250   0.855   2.923   1.217
 2784SOL    HW1 9251   0.820   2.871   1.295
 2784SOL    HW2 9252   0.945   2.887   1.191
 2785SOL     OW 9253   6.284   3.306   2.186
 2785SOL    HW1 9254   6.284   3.224   2.244
 2785SOL    HW2 9255   6.198   3.355   2.197
 2786SOL     OW 9256   0.926   6.229   6.448
 2786SOL    HW1 9257   0.921   6.318   6.403
 2786SOL    HW2 9258   0.875   6.162   6.395
 2787SOL     OW 9259   0.317   5.650   6.675
 2787SOL    HW1 9260   0.335   5.579   6.608
 2787SOL    HW2 9261   0.228   5.691   6.659
 2788SOL     OW 9262   2.749   0.047   6.017
 2788SOL    HW1 9263   2.688   7.000   5.973
 2788SOL    HW2 9264   2.836   0.050   5.968
 2789SOL     OW 9265   1.164   2.086   4.715
 2789SOL    HW1 9266   1.083   2.061   4.662
 2789SOL    HW2 9267   1.177   2.185   4.711
 2790SOL     OW 9268   1.312   5.464   1.769
 2790SOL    HW1 9269   1.364   5.548   1.750
 2790SOL    HW2 9270   1.214   5.484   1.766
 2791SOL     OW 9271   0.892   2.940   3.917
 2791SOL    HW1 9272   0.878   2.947   3.818
 2791SOL    HW2 9273   0.943   3.019   3.950
 2792SOL     OW 9274   3.634   2.036   6.094
 2792SOL    HW1 9275   3.582   1.965   6.140
 2792SOL    HW2 9276   3.695   2.081   6.159
 2793SOL     OW 9277   3.854   3.609   0.265
 2793SOL    HW1 9278   3.792   3.539   0.300
 2793SOL    HW2 9279   3.802   3.691   0.241
 2794SOL     OW 9280   1.271   2.593   0.199
 2794SOL    HW1 9281   1.250   2.605   0.296
 2794SOL    HW2 9282   1.330   2.668   0.169
 2795SOL     OW 9283   1.523   6.250   1.318
 2795SOL    HW1 9284   1.558   6.230   1.410
 2795SOL    HW2 9285   1.477   6.169   1.282
 2796SOL     OW 9286   1.753   6.105   6.613
 2796SOL    HW1 9287   1.653   6.102   6.619
 2796SOL    HW2 9288   1.786   6.192   6.647
 2797SOL     OW 9289   5.244   4.873   3.172
 2797SOL    HW1 9290   5.240   4.875   3.073
 2797SOL    HW2 9291   5.333   4.907   3.203
 2798SOL     OW 9292   5.321   1.129   1.675
 2798SOL    HW1 9293   5.393   1.107   1.609
 2798SOL    HW2 9294   5.246   1.175   1.628
 2799SOL     OW 9295   3.408   6.708   4.127
 2799SOL    HW1 9296   3.435   6.618   4.160
 2799SOL    HW2 9297   3.413   6.774   4.202
 2800SOL     OW 9298   5.290   0.435   6.443
 2800SOL    HW1 9299   5.202   0.389   6.430
 2800SOL    HW2 9300   5.309   0.493   6.364
 2801SOL     OW 9301   0.453   4.488   4.056
 2801SOL    HW1 9302   0.432   4.573   4.105
 2801SOL    HW2 9303   0.550   4.466   4.067
 2802SOL     OW 9304   1.918   5.271   4.948
 2802SOL    HW1 9305   1.866   5.210   5.008
 2802SOL    HW2 9306   2.015   5.264   4.971
 2803SOL     OW 9307   3.740   2.638   6.313
 2803SOL    HW1 9308   3.805   2.570   6.279
 2803SOL    HW2 9309   3.698   2.605   6.398
 2804SOL     OW 9310   0.132   2.623   3.701
 2804SOL    HW1 9311   0.141   2.614   3.800
 2804SOL    HW2 9312   0.222   2.621   3.658
 2805SOL     OW 9313   3.221   3.579   0.712
 2805SOL    HW1 9314   3.213   3.524   0.796
 2805SOL    HW2 9315   3.234   3.518   0.634
 2806SOL     OW 9316   0.113   3.002   6.079
 2806SOL    HW1 9317   0.130   3.097   6.104
 2806SOL    HW2 9318   0.071   2.954   6.157
 2807SOL     OW 9319   4.365   1.405   3.980
 2807SOL    HW1 9320   4.339   1.493   4.020
 2807SOL    HW2 9321   4.345   1.406   3.882
 2808SOL     OW 9322   0.561   4.970   5.351
 2808SOL    HW1 9323   0.621   5.030   5.405
 2808SOL    HW2 9324   0.487   5.024   5.311
 2809SOL     OW 9325   6.916   5.699   1.868
 2809SOL    HW1 9326   6.955   5.616   1.828
 2809SOL    HW2 9327   6.926   5.696   1.967
 2810SOL     OW 9328   1.897   6.887   3.113
 2810SOL    HW1 9329   1.848   6.955   3.167
 2810SOL    HW2 9330   1.951   6.933   3.043
 2811SOL     OW 9331   0.914   1.068   0.788
 2811SOL    HW1 9332   1.007   1.104   0.787
 2811SOL    HW2 9333   0.912   0.984   0.843
 2812SOL     OW 9334   1.362   1.914   0.608
 2812SOL    HW1 9335   1.451   1.882   0.638
 2812SOL    HW2 9336   1.334   1.993   0.663
 2813SOL     OW 9337   1.012   3.288   2.154
 2813SOL    HW1 9338   0.913   3.283   2.165
 2813SOL    HW2 9339   1.054   3.208   2.196
 2814SOL     OW 9340   2.637   3.913   6.771
 2814SOL    HW1 9341   2.643   3.990   6.707
 2814SOL    HW2 9342   2.697   3.930   6.850
 2815SOL     OW 9343   7.001   5.152   4.341
 2815SOL    HW1 9344   0.037   5.182   4.420
 2815SOL    HW2 9345   6.905   5.177   4.355
 2816SOL     OW 9346   0.669   5.923   4.870
 2816SOL    HW1 9347   0.641   5.892   4.779
 2816SOL    HW2 9348   0.706   5.846   4.921
 2817SOL     OW 9349   3.328   0.925   2.551
 2817SOL    HW1 9350   3.232   0.915   2.524
 2817SOL    HW2 9351   3.370   0.998   2.497
 2818SOL     OW 9352   2.151   0.567   0.257
 2818SOL    HW1 9353   2.125   0.647   0.312
 2818SOL    HW2 9354   2.250   0.564   0.248
 2819SOL     OW 9355   0.659   0.297   6.508
 2819SOL    HW1 9356   0.624   0.363   6.441
 2819SOL    HW2 9357   0.589   0.282   6.579
 2820SOL     OW 9358   1.914   2.172   0.084
 2820SOL    HW1 9359   1.860   2.238   0.031
 2820SOL    HW2 9360   2.002   2.159   0.040
 2821SOL     OW 9361   3.176   3.321   6.081
 2821SOL    HW1 9362   3.178   3.317   6.181
 2821SOL    HW2 9363   3.134   3.238   6.044
 2822SOL     OW 9364   4.922   2.657   0.225
 2822SOL    HW1 9365   4.900   2.710   0.143
 2822SOL    HW2 9366   4.876   2.697   0.304
 2823SOL     OW 9367   4.678   3.460   1.352
 2823SOL    HW1 9368   4.646   3.441   1.259
 2823SOL    HW2 9369   4.613   3.424   1.418
 2824SOL     OW 9370   0.796   4.499   4.771
 2824SOL    HW1 9371   0.816   4.405   4.796
 2824SOL    HW2 9372   0.865   4.532   4.706
 2825SOL     OW 9373   5.365   1.127   6.291
 2825SOL    HW1 9374   5.463   1.113   6.278
 2825SOL    HW2 9375   5.343   1.122   6.388
 2826SOL     OW 9376   2.339   2.855   6.616
 2826SOL    HW1 9377   2.288   2.801   6.682
 2826SOL    HW2 9378   2.327   2.817   6.524
 2827SOL     OW 9379   5.992   1.831   6.666
 2827SOL    HW1 9380   6.021   1.842   6.571
 2827SOL    HW2 9381   5.923   1.760   6.672
 2828SOL     OW 9382   1.752   3.320   1.399
 2828SOL    HW1 9383   1.769   3.294   1.494
 2828SOL    HW2 9384   1.819   3.275   1.340
 2829SOL     OW 9385   3.328   3.396   2.196
 2829SOL    HW1 9386   3.421   3.421   2.169
 2829SOL    HW2 9387   3.271   3.478   2.199
 2830SOL     OW 9388   3.109   6.332   4.570
 2830SOL    HW1 9389   3.085   6.254   4.512
 2830SOL    HW2 9390   3.187   6.380   4.530
 2831SOL     OW 9391   6.221   1.649   1.411
 2831SOL    HW1 9392   6.297   1.583   1.417
 2831SOL    HW2 9393   6.239   1.714   1.337
 2832SOL     OW 9394   0.812   3.620   2.375
 2832SOL    HW1 9395   0.885   3.577   2.427
 2832SOL    HW2 9396   0.727   3.615   2.428
 2833SOL     OW 9397   1.327   2.623   2.554
 2833SOL    HW1 9398   1.242   2.634   2.501
 2833SOL    HW2 9399   1.348   2.709   2.601
 2834SOL     OW 9400   3.959   6.651   4.439
 2834SOL    HW1 9401   3.872   6.692   4.467
 2834SOL    HW2 9402   4.031   6.720   4.442
 2835SOL     OW 9403   6.247   0.634   6.730
 2835SOL    HW1 9404   6.226   0.537   6.743
 2835SOL    HW2 9405   6.257   0.678   6.818
 2836SOL     OW 9406   3.010   6.032   2.704
 2836SOL    HW1 9407   3.107   6.048   2.685
 2836SOL    HW2 9408   3.001   5.958   2.770
 2837SOL     OW 9409   4.909   4.339   1.709
 2837SOL    HW1 9410   4.976   4.409   1.685
 2837SOL    HW2 9411   4.817   4.380   1.708
 2838SOL     OW 9412   6.691   3.905   6.296
 2838SOL    HW1 9413   6.781   3.888   6.337
 2838SOL    HW2 9414   6.621   3.903   6.366
 2839SOL     OW 9415   5.875   3.512   5.308
 2839SOL    HW1 9416   5.817   3.455   5.367
 2839SOL    HW2 9417   5.933   3.453   5.251
 2840SOL     OW 9418   5.886   6.870   4.275
 2840SOL    HW1 9419   5.985   6.883   4.266
 2840SOL    HW2 9420   5.855   6.806   4.204
 2841SOL     OW 9421   5.550   4.025   2.372
 2841SOL    HW1 9422   5.542   3.933   2.333
 2841SOL    HW2 9423   5.589   4.086   2.304
 2842SOL     OW 9424   0.739   0.151   3.671
 2842SOL    HW1 9425   0.674   0.083   3.707
 2842SOL    HW2 9426   0.708   0.243   3.696
 2843SOL     OW 9427   2.313   2.704   3.555
 2843SOL    HW1 9428   2.293   2.720   3.652
 2843SOL    HW2 9429   2.281   2.613   3.530
 2844SOL     OW 9430   4.659   3.668   1.044
 2844SOL    HW1 9431   4.616   3.582   1.068
 2844SOL    HW2 9432   4.607   3.744   1.084
 2845SOL     OW 9433   2.580   1.844   1.928
 2845SOL    HW1 9434   2.497   1.845   1.982
 2845SOL    HW2 9435   2.562   1.885   1.838
 2846SOL     OW 9436   6.693   6.903   6.727
 2846SOL    HW1 9437   6.675   6.836   6.655
 2846SOL    HW2 9438   6.623   6.897   6.797
 2847SOL     OW 9439   4.639   5.494   1.245
 2847SOL    HW1 9440   4.645   5.569   1.311
 2847SOL    HW2 9441   4.559   5.438   1.265
 2848SOL     OW 9442   0.856   4.534   5.441
 2848SOL    HW1 9443   0.783   4.536   5.510
 2848SOL    HW2 9444   0.817   4.551   5.351
 2849SOL     OW 9445   5.430   0.767   1.709
 2849SOL    HW1 9446   5.371   0.711   1.650
 2849SOL    HW2 9447   5.525   0.741   1.695
 2850SOL     OW 9448   1.301   0.467   1.747
 2850SOL    HW1 9449   1.303   0.371   1.774
 2850SOL    HW2 9450   1.337   0.523   1.822
 2851SOL     OW 9451   2.939   3.356   1.285
 2851SOL    HW1 9452   2.996   3.284   1.323
 2851SOL    HW2 9453   2.979   3.445   1.305
 2852SOL     OW 9454   6.993   4.818   5.718
 2852SOL    HW1 9455   0.064   4.778   5.741
 2852SOL    HW2 9456   6.956   4.865   5.798
 2853SOL     OW 9457   0.209   4.167   5.284
 2853SOL    HW1 9458   0.114   4.199   5.294
 2853SOL    HW2 9459   0.246   4.200   5.197
 2854SOL     OW 9460   3.380   0.646   6.510
 2854SOL    HW1 9461   3.463   0.590   6.521
 2854SOL    HW2 9462   3.383   0.691   6.421
 2855SOL     OW 9463   2.104   1.386   4.620
 2855SOL    HW1 9464   2.132   1.291   4.609
 2855SOL    HW2 9465   2.120   1.437   4.536
 2856SOL     OW 9466   0.406   5.748   3.844
 2856SOL    HW1 9467   0.323   5.796   3.817
 2856SOL    HW2 9468   0.385   5.653   3.867
 2857SOL     OW 9469   6.993   4.308   1.055
 2857SOL    HW1 9470   6.904   4.349   1.073
 2857SOL    HW2 9471   7.001   4.223   1.106
 2858SOL     OW 9472   4.801   4.564   2.553
 2858SOL    HW1 9473   4.857   4.526   2.480
 2858SOL    HW2 9474   4.841   4.539   2.641
 2859SOL     OW 9475   5.286   5.054   1.883
 2859SOL    HW1 9476   5.367   5.014   1.927
 2859SOL    HW2 9477   5.276   5.016   1.791
 2860SOL     OW 9478   1.106   6.723   2.476
 2860SOL    HW1 9479   1.191   6.688   2.436
 2860SOL    HW2 9480   1.029   6.666   2.449
 2861SOL     OW 9481   4.570   3.991   5.683
 2861SOL    HW1 9482   4.528   3.938   5.608
 2861SOL    HW2 9483   4.508   3.993   5.761
 2862SOL     OW 9484   4.530   2.061   0.252
 2862SOL    HW1 9485   4.465   2.026   0.185
 2862SOL    HW2 9486   4.502   2.153   0.281
 2863SOL     OW 9487   5.849   1.749   4.958
 2863SOL    HW1 9488   5.920   1.805   4.917
 2863SOL    HW2 9489   5.768   1.750   4.900
 2864SOL     OW 9490   3.988   4.732   0.590
 2864SOL    HW1 9491   4.037   4.739   0.503
 2864SOL    HW2 9492   3.910   4.795   0.590
 2865SOL     OW 9493   5.509   5.158   5.399
 2865SOL    HW1 9494   5.566   5.139   5.320
 2865SOL    HW2 9495   5.564   5.205   5.469
 2866SOL     OW 9496   3.683   4.259   0.680
 2866SOL    HW1 9497   3.642   4.342   0.716
 2866SOL    HW2 9498   3.744   4.219   0.748
 2867SOL     OW 9499   6.060   6.492   2.788
 2867SOL    HW1 9500   6.087   6.576   2.836
 2867SOL    HW2 9501   6.069   6.414   2.850
 2868SOL     OW 9502   0.497   0.641   5.803
 2868SOL    HW1 9503   0.471   0.665   5.709
 2868SOL    HW2 9504   0.585   0.684   5.825
 2869SOL     OW 9505   6.072   5.030   3.976
 2869SOL    HW1 9506   6.046   4.948   3.924
 2869SOL    HW2 9507   6.146   5.077   3.928
 2870SOL     OW 9508   7.004   1.695   1.883
 2870SOL    HW1 9509   0.022   1.638   1.809
 2870SOL    HW2 9510   0.033   1.783   1.882
 2871SOL     OW 9511   5.055   1.488   2.926
 2871SOL    HW1 9512   5.100   1.513   2.840
 2871SOL    HW2 9513   5.109   1.522   3.003
 2872SOL     OW 9514   2.452   2.318   2.808
 2872SOL    HW1 9515   2.395   2.367   2.874
 2872SOL    HW2 9516   2.530   2.277   2.857
 2873SOL     OW 9517   1.149   0.374   1.187
 2873SOL    HW1 9518   1.151   0.372   1.087
 2873SOL    HW2 9519   1.159   0.468   1.219
 2874SOL     OW 9520   1.813   1.631   3.063
 2874SOL    HW1 9521   1.872   1.644   3.143
 2874SOL    HW2 9522   1.868   1.603   2.985
 2875SOL     OW 9523   2.566   6.398   2.896
 2875SOL    HW1 9524   2.658   6.360   2.895
 2875SOL    HW2 9525   2.558   6.467   2.824
 2876SOL     OW 9526   1.945   6.360   1.636
 2876SOL    HW1 9527   2.035   6.404   1.637
 2876SOL    HW2 9528   1.884   6.406   1.700
 2877SOL     OW 9529   1.637   2.432   6.326
 2877SOL    HW1 9530   1.596   2.495   6.392
 2877SOL    HW2 9531   1.569   2.411   6.255
 2878SOL     OW 9532   3.855   2.980   4.616
 2878SOL    HW1 9533   3.846   2.987   4.516
 2878SOL    HW2 9534   3.860   3.071   4.655
 2879SOL     OW 9535   5.347   4.509   0.112
 2879SOL    HW1 9536   5.262   4.555   0.087
 2879SOL    HW2 9537   5.327   4.419   0.151
 2880SOL     OW 9538   2.023   1.146   3.567
 2880SOL    HW1 9539   2.057   1.163   3.660
 2880SOL    HW2 9540   1.998   1.050   3.557
 2881SOL     OW 9541   5.400   5.671   0.340
 2881SOL    HW1 9542   5.362   5.661   0.248
 2881SOL    HW2 9543   5.441   5.584   0.368
 2882SOL     OW 9544   4.415   6.492   0.008
 2882SOL    HW1 9545   4.393   6.428   0.083
 2882SOL    HW2 9546   4.509   6.477   6.996
 2883SOL     OW 9547   5.831   6.512   3.523
 2883SOL    HW1 9548   5.910   6.453   3.510
 2883SOL    HW2 9549   5.859   6.608   3.518
 2884SOL     OW 9550   5.730   5.500   4.112
 2884SOL    HW1 9551   5.696   5.439   4.041
 2884SOL    HW2 9552   5.827   5.482   4.127
 2885SOL     OW 9553   1.578   2.576   3.708
 2885SOL    HW1 9554   1.570   2.631   3.792
 2885SOL    HW2 9555   1.547   2.483   3.726
 2886SOL     OW 9556   2.333   4.447   5.382
 2886SOL    HW1 9557   2.405   4.460   5.450
 2886SOL    HW2 9558   2.341   4.356   5.342
 2887SOL     OW 9559   6.936   5.896   2.817
 2887SOL    HW1 9560   6.990   5.837   2.878
 2887SOL    HW2 9561   6.955   5.992   2.840
 2888SOL     OW 9562   5.488   6.854   6.856
 2888SOL    HW1 9563   5.552   6.797   6.805
 2888SOL    HW2 9564   5.538   6.925   6.905
 2889SOL     OW 9565   4.103   6.033   3.565
 2889SOL    HW1 9566   4.074   5.980   3.485
 2889SOL    HW2 9567   4.022   6.063   3.615
 2890SOL     OW 9568   0.737   2.129   1.116
 2890SOL    HW1 9569   0.749   2.064   1.041
 2890SOL    HW2 9570   0.824   2.142   1.163
 2891SOL     OW 9571   0.208   1.604   5.225
 2891SOL    HW1 9572   0.224   1.537   5.152
 2891SOL    HW2 9573   0.275   1.590   5.298
 2892SOL     OW 9574   5.333   4.159   1.856
 2892SOL    HW1 9575   5.294   4.075   1.894
 2892SOL    HW2 9576   5.286   4.238   1.896
 2893SOL     OW 9577   6.574   5.953   4.888
 2893SOL    HW1 9578   6.541   6.043   4.918
 2893SOL    HW2 9579   6.674   5.954   4.884
 2894SOL     OW 9580   2.159   5.272   2.194
 2894SOL    HW1 9581   2.177   5.349   2.133
 2894SOL    HW2 9582   2.068   5.282   2.234
 2895SOL     OW 9583   4.254   6.560   5.848
 2895SOL    HW1 9584   4.285   6.466   5.834
 2895SOL    HW2 9585   4.324   6.611   5.898
 2896SOL     OW 9586   5.356   0.211   4.687
 2896SOL    HW1 9587   5.350   0.114   4.711
 2896SOL    HW2 9588   5.265   0.252   4.688
 2897SOL     OW 9589   3.714   5.097   2.911
 2897SOL    HW1 9590   3.634   5.105   2.971
 2897SOL    HW2 9591   3.798   5.104   2.965
 2898SOL     OW 9592   5.376   2.660   2.492
 2898SOL    HW1 9593   5.295   2.644   2.548
 2898SOL    HW2 9594   5.415   2.572   2.464
 2899SOL     OW 9595   6.798   3.920   0.922
 2899SOL    HW1 9596   6.754   4.004   0.951
 2899SOL    HW2 9597   6.829   3.869   1.002
 2900SOL     OW 9598   2.352   2.892   5.514
 2900SOL    HW1 9599   2.423   2.828   5.486
 2900SOL    HW2 9600   2.316   2.939   5.434
 2901SOL     OW 9601   0.909   4.032   2.963
 2901SOL    HW1 9602   0.813   4.006   2.972
 2901SOL    HW2 9603   0.968   3.959   2.999
 2902SOL     OW 9604   5.864   5.658   3.779
 2902SOL    HW1 9605   5.917   5.579   3.747
 2902SOL    HW2 9606   5.779   5.664   3.727
 2903SOL     OW 9607   5.783   4.948   0.425
 2903SOL    HW1 9608   5.852   4.903   0.368
 2903SOL    HW2 9609   5.774   4.900   0.512
 2904SOL     OW 9610   1.983   4.164   4.923
 2904SOL    HW1 9611   1.978   4.091   4.855
 2904SOL    HW2 9612   2.076   4.202   4.925
 2905SOL     OW 9613   1.944   5.728   1.114
 2905SOL    HW1 9614   2.018   5.727   1.180
 2905SOL    HW2 9615   1.862   5.768   1.156
 2906SOL     OW 9616   5.863   6.086   4.578
 2906SOL    HW1 9617   5.936   6.020   4.562
 2906SOL    HW2 9618   5.776   6.049   4.544
 2907SOL     OW 9619   0.822   0.413   5.018
 2907SOL    HW1 9620   0.920   0.428   5.033
 2907SOL    HW2 9621   0.781   0.496   4.981
 2908SOL     OW 9622   4.510   0.104   3.119
 2908SOL    HW1 9623   4.424   0.083   3.073
 2908SOL    HW2 9624   4.577   0.133   3.051
 2909SOL     OW 9625   7.016   6.539   1.565
 2909SOL    HW1 9626   7.017   6.562   1.468
 2909SOL    HW2 9627   7.000   6.622   1.619
 2910SOL     OW 9628   0.740   0.574   4.593
 2910SOL    HW1 9629   0.667   0.507   4.606
 2910SOL    HW2 9630   0.801   0.543   4.521
 2911SOL     OW 9631   6.999   4.353   5.680
 2911SOL    HW1 9632   6.914   4.312   5.712
 2911SOL    HW2 9633   6.980   4.444   5.642
 2912SOL     OW 9634   1.157   1.124   1.631
 2912SOL    HW1 9635   1.176   1.031   1.663
 2912SOL    HW2 9636   1.096   1.170   1.695
 2913SOL     OW 9637   2.839   6.237   2.842
 2913SOL    HW1 9638   2.917   6.175   2.828
 2913SOL    HW2 9639   2.771   6.221   2.771
 2914SOL     OW 9640   4.083   5.743   0.982
 2914SOL    HW1 9641   4.183   5.748   0.975
 2914SOL    HW2 9642   4.048   5.679   0.914
 2915SOL     OW 9643   2.741   0.354   3.360
 2915SOL    HW1 9644   2.772   0.299   3.283
 2915SOL    HW2 9645   2.816   0.410   3.394
 2916SOL     OW 9646   1.812   5.789   0.040
 2916SOL    HW1 9647   1.846   5.860   0.102
 2916SOL    HW2 9648   1.802   5.826   6.966
 2917SOL     OW 9649   2.853   6.728   2.896
 2917SOL    HW1 9650   2.897   6.700   2.981
 2917SOL    HW2 9651   2.921   6.727   2.822
 2918SOL     OW 9652   5.355   3.151   1.486
 2918SOL    HW1 9653   5.364   3.215   1.410
 2918SOL    HW2 9654   5.278   3.090   1.469
 2919SOL     OW 9655   0.630   5.967   5.257
 2919SOL    HW1 9656   0.660   5.897   5.192
 2919SOL    HW2 9657   0.661   6.057   5.225
 2920SOL     OW 9658   2.018   2.335   2.035
 2920SOL    HW1 9659   2.078   2.319   2.113
 2920SOL    HW2 9660   2.071   2.331   1.950
 2921SOL     OW 9661   1.426   6.206   3.511
 2921SOL    HW1 9662   1.421   6.227   3.609
 2921SOL    HW2 9663   1.393   6.113   3.495
 2922SOL     OW 9664   4.104   4.958   4.133
 2922SOL    HW1 9665   4.133   5.051   4.152
 2922SOL    HW2 9666   4.113   4.939   4.035
 2923SOL     OW 9667   6.908   5.452   5.270
 2923SOL    HW1 9668   6.840   5.500   5.324
 2923SOL    HW2 9669   6.875   5.440   5.176
 2924SOL     OW 9670   6.017   1.590   6.438
 2924SOL    HW1 9671   6.116   1.598   6.429
 2924SOL    HW2 9672   5.974   1.669   6.395
 2925SOL     OW 9673   5.587   6.435   4.838
 2925SOL    HW1 9674   5.646   6.501   4.886
 2925SOL    HW2 9675   5.562   6.471   4.749
 2926SOL     OW 9676   6.530   2.179   3.947
 2926SOL    HW1 9677   6.538   2.273   3.911
 2926SOL    HW2 9678   6.471   2.179   4.027
 2927SOL     OW 9679   0.909   1.812   1.453
 2927SOL    HW1 9680   0.833   1.798   1.390
 2927SOL    HW2 9681   0.884   1.881   1.521
 2928SOL     OW 9682   6.098   3.152   0.466
 2928SOL    HW1 9683   6.084   3.136   0.563
 2928SOL    HW2 9684   6.178   3.101   0.435
 2929SOL     OW 9685   2.046   1.952   4.083
 2929SOL    HW1 9686   2.133   1.991   4.053
 2929SOL    HW2 9687   1.997   1.917   4.003
 2930SOL     OW 9688   0.608   3.909   4.283
 2930SOL    HW1 9689   0.615   3.834   4.348
 2930SOL    HW2 9690   0.568   3.875   4.198
 2931SOL     OW 9691   5.269   3.962   5.640
 2931SOL    HW1 9692   5.293   4.058   5.657
 2931SOL    HW2 9693   5.221   3.955   5.552
 2932SOL     OW 9694   5.878   5.056   1.565
 2932SOL    HW1 9695   5.952   5.090   1.622
 2932SOL    HW2 9696   5.914   4.990   1.498
 2933SOL     OW 9697   1.319   6.435   0.081
 2933SOL    HW1 9698   1.247   6.456   0.147
 2933SOL    HW2 9699   1.278   6.399   7.015
 2934SOL     OW 9700   3.796   5.024   0.976
 2934SOL    HW1 9701   3.872   5.003   1.036
 2934SOL    HW2 9702   3.715   5.047   1.031
 2935SOL     OW 9703   0.892   2.608   6.184
 2935SOL    HW1 9704   0.823   2.540   6.207
 2935SOL    HW2 9705   0.953   2.622   6.262
 2936SOL     OW 9706   4.908   6.479   1.895
 2936SOL    HW1 9707   4.834   6.448   1.954
 2936SOL    HW2 9708   4.969   6.539   1.946
 2937SOL     OW 9709   5.444   3.960   2.629
 2937SOL    HW1 9710   5.503   3.945   2.549
 2937SOL    HW2 9711   5.381   4.035   2.609
 2938SOL     OW 9712   0.568   6.007   5.982
 2938SOL    HW1 9713   0.472   6.010   5.952
 2938SOL    HW2 9714   0.581   5.930   6.044
 2939SOL     OW 9715   0.195   6.177   1.583
 2939SOL    HW1 9716   0.231   6.173   1.676
 2939SOL    HW2 9717   0.252   6.120   1.523
 2940SOL     OW 9718   4.520   6.742   3.716
 2940SOL    HW1 9719   4.425   6.769   3.704
 2940SOL    HW2 9720   4.578   6.797   3.655
 2941SOL     OW 9721   2.069   4.567   3.202
 2941SOL    HW1 9722   2.149   4.534   3.153
 2941SOL    HW2 9723   2.082   4.552   3.300
 2942SOL     OW 9724   3.681   1.560   1.406
 2942SOL    HW1 9725   3.616   1.636   1.414
 2942SOL    HW2 9726   3.696   1.520   1.497
 2943SOL     OW 9727   5.588   3.701   3.017
 2943SOL    HW1 9728   5.638   3.692   2.931
 2943SOL    HW2 9729   5.648   3.676   3.093
 2944SOL     OW 9730   2.194   5.724   2.136
 2944SOL    HW1 9731   2.284   5.719   2.180
 2944SOL    HW2 9732   2.130   5.666   2.185
 2945SOL     OW 9733   4.535   4.327   0.926
 2945SOL    HW1 9734   4.620   4.279   0.948
 2945SOL    HW2 9735   4.462   4.294   0.986
 2946SOL     OW 9736   3.522   3.204   4.577
 2946SOL    HW1 9737   3.502   3.192   4.480
 2946SOL    HW2 9738   3.451   3.158   4.631
 2947SOL     OW 9739   6.667   5.893   0.942
 2947SOL    HW1 9740   6.649   5.818   1.006
 2947SOL    HW2 9741   6.757   5.932   0.961
 2948SOL     OW 9742   0.177   3.543   2.466
 2948SOL    HW1 9743   0.168   3.492   2.552
 2948SOL    HW2 9744   0.163   3.481   2.389
 2949SOL     OW 9745   2.106   6.476   0.403
 2949SOL    HW1 9746   2.008   6.495   0.394
 2949SOL    HW2 9747   2.151   6.551   0.451
 2950SOL     OW 9748   6.201   5.950   2.159
 2950SOL    HW1 9749   6.248   5.909   2.237
 2950SOL    HW2 9750   6.268   5.994   2.099
 2951SOL     OW 9751   0.386   1.323   1.495
 2951SOL    HW1 9752   0.476   1.364   1.509
 2951SOL    HW2 9753   0.350   1.350   1.406
 2952SOL     OW 9754   6.796   1.763   5.480
 2952SOL    HW1 9755   6.827   1.812   5.562
 2952SOL    HW2 9756   6.722   1.813   5.437
 2953SOL     OW 9757   1.440   5.122   3.531
 2953SOL    HW1 9758   1.374   5.080   3.469
 2953SOL    HW2 9759   1.523   5.146   3.480
 2954SOL     OW 9760   0.570   3.979   6.226
 2954SOL    HW1 9761   0.564   3.898   6.168
 2954SOL    HW2 9762   0.562   3.952   6.322
 2955SOL     OW 9763   1.252   4.569   6.196
 2955SOL    HW1 9764   1.212   4.604   6.280
 2955SOL    HW2 9765   1.338   4.523   6.216
 2956SOL     OW 9766   5.239   4.987   4.369
 2956SOL    HW1 9767   5.161   5.021   4.421
 2956SOL    HW2 9768   5.234   5.022   4.275
 2957SOL     OW 9769   2.636   5.313   1.399
 2957SOL    HW1 9770   2.690   5.229   1.398
 2957SOL    HW2 9771   2.614   5.337   1.493
 2958SOL     OW 9772   1.790   4.440   3.034
 2958SOL    HW1 9773   1.797   4.357   2.979
 2958SOL    HW2 9774   1.814   4.419   3.129
 2959SOL     OW 9775   0.174   3.776   3.668
 2959SOL    HW1 9776   0.197   3.694   3.721
 2959SOL    HW2 9777   0.075   3.790   3.670
 2960SOL     OW 9778   5.028   6.908   1.019
 2960SOL    HW1 9779   5.098   6.881   0.952
 2960SOL    HW2 9780   4.938   6.902   0.977
 2961SOL     OW 9781   5.820   3.281   1.975
 2961SOL    HW1 9782   5.899   3.315   1.925
 2961SOL    HW2 9783   5.841   3.191   2.015
 2962SOL     OW 9784   7.006   0.345   3.832
 2962SOL    HW1 9785   0.086   0.322   3.835
 2962SOL    HW2 9786   6.994   0.432   3.785
 2963SOL     OW 9787   1.240   0.758   5.232
 2963SOL    HW1 9788   1.317   0.810   5.197
 2963SOL    HW2 9789   1.269   0.664   5.251
 2964SOL     OW 9790   1.566   1.122   6.363
 2964SOL    HW1 9791   1.576   1.185   6.441
 2964SOL    HW2 9792   1.488   1.062   6.379
 2965SOL     OW 9793   6.458   0.141   5.958
 2965SOL    HW1 9794   6.554   0.165   5.941
 2965SOL    HW2 9795   6.451   0.090   6.044
 2966SOL     OW 9796   2.759   5.794   2.115
 2966SOL    HW1 9797   2.764   5.696   2.096
 2966SOL    HW2 9798   2.768   5.846   2.030
 2967SOL     OW 9799   5.449   0.180   5.164
 2967SOL    HW1 9800   5.428   0.276   5.148
 2967SOL    HW2 9801   5.523   0.152   5.102
 2968SOL     OW 9802   0.762   3.824   1.290
 2968SOL    HW1 9803   0.820   3.818   1.371
 2968SOL    HW2 9804   0.795   3.898   1.231
 2969SOL     OW 9805   4.758   3.088   5.180
 2969SOL    HW1 9806   4.796   3.035   5.105
 2969SOL    HW2 9807   4.830   3.110   5.246
 2970SOL     OW 9808   2.506   2.378   5.336
 2970SOL    HW1 9809   2.531   2.360   5.431
 2970SOL    HW2 9810   2.575   2.437   5.293
 2971SOL     OW 9811   5.269   3.093   6.591
 2971SOL    HW1 9812   5.329   3.161   6.547
 2971SOL    HW2 9813   5.188   3.139   6.626
 2972SOL     OW 9814   6.760   5.104   6.079
 2972SOL    HW1 9815   6.701   5.153   6.143
 2972SOL    HW2 9816   6.760   5.150   5.991
 2973SOL     OW 9817   4.793   1.140   4.119
 2973SOL    HW1 9818   4.745   1.212   4.070
 2973SOL    HW2 9819   4.873   1.180   4.166
 2974SOL     OW 9820   4.628   0.083   2.591
 2974SOL    HW1 9821   4.712   0.099   2.643
 2974SOL    HW2 9822   4.574   0.167   2.587
 2975SOL     OW 9823   5.108   3.834   4.850
 2975SOL    HW1 9824   5.133   3.844   4.754
 2975SOL    HW2 9825   5.164   3.762   4.892
 2976SOL     OW 9826   3.916   1.068   2.083
 2976SOL    HW1 9827   3.979   1.009   2.135
 2976SOL    HW2 9828   3.952   1.080   1.990
 2977SOL     OW 9829   0.929   0.642   1.708
 2977SOL    HW1 9830   1.011   0.681   1.668
 2977SOL    HW2 9831   0.944   0.626   1.806
 2978SOL     OW 9832   4.325   5.245   6.885
 2978SOL    HW1 9833   4.363   5.162   6.925
 2978SOL    HW2 9834   4.323   5.236   6.785
 2979SOL     OW 9835   3.317   0.637   4.831
 2979SOL    HW1 9836   3.413   0.629   4.804
 2979SOL    HW2 9837   3.275   0.713   4.781
 2980SOL     OW 9838   2.894   3.488   4.309
 2980SOL    HW1 9839   2.815   3.521   4.257
 2980SOL    HW2 9840   2.882   3.391   4.331
 2981SOL     OW 9841   2.509   0.902   1.389
 2981SOL    HW1 9842   2.523   0.927   1.485
 2981SOL    HW2 9843   2.444   0.965   1.347
 2982SOL     OW 9844   1.802   0.753   1.196
 2982SOL    HW1 9845   1.849   0.786   1.115
 2982SOL    HW2 9846   1.869   0.729   1.266
 2983SOL     OW 9847   6.310   3.246   5.764
 2983SOL    HW1 9848   6.407   3.260   5.785
 2983SOL    HW2 9849   6.281   3.157   5.798
 2984SOL     OW 9850   0.450   5.710   1.493
 2984SOL    HW1 9851   0.483   5.678   1.404
 2984SOL    HW2 9852   0.359   5.672   1.510
 2985SOL     OW 9853   6.163   0.388   6.594
 2985SOL    HW1 9854   6.093   0.330   6.635
 2985SOL    HW2 9855   6.204   0.340   6.516
 2986SOL     OW 9856   3.573   3.492   2.136
 2986SOL    HW1 9857   3.586   3.590   2.122
 2986SOL    HW2 9858   3.656   3.453   2.176
 2987SOL     OW 9859   2.398   5.761   4.687
 2987SOL    HW1 9860   2.474   5.717   4.642
 2987SOL    HW2 9861   2.431   5.839   4.740
 2988SOL     OW 9862   6.875   1.887   6.289
 2988SOL    HW1 9863   6.858   1.837   6.375
 2988SOL    HW2 9864   6.856   1.984   6.303
 2989SOL     OW 9865   5.353   3.305   4.800
 2989SOL    HW1 9866   5.311   3.258   4.878
 2989SOL    HW2 9867   5.373   3.238   4.728
 2990SOL     OW 9868   5.371   1.951   4.702
 2990SOL    HW1 9869   5.421   2.038   4.697
 2990SOL    HW2 9870   5.373   1.917   4.796
 2991SOL     OW 9871   0.010   3.498   0.646
 2991SOL    HW1 9872   6.958   3.434   0.678
 2991SOL    HW2 9873   0.091   3.446   0.616
 2992SOL     OW 9874   0.467   4.068   4.699
 2992SOL    HW1 9875   0.408   4.137   4.656
 2992SOL    HW2 9876   0.414   4.018   4.768
 2993SOL     OW 9877   2.444   4.339   0.695
 2993SOL    HW1 9878   2.407   4.248   0.714
 2993SOL    HW2 9879   2.387   4.408   0.740
 2994SOL     OW 9880   3.369   5.841   5.176
 2994SOL    HW1 9881   3.342   5.904   5.248
 2994SOL    HW2 9882   3.431   5.887   5.112
 2995SOL     OW 9883   4.254   0.144   1.669
 2995SOL    HW1 9884   4.269   0.099   1.581
 2995SOL    HW2 9885   4.234   0.241   1.654
 2996SOL     OW 9886   6.806   0.992   3.815
 2996SOL    HW1 9887   6.760   1.032   3.736
 2996SOL    HW2 9888   6.739   0.974   3.887
 2997SOL     OW 9889   4.822   6.543   3.951
 2997SOL    HW1 9890   4.789   6.516   3.860
 2997SOL    HW2 9891   4.756   6.515   4.020
 2998SOL     OW 9892   2.837   0.753   1.554
 2998SOL    HW1 9893   2.882   0.788   1.637
 2998SOL    HW2 9894   2.901   0.696   1.503
 2999SOL     OW 9895   2.144   4.535   0.933
 2999SOL    HW1 9896   2.134   4.634   0.946
 2999SOL    HW2 9897   2.114   4.510   0.841
 3000SOL     OW 9898   2.564   4.148   5.399
 3000SOL    HW1 9899   2.642   4.198   5.360
 3000SOL    HW2 9900   2.526   4.087   5.330
 3001SOL     OW 9901   4.971   0.671   6.389
 3001SOL    HW1 9902   5.039   0.745   6.387
 3001SOL    HW2 9903   4.911   0.682   6.468
 3002SOL     OW 9904   1.600   1.973   1.781
 3002SOL    HW1 9905   1.563   2.010   1.696
 3002SOL    HW2 9906   1.667   2.037   1.819
 3003SOL     OW 9907   1.636   6.703   0.555
 3003SOL    HW1 9908   1.709   6.687   0.621
 3003SOL    HW2 9909   1.550   6.666   0.590
 3004SOL     OW 9910   2.642   6.855   3.140
 3004SOL    HW1 9911   2.615   6.808   3.224
 3004SOL    HW2 9912   2.597   6.813   3.062
 3005SOL     OW 9913   1.497   2.262   0.913
 3005SOL    HW1 9914   1.527   2.318   0.836
 3005SOL    HW2 9915   1.576   2.234   0.967
 3006SOL     OW 9916   5.300   1.346   6.167
 3006SOL    HW1 9917   5.336   1.265   6.214
 3006SOL    HW2 9918   5.273   1.321   6.074
 3007SOL     OW 9919   6.242   5.502   6.477
 3007SOL    HW1 9920   6.166   5.515   6.540
 3007SOL    HW2 9921   6.292   5.588   6.467
 3008SOL     OW 9922   4.555   3.552   5.618
 3008SOL    HW1 9923   4.526   3.638   5.577
 3008SOL    HW2 9924   4.540   3.477   5.554
 3009SOL     OW 9925   6.556   3.034   2.423
 3009SOL    HW1 9926   6.625   2.979   2.469
 3009SOL    HW2 9927   6.595   3.071   2.338
 3010SOL     OW 9928   4.402   5.382   2.132
 3010SOL    HW1 9929   4.491   5.368   2.089
 3010SOL    HW2 9930   4.358   5.294   2.147
 3011SOL     OW 9931   6.695   0.317   0.196
 3011SOL    HW1 9932   6.671   0.405   0.154
 3011SOL    HW2 9933   6.644   0.244   0.151
 3012SOL     OW 9934   2.359   1.521   4.811
 3012SOL    HW1 9935   2.297   1.591   4.775
 3012SOL    HW2 9936   2.309   1.435   4.824
 3013SOL     OW 9937   0.077   4.909   5.069
 3013SOL    HW1 9938   7.003   4.875   5.046
 3013SOL    HW2 9939   0.138   4.831   5.083
 3014SOL     OW 9940   4.860   0.104   6.625
 3014SOL    HW1 9941   4.778   0.048   6.634
 3014SOL    HW2 9942   4.920   0.087   6.703
 3015SOL     OW 9943   1.959   0.825   6.129
 3015SOL    HW1 9944   2.026   0.773   6.184
 3015SOL    HW2 9945   1.985   0.821   6.033
 3016SOL     OW 9946   2.188   6.764   4.101
 3016SOL    HW1 9947   2.196   6.671   4.136
 3016SOL    HW2 9948   2.257   6.822   4.144
 3017SOL     OW 9949   1.532   5.898   0.095
 3017SOL    HW1 9950   1.464   5.949   0.148
 3017SOL    HW2 9951   1.569   5.824   0.150
 3018SOL     OW 9952   3.750   1.214   1.641
 3018SOL    HW1 9953   3.667   1.263   1.667
 3018SOL    HW2 9954   3.827   1.247   1.696
 3019SOL     OW 9955   1.959   0.031   5.968
 3019SOL    HW1 9956   1.892   0.083   5.914
 3019SOL    HW2 9957   1.918   0.004   6.055
 3020SOL     OW 9958   5.924   5.042   6.860
 3020SOL    HW1 9959   5.927   5.137   6.892
 3020SOL    HW2 9960   6.017   5.009   6.844
 3021SOL     OW 9961   3.964   0.619   4.612
 3021SOL    HW1 9962   3.950   0.577   4.522
 3021SOL    HW2 9963   4.056   0.656   4.618
 3022SOL     OW 9964   4.416   6.123   3.247
 3022SOL    HW1 9965   4.405   6.175   3.162
 3022SOL    HW2 9966   4.441   6.029   3.226
 3023SOL     OW 9967   6.015   4.678   4.514
 3023SOL    HW1 9968   5.957   4.597   4.501
 3023SOL    HW2 9969   5.957   4.757   4.534
 3024SOL     OW 9970   0.427   0.783   0.284
 3024SOL    HW1 9971   0.422   0.705   0.223
 3024SOL    HW2 9972   0.335   0.813   0.308
 3025SOL     OW 9973   4.434   5.555   0.211
 3025SOL    HW1 9974   4.503   5.505   0.159
 3025SOL    HW2 9975   4.456   5.550   0.308
 3026SOL     OW 9976   0.370   0.477   1.808
 3026SOL    HW1 9977   0.274   0.455   1.792
 3026SOL    HW2 9978   0.402   0.540   1.737
 3027SOL     OW 9979   3.980   0.628   0.733
 3027SOL    HW1 9980   3.922   0.568   0.787
 3027SOL    HW2 9981   3.971   0.606   0.636
 3028SOL     OW 9982   2.915   3.666   5.128
 3028SOL    HW1 9983   2.891   3.637   5.036
 3028SOL    HW2 9984   2.906   3.766   5.135
 3029SOL     OW 9985   6.696   3.412   4.719
 3029SOL    HW1 9986   6.782   3.463   4.718
 3029SOL    HW2 9987   6.684   3.370   4.809
 3030SOL     OW 9988   2.273   2.420   6.614
 3030SOL    HW1 9989   2.264   2.451   6.708
 3030SOL    HW2 9990   2.244   2.492   6.551
 3031SOL     OW 9991   1.277   5.501   0.743
 3031SOL    HW1 9992   1.375   5.485   0.753
 3031SOL    HW2 9993   1.235   5.503   0.834
 3032SOL     OW 9994   2.325   6.863   3.243
 3032SOL    HW1 9995   2.382   6.832   3.319
 3032SOL    HW2 9996   2.250   6.798   3.229
 3033SOL     OW 9997   1.317   1.728   5.991
 3033SOL    HW1 9998   1.403   1.695   5.952
 3033SOL    HW2 9999   1.320   1.828   5.998
 3034SOL     OW10000   5.622   3.307   3.125
 3034SOL    HW110001   5.678   3.389   3.130
 3034SOL    HW210002   5.663   3.242   3.061
 3035SOL     OW10003   6.968   3.505   0.289
 3035SOL    HW110004   6.927   3.584   0.243
 3035SOL    HW210005   6.941   3.421   0.241
 3036SOL     OW10006   3.013   2.090   5.582
 3036SOL    HW110007   2.994   2.100   5.485
 3036SOL    HW210008   2.971   2.006   5.616
 3037SOL     OW10009   1.302   5.594   6.304
 3037SOL    HW110010   1.333   5.569   6.396
 3037SOL    HW210011   1.218   5.649   6.312
 3038SOL     OW10012   5.600   4.777   6.335
 3038SOL    HW110013   5.519   4.835   6.345
 3038SOL    HW210014   5.577   4.682   6.356
 3039SOL     OW10015   6.402   3.850   6.172
 3039SOL    HW110016   6.437   3.916   6.107
 3039SOL    HW210017   6.303   3.863   6.184
 3040SOL     OW10018   5.453   5.209   6.306
 3040SOL    HW110019   5.469   5.198   6.208
 3040SOL    HW210020   5.502   5.290   6.339
 3041SOL     OW10021   1.330   4.671   5.640
 3041SOL    HW110022   1.348   4.581   5.681
 3041SOL    HW210023   1.235   4.676   5.612
 3042SOL     OW10024   6.978   5.059   3.612
 3042SOL    HW110025   0.006   4.988   3.664
 3042SOL    HW210026   6.884   5.070   3.645
 3043SOL     OW10027   2.739   5.570   1.346
 3043SOL    HW110028   2.838   5.561   1.356
 3043SOL    HW210029   2.697   5.480   1.351
 3044SOL     OW10030   3.968   3.624   4.719
 3044SOL    HW110031   3.892   3.647   4.780
 3044SOL    HW210032   3.933   3.581   4.636
 3045SOL     OW10033   4.664   1.860   2.366
 3045SOL    HW110034   4.664   1.840   2.464
 3045SOL    HW210035   4.639   1.777   2.315
 3046SOL     OW10036   5.557   6.509   1.237
 3046SOL    HW110037   5.652   6.523   1.265
 3046SOL    HW210038   5.551   6.432   1.175
 3047SOL     OW10039   6.059   1.661   4.448
 3047SOL    HW110040   6.151   1.666   4.488
 3047SOL    HW210041   6.064   1.622   4.356
 3048SOL     OW10042   4.251   5.041   1.540
 3048SOL    HW110043   4.253   5.140   1.558
 3048SOL    HW210044   4.267   5.025   1.442
 3049SOL     OW10045   0.649   1.995   2.184
 3049SOL    HW110046   0.695   2.035   2.263
 3049SOL    HW210047   0.566   1.948   2.214
 3050SOL     OW10048   3.261   2.233   6.368
 3050SOL    HW110049   3.356   2.263   6.368
 3050SOL    HW210050   3.201   2.313   6.363
 3051SOL     OW10051   2.778   5.674   5.295
 3051SOL    HW110052   2.694   5.625   5.318
 3051SOL    HW210053   2.781   5.691   5.197
 3052SOL     OW10054   6.969   6.984   3.183
 3052SOL    HW110055   6.933   6.949   3.096
 3052SOL    HW210056   6.922   0.050   3.207
 3053SOL     OW10057   0.940   3.790   0.021
 3053SOL    HW110058   0.933   3.838   6.951
 3053SOL    HW210059   0.849   3.758   0.048
 3054SOL     OW10060   5.864   1.020   2.891
 3054SOL    HW110061   5.945   1.005   2.948
 3054SOL    HW210062   5.892   1.042   2.797
 3055SOL     OW10063   6.118   6.522   0.013
 3055SOL    HW110064   6.128   6.612   0.055
 3055SOL    HW210065   6.105   6.533   6.932
 3056SOL     OW10066   4.082   1.679   6.438
 3056SOL    HW110067   4.053   1.585   6.422
 3056SOL    HW210068   4.179   1.680   6.464
 3057SOL     OW10069   5.062   3.783   3.341
 3057SOL    HW110070   5.010   3.781   3.255
 3057SOL    HW210071   5.146   3.729   3.331
 3058SOL     OW10072   0.419   5.351   6.253
 3058SOL    HW110073   0.422   5.252   6.266
 3058SOL    HW210074   0.330   5.377   6.215
 3059SOL     OW10075   1.193   2.202   2.692
 3059SOL    HW110076   1.219   2.148   2.772
 3059SOL    HW210077   1.269   2.202   2.626
 3060SOL     OW10078   5.275   4.061   4.040
 3060SOL    HW110079   5.265   4.053   3.941
 3060SOL    HW210080   5.207   4.123   4.076
 3061SOL     OW10081   5.570   0.224   3.820
 3061SOL    HW110082   5.578   0.257   3.914
 3061SOL    HW210083   5.502   0.151   3.815
 3062SOL     OW10084   4.093   4.703   0.958
 3062SOL    HW110085   4.039   4.631   1.003
 3062SOL    HW210086   4.052   4.725   0.869
 3063SOL     OW10087   6.756   4.884   1.915
 3063SOL    HW110088   6.762   4.819   1.991
 3063SOL    HW210089   6.842   4.883   1.864
 3064SOL     OW10090   5.203   2.310   0.061
 3064SOL    HW110091   5.177   2.324   0.156
 3064SOL    HW210092   5.140   2.359   0.001
 3065SOL     OW10093   5.557   1.278   6.535
 3065SOL    HW110094   5.510   1.296   6.449
 3065SOL    HW210095   5.630   1.345   6.548
 3066SOL     OW10096   5.229   0.045   5.306
 3066SOL    HW110097   5.278   0.120   5.260
 3066SOL    HW210098   5.153   0.082   5.359
 3067SOL     OW10099   1.345   2.387   4.998
 3067SOL    HW110100   1.310   2.381   5.092
 3067SOL    HW210101   1.380   2.479   4.981
 3068SOL     OW10102   6.662   0.163   0.434
 3068SOL    HW110103   6.714   0.225   0.493
 3068SOL    HW210104   6.674   0.190   0.338
 3069SOL     OW10105   4.561   6.684   4.311
 3069SOL    HW110106   4.633   6.752   4.296
 3069SOL    HW210107   4.476   6.717   4.269
 3070SOL     OW10108   2.351   0.575   0.704
 3070SOL    HW110109   2.275   0.637   0.685
 3070SOL    HW210110   2.335   0.528   0.791
 3071SOL     OW10111   5.699   4.694   5.277
 3071SOL    HW110112   5.688   4.596   5.289
 3071SOL    HW210113   5.797   4.717   5.277
 3072SOL     OW10114   2.162   6.669   6.686
 3072SOL    HW110115   2.164   6.588   6.628
 3072SOL    HW210116   2.172   6.751   6.629
 3073SOL     OW10117   0.812   5.444   1.811
 3073SOL    HW110118   0.805   5.367   1.874
 3073SOL    HW210119   0.721   5.478   1.788
 3074SOL     OW10120   3.322   2.967   1.528
 3074SOL    HW110121   3.391   3.037   1.508
 3074SOL    HW210122   3.333   2.935   1.622
 3075SOL     OW10123   3.945   4.980   1.391
 3075SOL    HW110124   3.961   4.945   1.298
 3075SOL    HW210125   3.851   4.960   1.418
 3076SOL     OW10126   0.839   0.870   4.912
 3076SOL    HW110127   0.878   0.784   4.945
 3076SOL    HW210128   0.746   0.880   4.947
 3077SOL     OW10129   7.009   3.715   1.779
 3077SOL    HW110130   0.070   3.672   1.736
 3077SOL    HW210131   6.974   3.655   1.852
 3078SOL     OW10132   0.475   3.486   1.750
 3078SOL    HW110133   0.401   3.418   1.746
 3078SOL    HW210134   0.471   3.534   1.837
 3079SOL     OW10135   2.051   3.512   5.064
 3079SOL    HW110136   2.029   3.489   4.969
 3079SOL    HW210137   2.042   3.610   5.078
 3080SOL     OW10138   4.352   4.807   0.919
 3080SOL    HW110139   4.274   4.743   0.914
 3080SOL    HW210140   4.397   4.796   1.008
 3081SOL     OW10141   1.765   3.522   0.069
 3081SOL    HW110142   1.709   3.580   0.010
 3081SOL    HW210143   1.716   3.502   0.153
 3082SOL     OW10144   5.311   4.952   5.183
 3082SOL    HW110145   5.238   5.004   5.228
 3082SOL    HW210146   5.284   4.856   5.178
 3083SOL     OW10147   3.634   5.680   1.664
 3083SOL    HW110148   3.680   5.759   1.625
 3083SOL    HW210149   3.557   5.653   1.605
 3084SOL     OW10150   6.987   4.759   3.579
 3084SOL    HW110151   0.044   4.705   3.540
 3084SOL    HW210152   0.006   4.819   3.651
 3085SOL     OW10153   6.110   5.556   0.217
 3085SOL    HW110154   6.181   5.547   0.287
 3085SOL    HW210155   6.053   5.474   0.216
 3086SOL     OW10156   6.493   6.128   6.435
 3086SOL    HW110157   6.537   6.054   6.486
 3086SOL    HW210158   6.561   6.196   6.409
 3087SOL     OW10159   3.984   0.141   2.423
 3087SOL    HW110160   4.080   0.151   2.395
 3087SOL    HW210161   3.960   0.217   2.484
 3088SOL     OW10162   2.026   3.599   5.527
 3088SOL    HW110163   2.061   3.595   5.433
 3088SOL    HW210164   1.926   3.605   5.525
 3089SOL     OW10165   4.492   4.716   5.870
 3089SOL    HW110166   4.590   4.731   5.860
 3089SOL    HW210167   4.474   4.668   5.956
 3090SOL     OW10168   0.737   2.656   1.965
 3090SOL    HW110169   0.810   2.724   1.963
 3090SOL    HW210170   0.710   2.634   1.871
 3091SOL     OW10171   0.675   2.771   1.388
 3091SOL    HW110172   0.655   2.838   1.460
 3091SOL    HW210173   0.589   2.735   1.352
 3092SOL     OW10174   5.951   1.352   2.133
 3092SOL    HW110175   6.001   1.422   2.081
 3092SOL    HW210176   5.911   1.286   2.069
 3093SOL     OW10177   6.638   5.738   6.621
 3093SOL    HW110178   6.673   5.725   6.713
 3093SOL    HW210179   6.631   5.650   6.574
 3094SOL     OW10180   2.525   1.061   6.752
 3094SOL    HW110181   2.625   1.066   6.754
 3094SOL    HW210182   2.494   1.073   6.658
 3095SOL     OW10183   1.563   4.124   5.628
 3095SOL    HW110184   1.598   4.173   5.548
 3095SOL    HW210185   1.591   4.028   5.623
 3096SOL     OW10186   1.228   2.996   4.366
 3096SOL    HW110187   1.227   3.095   4.379
 3096SOL    HW210188   1.172   2.953   4.437
 3097SOL     OW10189   5.469   3.064   5.000
 3097SOL    HW110190   5.372   3.085   5.010
 3097SOL    HW210191   5.516   3.089   5.085
 3098SOL     OW10192   2.150   3.101   3.275
 3098SOL    HW110193   2.203   3.016   3.277
 3098SOL    HW210194   2.140   3.136   3.368
 3099SOL     OW10195   0.243   6.700   4.713
 3099SOL    HW110196   0.279   6.783   4.669
 3099SOL    HW210197   0.180   6.725   4.786
 3100SOL     OW10198   5.745   4.556   1.928
 3100SOL    HW110199   5.774   4.625   1.862
 3100SOL    HW210200   5.739   4.467   1.883
 3101SOL     OW10201   4.549   0.027   5.353
 3101SOL    HW110202   4.491   6.964   5.351
 3101SOL    HW210203   4.611   0.026   5.274
 3102SOL     OW10204   6.530   4.680   2.148
 3102SOL    HW110205   6.506   4.617   2.222
 3102SOL    HW210206   6.584   4.756   2.186
 3103SOL     OW10207   2.795   1.810   1.416
 3103SOL    HW110208   2.851   1.780   1.493
 3103SOL    HW210209   2.807   1.747   1.339
 3104SOL     OW10210   5.435   2.350   4.946
 3104SOL    HW110211   5.464   2.404   5.025
 3104SOL    HW210212   5.365   2.285   4.975
 3105SOL     OW10213   5.737   3.759   0.496
 3105SOL    HW110214   5.744   3.679   0.436
 3105SOL    HW210215   5.657   3.750   0.555
 3106SOL     OW10216   5.101   1.569   5.793
 3106SOL    HW110217   5.002   1.556   5.794
 3106SOL    HW210218   5.125   1.647   5.851
 3107SOL     OW10219   3.117   1.911   5.346
 3107SOL    HW110220   3.193   1.938   5.405
 3107SOL    HW210221   3.098   1.985   5.281
 3108SOL     OW10222   2.212   4.265   3.275
 3108SOL    HW110223   2.198   4.170   3.246
 3108SOL    HW210224   2.210   4.269   3.375
 3109SOL     OW10225   6.709   6.510   3.678
 3109SOL    HW110226   6.712   6.420   3.634
 3109SOL    HW210227   6.799   6.532   3.715
 3110SOL     OW10228   1.125   5.702   3.232
 3110SOL    HW110229   1.213   5.693   3.187
 3110SOL    HW210230   1.111   5.797   3.260
 3111SOL     OW10231   6.036   4.097   3.960
 3111SOL    HW110232   6.095   4.103   3.880
 3111SOL    HW210233   6.011   4.189   3.991
 3112SOL     OW10234   3.285   1.348   6.666
 3112SOL    HW110235   3.271   1.253   6.691
 3112SOL    HW210236   3.329   1.354   6.576
 3113SOL     OW10237   1.342   6.352   2.698
 3113SOL    HW110238   1.316   6.350   2.601
 3113SOL    HW210239   1.437   6.383   2.706
 3114SOL     OW10240   4.532   0.795   6.296
 3114SOL    HW110241   4.598   0.730   6.259
 3114SOL    HW210242   4.524   0.783   6.395
 3115SOL     OW10243   4.679   5.701   5.571
 3115SOL    HW110244   4.702   5.777   5.510
 3115SOL    HW210245   4.763   5.668   5.615
 3116SOL     OW10246   0.890   0.591   6.386
 3116SOL    HW110247   0.797   0.623   6.404
 3116SOL    HW210248   0.921   0.537   6.464
 3117SOL     OW10249   4.633   0.521   0.248
 3117SOL    HW110250   4.691   0.602   0.249
 3117SOL    HW210251   4.690   0.439   0.259
 3118SOL     OW10252   1.420   1.370   3.327
 3118SOL    HW110253   1.478   1.447   3.353
 3118SOL    HW210254   1.341   1.366   3.388
 3119SOL     OW10255   4.520   5.835   4.971
 3119SOL    HW110256   4.450   5.802   4.908
 3119SOL    HW210257   4.538   5.931   4.953
 3120SOL     OW10258   2.105   5.824   6.397
 3120SOL    HW110259   2.154   5.741   6.370
 3120SOL    HW210260   2.154   5.869   6.471
 3121SOL     OW10261   3.693   1.876   4.879
 3121SOL    HW110262   3.783   1.920   4.877
 3121SOL    HW210263   3.624   1.940   4.845
 3122SOL     OW10264   5.514   4.816   5.480
 3122SOL    HW110265   5.510   4.911   5.450
 3122SOL    HW210266   5.575   4.764   5.419
 3123SOL     OW10267   1.548   1.355   2.647
 3123SOL    HW110268   1.645   1.331   2.649
 3123SOL    HW210269   1.498   1.284   2.597
 3124SOL     OW10270   4.652   0.261   4.634
 3124SOL    HW110271   4.625   0.357   4.635
 3124SOL    HW210272   4.586   0.206   4.685
 3125SOL     OW10273   1.988   1.553   5.317
 3125SOL    HW110274   2.023   1.553   5.223
 3125SOL    HW210275   1.990   1.646   5.353
 3126SOL     OW10276   5.080   4.747   5.479
 3126SOL    HW110277   5.057   4.668   5.422
 3126SOL    HW210278   5.008   4.815   5.473
 3127SOL     OW10279   0.127   1.184   5.368
 3127SOL    HW110280   0.202   1.243   5.337
 3127SOL    HW210281   0.078   1.230   5.442
 3128SOL     OW10282   3.660   0.692   0.923
 3128SOL    HW110283   3.722   0.615   0.905
 3128SOL    HW210284   3.566   0.664   0.902
 3129SOL     OW10285   4.081   3.813   0.292
 3129SOL    HW110286   4.153   3.745   0.303
 3129SOL    HW210287   3.992   3.770   0.307
 3130SOL     OW10288   6.665   5.425   2.128
 3130SOL    HW110289   6.577   5.396   2.167
 3130SOL    HW210290   6.740   5.385   2.181
 3131SOL     OW10291   6.102   4.283   2.914
 3131SOL    HW110292   6.130   4.231   2.833
 3131SOL    HW210293   6.165   4.359   2.928
 3132SOL     OW10294   4.695   3.983   0.107
 3132SOL    HW110295   4.648   4.069   0.089
 3132SOL    HW210296   4.629   3.907   0.104
 3133SOL     OW10297   4.748   6.900   4.305
 3133SOL    HW110298   4.786   6.909   4.213
 3133SOL    HW210299   4.717   6.989   4.337
 3134SOL     OW10300   6.569   4.915   2.625
 3134SOL    HW110301   6.513   4.856   2.567
 3134SOL    HW210302   6.646   4.862   2.662
 3135SOL     OW10303   4.101   4.939   6.931
 3135SOL    HW110304   4.090   5.032   6.968
 3135SOL    HW210305   4.105   4.943   6.831
 3136SOL     OW10306   5.957   0.701   3.483
 3136SOL    HW110307   5.871   0.751   3.494
 3136SOL    HW210308   5.938   0.604   3.463
 3137SOL     OW10309   5.688   6.345   0.118
 3137SOL    HW110310   5.785   6.331   0.136
 3137SOL    HW210311   5.640   6.257   0.119
 3138SOL     OW10312   6.314   6.436   4.759
 3138SOL    HW110313   6.385   6.382   4.715
 3138SOL    HW210314   6.224   6.395   4.743
 3139SOL     OW10315   2.642   5.198   1.724
 3139SOL    HW110316   2.576   5.256   1.676
 3139SOL    HW210317   2.614   5.190   1.820
 3140SOL     OW10318   0.632   6.444   0.210
 3140SOL    HW110319   0.604   6.403   0.123
 3140SOL    HW210320   0.708   6.391   0.248
 3141SOL     OW10321   5.926   2.188   6.475
 3141SOL    HW110322   5.874   2.137   6.543
 3141SOL    HW210323   5.917   2.286   6.493
 3142SOL     OW10324   4.217   0.370   3.668
 3142SOL    HW110325   4.286   0.410   3.729
 3142SOL    HW210326   4.128   0.409   3.688
 3143SOL     OW10327   6.348   1.151   0.564
 3143SOL    HW110328   6.430   1.099   0.586
 3143SOL    HW210329   6.362   1.201   0.478
 3144SOL     OW10330   4.055   4.098   0.280
 3144SOL    HW110331   4.050   3.998   0.271
 3144SOL    HW210332   3.964   4.137   0.270
 3145SOL     OW10333   0.455   5.856   0.314
 3145SOL    HW110334   0.392   5.919   0.360
 3145SOL    HW210335   0.404   5.799   0.250
 3146SOL     OW10336   6.365   1.652   4.543
 3146SOL    HW110337   6.383   1.748   4.566
 3146SOL    HW210338   6.448   1.598   4.560
 3147SOL     OW10339   3.755   6.157   0.304
 3147SOL    HW110340   3.838   6.179   0.254
 3147SOL    HW210341   3.751   6.059   0.321
 3148SOL     OW10342   0.030   5.186   1.565
 3148SOL    HW110343   0.019   5.251   1.490
 3148SOL    HW210344   0.098   5.117   1.540
 3149SOL     OW10345   3.215   2.548   0.085
 3149SOL    HW110346   3.288   2.565   0.019
 3149SOL    HW210347   3.130   2.530   0.037
 3150SOL     OW10348   6.747   6.336   5.522
 3150SOL    HW110349   6.802   6.350   5.604
 3150SOL    HW210350   6.650   6.332   5.546
 3151SOL     OW10351   0.040   0.654   5.368
 3151SOL    HW110352   0.129   0.676   5.409
 3151SOL    HW210353   0.052   0.637   5.270
 3152SOL     OW10354   1.514   3.120   5.872
 3152SOL    HW110355   1.433   3.095   5.925
 3152SOL    HW210356   1.534   3.217   5.886
 3153SOL     OW10357   5.931   5.174   1.934
 3153SOL    HW110358   5.929   5.114   2.014
 3153SOL    HW210359   5.976   5.127   1.858
 3154SOL     OW10360   3.965   0.978   0.194
 3154SOL    HW110361   3.977   0.967   0.095
 3154SOL    HW210362   3.900   0.910   0.228
 3155SOL     OW10363   0.613   4.813   0.227
 3155SOL    HW110364   0.629   4.718   0.202
 3155SOL    HW210365   0.528   4.845   0.186
 3156SOL     OW10366   3.544   4.196   1.564
 3156SOL    HW110367   3.610   4.122   1.551
 3156SOL    HW210368   3.459   4.159   1.602
 3157SOL     OW10369   1.079   0.953   5.065
 3157SOL    HW110370   1.124   0.868   5.092
 3157SOL    HW210371   1.004   0.934   5.002
 3158SOL     OW10372   1.678   1.261   5.527
 3158SOL    HW110373   1.667   1.262   5.626
 3158SOL    HW210374   1.603   1.311   5.484
 3159SOL     OW10375   5.295   0.028   6.784
 3159SOL    HW110376   5.297   0.051   6.687
 3159SOL    HW210377   5.358   6.970   6.801
 3160SOL     OW10378   1.778   0.265   5.924
 3160SOL    HW110379   1.738   0.194   5.982
 3160SOL    HW210380   1.705   0.308   5.870
 3161SOL     OW10381   1.792   2.651   2.374
 3161SOL    HW110382   1.753   2.593   2.303
 3161SOL    HW210383   1.876   2.692   2.341
 3162SOL     OW10384   1.616   5.592   1.424
 3162SOL    HW110385   1.636   5.683   1.390
 3162SOL    HW210386   1.597   5.531   1.347
 3163SOL     OW10387   4.440   4.564   0.784
 3163SOL    HW110388   4.428   4.653   0.828
 3163SOL    HW210389   4.464   4.496   0.854
 3164SOL     OW10390   2.550   6.411   3.629
 3164SOL    HW110391   2.519   6.390   3.721
 3164SOL    HW210392   2.647   6.436   3.632
 3165SOL     OW10393   1.136   6.286   6.164
 3165SOL    HW110394   1.180   6.340   6.092
 3165SOL    HW210395   1.100   6.348   6.234
 3166SOL     OW10396   5.126   1.232   5.062
 3166SOL    HW110397   5.062   1.158   5.083
 3166SOL    HW210398   5.161   1.220   4.969
 3167SOL     OW10399   5.904   3.321   1.079
 3167SOL    HW110400   5.841   3.369   1.018
 3167SOL    HW210401   5.853   3.280   1.155
 3168SOL     OW10402   4.515   1.614   0.472
 3168SOL    HW110403   4.465   1.633   0.556
 3168SOL    HW210404   4.577   1.691   0.452
 3169SOL     OW10405   1.971   4.212   1.792
 3169SOL    HW110406   1.878   4.177   1.801
 3169SOL    HW210407   2.037   4.137   1.800
 3170SOL     OW10408   2.153   3.627   3.534
 3170SOL    HW110409   2.180   3.700   3.597
 3170SOL    HW210410   2.060   3.597   3.556
 3171SOL     OW10411   5.363   2.014   3.730
 3171SOL    HW110412   5.270   2.038   3.704
 3171SOL    HW210413   5.410   2.095   3.767
 3172SOL     OW10414   5.762   4.252   1.493
 3172SOL    HW110415   5.757   4.172   1.552
 3172SOL    HW210416   5.725   4.230   1.403
 3173SOL     OW10417   4.516   3.015   0.599
 3173SOL    HW110418   4.555   2.927   0.574
 3173SOL    HW210419   4.522   3.077   0.521
 3174SOL     OW10420   3.161   2.891   6.200
 3174SOL    HW110421   3.070   2.856   6.222
 3174SOL    HW210422   3.210   2.913   6.284
 3175SOL     OW10423   5.522   0.539   5.803
 3175SOL    HW110424   5.558   0.602   5.871
 3175SOL    HW210425   5.441   0.578   5.761
 3176SOL     OW10426   0.129   4.905   3.775
 3176SOL    HW110427   0.219   4.948   3.770
 3176SOL    HW210428   0.133   4.824   3.834
 3177SOL     OW10429   5.618   3.463   3.528
 3177SOL    HW110430   5.593   3.374   3.488
 3177SOL    HW210431   5.537   3.522   3.532
 3178SOL     OW10432   0.300   1.022   2.197
 3178SOL    HW110433   0.235   0.972   2.140
 3178SOL    HW210434   0.259   1.108   2.227
 3179SOL     OW10435   1.090   2.674   1.939
 3179SOL    HW110436   1.170   2.692   1.995
 3179SOL    HW210437   1.038   2.758   1.926
 3180SOL     OW10438   0.225   5.631   0.419
 3180SOL    HW110439   0.287   5.624   0.340
 3180SOL    HW210440   0.247   5.560   0.485
 3181SOL     OW10441   1.520   6.272   5.359
 3181SOL    HW110442   1.462   6.191   5.357
 3181SOL    HW210443   1.528   6.306   5.452
 3182SOL     OW10444   2.219   0.892   0.789
 3182SOL    HW110445   2.180   0.984   0.797
 3182SOL    HW210446   2.151   0.830   0.752
 3183SOL     OW10447   3.744   3.561   1.329
 3183SOL    HW110448   3.759   3.643   1.384
 3183SOL    HW210449   3.762   3.582   1.232
 3184SOL     OW10450   7.006   1.948   4.638
 3184SOL    HW110451   6.990   2.031   4.691
 3184SOL    HW210452   0.012   1.873   4.700
 3185SOL     OW10453   0.608   5.646   6.252
 3185SOL    HW110454   0.657   5.585   6.189
 3185SOL    HW210455   0.600   5.601   6.341
 3186SOL     OW10456   0.283   2.520   6.507
 3186SOL    HW110457   0.282   2.619   6.489
 3186SOL    HW210458   0.209   2.477   6.455
 3187SOL     OW10459   5.146   6.226   2.752
 3187SOL    HW110460   5.187   6.143   2.715
 3187SOL    HW210461   5.194   6.254   2.835
 3188SOL     OW10462   1.966   5.578   6.959
 3188SOL    HW110463   1.891   5.636   6.990
 3188SOL    HW210464   2.051   5.605   7.005
 3189SOL     OW10465   3.113   1.509   5.830
 3189SOL    HW110466   3.129   1.603   5.861
 3189SOL    HW210467   3.120   1.447   5.908
 3190SOL     OW10468   5.710   6.041   4.199
 3190SOL    HW110469   5.805   6.011   4.206
 3190SOL    HW210470   5.654   5.988   4.263
 3191SOL     OW10471   3.218   5.491   0.979
 3191SOL    HW110472   3.169   5.554   0.918
 3191SOL    HW210473   3.272   5.427   0.925
 3192SOL     OW10474   5.504   1.580   2.880
 3192SOL    HW110475   5.533   1.492   2.842
 3192SOL    HW210476   5.530   1.584   2.977
 3193SOL     OW10477   3.327   0.191   4.659
 3193SOL    HW110478   3.333   0.092   4.647
 3193SOL    HW210479   3.405   0.235   4.615
 3194SOL     OW10480   1.811   0.090   6.668
 3194SOL    HW110481   1.885   0.055   6.725
 3194SOL    HW210482   1.846   0.109   6.576
 3195SOL     OW10483   0.661   1.465   1.175
 3195SOL    HW110484   0.616   1.383   1.210
 3195SOL    HW210485   0.692   1.521   1.252
 3196SOL     OW10486   5.630   6.808   3.572
 3196SOL    HW110487   5.607   6.854   3.658
 3196SOL    HW210488   5.571   6.728   3.561
 3197SOL     OW10489   2.432   0.729   6.364
 3197SOL    HW110490   2.422   0.695   6.458
 3197SOL    HW210491   2.528   0.724   6.336
 3198SOL     OW10492   5.323   2.775   3.723
 3198SOL    HW110493   5.357   2.858   3.678
 3198SOL    HW210494   5.399   2.729   3.769
 3199SOL     OW10495   5.090   3.997   3.135
 3199SOL    HW110496   4.998   3.983   3.172
 3199SOL    HW210497   5.083   4.035   3.043
 3200SOL     OW10498   5.459   3.786   3.862
 3200SOL    HW110499   5.426   3.867   3.812
 3200SOL    HW210500   5.542   3.810   3.913
 3201SOL     OW10501   6.294   4.158   2.357
 3201SOL    HW110502   6.368   4.131   2.419
 3201SOL    HW210503   6.312   4.119   2.266
 3202SOL     OW10504   2.463   3.232   6.875
 3202SOL    HW110505   2.518   3.295   6.821
 3202SOL    HW210506   2.434   3.277   6.960
 3203SOL     OW10507   3.536   6.896   1.408
 3203SOL    HW110508   3.493   6.980   1.441
 3203SOL    HW210509   3.632   6.914   1.385
 3204SOL     OW10510   3.373   1.579   3.764
 3204SOL    HW110511   3.293   1.544   3.715
 3204SOL    HW210512   3.373   1.544   3.858
 3205SOL     OW10513   4.990   3.483   5.974
 3205SOL    HW110514   4.913   3.442   5.925
 3205SOL    HW210515   4.975   3.477   6.072
 3206SOL     OW10516   3.163   3.462   0.943
 3206SOL    HW110517   3.116   3.374   0.941
 3206SOL    HW210518   3.239   3.457   1.009
 3207SOL     OW10519   2.591   5.134   5.469
 3207SOL    HW110520   2.638   5.050   5.497
 3207SOL    HW210521   2.494   5.128   5.492
 3208SOL     OW10522   6.594   4.826   6.103
 3208SOL    HW110523   6.628   4.733   6.092
 3208SOL    HW210524   6.669   4.885   6.133
 3209SOL     OW10525   5.131   5.570   6.218
 3209SOL    HW110526   5.161   5.663   6.198
 3209SOL    HW210527   5.032   5.567   6.228
 3210SOL     OW10528   5.804   6.152   1.829
 3210SOL    HW110529   5.772   6.101   1.749
 3210SOL    HW210530   5.807   6.249   1.808
 3211SOL     OW10531   1.589   5.851   6.442
 3211SOL    HW110532   1.675   5.892   6.412
 3211SOL    HW210533   1.524   5.849   6.366
 3212SOL     OW10534   2.076   0.539   3.165
 3212SOL    HW110535   2.000   0.573   3.221
 3212SOL    HW210536   2.073   0.439   3.164
 3213SOL     OW10537   1.101   6.911   5.971
 3213SOL    HW110538   1.184   6.916   5.914
 3213SOL    HW210539   1.125   6.873   6.061
 3214SOL     OW10540   3.428   0.833   2.803
 3214SOL    HW110541   3.516   0.786   2.814
 3214SOL    HW210542   3.424   0.876   2.713
 3215SOL     OW10543   1.874   3.305   1.754
 3215SOL    HW110544   1.970   3.298   1.780
 3215SOL    HW210545   1.839   3.214   1.734
 3216SOL     OW10546   5.989   5.038   1.142
 3216SOL    HW110547   5.999   5.091   1.058
 3216SOL    HW210548   5.920   4.966   1.127
 3217SOL     OW10549   6.888   6.215   2.280
 3217SOL    HW110550   6.950   6.146   2.243
 3217SOL    HW210551   6.882   6.292   2.216
 3218SOL     OW10552   5.297   1.138   3.392
 3218SOL    HW110553   5.341   1.174   3.475
 3218SOL    HW210554   5.345   1.174   3.312
 3219SOL     OW10555   6.222   1.435   5.261
 3219SOL    HW110556   6.201   1.345   5.223
 3219SOL    HW210557   6.137   1.478   5.293
 3220SOL     OW10558   0.235   4.389   5.769
 3220SOL    HW110559   0.147   4.363   5.731
 3220SOL    HW210560   0.281   4.453   5.708
 3221SOL     OW10561   3.556   1.420   1.664
 3221SOL    HW110562   3.566   1.478   1.744
 3221SOL    HW210563   3.476   1.450   1.611
 3222SOL     OW10564   3.186   1.553   3.361
 3222SOL    HW110565   3.148   1.503   3.283
 3222SOL    HW210566   3.284   1.566   3.348
 3223SOL     OW10567   1.881   5.730   0.337
 3223SOL    HW110568   1.837   5.783   0.265
 3223SOL    HW210569   1.841   5.754   0.425
 3224SOL     OW10570   3.730   2.032   3.664
 3224SOL    HW110571   3.716   2.115   3.719
 3224SOL    HW210572   3.652   2.018   3.603
 3225SOL     OW10573   4.046   1.014   3.992
 3225SOL    HW110574   4.132   1.038   4.037
 3225SOL    HW210575   3.973   1.006   4.060
 3226SOL     OW10576   6.293   0.493   0.194
 3226SOL    HW110577   6.293   0.454   0.102
 3226SOL    HW210578   6.341   0.432   0.256
 3227SOL     OW10579   5.516   4.695   4.859
 3227SOL    HW110580   5.499   4.754   4.780
 3227SOL    HW210581   5.521   4.750   4.942
 3228SOL     OW10582   2.244   4.224   0.069
 3228SOL    HW110583   2.316   4.274   0.118
 3228SOL    HW210584   2.271   4.128   0.059
 3229SOL     OW10585   1.691   2.172   0.255
 3229SOL    HW110586   1.621   2.214   0.197
 3229SOL    HW210587   1.781   2.184   0.213
 3230SOL     OW10588   3.081   6.290   5.348
 3230SOL    HW110589   3.162   6.320   5.297
 3230SOL    HW210590   3.110   6.251   5.436
 3231SOL     OW10591   1.759   1.756   2.741
 3231SOL    HW110592   1.753   1.783   2.645
 3231SOL    HW210593   1.713   1.824   2.798
 3232SOL     OW10594   3.515   5.211   3.791
 3232SOL    HW110595   3.436   5.252   3.747
 3232SOL    HW210596   3.582   5.281   3.812
 3233SOL     OW10597   0.941   1.314   0.285
 3233SOL    HW110598   0.932   1.272   0.375
 3233SOL    HW210599   1.033   1.350   0.274
 3234SOL     OW10600   2.765   2.677   0.919
 3234SOL    HW110601   2.777   2.635   0.829
 3234SOL    HW210602   2.852   2.676   0.969
 3235SOL     OW10603   0.992   0.036   2.765
 3235SOL    HW110604   1.055   6.988   2.807
 3235SOL    HW210605   1.045   0.101   2.711
 3236SOL     OW10606   3.908   1.506   6.909
 3236SOL    HW110607   3.830   1.526   6.968
 3236SOL    HW210608   3.902   1.561   6.826
 3237SOL     OW10609   5.751   2.166   5.742
 3237SOL    HW110610   5.821   2.096   5.754
 3237SOL    HW210611   5.664   2.122   5.720
 3238SOL     OW10612   6.587   4.940   1.679
 3238SOL    HW110613   6.580   5.035   1.709
 3238SOL    HW210614   6.620   4.883   1.754
 3239SOL     OW10615   6.530   6.999   4.751
 3239SOL    HW110616   6.484   0.053   4.804
 3239SOL    HW210617   6.563   6.928   4.813
 3240SOL     OW10618   0.078   0.540   0.279
 3240SOL    HW110619   0.174   0.553   0.251
 3240SOL    HW210620   0.019   0.546   0.199
 3241SOL     OW10621   5.938   2.613   5.984
 3241SOL    HW110622   5.926   2.706   5.949
 3241SOL    HW210623   5.898   2.608   6.076
 3242SOL     OW10624   6.292   3.951   4.596
 3242SOL    HW110625   6.263   3.884   4.527
 3242SOL    HW210626   6.223   4.024   4.603
 3243SOL     OW10627   5.953   4.432   4.427
 3243SOL    HW110628   6.033   4.452   4.371
 3243SOL    HW210629   5.912   4.345   4.398
 3244SOL     OW10630   5.051   0.129   6.819
 3244SOL    HW110631   5.051   0.224   6.851
 3244SOL    HW210632   5.145   0.096   6.811
 3245SOL     OW10633   4.037   0.222   5.284
 3245SOL    HW110634   4.005   0.184   5.371
 3245SOL    HW210635   3.970   0.200   5.213
 3246SOL     OW10636   0.048   0.541   3.042
 3246SOL    HW110637   0.078   0.629   3.080
 3246SOL    HW210638   0.046   0.546   2.942
 3247SOL     OW10639   0.537   4.186   3.576
 3247SOL    HW110640   0.487   4.202   3.491
 3247SOL    HW210641   0.538   4.088   3.595
 3248SOL     OW10642   5.462   2.241   3.493
 3248SOL    HW110643   5.549   2.272   3.454
 3248SOL    HW210644   5.479   2.188   3.576
 3249SOL     OW10645   3.344   4.171   3.558
 3249SOL    HW110646   3.346   4.268   3.580
 3249SOL    HW210647   3.413   4.123   3.612
 3250SOL     OW10648   4.959   5.259   2.556
 3250SOL    HW110649   4.880   5.227   2.503
 3250SOL    HW210650   4.935   5.344   2.603
 3251SOL     OW10651   2.442   1.879   2.805
 3251SOL    HW110652   2.402   1.970   2.814
 3251SOL    HW210653   2.541   1.886   2.801
 3252SOL     OW10654   1.666   0.602   2.961
 3252SOL    HW110655   1.618   0.537   2.903
 3252SOL    HW210656   1.642   0.587   3.057
 3253SOL     OW10657   6.466   3.818   0.504
 3253SOL    HW110658   6.367   3.822   0.517
 3253SOL    HW210659   6.487   3.799   0.408
 3254SOL     OW10660   5.762   0.000   0.955
 3254SOL    HW110661   5.766   0.099   0.939
 3254SOL    HW210662   5.837   6.974   0.906
 3255SOL     OW10663   4.972   6.170   1.353
 3255SOL    HW110664   4.903   6.242   1.349
 3255SOL    HW210665   4.989   6.134   1.262
 3256SOL     OW10666   4.868   2.633   1.352
 3256SOL    HW110667   4.804   2.636   1.429
 3256SOL    HW210668   4.960   2.654   1.385
 3257SOL     OW10669   2.883   1.990   3.144
 3257SOL    HW110670   2.842   1.905   3.112
 3257SOL    HW210671   2.890   2.054   3.067
 3258SOL     OW10672   2.487   5.230   3.850
 3258SOL    HW110673   2.439   5.145   3.832
 3258SOL    HW210674   2.421   5.304   3.861
 3259SOL     OW10675   4.982   4.175   3.718
 3259SOL    HW110676   5.011   4.246   3.782
 3259SOL    HW210677   5.062   4.134   3.674
 3260SOL     OW10678   1.096   4.281   2.882
 3260SOL    HW110679   1.045   4.211   2.832
 3260SOL    HW210680   1.041   4.318   2.956
 3261SOL     OW10681   5.057   0.266   3.757
 3261SOL    HW110682   4.958   0.258   3.753
 3261SOL    HW210683   5.095   0.257   3.665
 3262SOL     OW10684   3.016   1.901   3.620
 3262SOL    HW110685   3.075   1.969   3.577
 3262SOL    HW210686   3.018   1.913   3.720
 3263SOL     OW10687   0.056   1.067   2.522
 3263SOL    HW110688   0.123   1.075   2.449
 3263SOL    HW210689   0.083   0.992   2.583
 3264SOL     OW10690   1.512   4.980   6.497
 3264SOL    HW110691   1.432   5.011   6.445
 3264SOL    HW210692   1.584   4.952   6.433
 3265SOL     OW10693   6.291   5.316   6.275
 3265SOL    HW110694   6.220   5.343   6.210
 3265SOL    HW210695   6.274   5.361   6.363
 3266SOL     OW10696   3.360   5.471   6.515
 3266SOL    HW110697   3.275   5.489   6.565
 3266SOL    HW210698   3.338   5.451   6.420
 3267SOL     OW10699   3.481   6.977   0.071
 3267SOL    HW110700   3.548   6.937   0.134
 3267SOL    HW210701   3.419   0.019   0.121
 3268SOL     OW10702   6.169   5.442   1.904
 3268SOL    HW110703   6.143   5.444   1.807
 3268SOL    HW210704   6.132   5.523   1.949
 3269SOL     OW10705   1.673   4.693   1.293
 3269SOL    HW110706   1.673   4.756   1.215
 3269SOL    HW210707   1.683   4.746   1.378
 3270SOL     OW10708   0.716   2.655   5.518
 3270SOL    HW110709   0.696   2.729   5.453
 3270SOL    HW210710   0.648   2.582   5.506
 3271SOL     OW10711   0.897   2.965   2.205
 3271SOL    HW110712   0.963   3.037   2.183
 3271SOL    HW210713   0.920   2.925   2.293
 3272SOL     OW10714   4.494   6.424   1.059
 3272SOL    HW110715   4.450   6.345   1.015
 3272SOL    HW210716   4.453   6.439   1.148
 3273SOL     OW10717   4.558   2.978   6.157
 3273SOL    HW110718   4.621   3.051   6.182
 3273SOL    HW210719   4.594   2.891   6.189
 3274SOL     OW10720   5.487   0.267   1.799
 3274SOL    HW110721   5.472   0.352   1.851
 3274SOL    HW210722   5.486   0.288   1.701
 3275SOL     OW10723   5.039   0.639   1.960
 3275SOL    HW110724   5.093   0.571   1.912
 3275SOL    HW210725   5.066   0.731   1.930
 3276SOL     OW10726   5.055   0.121   0.278
 3276SOL    HW110727   5.144   0.165   0.277
 3276SOL    HW210728   5.039   0.075   0.190
 3277SOL     OW10729   3.278   1.915   2.168
 3277SOL    HW110730   3.243   1.970   2.243
 3277SOL    HW210731   3.314   1.828   2.204
 3278SOL     OW10732   6.135   0.882   6.655
 3278SOL    HW110733   6.089   0.906   6.569
 3278SOL    HW210734   6.173   0.790   6.648
 3279SOL     OW10735   3.344   0.378   2.337
 3279SOL    HW110736   3.320   0.459   2.391
 3279SOL    HW210737   3.319   0.296   2.389
 3280SOL     OW10738   6.439   3.662   3.980
 3280SOL    HW110739   6.443   3.733   3.910
 3280SOL    HW210740   6.460   3.573   3.938
 3281SOL     OW10741   5.912   3.641   1.820
 3281SOL    HW110742   5.838   3.668   1.759
 3281SOL    HW210743   5.998   3.680   1.787
 3282SOL     OW10744   7.017   5.038   4.762
 3282SOL    HW110745   0.069   5.031   4.833
 3282SOL    HW210746   6.931   5.066   4.804
 3283SOL     OW10747   3.729   1.868   0.704
 3283SOL    HW110748   3.804   1.901   0.647
 3283SOL    HW210749   3.680   1.946   0.744
 3284SOL     OW10750   2.410   6.198   4.212
 3284SOL    HW110751   2.500   6.241   4.223
 3284SOL    HW210752   2.417   6.124   4.145
 3285SOL     OW10753   3.994   2.018   5.156
 3285SOL    HW110754   3.988   1.984   5.062
 3285SOL    HW210755   4.050   2.101   5.157
 3286SOL     OW10756   2.048   2.057   2.641
 3286SOL    HW110757   2.023   1.995   2.567
 3286SOL    HW210758   1.994   2.141   2.634
 3287SOL     OW10759   2.507   0.254   0.231
 3287SOL    HW110760   2.490   0.238   0.134
 3287SOL    HW210761   2.461   0.184   0.285
 3288SOL     OW10762   2.618   6.139   2.134
 3288SOL    HW110763   2.531   6.186   2.145
 3288SOL    HW210764   2.647   6.100   2.221
 3289SOL     OW10765   4.760   0.957   6.291
 3289SOL    HW110766   4.670   0.915   6.285
 3289SOL    HW210767   4.826   0.904   6.238
 3290SOL     OW10768   0.466   5.535   0.651
 3290SOL    HW110769   0.409   5.465   0.608
 3290SOL    HW210770   0.413   5.584   0.720
 3291SOL     OW10771   4.966   0.366   5.030
 3291SOL    HW110772   4.984   0.459   5.062
 3291SOL    HW210773   5.031   0.343   4.957
 3292SOL     OW10774   0.082   2.150   0.829
 3292SOL    HW110775   0.178   2.121   0.833
 3292SOL    HW210776   0.079   2.250   0.818
 3293SOL     OW10777   5.921   5.832   4.085
 3293SOL    HW110778   5.998   5.828   4.021
 3293SOL    HW210779   5.847   5.774   4.051
 3294SOL     OW10780   5.172   2.721   4.976
 3294SOL    HW110781   5.134   2.763   4.894
 3294SOL    HW210782   5.163   2.785   5.053
 3295SOL     OW10783   0.909   2.538   2.610
 3295SOL    HW110784   0.977   2.538   2.683
 3295SOL    HW210785   0.832   2.480   2.636
 3296SOL     OW10786   1.720   0.730   5.989
 3296SOL    HW110787   1.815   0.762   5.988
 3296SOL    HW210788   1.715   0.642   6.036
 3297SOL     OW10789   3.450   1.177   4.998
 3297SOL    HW110790   3.351   1.180   5.009
 3297SOL    HW210791   3.472   1.146   4.905
 3298SOL     OW10792   5.202   3.869   5.880
 3298SOL    HW110793   5.184   3.770   5.877
 3298SOL    HW210794   5.229   3.900   5.789
 3299SOL     OW10795   2.662   4.604   3.894
 3299SOL    HW110796   2.632   4.606   3.799
 3299SOL    HW210797   2.742   4.663   3.905
 3300SOL     OW10798   1.947   6.722   3.982
 3300SOL    HW110799   2.038   6.746   4.014
 3300SOL    HW210800   1.949   6.634   3.936
 3301SOL     OW10801   1.004   1.290   3.156
 3301SOL    HW110802   0.982   1.283   3.253
 3301SOL    HW210803   1.103   1.285   3.143
 3302SOL     OW10804   1.835   5.038   5.068
 3302SOL    HW110805   1.770   4.962   5.060
 3302SOL    HW210806   1.900   5.017   5.141
 3303SOL     OW10807   3.314   2.880   0.492
 3303SOL    HW110808   3.221   2.870   0.528
 3303SOL    HW210809   3.360   2.791   0.494
 3304SOL     OW10810   2.977   4.936   0.056
 3304SOL    HW110811   2.982   5.035   0.056
 3304SOL    HW210812   3.069   4.898   0.045
 3305SOL     OW10813   3.199   2.503   0.799
 3305SOL    HW110814   3.192   2.405   0.817
 3305SOL    HW210815   3.153   2.524   0.712
 3306SOL     OW10816   2.512   0.818   0.034
 3306SOL    HW110817   2.416   0.795   0.051
 3306SOL    HW210818   2.529   0.911   0.067
 3307SOL     OW10819   1.329   6.547   5.415
 3307SOL    HW110820   1.303   6.504   5.502
 3307SOL    HW210821   1.425   6.573   5.419
 3308SOL     OW10822   3.987   4.894   1.150
 3308SOL    HW110823   4.086   4.889   1.137
 3308SOL    HW210824   3.945   4.808   1.121
 3309SOL     OW10825   6.139   2.726   3.235
 3309SOL    HW110826   6.068   2.719   3.305
 3309SOL    HW210827   6.207   2.794   3.263
 3310SOL     OW10828   6.273   4.657   5.991
 3310SOL    HW110829   6.324   4.693   6.069
 3310SOL    HW210830   6.244   4.563   6.011
 3311SOL     OW10831   2.836   3.527   0.354
 3311SOL    HW110832   2.842   3.624   0.331
 3311SOL    HW210833   2.769   3.514   0.427
 3312SOL     OW10834   4.604   2.144   6.019
 3312SOL    HW110835   4.512   2.151   5.982
 3312SOL    HW210836   4.633   2.234   6.054
 3313SOL     OW10837   0.528   0.661   3.524
 3313SOL    HW110838   0.562   0.682   3.432
 3313SOL    HW210839   0.550   0.566   3.547
 3314SOL     OW10840   2.806   5.519   2.440
 3314SOL    HW110841   2.752   5.499   2.522
 3314SOL    HW210842   2.899   5.486   2.452
 3315SOL     OW10843   0.242   5.828   4.745
 3315SOL    HW110844   0.201   5.825   4.654
 3315SOL    HW210845   0.270   5.735   4.772
 3316SOL     OW10846   4.465   2.529   6.649
 3316SOL    HW110847   4.510   2.602   6.598
 3316SOL    HW210848   4.519   2.445   6.643
 3317SOL     OW10849   5.190   2.587   2.256
 3317SOL    HW110850   5.285   2.560   2.272
 3317SOL    HW210851   5.181   2.624   2.164
 3318SOL     OW10852   3.430   2.643   0.737
 3318SOL    HW110853   3.332   2.624   0.745
 3318SOL    HW210854   3.458   2.636   0.642
 3319SOL     OW10855   6.304   5.654   3.184
 3319SOL    HW110856   6.328   5.677   3.279
 3319SOL    HW210857   6.215   5.693   3.162
 3320SOL     OW10858   6.536   6.820   1.435
 3320SOL    HW110859   6.517   6.758   1.512
 3320SOL    HW210860   6.454   6.831   1.380
 3321SOL     OW10861   5.105   1.554   0.249
 3321SOL    HW110862   5.200   1.582   0.268
 3321SOL    HW210863   5.096   1.533   0.152
 3322SOL     OW10864   6.647   4.002   0.691
 3322SOL    HW110865   6.726   3.949   0.718
 3322SOL    HW210866   6.566   3.943   0.686
 3323SOL     OW10867   1.502   2.036   1.508
 3323SOL    HW110868   1.404   2.038   1.489
 3323SOL    HW210869   1.541   1.952   1.470
 3324SOL     OW10870   5.297   5.984   5.872
 3324SOL    HW110871   5.390   6.002   5.840
 3324SOL    HW210872   5.301   5.940   5.962
 3325SOL     OW10873   2.644   4.064   5.632
 3325SOL    HW110874   2.583   3.986   5.643
 3325SOL    HW210875   2.639   4.099   5.538
 3326SOL     OW10876   4.268   1.608   2.209
 3326SOL    HW110877   4.261   1.678   2.280
 3326SOL    HW210878   4.182   1.604   2.157
 3327SOL     OW10879   0.434   4.970   6.528
 3327SOL    HW110880   0.408   5.012   6.615
 3327SOL    HW210881   0.493   4.891   6.546
 3328SOL     OW10882   4.638   2.398   6.126
 3328SOL    HW110883   4.620   2.485   6.079
 3328SOL    HW210884   4.610   2.405   6.221
 3329SOL     OW10885   6.574   5.858   5.802
 3329SOL    HW110886   6.570   5.764   5.769
 3329SOL    HW210887   6.526   5.865   5.889
 3330SOL     OW10888   0.002   3.697   2.705
 3330SOL    HW110889   0.007   3.684   2.804
 3330SOL    HW210890   6.927   3.720   2.678
 3331SOL     OW10891   1.796   3.306   0.969
 3331SOL    HW110892   1.855   3.270   0.897
 3331SOL    HW210893   1.818   3.262   1.056
 3332SOL     OW10894   6.395   4.710   1.687
 3332SOL    HW110895   6.360   4.774   1.619
 3332SOL    HW210896   6.403   4.756   1.775
 3333SOL     OW10897   4.083   5.404   6.670
 3333SOL    HW110898   4.121   5.321   6.629
 3333SOL    HW210899   4.151   5.444   6.732
 3334SOL     OW10900   2.364   4.064   1.863
 3334SOL    HW110901   2.445   4.107   1.822
 3334SOL    HW210902   2.355   4.092   1.958
 3335SOL     OW10903   5.836   4.000   4.809
 3335SOL    HW110904   5.922   3.958   4.838
 3335SOL    HW210905   5.850   4.099   4.798
 3336SOL     OW10906   2.899   5.911   5.894
 3336SOL    HW110907   2.867   5.898   5.800
 3336SOL    HW210908   2.988   5.867   5.906
 3337SOL     OW10909   3.640   1.720   0.279
 3337SOL    HW110910   3.591   1.740   0.364
 3337SOL    HW210911   3.722   1.777   0.275
 3338SOL     OW10912   6.861   4.339   0.326
 3338SOL    HW110913   6.829   4.291   0.408
 3338SOL    HW210914   6.784   4.352   0.263
 3339SOL     OW10915   0.157   5.737   6.020
 3339SOL    HW110916   0.247   5.696   6.009
 3339SOL    HW210917   0.165   5.836   6.016
 3340SOL     OW10918   4.092   6.707   1.723
 3340SOL    HW110919   4.007   6.699   1.670
 3340SOL    HW210920   4.087   6.647   1.803
 3341SOL     OW10921   0.913   0.128   2.024
 3341SOL    HW110922   0.940   0.036   1.995
 3341SOL    HW210923   0.826   0.123   2.073
 3342SOL     OW10924   2.737   0.077   4.081
 3342SOL    HW110925   2.719   0.102   3.986
 3342SOL    HW210926   2.781   7.005   4.084
 3343SOL     OW10927   6.329   2.507   1.099
 3343SOL    HW110928   6.402   2.573   1.085
 3343SOL    HW210929   6.255   2.526   1.034
 3344SOL     OW10930   0.199   3.327   5.427
 3344SOL    HW110931   0.283   3.286   5.462
 3344SOL    HW210932   0.121   3.295   5.480
 3345SOL     OW10933   2.899   3.811   6.132
 3345SOL    HW110934   2.856   3.891   6.091
 3345SOL    HW210935   2.917   3.828   6.229
 3346SOL     OW10936   1.470   6.079   2.384
 3346SOL    HW110937   1.547   6.037   2.431
 3346SOL    HW210938   1.384   6.053   2.430
 3347SOL     OW10939   5.387   3.971   4.746
 3347SOL    HW110940   5.306   3.937   4.697
 3347SOL    HW210941   5.428   3.896   4.797
 3348SOL     OW10942   4.004   3.128   3.192
 3348SOL    HW110943   4.050   3.121   3.104
 3348SOL    HW210944   3.998   3.224   3.220
 3349SOL     OW10945   6.318   3.811   5.394
 3349SOL    HW110946   6.348   3.821   5.489
 3349SOL    HW210947   6.221   3.788   5.391
 3350SOL     OW10948   1.280   2.110   0.783
 3350SOL    HW110949   1.225   2.087   0.864
 3350SOL    HW210950   1.359   2.164   0.811
 3351SOL     OW10951   5.317   1.919   1.557
 3351SOL    HW110952   5.284   1.832   1.522
 3351SOL    HW210953   5.325   1.985   1.482
 3352SOL     OW10954   0.471   3.743   0.778
 3352SOL    HW110955   0.489   3.663   0.719
 3352SOL    HW210956   0.468   3.825   0.721
 3353SOL     OW10957   2.163   6.916   6.566
 3353SOL    HW110958   2.221   6.892   6.488
 3353SOL    HW210959   2.186   7.009   6.597
 3354SOL     OW10960   0.893   1.180   2.391
 3354SOL    HW110961   0.955   1.209   2.464
 3354SOL    HW210962   0.937   1.195   2.303
 3355SOL     OW10963   6.399   1.977   2.676
 3355SOL    HW110964   6.390   1.929   2.764
 3355SOL    HW210965   6.389   1.912   2.601
 3356SOL     OW10966   2.603   3.490   6.444
 3356SOL    HW110967   2.609   3.393   6.469
 3356SOL    HW210968   2.516   3.506   6.396
 3357SOL     OW10969   2.214   4.976   2.189
 3357SOL    HW110970   2.263   4.978   2.102
 3357SOL    HW210971   2.148   5.051   2.192
 3358SOL     OW10972   5.486   4.671   2.933
 3358SOL    HW110973   5.539   4.681   2.849
 3358SOL    HW210974   5.545   4.636   3.006
 3359SOL     OW10975   0.865   1.112   1.485
 3359SOL    HW110976   0.831   1.022   1.512
 3359SOL    HW210977   0.881   1.168   1.566
 3360SOL     OW10978   1.754   0.266   6.452
 3360SOL    HW110979   1.666   0.217   6.450
 3360SOL    HW210980   1.823   0.213   6.402
 3361SOL     OW10981   5.171   0.146   2.498
 3361SOL    HW110982   5.155   0.140   2.596
 3361SOL    HW210983   5.254   0.095   2.474
 3362SOL     OW10984   2.690   1.381   5.261
 3362SOL    HW110985   2.646   1.320   5.194
 3362SOL    HW210986   2.728   1.461   5.214
 3363SOL     OW10987   0.317   0.906   6.472
 3363SOL    HW110988   0.246   0.972   6.445
 3363SOL    HW210989   0.372   0.945   6.546
 3364SOL     OW10990   2.095   5.067   5.624
 3364SOL    HW110991   2.051   5.018   5.549
 3364SOL    HW210992   2.098   5.008   5.705
 3365SOL     OW10993   6.167   1.798   5.823
 3365SOL    HW110994   6.187   1.865   5.894
 3365SOL    HW210995   6.076   1.760   5.837
 3366SOL     OW10996   5.439   1.044   5.869
 3366SOL    HW110997   5.526   1.057   5.918
 3366SOL    HW210998   5.366   1.026   5.934
 3367SOL     OW10999   1.149   0.751   2.241
 3367SOL    HW111000   1.112   0.659   2.237
 3367SOL    HW211001   1.111   0.799   2.321
 3368SOL     OW11002   6.493   6.721   5.678
 3368SOL    HW111003   6.437   6.704   5.759
 3368SOL    HW211004   6.546   6.805   5.691
 3369SOL     OW11005   3.352   6.649   6.217
 3369SOL    HW111006   3.448   6.641   6.245
 3369SOL    HW211007   3.342   6.727   6.155
 3370SOL     OW11008   4.877   0.381   5.285
 3370SOL    HW111009   4.920   0.314   5.345
 3370SOL    HW211010   4.908   0.368   5.191
 3371SOL     OW11011   0.395   5.206   1.654
 3371SOL    HW111012   0.331   5.132   1.635
 3371SOL    HW211013   0.489   5.173   1.648
 3372SOL     OW11014   0.240   2.013   2.175
 3372SOL    HW111015   0.190   2.001   2.261
 3372SOL    HW211016   0.185   1.976   2.099
 3373SOL     OW11017   0.335   1.821   5.415
 3373SOL    HW111018   0.430   1.791   5.411
 3373SOL    HW211019   0.277   1.756   5.367
 3374SOL     OW11020   3.717   5.281   5.427
 3374SOL    HW111021   3.752   5.314   5.339
 3374SOL    HW211022   3.793   5.245   5.481
 3375SOL     OW11023   4.361   4.262   5.320
 3375SOL    HW111024   4.339   4.328   5.247
 3375SOL    HW211025   4.389   4.175   5.278
 3376SOL     OW11026   2.940   3.817   2.370
 3376SOL    HW111027   2.944   3.843   2.467
 3376SOL    HW211028   2.916   3.720   2.363
 3377SOL     OW11029   2.522   5.976   5.371
 3377SOL    HW111030   2.429   6.011   5.363
 3377SOL    HW211031   2.523   5.897   5.432
 3378SOL     OW11032   0.701   1.506   0.666
 3378SOL    HW111033   0.690   1.446   0.744
 3378SOL    HW211034   0.798   1.521   0.649
 3379SOL     OW11035   1.351   4.770   6.594
 3379SOL    HW111036   1.284   4.803   6.660
 3379SOL    HW211037   1.423   4.838   6.581
 3380SOL     OW11038   0.787   3.788   5.910
 3380SOL    HW111039   0.859   3.857   5.909
 3380SOL    HW211040   0.765   3.765   6.005
 3381SOL     OW11041   3.570   2.443   1.107
 3381SOL    HW111042   3.587   2.535   1.144
 3381SOL    HW211043   3.637   2.379   1.144
 3382SOL     OW11044   6.723   6.974   1.091
 3382SOL    HW111045   6.705   6.891   1.143
 3382SOL    HW211046   6.820   6.999   1.099
 3383SOL     OW11047   6.973   4.547   2.972
 3383SOL    HW111048   0.018   4.533   2.896
 3383SOL    HW211049   7.005   4.623   3.028
 3384SOL     OW11050   3.561   2.873   4.281
 3384SOL    HW111051   3.500   2.865   4.202
 3384SOL    HW211052   3.656   2.861   4.250
 3385SOL     OW11053   6.175   3.616   3.351
 3385SOL    HW111054   6.191   3.621   3.450
 3385SOL    HW211055   6.084   3.651   3.330
 3386SOL     OW11056   6.134   4.229   4.632
 3386SOL    HW111057   6.170   4.300   4.693
 3386SOL    HW211058   6.140   4.261   4.537
 3387SOL     OW11059   3.017   2.161   2.952
 3387SOL    HW111060   3.102   2.118   2.982
 3387SOL    HW211061   2.997   2.239   3.012
 3388SOL     OW11062   5.603   2.977   1.907
 3388SOL    HW111063   5.700   2.988   1.930
 3388SOL    HW211064   5.589   2.997   1.810
 3389SOL     OW11065   5.988   3.959   3.473
 3389SOL    HW111066   5.974   3.922   3.565
 3389SOL    HW211067   6.083   3.990   3.463
 3390SOL     OW11068   4.898   2.588   5.406
 3390SOL    HW111069   4.808   2.549   5.385
 3390SOL    HW211070   4.965   2.514   5.410
 3391SOL     OW11071   3.589   1.611   4.125
 3391SOL    HW111072   3.532   1.670   4.181
 3391SOL    HW211073   3.534   1.534   4.091
 3392SOL     OW11074   4.718   6.206   3.841
 3392SOL    HW111075   4.730   6.292   3.792
 3392SOL    HW211076   4.676   6.223   3.930
 3393SOL     OW11077   6.314   0.250   0.021
 3393SOL    HW111078   6.228   0.221   6.995
 3393SOL    HW211079   6.365   0.310   6.977
 3394SOL     OW11080   6.142   2.593   1.550
 3394SOL    HW111081   6.171   2.611   1.644
 3394SOL    HW211082   6.058   2.539   1.551
 3395SOL     OW11083   1.283   3.655   4.897
 3395SOL    HW111084   1.348   3.595   4.943
 3395SOL    HW211085   1.245   3.720   4.963
 3396SOL     OW11086   0.622   4.112   4.040
 3396SOL    HW111087   0.526   4.113   4.067
 3396SOL    HW211088   0.634   4.054   3.960
 3397SOL     OW11089   4.199   5.991   5.946
 3397SOL    HW111090   4.287   6.016   5.906
 3397SOL    HW211091   4.206   5.992   6.046
 3398SOL     OW11092   6.826   6.317   4.411
 3398SOL    HW111093   6.751   6.375   4.445
 3398SOL    HW211094   6.811   6.298   4.314
 3399SOL     OW11095   4.590   5.024   4.787
 3399SOL    HW111096   4.513   5.083   4.808
 3399SOL    HW211097   4.579   4.937   4.835
 3400SOL     OW11098   4.848   2.282   6.774
 3400SOL    HW111099   4.907   2.222   6.719
 3400SOL    HW211100   4.789   2.335   6.713
 3401SOL     OW11101   5.976   5.310   0.244
 3401SOL    HW111102   6.063   5.261   0.235
 3401SOL    HW211103   5.924   5.272   0.320
 3402SOL     OW11104   5.260   5.825   1.935
 3402SOL    HW111105   5.164   5.853   1.925
 3402SOL    HW211106   5.264   5.742   1.991
 3403SOL     OW11107   3.549   1.083   5.462
 3403SOL    HW111108   3.466   1.051   5.415
 3403SOL    HW211109   3.558   1.181   5.449
 3404SOL     OW11110   4.598   0.629   0.753
 3404SOL    HW111111   4.673   0.660   0.811
 3404SOL    HW211112   4.528   0.701   0.748
 3405SOL     OW11113   5.787   4.042   0.306
 3405SOL    HW111114   5.773   4.141   0.304
 3405SOL    HW211115   5.720   4.001   0.369
 3406SOL     OW11116   1.260   4.356   1.688
 3406SOL    HW111117   1.242   4.447   1.727
 3406SOL    HW211118   1.321   4.306   1.749
 3407SOL     OW11119   1.736   5.807   2.139
 3407SOL    HW111120   1.700   5.762   2.220
 3407SOL    HW211121   1.808   5.871   2.165
 3408SOL     OW11122   5.228   4.300   3.419
 3408SOL    HW111123   5.301   4.362   3.448
 3408SOL    HW211124   5.188   4.335   3.333
 3409SOL     OW11125   3.303   0.525   5.591
 3409SOL    HW111126   3.247   0.499   5.512
 3409SOL    HW211127   3.328   0.621   5.584
 3410SOL     OW11128   6.937   6.717   6.983
 3410SOL    HW111129   6.966   6.759   6.897
 3410SOL    HW211130   7.018   6.683   0.014
 3411SOL     OW11131   4.876   2.097   2.188
 3411SOL    HW111132   4.831   2.106   2.276
 3411SOL    HW211133   4.889   2.187   2.147
 3412SOL     OW11134   4.250   4.611   0.351
 3412SOL    HW111135   4.154   4.636   0.343
 3412SOL    HW211136   4.258   4.518   0.385
 3413SOL     OW11137   3.879   2.118   2.511
 3413SOL    HW111138   3.787   2.156   2.517
 3413SOL    HW211139   3.876   2.032   2.460
 3414SOL     OW11140   2.832   2.285   5.128
 3414SOL    HW111141   2.877   2.276   5.039
 3414SOL    HW211142   2.768   2.362   5.124
 3415SOL     OW11143   0.353   5.202   3.945
 3415SOL    HW111144   0.318   5.150   3.867
 3415SOL    HW211145   0.410   5.278   3.911
 3416SOL     OW11146   1.788   5.024   5.724
 3416SOL    HW111147   1.843   4.940   5.726
 3416SOL    HW211148   1.704   5.007   5.672
 3417SOL     OW11149   6.148   0.620   2.389
 3417SOL    HW111150   6.144   0.547   2.458
 3417SOL    HW211151   6.235   0.616   2.341
 3418SOL     OW11152   3.094   1.413   6.085
 3418SOL    HW111153   3.086   1.477   6.162
 3418SOL    HW211154   3.013   1.356   6.080
 3419SOL     OW11155   4.636   4.594   0.589
 3419SOL    HW111156   4.576   4.611   0.667
 3419SOL    HW211157   4.587   4.543   0.519
 3420SOL     OW11158   4.053   2.237   4.180
 3420SOL    HW111159   4.037   2.205   4.086
 3420SOL    HW211160   3.972   2.217   4.235
 3421SOL     OW11161   6.987   5.803   5.339
 3421SOL    HW111162   0.003   5.751   5.261
 3421SOL    HW211163   6.887   5.805   5.337
 3422SOL     OW11164   3.307   1.526   1.555
 3422SOL    HW111165   3.284   1.450   1.494
 3422SOL    HW211166   3.252   1.520   1.639
 3423SOL     OW11167   2.523   0.548   1.007
 3423SOL    HW111168   2.585   0.621   0.980
 3423SOL    HW211169   2.473   0.576   1.089
 3424SOL     OW11170   4.523   1.364   2.693
 3424SOL    HW111171   4.522   1.267   2.668
 3424SOL    HW211172   4.501   1.419   2.613
 3425SOL     OW11173   4.354   4.588   1.881
 3425SOL    HW111174   4.416   4.627   1.814
 3425SOL    HW211175   4.365   4.489   1.883
 3426SOL     OW11176   4.684   3.953   0.738
 3426SOL    HW111177   4.713   3.989   0.649
 3426SOL    HW211178   4.741   3.875   0.762
 3427SOL     OW11179   0.255   1.649   6.639
 3427SOL    HW111180   0.274   1.586   6.714
 3427SOL    HW211181   0.203   1.727   6.673
 3428SOL     OW11182   4.606   4.365   2.848
 3428SOL    HW111183   4.572   4.414   2.768
 3428SOL    HW211184   4.609   4.426   2.927
 3429SOL     OW11185   1.526   2.938   6.794
 3429SOL    HW111186   1.494   3.032   6.793
 3429SOL    HW211187   1.597   2.925   6.725
 3430SOL     OW11188   1.455   6.975   6.996
 3430SOL    HW111189   1.453   0.055   6.977
 3430SOL    HW211190   1.546   6.949   0.010
 3431SOL     OW11191   1.072   5.752   0.873
 3431SOL    HW111192   0.991   5.803   0.841
 3431SOL    HW211193   1.055   5.654   0.865
 3432SOL     OW11194   3.438   1.417   6.443
 3432SOL    HW111195   3.443   1.326   6.403
 3432SOL    HW211196   3.479   1.483   6.380
 3433SOL     OW11197   3.733   1.040   5.064
 3433SOL    HW111198   3.776   0.950   5.050
 3433SOL    HW211199   3.649   1.045   5.010
 3434SOL     OW11200   4.480   2.334   2.309
 3434SOL    HW111201   4.459   2.351   2.405
 3434SOL    HW211202   4.516   2.242   2.298
 3435SOL     OW11203   0.492   1.010   0.424
 3435SOL    HW111204   0.453   0.970   0.506
 3435SOL    HW211205   0.521   0.937   0.362
 3436SOL     OW11206   4.010   6.535   4.198
 3436SOL    HW111207   4.108   6.522   4.186
 3436SOL    HW211208   3.993   6.571   4.290
 3437SOL     OW11209   3.896   6.997   6.046
 3437SOL    HW111210   3.996   6.996   6.053
 3437SOL    HW211211   3.858   6.924   6.104
 3438SOL     OW11212   1.256   2.960   6.313
 3438SOL    HW111213   1.246   2.860   6.316
 3438SOL    HW211214   1.268   2.994   6.406
 3439SOL     OW11215   2.474   5.704   3.459
 3439SOL    HW111216   2.557   5.691   3.513
 3439SOL    HW211217   2.497   5.753   3.375
 3440SOL     OW11218   4.871   3.165   0.668
 3440SOL    HW111219   4.862   3.259   0.635
 3440SOL    HW211220   4.783   3.134   0.705
 3441SOL     OW11221   2.596   0.604   3.974
 3441SOL    HW111222   2.640   0.694   3.970
 3441SOL    HW211223   2.635   0.545   3.904
 3442SOL     OW11224   1.997   4.770   3.442
 3442SOL    HW111225   1.946   4.780   3.527
 3442SOL    HW211226   2.094   4.787   3.458
 3443SOL     OW11227   5.373   1.017   3.839
 3443SOL    HW111228   5.307   1.066   3.897
 3443SOL    HW211229   5.344   0.921   3.831
 3444SOL     OW11230   4.290   5.302   0.378
 3444SOL    HW111231   4.269   5.206   0.399
 3444SOL    HW211232   4.386   5.310   0.353
 3445SOL     OW11233   6.599   3.816   5.067
 3445SOL    HW111234   6.622   3.814   5.165
 3445SOL    HW211235   6.599   3.910   5.035
 3446SOL     OW11236   3.540   7.017   3.211
 3446SOL    HW111237   3.553   6.952   3.286
 3446SOL    HW211238   3.467   6.984   3.151
 3447SOL     OW11239   5.371   5.813   6.384
 3447SOL    HW111240   5.302   5.747   6.416
 3447SOL    HW211241   5.327   5.884   6.330
 3448SOL     OW11242   3.921   2.397   0.909
 3448SOL    HW111243   3.839   2.341   0.919
 3448SOL    HW211244   3.958   2.386   0.817
 3449SOL     OW11245   6.463   6.033   3.347
 3449SOL    HW111246   6.561   6.050   3.343
 3449SOL    HW211247   6.432   5.996   3.260
 3450SOL     OW11248   0.899   1.560   1.561
 3450SOL    HW111249   0.952   1.511   1.492
 3450SOL    HW211250   0.897   1.657   1.539
 3451SOL     OW11251   1.268   5.680   4.550
 3451SOL    HW111252   1.213   5.678   4.467
 3451SOL    HW211253   1.221   5.630   4.622
 3452SOL     OW11254   6.034   1.933   0.351
 3452SOL    HW111255   6.018   1.930   0.253
 3452SOL    HW211256   6.034   2.029   0.382
 3453SOL     OW11257   5.344   5.660   5.398
 3453SOL    HW111258   5.422   5.724   5.398
 3453SOL    HW211259   5.378   5.567   5.388
 3454SOL     OW11260   0.642   0.822   0.046
 3454SOL    HW111261   0.683   0.765   6.993
 3454SOL    HW211262   0.629   0.767   0.128
 3455SOL     OW11263   1.705   2.309   4.419
 3455SOL    HW111264   1.740   2.331   4.510
 3455SOL    HW211265   1.779   2.271   4.363
 3456SOL     OW11266   6.082   0.147   1.884
 3456SOL    HW111267   6.011   0.187   1.942
 3456SOL    HW211268   6.150   0.101   1.941
 3457SOL     OW11269   2.356   5.175   3.116
 3457SOL    HW111270   2.358   5.187   3.016
 3457SOL    HW211271   2.449   5.179   3.151
 3458SOL     OW11272   5.674   5.982   0.883
 3458SOL    HW111273   5.688   5.911   0.953
 3458SOL    HW211274   5.598   6.041   0.911
 3459SOL     OW11275   6.975   5.745   3.961
 3459SOL    HW111276   6.926   5.762   3.876
 3459SOL    HW211277   6.948   5.656   3.998
 3460SOL     OW11278   4.453   3.407   6.401
 3460SOL    HW111279   4.356   3.423   6.417
 3460SOL    HW211280   4.482   3.327   6.452
 3461SOL     OW11281   3.765   6.339   3.079
 3461SOL    HW111282   3.775   6.435   3.105
 3461SOL    HW211283   3.855   6.296   3.075
 3462SOL     OW11284   5.114   3.305   3.075
 3462SOL    HW111285   5.054   3.349   3.008
 3462SOL    HW211286   5.091   3.338   3.167
 3463SOL     OW11287   2.395   2.598   1.325
 3463SOL    HW111288   2.408   2.625   1.230
 3463SOL    HW211289   2.482   2.571   1.365
 3464SOL     OW11290   4.688   2.746   6.493
 3464SOL    HW111291   4.671   2.827   6.549
 3464SOL    HW211292   4.787   2.732   6.483
 3465SOL     OW11293   2.139   3.670   2.201
 3465SOL    HW111294   2.174   3.602   2.137
 3465SOL    HW211295   2.119   3.627   2.288
 3466SOL     OW11296   6.215   4.931   3.601
 3466SOL    HW111297   6.117   4.942   3.615
 3466SOL    HW211298   6.236   4.940   3.503
 3467SOL     OW11299   3.262   2.224   0.853
 3467SOL    HW111300   3.211   2.183   0.929
 3467SOL    HW211301   3.331   2.286   0.889
 3468SOL     OW11302   4.227   1.842   0.979
 3468SOL    HW111303   4.223   1.849   1.079
 3468SOL    HW211304   4.189   1.755   0.950
 3469SOL     OW11305   4.568   6.514   5.617
 3469SOL    HW111306   4.527   6.449   5.681
 3469SOL    HW211307   4.546   6.607   5.646
 3470SOL     OW11308   0.295   3.115   1.774
 3470SOL    HW111309   0.209   3.163   1.765
 3470SOL    HW211310   0.309   3.055   1.695
 3471SOL     OW11311   5.106   3.269   3.615
 3471SOL    HW111312   5.101   3.233   3.708
 3471SOL    HW211313   5.103   3.369   3.618
 3472SOL     OW11314   4.249   1.614   4.139
 3472SOL    HW111315   4.165   1.566   4.163
 3472SOL    HW211316   4.309   1.619   4.220
 3473SOL     OW11317   0.240   4.456   2.187
 3473SOL    HW111318   0.175   4.401   2.135
 3473SOL    HW211319   0.201   4.477   2.277
 3474SOL     OW11320   6.080   5.337   3.855
 3474SOL    HW111321   6.054   5.372   3.945
 3474SOL    HW211322   6.174   5.302   3.859
 3475SOL     OW11323   6.984   3.888   4.541
 3475SOL    HW111324   0.014   3.823   4.599
 3475SOL    HW211325   6.914   3.936   4.595
 3476SOL     OW11326   0.960   1.296   3.438
 3476SOL    HW111327   0.965   1.197   3.431
 3476SOL    HW211328   0.919   1.321   3.526
 3477SOL     OW11329   1.028   4.324   1.555
 3477SOL    HW111330   0.958   4.329   1.626
 3477SOL    HW211331   1.119   4.325   1.598
 3478SOL     OW11332   2.223   0.303   0.441
 3478SOL    HW111333   2.228   0.204   0.424
 3478SOL    HW211334   2.313   0.335   0.471
 3479SOL     OW11335   1.412   3.865   3.695
 3479SOL    HW111336   1.472   3.797   3.654
 3479SOL    HW211337   1.457   3.954   3.694
 3480SOL     OW11338   1.265   5.073   6.465
 3480SOL    HW111339   1.258   5.102   6.560
 3480SOL    HW211340   1.224   5.142   6.405
 3481SOL     OW11341   6.477   0.430   5.437
 3481SOL    HW111342   6.536   0.498   5.481
 3481SOL    HW211343   6.436   0.371   5.506
 3482SOL     OW11344   6.353   3.952   4.870
 3482SOL    HW111345   6.363   3.926   4.774
 3482SOL    HW211346   6.441   3.946   4.916
 3483SOL     OW11347   4.748   2.757   3.822
 3483SOL    HW111348   4.714   2.667   3.849
 3483SOL    HW211349   4.728   2.771   3.725
 3484SOL     OW11350   1.488   3.292   5.252
 3484SOL    HW111351   1.467   3.206   5.298
 3484SOL    HW211352   1.579   3.324   5.280
 3485SOL     OW11353   0.714   2.423   6.216
 3485SOL    HW111354   0.744   2.372   6.297
 3485SOL    HW211355   0.616   2.439   6.221
 3486SOL     OW11356   2.136   6.959   4.557
 3486SOL    HW111357   2.152   0.025   4.503
 3486SOL    HW211358   2.073   6.979   4.632
 3487SOL     OW11359   5.057   1.340   6.615
 3487SOL    HW111360   5.009   1.276   6.555
 3487SOL    HW211361   5.005   1.350   6.700
 3488SOL     OW11362   6.169   0.506   4.487
 3488SOL    HW111363   6.146   0.591   4.533
 3488SOL    HW211364   6.152   0.515   4.389
 3489SOL     OW11365   3.143   6.896   0.553
 3489SOL    HW111366   3.131   6.985   0.509
 3489SOL    HW211367   3.184   6.831   0.489
 3490SOL     OW11368   4.169   5.453   0.596
 3490SOL    HW111369   4.207   5.438   0.505
 3490SOL    HW211370   4.179   5.370   0.650
 3491SOL     OW11371   5.016   4.132   6.845
 3491SOL    HW111372   5.029   4.224   6.883
 3491SOL    HW211373   5.102   4.081   6.851
 3492SOL     OW11374   6.062   4.014   2.747
 3492SOL    HW111375   6.123   4.017   2.668
 3492SOL    HW211376   5.975   4.057   2.723
 3493SOL     OW11377   5.923   3.108   4.856
 3493SOL    HW111378   5.842   3.066   4.899
 3493SOL    HW211379   5.915   3.207   4.861
 3494SOL     OW11380   4.267   1.484   1.872
 3494SOL    HW111381   4.348   1.537   1.847
 3494SOL    HW211382   4.186   1.542   1.863
 3495SOL     OW11383   1.665   2.848   2.505
 3495SOL    HW111384   1.701   2.765   2.463
 3495SOL    HW211385   1.610   2.824   2.585
 3496SOL     OW11386   6.333   5.530   1.071
 3496SOL    HW111387   6.375   5.549   1.160
 3496SOL    HW211388   6.235   5.515   1.083
 3497SOL     OW11389   3.601   0.838   2.530
 3497SOL    HW111390   3.644   0.870   2.446
 3497SOL    HW211391   3.507   0.808   2.509
 3498SOL     OW11392   2.196   1.773   1.200
 3498SOL    HW111393   2.276   1.828   1.222
 3498SOL    HW211394   2.119   1.833   1.180
 3499SOL     OW11395   5.974   5.310   5.645
 3499SOL    HW111396   6.035   5.254   5.588
 3499SOL    HW211397   6.000   5.406   5.637
 3500SOL     OW11398   1.498   1.916   4.032
 3500SOL    HW111399   1.587   1.962   4.034
 3500SOL    HW211400   1.472   1.890   4.125
 3501SOL     OW11401   1.659   6.897   5.809
 3501SOL    HW111402   1.644   6.820   5.746
 3501SOL    HW211403   1.595   6.890   5.885
 3502SOL     OW11404   4.983   3.207   2.124
 3502SOL    HW111405   4.895   3.176   2.087
 3502SOL    HW211406   5.055   3.192   2.056
 3503SOL     OW11407   6.653   6.272   6.710
 3503SOL    HW111408   6.663   6.285   6.808
 3503SOL    HW211409   6.667   6.175   6.688
 3504SOL     OW11410   1.475   0.955   1.272
 3504SOL    HW111411   1.573   0.966   1.255
 3504SOL    HW211412   1.446   0.864   1.244
 3505SOL     OW11413   6.004   4.824   6.076
 3505SOL    HW111414   6.099   4.804   6.054
 3505SOL    HW211415   5.946   4.751   6.042
 3506SOL     OW11416   4.975   4.653   4.919
 3506SOL    HW111417   4.960   4.729   4.856
 3506SOL    HW211418   4.888   4.628   4.962
 3507SOL     OW11419   2.967   6.453   0.638
 3507SOL    HW111420   3.024   6.376   0.667
 3507SOL    HW211421   3.012   6.538   0.666
 3508SOL     OW11422   2.959   2.520   5.331
 3508SOL    HW111423   3.013   2.561   5.405
 3508SOL    HW211424   3.020   2.479   5.263
 3509SOL     OW11425   4.251   5.517   6.882
 3509SOL    HW111426   4.269   5.426   6.920
 3509SOL    HW211427   4.286   5.586   6.944
 3510SOL     OW11428   2.437   0.628   1.255
 3510SOL    HW111429   2.477   0.654   1.343
 3510SOL    HW211430   2.383   0.544   1.267
 3511SOL     OW11431   2.299   4.779   1.636
 3511SOL    HW111432   2.363   4.852   1.612
 3511SOL    HW211433   2.247   4.752   1.554
 3512SOL     OW11434   0.628   4.423   6.620
 3512SOL    HW111435   0.699   4.417   6.690
 3512SOL    HW211436   0.667   4.398   6.531
 3513SOL     OW11437   5.488   2.025   0.248
 3513SOL    HW111438   5.491   2.044   0.346
 3513SOL    HW211439   5.393   2.028   0.216
 3514SOL     OW11440   4.335   1.074   2.905
 3514SOL    HW111441   4.237   1.074   2.885
 3514SOL    HW211442   4.366   1.168   2.921
 3515SOL     OW11443   5.832   5.725   4.481
 3515SOL    HW111444   5.773   5.659   4.433
 3515SOL    HW211445   5.884   5.777   4.413
 3516SOL     OW11446   5.386   0.461   0.881
 3516SOL    HW111447   5.390   0.462   0.981
 3516SOL    HW211448   5.379   0.367   0.848
 3517SOL     OW11449   6.315   0.876   0.467
 3517SOL    HW111450   6.257   0.810   0.514
 3517SOL    HW211451   6.327   0.956   0.525
 3518SOL     OW11452   5.635   1.668   5.354
 3518SOL    HW111453   5.723   1.715   5.340
 3518SOL    HW211454   5.611   1.618   5.272
 3519SOL     OW11455   3.354   0.807   0.624
 3519SOL    HW111456   3.255   0.816   0.634
 3519SOL    HW211457   3.375   0.763   0.536
 3520SOL     OW11458   2.948   6.572   4.889
 3520SOL    HW111459   2.969   6.615   4.976
 3520SOL    HW211460   3.025   6.514   4.861
 3521SOL     OW11461   2.897   2.708   0.065
 3521SOL    HW111462   2.930   2.645   7.013
 3521SOL    HW211463   2.969   2.724   0.132
 3522SOL     OW11464   0.079   5.525   6.559
 3522SOL    HW111465   0.084   5.533   6.460
 3522SOL    HW211466   0.123   5.440   6.588
 3523SOL     OW11467   1.017   5.624   5.903
 3523SOL    HW111468   1.111   5.613   5.933
 3523SOL    HW211469   0.955   5.610   5.980
 3524SOL     OW11470   5.920   1.273   3.506
 3524SOL    HW111471   5.945   1.185   3.546
 3524SOL    HW211472   5.847   1.315   3.560
 3525SOL     OW11473   6.229   4.471   3.422
 3525SOL    HW111474   6.150   4.423   3.384
 3525SOL    HW211475   6.235   4.563   3.381
 3526SOL     OW11476   0.947   6.021   3.097
 3526SOL    HW111477   1.011   5.977   3.159
 3526SOL    HW211478   0.931   6.116   3.126
 3527SOL     OW11479   6.687   3.108   6.223
 3527SOL    HW111480   6.661   3.178   6.289
 3527SOL    HW211481   6.661   3.137   6.131
 3528SOL     OW11482   2.709   6.754   4.868
 3528SOL    HW111483   2.707   6.853   4.886
 3528SOL    HW211484   2.802   6.720   4.883
 3529SOL     OW11485   4.826   5.339   0.265
 3529SOL    HW111486   4.875   5.264   0.221
 3529SOL    HW211487   4.886   5.383   0.331
 3530SOL     OW11488   0.054   0.440   1.780
 3530SOL    HW111489   0.088   0.362   1.727
 3530SOL    HW211490   0.076   0.525   1.732
 3531SOL     OW11491   5.216   1.691   1.421
 3531SOL    HW111492   5.139   1.700   1.358
 3531SOL    HW211493   5.271   1.612   1.397
 3532SOL     OW11494   1.667   1.083   1.887
 3532SOL    HW111495   1.653   1.179   1.913
 3532SOL    HW211496   1.765   1.066   1.876
 3533SOL     OW11497   0.146   1.211   2.986
 3533SOL    HW111498   0.054   1.232   3.020
 3533SOL    HW211499   0.214   1.243   3.051
 3534SOL     OW11500   6.820   1.000   1.180
 3534SOL    HW111501   6.765   1.083   1.187
 3534SOL    HW211502   6.892   1.012   1.111
 3535SOL     OW11503   2.897   5.363   5.123
 3535SOL    HW111504   2.799   5.359   5.139
 3535SOL    HW211505   2.934   5.270   5.115
 3536SOL     OW11506   3.456   2.129   2.425
 3536SOL    HW111507   3.357   2.129   2.411
 3536SOL    HW211508   3.501   2.092   2.344
 3537SOL     OW11509   1.915   5.269   2.352
 3537SOL    HW111510   1.918   5.185   2.405
 3537SOL    HW211511   1.890   5.346   2.412
 3538SOL     OW11512   3.099   5.590   4.475
 3538SOL    HW111513   3.173   5.593   4.542
 3538SOL    HW211514   3.138   5.588   4.383
 3539SOL     OW11515   3.829   3.965   4.735
 3539SOL    HW111516   3.868   3.937   4.823
 3539SOL    HW211517   3.867   3.909   4.662
 3540SOL     OW11518   2.132   1.575   3.793
 3540SOL    HW111519   2.087   1.591   3.705
 3540SOL    HW211520   2.087   1.500   3.841
 3541SOL     OW11521   2.871   3.941   5.124
 3541SOL    HW111522   2.777   3.974   5.131
 3541SOL    HW211523   2.920   3.964   5.208
 3542SOL     OW11524   0.843   4.639   1.957
 3542SOL    HW111525   0.854   4.709   2.028
 3542SOL    HW211526   0.797   4.559   1.996
 3543SOL     OW11527   5.691   2.926   4.941
 3543SOL    HW111528   5.607   2.968   4.975
 3543SOL    HW211529   5.676   2.889   4.849
 3544SOL     OW11530   2.197   4.745   5.646
 3544SOL    HW111531   2.149   4.665   5.684
 3544SOL    HW211532   2.295   4.735   5.661
 3545SOL     OW11533   4.110   4.974   6.641
 3545SOL    HW111534   4.017   5.008   6.653
 3545SOL    HW211535   4.117   4.925   6.554
 3546SOL     OW11536   6.750   5.171   3.063
 3546SOL    HW111537   6.688   5.153   3.139
 3546SOL    HW211538   6.813   5.094   3.052
 3547SOL     OW11539   5.080   5.288   4.320
 3547SOL    HW111540   5.056   5.366   4.378
 3547SOL    HW211541   5.171   5.301   4.283
 3548SOL     OW11542   5.071   2.472   5.821
 3548SOL    HW111543   5.073   2.436   5.914
 3548SOL    HW211544   4.977   2.489   5.793
 3549SOL     OW11545   5.779   4.843   2.931
 3549SOL    HW111546   5.726   4.924   2.905
 3549SOL    HW211547   5.776   4.777   2.856
 3550SOL     OW11548   5.600   1.782   2.337
 3550SOL    HW111549   5.683   1.726   2.336
 3550SOL    HW211550   5.529   1.736   2.284
 3551SOL     OW11551   2.785   6.459   3.325
 3551SOL    HW111552   2.690   6.425   3.328
 3551SOL    HW211553   2.787   6.555   3.353
 3552SOL     OW11554   6.436   5.124   2.710
 3552SOL    HW111555   6.502   5.192   2.741
 3552SOL    HW211556   6.484   5.042   2.680
 3553SOL     OW11557   5.158   1.701   3.076
 3553SOL    HW111558   5.150   1.722   3.174
 3553SOL    HW211559   5.100   1.764   3.024
 3554SOL     OW11560   4.296   4.623   6.646
 3554SOL    HW111561   4.197   4.638   6.645
 3554SOL    HW211562   4.339   4.681   6.576
 3555SOL     OW11563   1.192   2.881   3.188
 3555SOL    HW111564   1.240   2.823   3.254
 3555SOL    HW211565   1.231   2.865   3.097
 3556SOL     OW11566   3.464   0.973   6.155
 3556SOL    HW111567   3.527   0.898   6.171
 3556SOL    HW211568   3.443   0.979   6.057
 3557SOL     OW11569   1.551   0.239   5.210
 3557SOL    HW111570   1.588   0.328   5.182
 3557SOL    HW211571   1.562   0.173   5.136
 3558SOL     OW11572   0.025   5.950   1.530
 3558SOL    HW111573   0.001   5.924   1.623
 3558SOL    HW211574   0.103   6.012   1.531
 3559SOL     OW11575   0.865   0.568   5.282
 3559SOL    HW111576   0.926   0.573   5.361
 3559SOL    HW211577   0.864   0.656   5.235
 3560SOL     OW11578   0.419   6.343   0.889
 3560SOL    HW111579   0.461   6.293   0.813
 3560SOL    HW211580   0.346   6.288   0.928
 3561SOL     OW11581   5.019   5.090   5.283
 3561SOL    HW111582   5.095   5.080   5.347
 3561SOL    HW211583   5.034   5.170   5.225
 3562SOL     OW11584   5.312   0.629   3.034
 3562SOL    HW111585   5.411   0.624   3.041
 3562SOL    HW211586   5.281   0.572   2.958
 3563SOL     OW11587   4.655   0.674   1.696
 3563SOL    HW111588   4.687   0.580   1.689
 3563SOL    HW211589   4.733   0.736   1.687
 3564SOL     OW11590   0.126   4.952   3.382
 3564SOL    HW111591   0.056   4.964   3.453
 3564SOL    HW211592   0.172   4.864   3.395
 3565SOL     OW11593   1.977   0.729   5.161
 3565SOL    HW111594   2.044   0.800   5.140
 3565SOL    HW211595   1.924   0.707   5.079
 3566SOL     OW11596   0.661   3.339   5.622
 3566SOL    HW111597   0.695   3.325   5.715
 3566SOL    HW211598   0.697   3.267   5.563
 3567SOL     OW11599   0.090   3.331   1.065
 3567SOL    HW111600   0.093   3.376   1.155
 3567SOL    HW211601   7.014   3.326   1.034
 3568SOL     OW11602   4.604   4.352   3.626
 3568SOL    HW111603   4.596   4.353   3.726
 3568SOL    HW211604   4.651   4.269   3.597
 3569SOL     OW11605   3.736   3.709   4.077
 3569SOL    HW111606   3.732   3.611   4.061
 3569SOL    HW211607   3.717   3.729   4.173
 3570SOL     OW11608   0.173   2.367   5.970
 3570SOL    HW111609   0.081   2.336   5.946
 3570SOL    HW211610   0.219   2.297   6.025
 3571SOL     OW11611   2.371   6.907   4.981
 3571SOL    HW111612   2.358   6.906   4.882
 3571SOL    HW211613   2.283   6.890   5.026
 3572SOL     OW11614   4.972   4.676   2.096
 3572SOL    HW111615   5.065   4.673   2.061
 3572SOL    HW211616   4.928   4.587   2.085
 3573SOL     OW11617   6.779   3.842   3.219
 3573SOL    HW111618   6.875   3.864   3.205
 3573SOL    HW211619   6.742   3.898   3.293
 3574SOL     OW11620   2.187   2.815   5.968
 3574SOL    HW111621   2.172   2.864   5.882
 3574SOL    HW211622   2.151   2.869   6.044
 3575SOL     OW11623   5.800   6.912   0.455
 3575SOL    HW111624   5.871   6.888   0.390
 3575SOL    HW211625   5.732   6.971   0.411
 3576SOL     OW11626   1.662   2.638   0.787
 3576SOL    HW111627   1.652   2.737   0.779
 3576SOL    HW211628   1.591   2.593   0.734
 3577SOL     OW11629   2.550   2.982   5.728
 3577SOL    HW111630   2.650   2.973   5.730
 3577SOL    HW211631   2.517   2.958   5.636
 3578SOL     OW11632   2.676   3.318   6.140
 3578SOL    HW111633   2.595   3.289   6.088
 3578SOL    HW211634   2.701   3.411   6.114
 3579SOL     OW11635   0.597   2.743   1.680
 3579SOL    HW111636   0.521   2.713   1.622
 3579SOL    HW211637   0.619   2.838   1.658
 3580SOL     OW11638   0.456   4.545   1.942
 3580SOL    HW111639   0.379   4.562   1.880
 3580SOL    HW211640   0.422   4.529   2.034
 3581SOL     OW11641   1.143   6.732   2.760
 3581SOL    HW111642   1.123   6.733   2.662
 3581SOL    HW211643   1.201   6.810   2.782
 3582SOL     OW11644   3.654   4.659   5.836
 3582SOL    HW111645   3.580   4.600   5.868
 3582SOL    HW211646   3.740   4.630   5.877
 3583SOL     OW11647   0.503   5.203   0.437
 3583SOL    HW111648   0.578   5.264   0.412
 3583SOL    HW211649   0.432   5.256   0.484
 3584SOL     OW11650   6.225   4.700   4.687
 3584SOL    HW111651   6.128   4.704   4.661
 3584SOL    HW211652   6.232   4.685   4.786
 3585SOL     OW11653   2.860   1.732   3.019
 3585SOL    HW111654   2.823   1.675   3.091
 3585SOL    HW211655   2.892   1.675   2.943
 3586SOL     OW11656   6.687   1.899   4.681
 3586SOL    HW111657   6.740   1.944   4.752
 3586SOL    HW211658   6.592   1.930   4.686
 3587SOL     OW11659   2.997   6.587   6.231
 3587SOL    HW111660   3.048   6.612   6.149
 3587SOL    HW211661   3.056   6.597   6.311
 3588SOL     OW11662   6.316   4.517   4.492
 3588SOL    HW111663   6.257   4.570   4.553
 3588SOL    HW211664   6.412   4.542   4.507
 3589SOL     OW11665   0.203   6.580   6.306
 3589SOL    HW111666   0.276   6.566   6.373
 3589SOL    HW211667   0.183   6.678   6.299
 3590SOL     OW11668   6.379   4.910   0.625
 3590SOL    HW111669   6.362   5.005   0.649
 3590SOL    HW211670   6.416   4.862   0.704
 3591SOL     OW11671   5.787   1.812   6.418
 3591SOL    HW111672   5.742   1.879   6.478
 3591SOL    HW211673   5.737   1.725   6.422
 3592SOL     OW11674   2.048   6.108   1.614
 3592SOL    HW111675   2.132   6.115   1.666
 3592SOL    HW211676   2.010   6.199   1.597
 3593SOL     OW11677   4.790   3.136   5.880
 3593SOL    HW111678   4.826   3.043   5.871
 3593SOL    HW211679   4.690   3.133   5.872
 3594SOL     OW11680   4.527   4.781   5.288
 3594SOL    HW111681   4.481   4.857   5.333
 3594SOL    HW211682   4.620   4.807   5.262
 3595SOL     OW11683   5.412   6.128   5.371
 3595SOL    HW111684   5.352   6.145   5.293
 3595SOL    HW211685   5.506   6.151   5.346
 3596SOL     OW11686   4.105   2.237   3.695
 3596SOL    HW111687   4.185   2.206   3.747
 3596SOL    HW211688   4.040   2.281   3.757
 3597SOL     OW11689   2.261   3.009   5.280
 3597SOL    HW111690   2.275   3.106   5.299
 3597SOL    HW211691   2.308   2.984   5.195
 3598SOL     OW11692   1.074   5.676   5.081
 3598SOL    HW111693   1.044   5.657   5.174
 3598SOL    HW211694   1.129   5.600   5.047
 3599SOL     OW11695   4.076   1.422   4.601
 3599SOL    HW111696   4.135   1.494   4.639
 3599SOL    HW211697   4.047   1.361   4.674
 3600SOL     OW11698   3.092   3.049   0.061
 3600SOL    HW111699   3.001   3.049   0.101
 3600SOL    HW211700   3.160   3.034   0.133
 3601SOL     OW11701   4.771   1.003   5.485
 3601SOL    HW111702   4.793   1.097   5.512
 3601SOL    HW211703   4.773   0.944   5.566
 3602SOL     OW11704   1.885   1.583   1.435
 3602SOL    HW111705   1.874   1.682   1.429
 3602SOL    HW211706   1.798   1.538   1.416
 3603SOL     OW11707   3.033   0.816   5.570
 3603SOL    HW111708   3.038   0.716   5.564
 3603SOL    HW211709   3.107   0.856   5.518
 3604SOL     OW11710   6.897   0.252   3.568
 3604SOL    HW111711   6.813   0.300   3.541
 3604SOL    HW211712   6.919   0.274   3.663
 3605SOL     OW11713   1.385   5.922   3.442
 3605SOL    HW111714   1.383   5.823   3.449
 3605SOL    HW211715   1.470   5.952   3.399
 3606SOL     OW11716   2.653   6.674   2.326
 3606SOL    HW111717   2.595   6.735   2.381
 3606SOL    HW211718   2.694   6.605   2.385
 3607SOL     OW11719   5.588   2.069   2.352
 3607SOL    HW111720   5.604   1.971   2.360
 3607SOL    HW211721   5.565   2.107   2.441
 3608SOL     OW11722   2.845   1.796   5.973
 3608SOL    HW111723   2.782   1.863   6.012
 3608SOL    HW211724   2.792   1.718   5.939
 3609SOL     OW11725   2.478   0.540   4.627
 3609SOL    HW111726   2.477   0.553   4.527
 3609SOL    HW211727   2.538   0.608   4.669
 3610SOL     OW11728   1.892   0.055   5.105
 3610SOL    HW111729   1.948   0.096   5.033
 3610SOL    HW211730   1.887   0.116   5.183
 3611SOL     OW11731   5.481   5.347   2.820
 3611SOL    HW111732   5.575   5.375   2.839
 3611SOL    HW211733   5.418   5.411   2.865
 3612SOL     OW11734   6.170   1.274   0.098
 3612SOL    HW111735   6.253   1.329   0.098
 3612SOL    HW211736   6.114   1.300   0.019
 3613SOL     OW11737   4.637   5.514   1.702
 3613SOL    HW111738   4.718   5.456   1.703
 3613SOL    HW211739   4.625   5.553   1.611
 3614SOL     OW11740   3.831   4.760   6.536
 3614SOL    HW111741   3.914   4.751   6.481
 3614SOL    HW211742   3.842   4.833   6.603
 3615SOL     OW11743   5.520   2.686   5.946
 3615SOL    HW111744   5.498   2.766   5.891
 3615SOL    HW211745   5.501   2.603   5.894
 3616SOL     OW11746   1.218   1.324   6.940
 3616SOL    HW111747   1.191   1.381   7.017
 3616SOL    HW211748   1.140   1.309   6.880
 3617SOL     OW11749   3.952   6.330   5.682
 3617SOL    HW111750   3.974   6.274   5.762
 3617SOL    HW211751   3.912   6.417   5.712
 3618SOL     OW11752   1.740   4.710   4.723
 3618SOL    HW111753   1.833   4.745   4.725
 3618SOL    HW211754   1.676   4.785   4.740
 3619SOL     OW11755   5.622   3.864   1.233
 3619SOL    HW111756   5.635   3.771   1.198
 3619SOL    HW211757   5.700   3.889   1.290
 3620SOL     OW11758   5.996   5.786   5.198
 3620SOL    HW111759   6.047   5.856   5.150
 3620SOL    HW211760   6.054   5.707   5.215
 3621SOL     OW11761   2.951   3.396   3.784
 3621SOL    HW111762   2.879   3.383   3.716
 3621SOL    HW211763   3.015   3.319   3.782
 3622SOL     OW11764   1.330   5.806   6.630
 3622SOL    HW111765   1.392   5.844   6.561
 3622SOL    HW211766   1.376   5.805   6.719
 3623SOL     OW11767   0.859   5.092   5.992
 3623SOL    HW111768   0.892   5.015   6.047
 3623SOL    HW211769   0.761   5.105   6.007
 3624SOL     OW11770   2.766   2.143   1.635
 3624SOL    HW111771   2.769   2.092   1.549
 3624SOL    HW211772   2.843   2.116   1.692
 3625SOL     OW11773   6.631   1.967   0.375
 3625SOL    HW111774   6.661   2.015   0.293
 3625SOL    HW211775   6.591   2.032   0.439
 3626SOL     OW11776   1.161   2.801   5.033
 3626SOL    HW111777   1.106   2.783   4.951
 3626SOL    HW211778   1.173   2.899   5.044
 3627SOL     OW11779   3.457   1.999   1.976
 3627SOL    HW111780   3.526   2.058   2.018
 3627SOL    HW211781   3.395   1.965   2.047
 3628SOL     OW11782   5.985   1.958   1.127
 3628SOL    HW111783   6.059   1.891   1.119
 3628SOL    HW211784   6.017   2.037   1.178
 3629SOL     OW11785   0.974   1.051   3.735
 3629SOL    HW111786   1.024   0.983   3.789
 3629SOL    HW211787   0.876   1.029   3.736
 3630SOL     OW11788   6.952   2.067   2.233
 3630SOL    HW111789   6.934   2.087   2.137
 3630SOL    HW211790   6.898   2.129   2.290
 3631SOL     OW11791   1.688   6.902   2.254
 3631SOL    HW111792   1.603   6.951   2.234
 3631SOL    HW211793   1.763   6.968   2.264
 3632SOL     OW11794   4.247   3.831   1.462
 3632SOL    HW111795   4.150   3.811   1.445
 3632SOL    HW211796   4.303   3.777   1.399
 3633SOL     OW11797   4.217   3.848   6.664
 3633SOL    HW111798   4.133   3.858   6.610
 3633SOL    HW211799   4.291   3.817   6.605
 3634SOL     OW11800   3.467   5.846   6.584
 3634SOL    HW111801   3.524   5.766   6.567
 3634SOL    HW211802   3.511   5.927   6.546
 3635SOL     OW11803   1.900   6.651   1.798
 3635SOL    HW111804   1.916   6.723   1.866
 3635SOL    HW211805   1.896   6.691   1.707
 3636SOL     OW11806   0.741   4.720   6.937
 3636SOL    HW111807   0.658   4.776   6.938
 3636SOL    HW211808   0.793   4.739   6.854
 3637SOL     OW11809   6.016   3.472   6.903
 3637SOL    HW111810   5.996   3.496   6.998
 3637SOL    HW211811   5.951   3.403   6.871
 3638SOL     OW11812   6.432   4.181   3.178
 3638SOL    HW111813   6.460   4.262   3.125
 3638SOL    HW211814   6.333   4.173   3.175
 3639SOL     OW11815   3.751   3.443   4.050
 3639SOL    HW111816   3.771   3.411   3.958
 3639SOL    HW211817   3.765   3.369   4.115
 3640SOL     OW11818   4.758   2.276   1.018
 3640SOL    HW111819   4.691   2.206   1.044
 3640SOL    HW211820   4.796   2.318   1.100
 3641SOL     OW11821   5.899   3.609   2.625
 3641SOL    HW111822   5.980   3.645   2.578
 3641SOL    HW211823   5.927   3.572   2.714
 3642SOL     OW11824   5.568   3.487   6.344
 3642SOL    HW111825   5.505   3.558   6.375
 3642SOL    HW211826   5.634   3.526   6.281
 3643SOL     OW11827   4.006   5.854   5.616
 3643SOL    HW111828   3.933   5.876   5.550
 3643SOL    HW211829   3.965   5.839   5.706
 3644SOL     OW11830   2.559   0.277   1.389
 3644SOL    HW111831   2.489   0.319   1.332
 3644SOL    HW211832   2.555   0.178   1.380
 3645SOL     OW11833   1.082   4.578   3.247
 3645SOL    HW111834   1.060   4.482   3.262
 3645SOL    HW211835   1.094   4.623   3.335
 3646SOL     OW11836   1.769   4.464   5.134
 3646SOL    HW111837   1.824   4.546   5.120
 3646SOL    HW211838   1.772   4.406   5.052
 3647SOL     OW11839   3.248   0.072   6.072
 3647SOL    HW111840   3.334   0.113   6.104
 3647SOL    HW211841   3.264   0.028   5.984
 3648SOL     OW11842   4.502   5.413   3.312
 3648SOL    HW111843   4.474   5.509   3.317
 3648SOL    HW211844   4.578   5.403   3.248
 3649SOL     OW11845   6.213   2.395   0.353
 3649SOL    HW111846   6.238   2.491   0.337
 3649SOL    HW211847   6.169   2.388   0.443
 3650SOL     OW11848   5.637   5.980   6.836
 3650SOL    HW111849   5.667   6.068   6.873
 3650SOL    HW211850   5.669   5.970   6.742
 3651SOL     OW11851   0.785   2.077   5.605
 3651SOL    HW111852   0.817   2.135   5.529
 3651SOL    HW211853   0.695   2.107   5.635
 3652SOL     OW11854   4.176   1.903   1.659
 3652SOL    HW111855   4.197   1.920   1.756
 3652SOL    HW211856   4.120   1.978   1.624
 3653SOL     OW11857   1.331   1.245   1.070
 3653SOL    HW111858   1.367   1.243   1.164
 3653SOL    HW211859   1.402   1.215   1.007
 3654SOL     OW11860   5.118   6.471   1.206
 3654SOL    HW111861   5.166   6.405   1.265
 3654SOL    HW211862   5.181   6.544   1.180
 3655SOL     OW11863   1.697   1.489   3.865
 3655SOL    HW111864   1.627   1.455   3.802
 3655SOL    HW211865   1.737   1.572   3.827
 3656SOL     OW11866   6.941   0.249   1.614
 3656SOL    HW111867   0.009   0.283   1.576
 3656SOL    HW211868   6.899   0.184   1.551
 3657SOL     OW11869   5.705   5.195   5.703
 3657SOL    HW111870   5.799   5.180   5.675
 3657SOL    HW211871   5.700   5.201   5.803
 3658SOL     OW11872   2.335   5.064   5.527
 3658SOL    HW111873   2.344   5.017   5.439
 3658SOL    HW211874   2.245   5.042   5.566
 3659SOL     OW11875   0.469   2.466   6.323
 3659SOL    HW111876   0.439   2.382   6.277
 3659SOL    HW211877   0.391   2.505   6.373
 3660SOL     OW11878   5.735   5.660   6.632
 3660SOL    HW111879   5.716   5.755   6.611
 3660SOL    HW211880   5.651   5.607   6.628
 3661SOL     OW11881   0.110   1.777   4.831
 3661SOL    HW111882   0.184   1.711   4.846
 3661SOL    HW211883   0.101   1.835   4.912
 3662SOL     OW11884   2.695   2.063   5.237
 3662SOL    HW111885   2.687   1.991   5.168
 3662SOL    HW211886   2.723   2.149   5.194
 3663SOL     OW11887   2.525   2.006   6.536
 3663SOL    HW111888   2.460   2.048   6.599
 3663SOL    HW211889   2.580   2.078   6.493
 3664SOL     OW11890   3.987   1.367   1.727
 3664SOL    HW111891   3.962   1.452   1.774
 3664SOL    HW211892   4.039   1.308   1.788
 3665SOL     OW11893   0.932   5.902   5.884
 3665SOL    HW111894   0.847   5.895   5.832
 3665SOL    HW211895   0.988   5.821   5.867
 3666SOL     OW11896   2.279   2.449   4.522
 3666SOL    HW111897   2.340   2.420   4.597
 3666SOL    HW211898   2.316   2.530   4.478
 3667SOL     OW11899   2.016   0.212   1.210
 3667SOL    HW111900   2.102   0.185   1.252
 3667SOL    HW211901   1.947   0.142   1.227
 3668SOL     OW11902   6.839   0.603   1.082
 3668SOL    HW111903   6.808   0.669   1.150
 3668SOL    HW211904   6.899   0.649   1.016
 3669SOL     OW11905   0.603   1.499   3.589
 3669SOL    HW111906   0.689   1.449   3.604
 3669SOL    HW211907   0.528   1.449   3.631
 3670SOL     OW11908   2.789   6.848   2.168
 3670SOL    HW111909   2.726   6.840   2.090
 3670SOL    HW211910   2.755   6.793   2.244
 3671SOL     OW11911   6.181   0.570   3.802
 3671SOL    HW111912   6.250   0.543   3.735
 3671SOL    HW211913   6.213   0.545   3.894
 3672SOL     OW11914   3.248   0.099   3.531
 3672SOL    HW111915   3.287   0.181   3.489
 3672SOL    HW211916   3.316   0.056   3.589
 3673SOL     OW11917   3.429   6.447   0.990
 3673SOL    HW111918   3.440   6.351   1.017
 3673SOL    HW211919   3.509   6.499   1.022
 3674SOL     OW11920   1.471   4.453   6.578
 3674SOL    HW111921   1.455   4.544   6.616
 3674SOL    HW211922   1.508   4.393   6.650
 3675SOL     OW11923   1.292   0.233   3.768
 3675SOL    HW111924   1.343   0.293   3.829
 3675SOL    HW211925   1.196   0.232   3.795
 3676SOL     OW11926   3.658   1.689   4.477
 3676SOL    HW111927   3.587   1.712   4.410
 3676SOL    HW211928   3.619   1.637   4.552
 3677SOL     OW11929   1.833   0.539   4.597
 3677SOL    HW111930   1.765   0.588   4.543
 3677SOL    HW211931   1.786   0.472   4.655
 3678SOL     OW11932   1.140   0.584   4.229
 3678SOL    HW111933   1.173   0.675   4.252
 3678SOL    HW211934   1.180   0.517   4.291
 3679SOL     OW11935   4.207   0.480   2.613
 3679SOL    HW111936   4.239   0.454   2.704
 3679SOL    HW211937   4.246   0.569   2.589
 3680SOL     OW11938   3.474   1.331   4.425
 3680SOL    HW111939   3.419   1.405   4.387
 3680SOL    HW211940   3.492   1.349   4.521
 3681SOL     OW11941   1.240   6.272   4.104
 3681SOL    HW111942   1.334   6.269   4.072
 3681SOL    HW211943   1.235   6.234   4.196
 3682SOL     OW11944   5.415   2.462   1.098
 3682SOL    HW111945   5.468   2.377   1.100
 3682SOL    HW211946   5.369   2.470   1.009
 3683SOL     OW11947   6.353   1.494   6.608
 3683SOL    HW111948   6.385   1.426   6.543
 3683SOL    HW211949   6.262   1.468   6.641
 3684SOL     OW11950   2.077   6.382   5.220
 3684SOL    HW111951   2.152   6.434   5.261
 3684SOL    HW211952   2.096   6.366   5.124
 3685SOL     OW11953   2.186   6.145   4.756
 3685SOL    HW111954   2.117   6.092   4.707
 3685SOL    HW211955   2.260   6.170   4.694
 3686SOL     OW11956   0.540   3.856   1.918
 3686SOL    HW111957   0.483   3.927   1.877
 3686SOL    HW211958   0.619   3.838   1.859
 3687SOL     OW11959   5.615   4.700   4.489
 3687SOL    HW111960   5.642   4.795   4.502
 3687SOL    HW211961   5.516   4.695   4.474
 3688SOL     OW11962   6.495   2.626   0.516
 3688SOL    HW111963   6.549   2.543   0.502
 3688SOL    HW211964   6.420   2.629   0.450
 3689SOL     OW11965   1.334   6.791   5.758
 3689SOL    HW111966   1.262   6.723   5.749
 3689SOL    HW211967   1.422   6.750   5.733
 3690SOL     OW11968   5.258   5.553   2.033
 3690SOL    HW111969   5.332   5.504   2.079
 3690SOL    HW211970   5.232   5.504   1.950
 3691SOL     OW11971   1.621   2.907   0.713
 3691SOL    HW111972   1.545   2.954   0.759
 3691SOL    HW211973   1.646   2.959   0.631
 3692SOL     OW11974   0.629   2.947   5.864
 3692SOL    HW111975   0.721   2.916   5.886
 3692SOL    HW211976   0.563   2.879   5.894
 3693SOL     OW11977   6.637   1.708   2.182
 3693SOL    HW111978   6.621   1.805   2.199
 3693SOL    HW211979   6.627   1.657   2.268
 3694SOL     OW11980   6.740   6.942   2.623
 3694SOL    HW111981   6.777   6.853   2.651
 3694SOL    HW211982   6.801   7.014   2.655
 3695SOL     OW11983   5.364   3.450   3.120
 3695SOL    HW111984   5.294   3.409   3.062
 3695SOL    HW211985   5.439   3.385   3.132
 3696SOL     OW11986   3.863   0.546   4.352
 3696SOL    HW111987   3.772   0.534   4.393
 3696SOL    HW211988   3.855   0.602   4.270
 3697SOL     OW11989   6.868   6.221   3.067
 3697SOL    HW111990   6.783   6.252   3.023
 3697SOL    HW211991   6.894   6.286   3.138
 3698SOL     OW11992   1.275   0.021   2.382
 3698SOL    HW111993   1.290   0.009   2.480
 3698SOL    HW211994   1.180   7.014   2.360
 3699SOL     OW11995   2.696   2.392   3.531
 3699SOL    HW111996   2.636   2.457   3.483
 3699SOL    HW211997   2.681   2.401   3.630
 3700SOL     OW11998   0.885   5.696   4.822
 3700SOL    HW111999   0.968   5.653   4.857
 3700SOL    HW212000   0.831   5.629   4.772
 3701SOL     OW12001   1.167   0.259   2.064
 3701SOL    HW112002   1.251   0.212   2.037
 3701SOL    HW212003   1.088   0.210   2.028
 3702SOL     OW12004   5.994   4.378   3.321
 3702SOL    HW112005   5.953   4.384   3.230
 3702SOL    HW212006   5.959   4.297   3.368
 3703SOL     OW12007   1.169   1.705   4.036
 3703SOL    HW112008   1.188   1.780   3.972
 3703SOL    HW212009   1.213   1.621   4.003
 3704SOL     OW12010   6.813   1.257   0.453
 3704SOL    HW112011   6.750   1.334   0.440
 3704SOL    HW212012   6.796   1.188   0.383
 3705SOL     OW12013   5.090   4.321   3.895
 3705SOL    HW112014   5.146   4.400   3.920
 3705SOL    HW212015   5.056   4.277   3.978
 3706SOL     OW12016   1.208   3.955   7.008
 3706SOL    HW112017   1.166   3.908   6.930
 3706SOL    HW212018   1.136   3.982   0.054
 3707SOL     OW12019   1.076   5.305   3.502
 3707SOL    HW112020   1.099   5.349   3.589
 3707SOL    HW212021   1.025   5.369   3.445
 3708SOL     OW12022   2.217   5.974   1.058
 3708SOL    HW112023   2.140   6.013   1.108
 3708SOL    HW212024   2.300   6.026   1.078
 3709SOL     OW12025   1.031   1.517   1.954
 3709SOL    HW112026   1.026   1.596   1.892
 3709SOL    HW212027   1.114   1.465   1.934
 3710SOL     OW12028   0.448   4.276   5.423
 3710SOL    HW112029   0.362   4.241   5.387
 3710SOL    HW212030   0.514   4.201   5.430
 3711SOL     OW12031   0.990   6.084   4.323
 3711SOL    HW112032   1.002   6.055   4.418
 3711SOL    HW212033   0.932   6.165   4.320
 3712SOL     OW12034   1.664   5.313   4.313
 3712SOL    HW112035   1.596   5.379   4.342
 3712SOL    HW212036   1.652   5.228   4.364
 3713SOL     OW12037   6.255   0.576   4.225
 3713SOL    HW112038   6.348   0.542   4.235
 3713SOL    HW212039   6.257   0.667   4.183
 3714SOL     OW12040   0.880   4.146   0.399
 3714SOL    HW112041   0.796   4.193   0.427
 3714SOL    HW212042   0.916   4.094   0.476
 3715SOL     OW12043   5.619   5.214   3.450
 3715SOL    HW112044   5.662   5.190   3.363
 3715SOL    HW212045   5.675   5.283   3.497
 3716SOL     OW12046   5.059   5.472   4.544
 3716SOL    HW112047   4.992   5.474   4.618
 3716SOL    HW212048   5.122   5.396   4.558
 3717SOL     OW12049   4.710   1.192   0.839
 3717SOL    HW112050   4.805   1.216   0.821
 3717SOL    HW212051   4.650   1.262   0.802
 3718SOL     OW12052   6.269   6.620   6.181
 3718SOL    HW112053   6.244   6.648   6.089
 3718SOL    HW212054   6.245   6.692   6.246
 3719SOL     OW12055   3.471   3.724   0.005
 3719SOL    HW112056   3.443   3.741   0.099
 3719SOL    HW212057   3.396   3.682   6.973
 3720SOL     OW12058   6.863   3.420   0.965
 3720SOL    HW112059   6.843   3.397   1.061
 3720SOL    HW212060   6.858   3.519   0.953
 3721SOL     OW12061   6.893   6.676   5.565
 3721SOL    HW112062   6.904   6.591   5.616
 3721SOL    HW212063   6.799   6.683   5.531
 3722SOL     OW12064   5.609   6.716   2.586
 3722SOL    HW112065   5.520   6.687   2.550
 3722SOL    HW212066   5.651   6.640   2.636
 3723SOL     OW12067   4.589   3.660   0.347
 3723SOL    HW112068   4.660   3.597   0.315
 3723SOL    HW212069   4.579   3.651   0.446
 3724SOL     OW12070   0.771   5.188   4.604
 3724SOL    HW112071   0.766   5.230   4.513
 3724SOL    HW212072   0.718   5.103   4.604
 3725SOL     OW12073   1.560   6.440   6.964
 3725SOL    HW112074   1.478   6.447   0.003
 3725SOL    HW212075   1.582   6.344   6.949
 3726SOL     OW12076   6.065   3.909   4.925
 3726SOL    HW112077   6.156   3.922   4.884
 3726SOL    HW212078   6.052   3.813   4.948
 3727SOL     OW12079   7.009   2.953   3.724
 3727SOL    HW112080   6.947   3.024   3.691
 3727SOL    HW212081   6.959   2.866   3.730
 3728SOL     OW12082   2.634   2.985   0.760
 3728SOL    HW112083   2.623   3.070   0.812
 3728SOL    HW212084   2.716   2.991   0.704
 3729SOL     OW12085   0.533   0.377   5.857
 3729SOL    HW112086   0.606   0.338   5.802
 3729SOL    HW212087   0.524   0.475   5.836
 3730SOL     OW12088   4.960   5.844   4.763
 3730SOL    HW112089   4.893   5.827   4.835
 3730SOL    HW212090   4.917   5.831   4.674
 3731SOL     OW12091   0.080   2.256   6.957
 3731SOL    HW112092   0.029   2.293   6.879
 3731SOL    HW212093   0.048   2.164   6.978
 3732SOL     OW12094   3.445   2.554   6.934
 3732SOL    HW112095   3.510   2.507   6.874
 3732SOL    HW212096   3.368   2.589   6.879
 3733SOL     OW12097   1.203   0.316   3.498
 3733SOL    HW112098   1.239   0.260   3.574
 3733SOL    HW212099   1.173   0.404   3.533
 3734SOL     OW12100   4.056   0.047   0.897
 3734SOL    HW112101   4.135   0.071   0.954
 3734SOL    HW212102   3.972   0.061   0.949
 3735SOL     OW12103   4.538   6.945   2.825
 3735SOL    HW112104   4.575   6.855   2.849
 3735SOL    HW212105   4.565   6.967   2.731
 3736SOL     OW12106   6.479   1.129   0.014
 3736SOL    HW112107   6.401   1.095   6.978
 3736SOL    HW212108   6.543   1.177   6.972
 3737SOL     OW12109   6.451   2.388   2.560
 3737SOL    HW112110   6.540   2.343   2.568
 3737SOL    HW212111   6.379   2.325   2.588
 3738SOL     OW12112   6.688   6.734   1.213
 3738SOL    HW112113   6.783   6.722   1.243
 3738SOL    HW212114   6.634   6.771   1.289
 3739SOL     OW12115   3.282   3.447   0.218
 3739SOL    HW112116   3.358   3.388   0.191
 3739SOL    HW212117   3.213   3.447   0.145
 3740SOL     OW12118   4.610   5.449   6.454
 3740SOL    HW112119   4.605   5.495   6.543
 3740SOL    HW212120   4.588   5.352   6.465
 3741SOL     OW12121   5.356   3.261   0.339
 3741SOL    HW112122   5.365   3.281   0.436
 3741SOL    HW212123   5.358   3.346   0.287
 3742SOL     OW12124   3.740   5.621   1.040
 3742SOL    HW112125   3.686   5.542   1.011
 3742SOL    HW212126   3.715   5.701   0.985
 3743SOL     OW12127   3.496   3.438   1.412
 3743SOL    HW112128   3.569   3.484   1.362
 3743SOL    HW212129   3.443   3.505   1.464
 3744SOL     OW12130   0.113   6.583   2.076
 3744SOL    HW112131   0.096   6.601   1.979
 3744SOL    HW212132   0.035   6.614   2.130
 3745SOL     OW12133   5.008   3.053   2.359
 3745SOL    HW112134   5.004   3.109   2.276
 3745SOL    HW212135   4.957   3.098   2.432
 3746SOL     OW12136   6.348   0.343   3.889
 3746SOL    HW112137   6.443   0.334   3.916
 3746SOL    HW212138   6.328   0.282   3.812
 3747SOL     OW12139   3.339   6.408   5.610
 3747SOL    HW112140   3.282   6.381   5.687
 3747SOL    HW212141   3.368   6.503   5.621
 3748SOL     OW12142   4.859   1.759   2.905
 3748SOL    HW112143   4.797   1.725   2.835
 3748SOL    HW212144   4.835   1.718   2.993
 3749SOL     OW12145   0.310   6.397   2.518
 3749SOL    HW112146   0.347   6.488   2.500
 3749SOL    HW212147   0.315   6.378   2.616
 3750SOL     OW12148   5.389   4.452   0.914
 3750SOL    HW112149   5.414   4.403   0.998
 3750SOL    HW212150   5.326   4.397   0.861
 3751SOL     OW12151   1.668   3.610   2.448
 3751SOL    HW112152   1.735   3.658   2.505
 3751SOL    HW212153   1.655   3.660   2.363
 3752SOL     OW12154   0.735   6.174   5.864
 3752SOL    HW112155   0.683   6.179   5.778
 3752SOL    HW212156   0.695   6.103   5.922
 3753SOL     OW12157   6.653   0.185   4.626
 3753SOL    HW112158   6.657   0.241   4.708
 3753SOL    HW212159   6.616   0.095   4.650
 3754SOL     OW12160   6.772   6.667   1.691
 3754SOL    HW112161   6.770   6.763   1.720
 3754SOL    HW212162   6.790   6.608   1.769
 3755SOL     OW12163   4.998   2.647   2.737
 3755SOL    HW112164   4.982   2.586   2.814
 3755SOL    HW212165   5.035   2.734   2.771
 3756SOL     OW12166   3.101   0.229   6.582
 3756SOL    HW112167   3.084   0.217   6.485
 3756SOL    HW212168   3.200   0.232   6.599
 3757SOL     OW12169   3.211   4.821   7.001
 3757SOL    HW112170   3.301   4.807   0.024
 3757SOL    HW212171   3.211   4.783   6.909
 3758SOL     OW12172   0.761   0.669   3.855
 3758SOL    HW112173   0.815   0.680   3.938
 3758SOL    HW212174   0.664   0.666   3.878
 3759SOL     OW12175   4.871   4.791   0.011
 3759SOL    HW112176   4.911   4.875   0.048
 3759SOL    HW212177   4.773   4.805   7.013
 3760SOL     OW12178   1.949   2.339   5.320
 3760SOL    HW112179   1.942   2.306   5.414
 3760SOL    HW212180   1.981   2.434   5.320
 3761SOL     OW12181   6.987   6.459   3.717
 3761SOL    HW112182   7.013   6.480   3.812
 3761SOL    HW212183   0.027   6.386   3.682
 3762SOL     OW12184   0.520   3.919   6.512
 3762SOL    HW112185   0.546   3.823   6.507
 3762SOL    HW212186   0.425   3.927   6.542
 3763SOL     OW12187   6.398   3.591   6.136
 3763SOL    HW112188   6.410   3.690   6.142
 3763SOL    HW212189   6.313   3.570   6.088
 3764SOL     OW12190   2.096   6.515   3.621
 3764SOL    HW112191   2.152   6.595   3.644
 3764SOL    HW212192   2.052   6.530   3.533
 3765SOL     OW12193   5.744   1.177   4.319
 3765SOL    HW112194   5.807   1.200   4.245
 3765SOL    HW212195   5.795   1.136   4.395
 3766SOL     OW12196   1.680   0.468   5.353
 3766SOL    HW112197   1.716   0.440   5.264
 3766SOL    HW212198   1.684   0.390   5.416
 3767SOL     OW12199   1.657   4.436   1.187
 3767SOL    HW112200   1.672   4.529   1.219
 3767SOL    HW212201   1.667   4.372   1.263
 3768SOL     OW12202   4.841   6.623   0.833
 3768SOL    HW112203   4.867   6.586   0.923
 3768SOL    HW212204   4.892   6.575   0.762
 3769SOL     OW12205   4.408   6.237   5.202
 3769SOL    HW112206   4.352   6.156   5.220
 3769SOL    HW212207   4.412   6.295   5.284
 3770SOL     OW12208   2.032   1.615   7.002
 3770SOL    HW112209   2.010   1.578   0.075
 3770SOL    HW212210   1.964   1.684   6.977
 3771SOL     OW12211   5.151   1.287   5.938
 3771SOL    HW112212   5.084   1.221   5.903
 3771SOL    HW212213   5.137   1.375   5.893
 3772SOL     OW12214   5.457   0.982   2.735
 3772SOL    HW112215   5.517   0.940   2.803
 3772SOL    HW212216   5.398   1.049   2.780
 3773SOL     OW12217   6.586   2.663   6.796
 3773SOL    HW112218   6.557   2.718   6.875
 3773SOL    HW212219   6.677   2.625   6.814
 3774SOL     OW12220   0.586   1.158   1.697
 3774SOL    HW112221   0.622   1.231   1.638
 3774SOL    HW212222   0.541   1.199   1.776
 3775SOL     OW12223   5.682   3.281   3.898
 3775SOL    HW112224   5.652   3.372   3.871
 3775SOL    HW212225   5.617   3.242   3.963
 3776SOL     OW12226   2.769   3.204   0.091
 3776SOL    HW112227   2.753   3.128   0.027
 3776SOL    HW212228   2.842   3.180   0.154
 3777SOL     OW12229   1.616   4.432   3.615
 3777SOL    HW112230   1.588   4.348   3.568
 3777SOL    HW212231   1.667   4.491   3.552
 3778SOL     OW12232   2.312   6.816   2.113
 3778SOL    HW112233   2.276   6.729   2.148
 3778SOL    HW212234   2.352   6.868   2.188
 3779SOL     OW12235   3.220   5.078   6.465
 3779SOL    HW112236   3.121   5.093   6.454
 3779SOL    HW212237   3.270   5.137   6.401
 3780SOL     OW12238   2.915   0.032   4.757
 3780SOL    HW112239   2.912   0.076   4.668
 3780SOL    HW212240   2.930   0.101   4.828
 3781SOL     OW12241   3.231   5.281   5.022
 3781SOL    HW112242   3.179   5.235   4.950
 3781SOL    HW212243   3.195   5.374   5.035
 3782SOL     OW12244   1.875   1.928   3.154
 3782SOL    HW112245   1.890   1.938   3.055
 3782SOL    HW212246   1.925   1.848   3.187
 3783SOL     OW12247   4.610   5.414   5.762
 3783SOL    HW112248   4.694   5.433   5.711
 3783SOL    HW212249   4.535   5.470   5.726
 3784SOL     OW12250   4.879   1.008   3.460
 3784SOL    HW112251   4.878   0.995   3.559
 3784SOL    HW212252   4.972   0.992   3.426
 3785SOL     OW12253   1.599   1.760   1.496
 3785SOL    HW112254   1.603   1.733   1.592
 3785SOL    HW212255   1.561   1.685   1.442
 3786SOL     OW12256   3.009   5.390   2.726
 3786SOL    HW112257   2.968   5.474   2.761
 3786SOL    HW212258   2.965   5.311   2.770
 3787SOL     OW12259   3.887   1.588   3.993
 3787SOL    HW112260   3.901   1.666   3.931
 3787SOL    HW212261   3.819   1.613   4.062
 3788SOL     OW12262   5.916   3.184   2.329
 3788SOL    HW112263   5.857   3.134   2.394
 3788SOL    HW212264   5.917   3.281   2.353
 3789SOL     OW12265   1.472   4.955   2.681
 3789SOL    HW112266   1.420   4.906   2.610
 3789SOL    HW212267   1.421   5.036   2.709
 3790SOL     OW12268   2.086   3.359   4.076
 3790SOL    HW112269   2.001   3.373   4.025
 3790SOL    HW212270   2.164   3.364   4.015
 3791SOL     OW12271   5.126   0.223   2.112
 3791SOL    HW112272   5.096   0.272   2.030
 3791SOL    HW212273   5.189   0.281   2.164
 3792SOL     OW12274   0.053   6.924   5.639
 3792SOL    HW112275   0.136   6.869   5.628
 3792SOL    HW212276   6.993   6.874   5.603
 3793SOL     OW12277   2.322   0.393   2.410
 3793SOL    HW112278   2.320   0.315   2.473
 3793SOL    HW212279   2.309   0.478   2.461
 3794SOL     OW12280   4.294   6.568   2.362
 3794SOL    HW112281   4.251   6.618   2.437
 3794SOL    HW212282   4.276   6.615   2.276
 3795SOL     OW12283   5.031   7.006   0.038
 3795SOL    HW112284   5.022   0.029   6.965
 3795SOL    HW212285   5.121   6.963   0.046
 3796SOL     OW12286   1.580   2.751   1.744
 3796SOL    HW112287   1.538   2.682   1.803
 3796SOL    HW212288   1.660   2.790   1.790
 3797SOL     OW12289   0.405   5.236   2.678
 3797SOL    HW112290   0.355   5.294   2.743
 3797SOL    HW212291   0.501   5.232   2.703
 3798SOL     OW12292   1.734   4.214   2.230
 3798SOL    HW112293   1.776   4.279   2.167
 3798SOL    HW212294   1.805   4.175   2.289
 3799SOL     OW12295   1.887   0.237   5.289
 3799SOL    HW112296   1.853   0.214   5.381
 3799SOL    HW212297   1.942   0.320   5.294
 3800SOL     OW12298   4.823   2.996   4.593
 3800SOL    HW112299   4.774   2.983   4.679
 3800SOL    HW212300   4.796   2.925   4.528
 3801SOL     OW12301   0.209   0.049   6.451
 3801SOL    HW112302   0.308   0.067   6.450
 3801SOL    HW212303   0.162   0.113   6.390
 3802SOL     OW12304   1.635   2.559   5.025
 3802SOL    HW112305   1.635   2.460   5.043
 3802SOL    HW212306   1.544   2.588   4.997
 3803SOL     OW12307   3.666   1.347   0.864
 3803SOL    HW112308   3.658   1.446   0.851
 3803SOL    HW212309   3.690   1.328   0.959
 3804SOL     OW12310   4.810   2.262   5.522
 3804SOL    HW112311   4.812   2.218   5.432
 3804SOL    HW212312   4.867   2.210   5.586
 3805SOL     OW12313   2.050   3.900   1.354
 3805SOL    HW112314   2.141   3.866   1.377
 3805SOL    HW212315   2.021   3.861   1.267
 3806SOL     OW12316   2.355   1.941   0.207
 3806SOL    HW112317   2.358   1.942   0.107
 3806SOL    HW212318   2.270   1.897   0.237
 3807SOL     OW12319   1.340   6.532   3.206
 3807SOL    HW112320   1.290   6.503   3.288
 3807SOL    HW212321   1.361   6.452   3.149
 3808SOL     OW12322   3.462   0.392   1.663
 3808SOL    HW112323   3.374   0.353   1.689
 3808SOL    HW212324   3.483   0.470   1.722
 3809SOL     OW12325   4.708   0.595   6.217
 3809SOL    HW112326   4.620   0.556   6.246
 3809SOL    HW212327   4.781   0.559   6.276
 3810SOL     OW12328   2.680   3.017   5.293
 3810SOL    HW112329   2.735   3.051   5.217
 3810SOL    HW212330   2.583   3.019   5.268
 3811SOL     OW12331   0.682   6.114   6.317
 3811SOL    HW112332   0.652   6.207   6.340
 3811SOL    HW212333   0.750   6.117   6.244
 3812SOL     OW12334   5.306   1.115   5.269
 3812SOL    HW112335   5.270   1.153   5.184
 3812SOL    HW212336   5.316   1.016   5.260
 3813SOL     OW12337   3.714   4.929   1.781
 3813SOL    HW112338   3.659   4.986   1.719
 3813SOL    HW212339   3.653   4.873   1.838
 3814SOL     OW12340   1.347   6.428   2.226
 3814SOL    HW112341   1.384   6.366   2.157
 3814SOL    HW212342   1.331   6.378   2.311
 3815SOL     OW12343   5.257   2.332   1.551
 3815SOL    HW112344   5.192   2.258   1.535
 3815SOL    HW212345   5.235   2.377   1.638
 3816SOL     OW12346   0.765   6.677   1.376
 3816SOL    HW112347   0.824   6.648   1.301
 3816SOL    HW212348   0.788   6.771   1.402
 3817SOL     OW12349   5.185   1.922   5.484
 3817SOL    HW112350   5.260   1.857   5.500
 3817SOL    HW212351   5.099   1.872   5.479
 3818SOL     OW12352   5.417   5.380   2.338
 3818SOL    HW112353   5.433   5.414   2.431
 3818SOL    HW212354   5.472   5.297   2.323
 3819SOL     OW12355   5.178   4.326   6.057
 3819SOL    HW112356   5.104   4.309   6.122
 3819SOL    HW212357   5.253   4.373   6.103
 3820SOL     OW12358   5.522   6.587   4.115
 3820SOL    HW112359   5.490   6.504   4.068
 3820SOL    HW212360   5.444   6.637   4.152
 3821SOL     OW12361   0.869   4.208   2.119
 3821SOL    HW112362   0.958   4.254   2.117
 3821SOL    HW212363   0.880   4.112   2.096
 3822SOL     OW12364   1.937   4.976   1.908
 3822SOL    HW112365   2.019   4.938   1.866
 3822SOL    HW212366   1.962   5.019   1.995
 3823SOL     OW12367   3.097   2.806   5.469
 3823SOL    HW112368   3.076   2.761   5.556
 3823SOL    HW212369   3.046   2.891   5.462
 3824SOL     OW12370   0.050   2.667   6.614
 3824SOL    HW112371   6.989   2.635   6.562
 3824SOL    HW212372   0.096   2.588   6.656
 3825SOL     OW12373   6.608   6.912   6.371
 3825SOL    HW112374   6.544   6.970   6.422
 3825SOL    HW212375   6.650   6.846   6.433
 3826SOL     OW12376   6.699   2.271   1.256
 3826SOL    HW112377   6.784   2.232   1.291
 3826SOL    HW212378   6.622   2.227   1.302
 3827SOL     OW12379   4.454   3.727   0.753
 3827SOL    HW112380   4.402   3.766   0.678
 3827SOL    HW212381   4.465   3.795   0.825
 3828SOL     OW12382   4.214   1.245   1.982
 3828SOL    HW112383   4.225   1.172   1.914
 3828SOL    HW212384   4.242   1.332   1.942
 3829SOL     OW12385   1.611   5.274   3.375
 3829SOL    HW112386   1.580   5.260   3.281
 3829SOL    HW212387   1.710   5.287   3.376
 3830SOL     OW12388   2.773   0.493   4.788
 3830SOL    HW112389   2.811   0.461   4.701
 3830SOL    HW212390   2.847   0.509   4.853
 3831SOL     OW12391   4.011   1.629   1.833
 3831SOL    HW112392   3.988   1.627   1.930
 3831SOL    HW212393   3.967   1.707   1.790
 3832SOL     OW12394   5.958   0.140   2.745
 3832SOL    HW112395   6.031   0.085   2.705
 3832SOL    HW212396   5.873   0.088   2.746
 3833SOL     OW12397   1.210   5.256   6.700
 3833SOL    HW112398   1.289   5.300   6.743
 3833SOL    HW212399   1.140   5.325   6.682
 3834SOL     OW12400   2.412   2.251   0.802
 3834SOL    HW112401   2.385   2.313   0.729
 3834SOL    HW212402   2.360   2.272   0.885
 3835SOL     OW12403   3.481   6.263   4.624
 3835SOL    HW112404   3.502   6.176   4.578
 3835SOL    HW212405   3.555   6.328   4.606
 3836SOL     OW12406   1.210   3.595   5.502
 3836SOL    HW112407   1.162   3.509   5.519
 3836SOL    HW212408   1.215   3.648   5.586
 3837SOL     OW12409   3.580   3.405   0.097
 3837SOL    HW112410   3.564   3.493   0.141
 3837SOL    HW212411   3.669   3.369   0.127
 3838SOL     OW12412   5.953   3.540   5.690
 3838SOL    HW112413   5.870   3.553   5.635
 3838SOL    HW212414   5.951   3.450   5.731
 3839SOL     OW12415   6.335   6.339   6.148
 3839SOL    HW112416   6.277   6.407   6.193
 3839SOL    HW212417   6.343   6.360   6.051
 3840SOL     OW12418   2.103   0.495   3.645
 3840SOL    HW112419   2.005   0.492   3.663
 3840SOL    HW212420   2.150   0.430   3.705
 3841SOL     OW12421   0.187   3.754   4.734
 3841SOL    HW112422   0.279   3.790   4.721
 3841SOL    HW212423   0.164   3.756   4.831
 3842SOL     OW12424   1.036   5.109   6.874
 3842SOL    HW112425   1.108   5.175   6.856
 3842SOL    HW212426   0.969   5.111   6.799
 3843SOL     OW12427   5.967   4.233   0.986
 3843SOL    HW112428   5.986   4.310   0.924
 3843SOL    HW212429   5.910   4.166   0.939
 3844SOL     OW12430   2.239   4.389   6.593
 3844SOL    HW112431   2.203   4.313   6.647
 3844SOL    HW212432   2.336   4.402   6.615
 3845SOL     OW12433   3.364   3.335   3.808
 3845SOL    HW112434   3.311   3.392   3.745
 3845SOL    HW212435   3.303   3.296   3.877
 3846SOL     OW12436   6.997   4.395   3.346
 3846SOL    HW112437   0.072   4.374   3.376
 3846SOL    HW212438   6.935   4.394   3.424
 3847SOL     OW12439   1.023   0.201   0.440
 3847SOL    HW112440   1.038   0.111   0.398
 3847SOL    HW212441   1.105   0.257   0.429
 3848SOL     OW12442   3.317   4.930   0.411
 3848SOL    HW112443   3.228   4.976   0.413
 3848SOL    HW212444   3.305   4.833   0.392
 3849SOL     OW12445   2.309   2.345   5.821
 3849SOL    HW112446   2.302   2.252   5.857
 3849SOL    HW212447   2.253   2.407   5.877
 3850SOL     OW12448   2.463   3.639   1.557
 3850SOL    HW112449   2.416   3.680   1.479
 3850SOL    HW212450   2.465   3.704   1.633
 3851SOL     OW12451   2.323   2.826   1.476
 3851SOL    HW112452   2.371   2.750   1.430
 3851SOL    HW212453   2.380   2.860   1.551
 3852SOL     OW12454   4.601   0.928   6.002
 3852SOL    HW112455   4.516   0.899   5.957
 3852SOL    HW212456   4.588   1.018   6.043
 3853SOL     OW12457   1.459   3.000   2.458
 3853SOL    HW112458   1.399   2.944   2.401
 3853SOL    HW212459   1.545   2.951   2.472
 3854SOL     OW12460   1.149   3.018   4.646
 3854SOL    HW112461   1.098   3.092   4.605
 3854SOL    HW212462   1.086   2.947   4.678
 3855SOL     OW12463   6.979   1.903   5.283
 3855SOL    HW112464   6.929   1.849   5.350
 3855SOL    HW212465   6.922   1.917   5.202
 3856SOL     OW12466   1.009   6.441   5.283
 3856SOL    HW112467   0.951   6.443   5.201
 3856SOL    HW212468   1.103   6.424   5.256
 3857SOL     OW12469   0.840   6.985   5.844
 3857SOL    HW112470   0.901   7.009   5.769
 3857SOL    HW212471   0.889   6.991   5.931
 3858SOL     OW12472   2.236   5.187   6.693
 3858SOL    HW112473   2.240   5.284   6.716
 3858SOL    HW212474   2.300   5.136   6.751
 3859SOL     OW12475   6.658   2.341   1.907
 3859SOL    HW112476   6.715   2.285   1.846
 3859SOL    HW212477   6.630   2.424   1.859
 3860SOL     OW12478   1.978   6.670   4.819
 3860SOL    HW112479   1.896   6.637   4.772
 3860SOL    HW212480   2.011   6.754   4.774
 3861SOL     OW12481   4.481   4.726   1.142
 3861SOL    HW112482   4.576   4.754   1.161
 3861SOL    HW212483   4.466   4.634   1.177
 3862SOL     OW12484   1.143   5.140   5.972
 3862SOL    HW112485   1.159   5.233   5.940
 3862SOL    HW212486   1.045   5.120   5.972
 3863SOL     OW12487   3.100   2.836   0.740
 3863SOL    HW112488   3.063   2.782   0.664
 3863SOL    HW212489   3.036   2.909   0.764
 3864SOL     OW12490   3.240   1.900   0.082
 3864SOL    HW112491   3.333   1.863   0.087
 3864SOL    HW212492   3.185   1.846   0.019
 3865SOL     OW12493   4.525   0.734   2.205
 3865SOL    HW112494   4.547   0.642   2.237
 3865SOL    HW212495   4.490   0.730   2.112
 3866SOL     OW12496   3.983   6.436   6.206
 3866SOL    HW112497   3.936   6.350   6.222
 3866SOL    HW212498   4.080   6.418   6.186
 3867SOL     OW12499   1.874   3.752   3.931
 3867SOL    HW112500   1.847   3.739   3.836
 3867SOL    HW212501   1.835   3.678   3.987
 3868SOL     OW12502   1.487   5.557   2.786
 3868SOL    HW112503   1.549   5.486   2.753
 3868SOL    HW212504   1.417   5.515   2.844
 3869SOL     OW12505   1.613   1.523   4.143
 3869SOL    HW112506   1.693   1.519   4.084
 3869SOL    HW212507   1.537   1.474   4.099
 3870SOL     OW12508   3.946   4.428   0.600
 3870SOL    HW112509   3.924   4.400   0.693
 3870SOL    HW212510   3.952   4.528   0.595
 3871SOL     OW12511   3.247   1.633   4.648
 3871SOL    HW112512   3.219   1.721   4.686
 3871SOL    HW212513   3.291   1.578   4.720
 3872SOL     OW12514   4.221   3.616   0.468
 3872SOL    HW112515   4.227   3.525   0.509
 3872SOL    HW212516   4.178   3.679   0.534
 3873SOL     OW12517   5.188   4.460   1.692
 3873SOL    HW112518   5.272   4.424   1.651
 3873SOL    HW212519   5.136   4.510   1.623
 3874SOL     OW12520   4.663   5.945   6.407
 3874SOL    HW112521   4.724   5.958   6.484
 3874SOL    HW212522   4.620   5.855   6.413
 3875SOL     OW12523   2.087   4.034   0.536
 3875SOL    HW112524   2.175   4.062   0.575
 3875SOL    HW212525   2.081   4.065   0.441
 3876SOL     OW12526   5.343   4.195   2.386
 3876SOL    HW112527   5.415   4.131   2.358
 3876SOL    HW212528   5.350   4.211   2.485
 3877SOL     OW12529   5.761   1.300   2.546
 3877SOL    HW112530   5.797   1.394   2.547
 3877SOL    HW212531   5.809   1.247   2.476
 3878SOL     OW12532   4.124   6.017   4.531
 3878SOL    HW112533   4.203   6.021   4.593
 3878SOL    HW212534   4.105   5.923   4.506
 3879SOL     OW12535   2.911   6.114   1.400
 3879SOL    HW112536   2.971   6.152   1.329
 3879SOL    HW212537   2.852   6.044   1.359
 3880SOL     OW12538   5.399   2.659   4.076
 3880SOL    HW112539   5.485   2.707   4.091
 3880SOL    HW212540   5.323   2.715   4.109
 3881SOL     OW12541   1.427   5.145   1.158
 3881SOL    HW112542   1.513   5.094   1.153
 3881SOL    HW212543   1.383   5.145   1.068
 3882SOL     OW12544   0.959   5.985   6.174
 3882SOL    HW112545   0.929   5.952   6.084
 3882SOL    HW212546   1.043   6.039   6.162
 3883SOL     OW12547   3.201   1.662   6.487
 3883SOL    HW112548   3.259   1.588   6.519
 3883SOL    HW212549   3.257   1.744   6.471
 3884SOL     OW12550   1.969   4.998   5.380
 3884SOL    HW112551   1.964   4.900   5.403
 3884SOL    HW212552   2.057   5.018   5.337
 3885SOL     OW12553   6.952   1.544   5.381
 3885SOL    HW112554   6.881   1.608   5.407
 3885SOL    HW212555   6.990   1.570   5.291
 3886SOL     OW12556   0.172   5.980   5.214
 3886SOL    HW112557   0.257   5.931   5.234
 3886SOL    HW212558   0.095   5.932   5.255
 3887SOL     OW12559   5.162   3.380   5.226
 3887SOL    HW112560   5.185   3.474   5.250
 3887SOL    HW212561   5.103   3.380   5.145
 3888SOL     OW12562   5.535   1.934   1.756
 3888SOL    HW112563   5.503   2.005   1.819
 3888SOL    HW212564   5.463   1.914   1.690
 3889SOL     OW12565   6.915   5.522   6.806
 3889SOL    HW112566   6.853   5.444   6.795
 3889SOL    HW212567   6.981   5.523   6.731
 3890SOL     OW12568   6.709   3.474   2.755
 3890SOL    HW112569   6.639   3.409   2.726
 3890SOL    HW212570   6.716   3.548   2.688
 3891SOL     OW12571   6.066   5.099   6.217
 3891SOL    HW112572   6.002   5.024   6.196
 3891SOL    HW212573   6.038   5.143   6.302
 3892SOL     OW12574   5.643   5.367   3.828
 3892SOL    HW112575   5.543   5.367   3.834
 3892SOL    HW212576   5.678   5.282   3.866
 3893SOL     OW12577   3.201   6.238   4.093
 3893SOL    HW112578   3.177   6.334   4.104
 3893SOL    HW212579   3.293   6.230   4.054
 3894SOL     OW12580   4.820   5.432   6.862
 3894SOL    HW112581   4.887   5.378   6.913
 3894SOL    HW212582   4.854   5.446   6.768
 3895SOL     OW12583   1.897   2.393   5.821
 3895SOL    HW112584   1.858   2.431   5.905
 3895SOL    HW212585   1.964   2.457   5.783
 3896SOL     OW12586   6.303   2.612   6.421
 3896SOL    HW112587   6.244   2.568   6.354
 3896SOL    HW212588   6.387   2.644   6.376
 3897SOL     OW12589   3.139   6.630   3.422
 3897SOL    HW112590   3.218   6.580   3.387
 3897SOL    HW212591   3.159   6.729   3.421
 3898SOL     OW12592   3.141   3.445   4.635
 3898SOL    HW112593   3.125   3.347   4.632
 3898SOL    HW212594   3.239   3.463   4.625
 3899SOL     OW12595   4.899   1.856   5.086
 3899SOL    HW112596   4.807   1.830   5.058
 3899SOL    HW212597   4.912   1.954   5.070
 3900SOL     OW12598   6.968   2.464   4.588
 3900SOL    HW112599   0.040   2.424   4.568
 3900SOL    HW212600   6.972   2.512   4.676
 3901SOL     OW12601   2.644   5.656   5.014
 3901SOL    HW112602   2.659   5.655   4.915
 3901SOL    HW212603   2.678   5.743   5.051
 3902SOL     OW12604   4.311   4.625   2.639
 3902SOL    HW112605   4.376   4.549   2.635
 3902SOL    HW212606   4.340   4.696   2.575
 3903SOL     OW12607   4.864   2.839   5.900
 3903SOL    HW112608   4.883   2.789   5.816
 3903SOL    HW212609   4.871   2.777   5.978
 3904SOL     OW12610   2.379   6.520   0.933
 3904SOL    HW112611   2.455   6.582   0.913
 3904SOL    HW212612   2.319   6.562   1.001
 3905SOL     OW12613   6.176   0.580   6.108
 3905SOL    HW112614   6.109   0.545   6.173
 3905SOL    HW212615   6.234   0.505   6.077
 3906SOL     OW12616   7.017   5.987   4.601
 3906SOL    HW112617   0.062   5.930   4.655
 3906SOL    HW212618   0.040   6.077   4.588
 3907SOL     OW12619   0.674   1.604   5.409
 3907SOL    HW112620   0.665   1.701   5.430
 3907SOL    HW212621   0.693   1.593   5.312
 3908SOL     OW12622   2.555   0.903   4.246
 3908SOL    HW112623   2.473   0.898   4.190
 3908SOL    HW212624   2.541   0.966   4.323
 3909SOL     OW12625   5.119   2.699   1.479
 3909SOL    HW112626   5.189   2.638   1.442
 3909SOL    HW212627   5.122   2.697   1.579
 3910SOL     OW12628   3.486   2.058   0.518
 3910SOL    HW112629   3.430   2.000   0.577
 3910SOL    HW212630   3.448   2.150   0.516
 3911SOL     OW12631   6.842   0.733   1.579
 3911SOL    HW112632   6.939   0.753   1.583
 3911SOL    HW212633   6.825   0.643   1.621
 3912SOL     OW12634   4.289   4.168   0.109
 3912SOL    HW112635   4.227   4.162   0.188
 3912SOL    HW212636   4.330   4.259   0.106
 3913SOL     OW12637   4.221   5.573   1.319
 3913SOL    HW112638   4.251   5.668   1.316
 3913SOL    HW212639   4.170   5.556   1.403
 3914SOL     OW12640   6.624   2.321   0.084
 3914SOL    HW112641   6.574   2.289   0.164
 3914SOL    HW212642   6.571   2.301   0.002
 3915SOL     OW12643   5.531   0.468   5.533
 3915SOL    HW112644   5.565   0.524   5.608
 3915SOL    HW212645   5.525   0.523   5.450
 3916SOL     OW12646   1.883   2.282   2.816
 3916SOL    HW112647   1.833   2.368   2.827
 3916SOL    HW212648   1.828   2.217   2.764
 3917SOL     OW12649   3.775   4.951   2.066
 3917SOL    HW112650   3.773   4.993   1.976
 3917SOL    HW212651   3.702   4.883   2.073
 3918SOL     OW12652   5.107   0.372   0.619
 3918SOL    HW112653   5.136   0.404   0.709
 3918SOL    HW212654   5.058   0.445   0.571
 3919SOL     OW12655   4.906   5.873   3.274
 3919SOL    HW112656   4.966   5.798   3.304
 3919SOL    HW212657   4.932   5.901   3.182
 3920SOL     OW12658   2.742   1.819   5.375
 3920SOL    HW112659   2.763   1.908   5.333
 3920SOL    HW212660   2.800   1.749   5.335
 3921SOL     OW12661   1.403   3.361   6.514
 3921SOL    HW112662   1.331   3.389   6.450
 3921SOL    HW212663   1.490   3.355   6.465
 3922SOL     OW12664   5.072   3.552   3.594
 3922SOL    HW112665   5.096   3.636   3.545
 3922SOL    HW212666   5.031   3.577   3.682
 3923SOL     OW12667   5.414   1.481   1.337
 3923SOL    HW112668   5.498   1.507   1.289
 3923SOL    HW212669   5.436   1.446   1.428
 3924SOL     OW12670   4.924   4.826   4.504
 3924SOL    HW112671   4.950   4.905   4.448
 3924SOL    HW212672   4.847   4.779   4.462
 3925SOL     OW12673   4.930   5.676   1.317
 3925SOL    HW112674   5.004   5.742   1.305
 3925SOL    HW212675   4.968   5.585   1.334
 3926SOL     OW12676   0.762   5.777   5.118
 3926SOL    HW112677   0.846   5.762   5.067
 3926SOL    HW212678   0.717   5.689   5.134
 3927SOL     OW12679   5.790   1.576   5.571
 3927SOL    HW112680   5.724   1.525   5.626
 3927SOL    HW212681   5.742   1.621   5.496
 3928SOL     OW12682   3.486   5.627   2.634
 3928SOL    HW112683   3.580   5.633   2.599
 3928SOL    HW212684   3.482   5.562   2.709
 3929SOL     OW12685   0.848   1.612   5.907
 3929SOL    HW112686   0.902   1.541   5.861
 3929SOL    HW212687   0.820   1.681   5.840
 3930SOL     OW12688   1.252   5.134   3.879
 3930SOL    HW112689   1.282   5.170   3.968
 3930SOL    HW212690   1.331   5.101   3.828
 3931SOL     OW12691   1.310   2.098   0.066
 3931SOL    HW112692   1.252   2.144   7.017
 3931SOL    HW212693   1.256   2.074   0.147
 3932SOL     OW12694   2.401   4.374   2.890
 3932SOL    HW112695   2.365   4.412   2.805
 3932SOL    HW212696   2.374   4.278   2.898
 3933SOL     OW12697   2.102   5.827   1.329
 3933SOL    HW112698   2.179   5.769   1.354
 3933SOL    HW212699   2.130   5.923   1.330
 3934SOL     OW12700   2.118   6.878   1.243
 3934SOL    HW112701   2.165   6.876   1.331
 3934SOL    HW212702   2.033   6.928   1.251
 3935SOL     OW12703   0.184   3.402   4.944
 3935SOL    HW112704   0.134   3.391   4.858
 3935SOL    HW212705   0.281   3.379   4.929
 3936SOL     OW12706   0.199   4.454   5.091
 3936SOL    HW112707   0.229   4.461   4.996
 3936SOL    HW212708   0.277   4.471   5.151
 3937SOL     OW12709   1.223   6.244   0.580
 3937SOL    HW112710   1.220   6.147   0.552
 3937SOL    HW212711   1.315   6.279   0.567
 3938SOL     OW12712   0.267   3.268   0.764
 3938SOL    HW112713   0.235   3.181   0.802
 3938SOL    HW212714   0.261   3.339   0.834
 3939SOL     OW12715   1.430   6.589   3.691
 3939SOL    HW112716   1.517   6.636   3.678
 3939SOL    HW212717   1.356   6.656   3.695
 3940SOL     OW12718   2.876   5.438   6.823
 3940SOL    HW112719   2.942   5.476   6.757
 3940SOL    HW212720   2.788   5.485   6.812
 3941SOL     OW12721   4.981   5.729   2.477
 3941SOL    HW112722   4.970   5.763   2.384
 3941SOL    HW212723   4.955   5.801   2.542
 3942SOL     OW12724   6.705   6.681   6.535
 3942SOL    HW112725   6.785   6.656   6.480
 3942SOL    HW212726   6.642   6.604   6.541
 3943SOL     OW12727   2.351   3.112   6.657
 3943SOL    HW112728   2.379   3.128   6.751
 3943SOL    HW212729   2.349   3.013   6.639
 3944SOL     OW12730   4.043   3.088   6.573
 3944SOL    HW112731   4.078   3.108   6.665
 3944SOL    HW212732   4.110   3.034   6.523
 3945SOL     OW12733   5.632   0.494   3.486
 3945SOL    HW112734   5.542   0.451   3.488
 3945SOL    HW212735   5.665   0.507   3.580
 3946SOL     OW12736   0.233   3.427   0.354
 3946SOL    HW112737   0.135   3.448   0.358
 3946SOL    HW212738   0.264   3.431   0.259
 3947SOL     OW12739   5.344   6.609   2.104
 3947SOL    HW112740   5.306   6.520   2.131
 3947SOL    HW212741   5.338   6.672   2.182
 3948SOL     OW12742   1.642   2.292   5.008
 3948SOL    HW112743   1.589   2.250   4.934
 3948SOL    HW212744   1.619   2.247   5.095
 3949SOL     OW12745   6.853   0.069   2.222
 3949SOL    HW112746   6.899   0.156   2.241
 3949SOL    HW212747   6.764   0.067   2.267
 3950SOL     OW12748   3.027   4.535   1.570
 3950SOL    HW112749   3.065   4.479   1.497
 3950SOL    HW212750   2.997   4.476   1.645
 3951SOL     OW12751   0.543   2.786   4.150
 3951SOL    HW112752   0.486   2.760   4.228
 3951SOL    HW212753   0.509   2.872   4.112
 3952SOL     OW12754   5.923   4.171   6.912
 3952SOL    HW112755   6.001   4.191   6.853
 3952SOL    HW212756   5.929   4.076   6.943
 3953SOL     OW12757   3.105   3.922   5.900
 3953SOL    HW112758   3.034   3.992   5.889
 3953SOL    HW212759   3.067   3.832   5.883
 3954SOL     OW12760   0.657   3.291   4.879
 3954SOL    HW112761   0.604   3.213   4.914
 3954SOL    HW212762   0.674   3.356   4.954
 3955SOL     OW12763   5.827   3.802   0.170
 3955SOL    HW112764   5.729   3.784   0.169
 3955SOL    HW212765   5.845   3.888   0.217
 3956SOL     OW12766   6.233   3.228   5.471
 3956SOL    HW112767   6.275   3.226   5.562
 3956SOL    HW212768   6.207   3.322   5.448
 3957SOL     OW12769   0.723   2.062   1.912
 3957SOL    HW112770   0.663   1.996   1.868
 3957SOL    HW212771   0.726   2.044   2.011
 3958SOL     OW12772   5.342   6.281   0.468
 3958SOL    HW112773   5.356   6.368   0.422
 3958SOL    HW212774   5.416   6.218   0.444
 3959SOL     OW12775   2.274   5.079   1.856
 3959SOL    HW112776   2.240   4.986   1.866
 3959SOL    HW212777   2.367   5.085   1.893
 3960SOL     OW12778   4.841   3.334   0.996
 3960SOL    HW112779   4.817   3.336   0.899
 3960SOL    HW212780   4.761   3.361   1.051
 3961SOL     OW12781   6.474   0.375   1.591
 3961SOL    HW112782   6.538   0.344   1.661
 3961SOL    HW212783   6.506   0.346   1.501
 3962SOL     OW12784   0.588   6.852   5.848
 3962SOL    HW112785   0.679   6.894   5.850
 3962SOL    HW212786   0.561   6.835   5.753
 3963SOL     OW12787   4.852   4.543   3.942
 3963SOL    HW112788   4.923   4.490   3.896
 3963SOL    HW212789   4.815   4.612   3.879
 3964SOL     OW12790   5.772   5.839   0.076
 3964SOL    HW112791   5.713   5.908   0.033
 3964SOL    HW212792   5.868   5.858   0.053
 3965SOL     OW12793   3.519   3.774   0.904
 3965SOL    HW112794   3.522   3.816   0.814
 3965SOL    HW212795   3.432   3.726   0.917
 3966SOL     OW12796   6.699   4.112   5.647
 3966SOL    HW112797   6.748   4.029   5.618
 3966SOL    HW212798   6.698   4.177   5.572
 3967SOL     OW12799   1.754   6.526   0.143
 3967SOL    HW112800   1.681   6.529   0.075
 3967SOL    HW212801   1.834   6.574   0.109
 3968SOL     OW12802   5.230   2.168   0.938
 3968SOL    HW112803   5.144   2.160   0.888
 3968SOL    HW212804   5.212   2.190   1.033
 3969SOL     OW12805   0.206   5.837   0.939
 3969SOL    HW112806   0.205   5.906   1.012
 3969SOL    HW212807   0.272   5.765   0.963
 3970SOL     OW12808   5.028   4.650   4.115
 3970SOL    HW112809   4.944   4.625   4.067
 3970SOL    HW212810   5.036   4.749   4.120
 3971SOL     OW12811   6.674   6.312   3.917
 3971SOL    HW112812   6.709   6.338   3.827
 3971SOL    HW212813   6.624   6.390   3.957
 3972SOL     OW12814   1.324   0.215   6.116
 3972SOL    HW112815   1.333   0.297   6.172
 3972SOL    HW212816   1.389   0.218   6.041
 3973SOL     OW12817   3.221   3.038   3.201
 3973SOL    HW112818   3.170   3.029   3.116
 3973SOL    HW212819   3.282   2.959   3.211
 3974SOL     OW12820   5.580   1.162   6.785
 3974SOL    HW112821   5.591   1.199   6.693
 3974SOL    HW212822   5.658   1.103   6.806
 3975SOL     OW12823   0.010   6.330   5.464
 3975SOL    HW112824   6.975   6.353   5.545
 3975SOL    HW212825   7.009   6.396   5.391
 3976SOL     OW12826   0.638   3.047   6.731
 3976SOL    HW112827   0.701   3.042   6.808
 3976SOL    HW212828   0.684   3.085   6.652
 3977SOL     OW12829   2.902   5.915   4.752
 3977SOL    HW112830   2.928   5.829   4.707
 3977SOL    HW212831   2.985   5.967   4.774
 3978SOL     OW12832   6.514   3.822   6.934
 3978SOL    HW112833   6.460   3.882   6.993
 3978SOL    HW212834   6.453   3.760   6.885
 3979SOL     OW12835   1.342   6.799   3.172
 3979SOL    HW112836   1.351   6.701   3.190
 3979SOL    HW212837   1.432   6.837   3.151
 3980SOL     OW12838   4.799   4.006   4.145
 3980SOL    HW112839   4.828   3.915   4.114
 3980SOL    HW212840   4.768   4.060   4.067
 3981SOL     OW12841   6.834   1.698   6.092
 3981SOL    HW112842   6.853   1.761   6.167
 3981SOL    HW212843   6.920   1.662   6.055
 3982SOL     OW12844   2.202   3.035   4.074
 3982SOL    HW112845   2.190   3.072   4.166
 3982SOL    HW212846   2.117   3.047   4.022
 3983SOL     OW12847   2.830   6.863   4.196
 3983SOL    HW112848   2.890   6.790   4.162
 3983SOL    HW212849   2.741   6.824   4.221
 3984SOL     OW12850   1.826   6.143   1.815
 3984SOL    HW112851   1.923   6.122   1.800
 3984SOL    HW212852   1.790   6.190   1.734
 3985SOL     OW12853   2.032   2.899   1.957
 3985SOL    HW112854   2.084   2.923   1.876
 3985SOL    HW212855   2.075   2.940   2.038
 3986SOL     OW12856   1.102   2.083   2.214
 3986SOL    HW112857   1.124   2.181   2.213
 3986SOL    HW212858   1.153   2.036   2.142
 3987SOL     OW12859   1.479   3.756   5.241
 3987SOL    HW112860   1.450   3.686   5.176
 3987SOL    HW212861   1.399   3.792   5.289
 3988SOL     OW12862   5.272   0.152   0.846
 3988SOL    HW112863   5.311   0.084   0.908
 3988SOL    HW212864   5.272   0.116   0.753
 3989SOL     OW12865   4.404   0.763   5.917
 3989SOL    HW112866   4.469   0.692   5.889
 3989SOL    HW212867   4.348   0.729   5.992
 3990SOL     OW12868   0.485   2.154   3.700
 3990SOL    HW112869   0.404   2.125   3.650
 3990SOL    HW212870   0.536   2.073   3.731
 3991SOL     OW12871   0.810   1.711   3.758
 3991SOL    HW112872   0.901   1.717   3.716
 3991SOL    HW212873   0.740   1.711   3.687
 3992SOL     OW12874   5.827   3.992   6.695
 3992SOL    HW112875   5.804   3.898   6.671
 3992SOL    HW212876   5.855   3.997   6.790
 3993SOL     OW12877   1.636   0.420   3.986
 3993SOL    HW112878   1.693   0.441   4.065
 3993SOL    HW212879   1.675   0.344   3.935
 3994SOL     OW12880   2.754   1.960   3.394
 3994SOL    HW112881   2.815   1.882   3.408
 3994SOL    HW212882   2.759   1.990   3.299
 3995SOL     OW12883   1.684   3.151   2.216
 3995SOL    HW112884   1.717   3.099   2.295
 3995SOL    HW212885   1.589   3.177   2.231
 3996SOL     OW12886   5.652   5.850   4.865
 3996SOL    HW112887   5.617   5.926   4.809
 3996SOL    HW212888   5.619   5.763   4.828
 3997SOL     OW12889   4.866   3.620   2.894
 3997SOL    HW112890   4.866   3.643   2.797
 3997SOL    HW212891   4.881   3.522   2.906
 3998SOL     OW12892   4.806   2.078   3.233
 3998SOL    HW112893   4.814   2.098   3.135
 3998SOL    HW212894   4.713   2.098   3.264
 3999SOL     OW12895   3.906   3.504   1.007
 3999SOL    HW112896   3.883   3.558   0.926
 3999SOL    HW212897   3.904   3.407   0.985
 4000SOL     OW12898   2.264   4.838   2.634
 4000SOL    HW112899   2.257   4.825   2.535
 4000SOL    HW212900   2.277   4.935   2.654
 4001SOL     OW12901   6.829   5.590   4.521
 4001SOL    HW112902   6.767   5.669   4.517
 4001SOL    HW212903   6.846   5.556   4.429
 4002SOL     OW12904   3.974   3.629   4.281
 4002SOL    HW112905   3.931   3.539   4.279
 4002SOL    HW212906   3.940   3.680   4.360
 4003SOL     OW12907   1.841   0.719   4.895
 4003SOL    HW112908   1.856   0.647   4.827
 4003SOL    HW212909   1.885   0.803   4.864
 4004SOL     OW12910   1.467   3.938   4.041
 4004SOL    HW112911   1.500   3.844   4.031
 4004SOL    HW212912   1.383   3.950   3.988
 4005SOL     OW12913   4.701   3.368   6.724
 4005SOL    HW112914   4.607   3.386   6.753
 4005SOL    HW212915   4.757   3.450   6.739
 4006SOL     OW12916   6.711   5.788   2.190
 4006SOL    HW112917   6.713   5.872   2.135
 4006SOL    HW212918   6.800   5.744   2.185
 4007SOL     OW12919   0.121   0.813   1.945
 4007SOL    HW112920   0.217   0.825   1.970
 4007SOL    HW212921   0.113   0.750   1.868
 4008SOL     OW12922   3.299   1.114   1.278
 4008SOL    HW112923   3.295   1.209   1.307
 4008SOL    HW212924   3.207   1.081   1.256
 4009SOL     OW12925   4.857   2.229   0.329
 4009SOL    HW112926   4.838   2.151   0.388
 4009SOL    HW212927   4.775   2.287   0.322
 4010SOL     OW12928   1.976   4.868   1.453
 4010SOL    HW112929   1.882   4.893   1.431
 4010SOL    HW212930   2.038   4.941   1.423
 4011SOL     OW12931   5.986   6.002   5.558
 4011SOL    HW112932   6.005   5.939   5.633
 4011SOL    HW212933   6.072   6.024   5.512
 4012SOL     OW12934   5.292   6.275   2.974
 4012SOL    HW112935   5.375   6.246   3.020
 4012SOL    HW212936   5.264   6.365   3.009
 4013SOL     OW12937   0.177   1.650   6.232
 4013SOL    HW112938   0.259   1.593   6.243
 4013SOL    HW212939   0.097   1.598   6.262
 4014SOL     OW12940   2.904   5.074   2.074
 4014SOL    HW112941   2.962   5.051   1.996
 4014SOL    HW212942   2.885   4.992   2.128
 4015SOL     OW12943   4.142   4.818   6.426
 4015SOL    HW112944   4.100   4.856   6.343
 4015SOL    HW212945   4.240   4.805   6.409
 4016SOL     OW12946   5.495   4.969   4.740
 4016SOL    HW112947   5.524   4.987   4.646
 4016SOL    HW212948   5.570   4.989   4.803
 4017SOL     OW12949   1.056   4.870   6.005
 4017SOL    HW112950   1.127   4.936   5.980
 4017SOL    HW212951   1.093   4.778   5.998
 4018SOL     OW12952   4.059   6.220   0.898
 4018SOL    HW112953   4.038   6.310   0.859
 4018SOL    HW212954   4.043   6.223   0.997
 4019SOL     OW12955   6.114   3.964   2.384
 4019SOL    HW112956   6.043   4.019   2.427
 4019SOL    HW212957   6.194   4.021   2.365
 4020SOL     OW12958   6.306   5.460   4.466
 4020SOL    HW112959   6.364   5.536   4.494
 4020SOL    HW212960   6.318   5.384   4.530
 4021SOL     OW12961   4.908   4.247   6.164
 4021SOL    HW112962   4.868   4.277   6.077
 4021SOL    HW212963   4.929   4.149   6.160
 4022SOL     OW12964   2.954   6.660   1.589
 4022SOL    HW112965   2.999   6.725   1.528
 4022SOL    HW212966   2.985   6.677   1.683
 4023SOL     OW12967   0.826   1.446   4.146
 4023SOL    HW112968   0.845   1.358   4.191
 4023SOL    HW212969   0.862   1.521   4.201
 4024SOL     OW12970   0.425   6.681   4.470
 4024SOL    HW112971   0.392   6.768   4.507
 4024SOL    HW212972   0.354   6.612   4.478
 4025SOL     OW12973   6.679   5.752   3.334
 4025SOL    HW112974   6.669   5.851   3.326
 4025SOL    HW212975   6.602   5.715   3.387
 4026SOL     OW12976   0.769   0.044   4.310
 4026SOL    HW112977   0.813   7.009   4.237
 4026SOL    HW212978   0.672   0.021   4.314
 4027SOL     OW12979   3.249   4.817   5.267
 4027SOL    HW112980   3.182   4.748   5.292
 4027SOL    HW212981   3.245   4.892   5.332
 4028SOL     OW12982   4.725   0.718   3.732
 4028SOL    HW112983   4.767   0.645   3.678
 4028SOL    HW212984   4.630   0.730   3.704
 4029SOL     OW12985   1.765   6.249   0.214
 4029SOL    HW112986   1.780   6.339   0.172
 4029SOL    HW212987   1.672   6.244   0.250
 4030SOL     OW12988   0.728   1.635   2.396
 4030SOL    HW112989   0.662   1.702   2.360
 4030SOL    HW212990   0.769   1.585   2.319
 4031SOL     OW12991   6.030   6.409   0.448
 4031SOL    HW112992   6.110   6.470   0.442
 4031SOL    HW212993   5.954   6.450   0.399
 4032SOL     OW12994   4.777   0.532   2.468
 4032SOL    HW112995   4.804   0.530   2.372
 4032SOL    HW212996   4.834   0.598   2.517
 4033SOL     OW12997   1.822   2.276   2.416
 4033SOL    HW112998   1.765   2.226   2.351
 4033SOL    HW212999   1.794   2.253   2.509
 4034SOL     OW13000   0.706   2.863   5.379
 4034SOL    HW113001   0.771   2.934   5.352
 4034SOL    HW213002   0.617   2.883   5.339
 4035SOL     OW13003   4.767   2.017   1.636
 4035SOL    HW113004   4.699   2.042   1.567
 4035SOL    HW213005   4.740   2.055   1.724
 4036SOL     OW13006   2.885   5.351   3.250
 4036SOL    HW113007   2.915   5.433   3.201
 4036SOL    HW213008   2.804   5.372   3.305
 4037SOL     OW13009   2.268   1.589   5.663
 4037SOL    HW113010   2.338   1.569   5.595
 4037SOL    HW213011   2.179   1.554   5.631
 4038SOL     OW13012   3.349   4.777   5.699
 4038SOL    HW113013   3.336   4.679   5.681
 4038SOL    HW213014   3.432   4.808   5.653
 4039SOL     OW13015   5.476   5.152   1.495
 4039SOL    HW113016   5.561   5.129   1.542
 4039SOL    HW213017   5.472   5.251   1.481
 4040SOL     OW13018   3.025   6.639   5.151
 4040SOL    HW113019   3.103   6.576   5.153
 4040SOL    HW213020   2.995   6.659   5.245
 4041SOL     OW13021   2.165   6.636   1.587
 4041SOL    HW113022   2.090   6.703   1.589
 4041SOL    HW213023   2.231   6.659   1.659
 4042SOL     OW13024   6.874   1.240   2.625
 4042SOL    HW113025   6.930   1.165   2.589
 4042SOL    HW213026   6.856   1.307   2.552
 4043SOL     OW13027   5.199   3.281   6.220
 4043SOL    HW113028   5.128   3.265   6.151
 4043SOL    HW213029   5.271   3.213   6.210
 4044SOL     OW13030   4.913   4.385   3.341
 4044SOL    HW113031   5.009   4.356   3.339
 4044SOL    HW213032   4.854   4.305   3.337
 4045SOL     OW13033   5.261   1.239   5.500
 4045SOL    HW113034   5.183   1.199   5.548
 4045SOL    HW213035   5.262   1.206   5.405
 4046SOL     OW13036   5.672   1.663   3.280
 4046SOL    HW113037   5.694   1.565   3.282
 4046SOL    HW213038   5.747   1.712   3.236
 4047SOL     OW13039   2.528   2.929   6.375
 4047SOL    HW113040   2.472   2.847   6.370
 4047SOL    HW213041   2.505   2.989   6.298
 4048SOL     OW13042   4.496   2.058   2.297
 4048SOL    HW113043   4.413   2.004   2.312
 4048SOL    HW213044   4.576   2.004   2.324
 4049SOL     OW13045   4.238   4.395   0.717
 4049SOL    HW113046   4.147   4.413   0.754
 4049SOL    HW213047   4.295   4.476   0.732
 4050SOL     OW13048   1.146   5.613   2.228
 4050SOL    HW113049   1.223   5.550   2.211
 4050SOL    HW213050   1.149   5.687   2.161
 4051SOL     OW13051   5.614   1.116   4.625
 4051SOL    HW113052   5.677   1.145   4.553
 4051SOL    HW213053   5.556   1.194   4.652
 4052SOL     OW13054   5.889   1.774   3.141
 4052SOL    HW113055   5.917   1.748   3.049
 4052SOL    HW213056   5.969   1.794   3.197
 4053SOL     OW13057   1.084   5.192   4.159
 4053SOL    HW113058   1.053   5.103   4.125
 4053SOL    HW213059   1.183   5.190   4.174
 4054SOL     OW13060   4.042   3.634   1.418
 4054SOL    HW113061   4.097   3.599   1.494
 4054SOL    HW213062   3.955   3.585   1.413
 4055SOL     OW13063   0.688   3.753   0.093
 4055SOL    HW113064   0.657   3.660   0.074
 4055SOL    HW213065   0.652   3.783   0.181
 4056SOL     OW13066   5.038   3.547   0.542
 4056SOL    HW113067   5.029   3.522   0.445
 4056SOL    HW213068   4.960   3.513   0.593
 4057SOL     OW13069   0.313   3.552   0.107
 4057SOL    HW113070   0.301   3.626   0.041
 4057SOL    HW213071   0.407   3.518   0.102
 4058SOL     OW13072   2.565   0.718   5.232
 4058SOL    HW113073   2.521   0.808   5.227
 4058SOL    HW213074   2.659   0.726   5.199
 4059SOL     OW13075   0.164   1.512   3.594
 4059SOL    HW113076   0.170   1.552   3.502
 4059SOL    HW213077   0.070   1.484   3.612
 4060SOL     OW13078   6.700   6.269   4.798
 4060SOL    HW113079   6.628   6.262   4.729
 4060SOL    HW213080   6.742   6.179   4.811
 4061SOL     OW13081   1.165   5.377   0.503
 4061SOL    HW113082   1.215   5.367   0.589
 4061SOL    HW213083   1.153   5.475   0.483
 4062SOL     OW13084   1.767   2.951   1.386
 4062SOL    HW113085   1.854   2.909   1.360
 4062SOL    HW213086   1.709   2.962   1.305
 4063SOL     OW13087   4.146   0.620   0.258
 4063SOL    HW113088   4.152   0.694   0.191
 4063SOL    HW213089   4.231   0.618   0.312
 4064SOL     OW13090   1.687   1.421   5.815
 4064SOL    HW113091   1.705   1.367   5.897
 4064SOL    HW213092   1.762   1.486   5.800
 4065SOL     OW13093   2.808   6.255   0.838
 4065SOL    HW113094   2.715   6.230   0.862
 4065SOL    HW213095   2.807   6.326   0.768
 4066SOL     OW13096   0.674   3.768   3.584
 4066SOL    HW113097   0.587   3.816   3.579
 4066SOL    HW213098   0.732   3.812   3.652
 4067SOL     OW13099   5.326   5.217   0.732
 4067SOL    HW113100   5.425   5.206   0.739
 4067SOL    HW213101   5.283   5.191   0.819
 4068SOL     OW13102   2.247   2.969   4.694
 4068SOL    HW113103   2.283   3.012   4.777
 4068SOL    HW213104   2.243   2.870   4.707
 4069SOL     OW13105   4.151   6.721   6.446
 4069SOL    HW113106   4.151   6.624   6.467
 4069SOL    HW213107   4.077   6.766   6.497
 4070SOL     OW13108   1.303   3.376   3.617
 4070SOL    HW113109   1.336   3.283   3.633
 4070SOL    HW213110   1.203   3.378   3.630
 4071SOL     OW13111   1.058   0.827   3.867
 4071SOL    HW113112   1.071   0.744   3.812
 4071SOL    HW213113   1.031   0.802   3.960
 4072SOL     OW13114   2.629   5.096   3.087
 4072SOL    HW113115   2.591   5.023   3.031
 4072SOL    HW213116   2.667   5.168   3.028
 4073SOL     OW13117   3.987   4.650   0.307
 4073SOL    HW113118   3.953   4.717   0.241
 4073SOL    HW213119   3.923   4.574   0.314
 4074SOL     OW13120   1.774   5.183   2.936
 4074SOL    HW113121   1.686   5.212   2.975
 4074SOL    HW213122   1.846   5.196   3.004
 4075SOL     OW13123   6.674   1.246   0.990
 4075SOL    HW113124   6.577   1.268   1.001
 4075SOL    HW213125   6.729   1.319   1.028
 4076SOL     OW13126   2.300   4.208   5.268
 4076SOL    HW113127   2.352   4.129   5.236
 4076SOL    HW213128   2.215   4.215   5.216
 4077SOL     OW13129   2.823   0.471   1.860
 4077SOL    HW113130   2.806   0.565   1.887
 4077SOL    HW213131   2.882   0.427   1.928
 4078SOL     OW13132   3.011   5.028   2.416
 4078SOL    HW113133   3.034   4.963   2.344
 4078SOL    HW213134   3.065   5.010   2.497
 4079SOL     OW13135   0.839   2.078   4.192
 4079SOL    HW113136   0.931   2.040   4.205
 4079SOL    HW213137   0.771   2.011   4.221
 4080SOL     OW13138   6.132   1.884   5.184
 4080SOL    HW113139   6.038   1.892   5.150
 4080SOL    HW213140   6.179   1.810   5.135
 4081SOL     OW13141   1.637   3.266   3.829
 4081SOL    HW113142   1.576   3.335   3.869
 4081SOL    HW213143   1.667   3.204   3.901
 4082SOL     OW13144   0.981   3.142   1.383
 4082SOL    HW113145   0.999   3.095   1.469
 4082SOL    HW213146   0.943   3.077   1.317
 4083SOL     OW13147   5.725   2.858   4.648
 4083SOL    HW113148   5.807   2.800   4.652
 4083SOL    HW213149   5.651   2.809   4.603
 4084SOL     OW13150   0.354   1.597   4.088
 4084SOL    HW113151   0.410   1.516   4.105
 4084SOL    HW213152   0.414   1.675   4.070
 4085SOL     OW13153   2.845   6.053   0.629
 4085SOL    HW113154   2.864   6.146   0.661
 4085SOL    HW213155   2.746   6.039   0.624
 4086SOL     OW13156   1.312   5.294   0.282
 4086SOL    HW113157   1.396   5.265   0.327
 4086SOL    HW213158   1.246   5.323   0.351
 4087SOL     OW13159   1.472   1.748   2.504
 4087SOL    HW113160   1.437   1.787   2.589
 4087SOL    HW213161   1.420   1.784   2.426
 4088SOL     OW13162   6.821   2.145   0.881
 4088SOL    HW113163   6.825   2.225   0.941
 4088SOL    HW213164   6.914   2.114   0.859
 4089SOL     OW13165   0.844   1.352   5.072
 4089SOL    HW113166   0.849   1.333   4.974
 4089SOL    HW213167   0.930   1.394   5.101
 4090SOL     OW13168   1.992   4.723   5.430
 4090SOL    HW113169   1.995   4.627   5.402
 4090SOL    HW213170   2.074   4.744   5.483
 4091SOL     OW13171   4.764   6.304   0.536
 4091SOL    HW113172   4.669   6.274   0.544
 4091SOL    HW213173   4.823   6.241   0.588
 4092SOL     OW13174   0.426   2.377   4.937
 4092SOL    HW113175   0.332   2.383   4.969
 4092SOL    HW213176   0.463   2.469   4.924
 4093SOL     OW13177   5.889   1.094   4.513
 4093SOL    HW113178   5.922   1.001   4.531
 4093SOL    HW213179   5.957   1.160   4.545
 4094SOL     OW13180   2.582   4.435   5.206
 4094SOL    HW113181   2.682   4.436   5.202
 4094SOL    HW213182   2.551   4.345   5.235
 4095SOL     OW13183   1.241   3.534   6.378
 4095SOL    HW113184   1.262   3.579   6.291
 4095SOL    HW213185   1.225   3.603   6.448
 4096SOL     OW13186   4.207   4.805   1.980
 4096SOL    HW113187   4.252   4.890   1.952
 4096SOL    HW213188   4.248   4.728   1.931
 4097SOL     OW13189   3.086   3.516   5.259
 4097SOL    HW113190   3.014   3.572   5.218
 4097SOL    HW213191   3.147   3.483   5.187
 4098SOL     OW13192   0.413   2.159   2.758
 4098SOL    HW113193   0.397   2.060   2.757
 4098SOL    HW213194   0.440   2.189   2.667
 4099SOL     OW13195   4.262   6.164   2.107
 4099SOL    HW113196   4.257   6.136   2.203
 4099SOL    HW213197   4.186   6.123   2.056
 4100SOL     OW13198   3.965   5.841   3.120
 4100SOL    HW113199   3.866   5.829   3.127
 4100SOL    HW213200   4.010   5.754   3.138
 4101SOL     OW13201   5.624   1.103   6.235
 4101SOL    HW113202   5.641   1.138   6.143
 4101SOL    HW213203   5.707   1.060   6.270
 4102SOL     OW13204   6.092   1.463   0.576
 4102SOL    HW113205   6.044   1.410   0.645
 4102SOL    HW213206   6.188   1.471   0.600
 4103SOL     OW13207   0.558   0.252   2.337
 4103SOL    HW113208   0.461   0.261   2.357
 4103SOL    HW213209   0.611   0.261   2.422
 4104SOL     OW13210   1.687   4.916   2.919
 4104SOL    HW113211   1.691   4.909   3.018
 4104SOL    HW213212   1.714   5.008   2.891
 4105SOL     OW13213   5.164   4.687   6.985
 4105SOL    HW113214   5.165   4.709   6.887
 4105SOL    HW213215   5.071   4.691   0.002
 4106SOL     OW13216   6.725   3.610   5.316
 4106SOL    HW113217   6.651   3.676   5.331
 4106SOL    HW213218   6.687   3.519   5.303
 4107SOL     OW13219   0.024   0.762   0.920
 4107SOL    HW113220   0.027   0.678   0.867
 4107SOL    HW213221   6.955   0.809   0.903
 4108SOL     OW13222   6.237   3.498   5.682
 4108SOL    HW113223   6.261   3.404   5.707
 4108SOL    HW213224   6.138   3.509   5.685
 4109SOL     OW13225   3.419   6.015   3.617
 4109SOL    HW113226   3.421   5.950   3.692
 4109SOL    HW213227   3.396   5.967   3.532
 4110SOL     OW13228   4.902   3.132   5.553
 4110SOL    HW113229   4.822   3.086   5.515
 4110SOL    HW213230   4.872   3.213   5.603
 4111SOL     OW13231   4.494   3.087   6.818
 4111SOL    HW113232   4.432   3.166   6.820
 4111SOL    HW213233   4.546   3.084   6.903
 4112SOL     OW13234   3.644   1.144   4.048
 4112SOL    HW113235   3.687   1.190   3.970
 4112SOL    HW213236   3.698   1.161   4.131
 4113SOL     OW13237   3.670   5.279   4.574
 4113SOL    HW113238   3.683   5.274   4.674
 4113SOL    HW213239   3.642   5.189   4.540
 4114SOL     OW13240   2.917   1.968   2.481
 4114SOL    HW113241   2.946   2.038   2.417
 4114SOL    HW213242   2.949   1.991   2.573
 4115SOL     OW13243   5.222   4.710   2.000
 4115SOL    HW113244   5.300   4.661   1.960
 4115SOL    HW213245   5.234   4.808   1.987
 4116SOL     OW13246   2.795   1.142   2.140
 4116SOL    HW113247   2.700   1.131   2.111
 4116SOL    HW213248   2.797   1.181   2.232
 4117SOL     OW13249   1.193   5.772   1.388
 4117SOL    HW113250   1.143   5.695   1.428
 4117SOL    HW213251   1.131   5.823   1.328
 4118SOL     OW13252   2.383   6.629   0.257
 4118SOL    HW113253   2.320   6.691   0.305
 4118SOL    HW213254   2.330   6.557   0.212
 4119SOL     OW13255   4.160   0.894   3.765
 4119SOL    HW113256   4.145   0.975   3.709
 4119SOL    HW213257   4.148   0.918   3.862
 4120SOL     OW13258   3.852   0.646   1.469
 4120SOL    HW113259   3.876   0.740   1.494
 4120SOL    HW213260   3.843   0.591   1.552
 4121SOL     OW13261   6.427   2.933   5.151
 4121SOL    HW113262   6.411   3.014   5.095
 4121SOL    HW213263   6.452   2.856   5.092
 4122SOL     OW13264   1.657   5.863   6.077
 4122SOL    HW113265   1.570   5.847   6.122
 4122SOL    HW213266   1.675   5.790   6.011
 4123SOL     OW13267   5.259   3.841   6.532
 4123SOL    HW113268   5.191   3.798   6.592
 4123SOL    HW213269   5.216   3.916   6.482
 4124SOL     OW13270   5.105   6.867   4.016
 4124SOL    HW113271   5.126   6.963   4.000
 4124SOL    HW213272   5.141   6.812   3.942
 4125SOL     OW13273   4.896   1.306   1.122
 4125SOL    HW113274   4.935   1.341   1.207
 4125SOL    HW213275   4.813   1.356   1.100
 4126SOL     OW13276   2.056   4.538   4.236
 4126SOL    HW113277   2.132   4.602   4.249
 4126SOL    HW213278   2.071   4.484   4.153
 4127SOL     OW13279   6.518   3.630   5.634
 4127SOL    HW113280   6.452   3.701   5.656
 4127SOL    HW213281   6.500   3.549   5.691
 4128SOL     OW13282   0.938   1.996   3.017
 4128SOL    HW113283   1.024   2.040   2.990
 4128SOL    HW213284   0.904   2.037   3.101
 4129SOL     OW13285   5.470   2.450   5.797
 4129SOL    HW113286   5.400   2.447   5.726
 4129SOL    HW213287   5.560   2.438   5.755
 4130SOL     OW13288   5.832   4.062   0.804
 4130SOL    HW113289   5.887   3.996   0.854
 4130SOL    HW213290   5.889   4.110   0.737
 4131SOL     OW13291   6.572   4.600   3.274
 4131SOL    HW113292   6.599   4.591   3.370
 4131SOL    HW213293   6.474   4.619   3.268
 4132SOL     OW13294   5.315   2.515   3.847
 4132SOL    HW113295   5.223   2.530   3.813
 4132SOL    HW213296   5.323   2.551   3.940
 4133SOL     OW13297   3.554   1.546   1.180
 4133SOL    HW113298   3.520   1.456   1.154
 4133SOL    HW213299   3.613   1.538   1.261
 4134SOL     OW13300   0.944   1.343   6.826
 4134SOL    HW113301   0.899   1.323   6.914
 4134SOL    HW213302   0.929   1.440   6.803
 4135SOL     OW13303   1.167   0.609   1.330
 4135SOL    HW113304   1.170   0.643   1.424
 4135SOL    HW213305   1.072   0.595   1.303
 4136SOL     OW13306   1.176   2.167   3.460
 4136SOL    HW113307   1.242   2.228   3.416
 4136SOL    HW213308   1.096   2.156   3.401
 4137SOL     OW13309   3.206   4.462   6.338
 4137SOL    HW113310   3.261   4.518   6.277
 4137SOL    HW213311   3.111   4.462   6.308
 4138SOL     OW13312   4.270   4.992   3.456
 4138SOL    HW113313   4.239   4.984   3.361
 4138SOL    HW213314   4.336   5.067   3.464
 4139SOL     OW13315   2.174   1.217   6.640
 4139SOL    HW113316   2.166   1.155   6.718
 4139SOL    HW213317   2.182   1.311   6.672
 4140SOL     OW13318   4.558   1.479   5.047
 4140SOL    HW113319   4.585   1.391   5.087
 4140SOL    HW213320   4.551   1.548   5.119
 4141SOL     OW13321   5.186   5.677   0.547
 4141SOL    HW113322   5.201   5.609   0.620
 4141SOL    HW213323   5.263   5.673   0.483
 4142SOL     OW13324   6.273   3.953   1.480
 4142SOL    HW113325   6.208   3.896   1.429
 4142SOL    HW213326   6.307   4.026   1.421
 4143SOL     OW13327   0.448   2.770   1.250
 4143SOL    HW113328   0.367   2.815   1.287
 4143SOL    HW213329   0.486   2.825   1.176
 4144SOL     OW13330   4.369   0.687   2.635
 4144SOL    HW113331   4.433   0.711   2.708
 4144SOL    HW213332   4.413   0.627   2.570
 4145SOL     OW13333   2.255   6.661   2.568
 4145SOL    HW113334   2.204   6.695   2.647
 4145SOL    HW213335   2.207   6.583   2.528
 4146SOL     OW13336   5.281   6.002   0.319
 4146SOL    HW113337   5.367   5.980   0.366
 4146SOL    HW213338   5.302   6.055   0.237
 4147SOL     OW13339   3.298   2.196   5.674
 4147SOL    HW113340   3.210   2.198   5.721
 4147SOL    HW213341   3.294   2.130   5.599
 4148SOL     OW13342   6.221   0.606   3.512
 4148SOL    HW113343   6.123   0.629   3.520
 4148SOL    HW213344   6.274   0.669   3.567
 4149SOL     OW13345   5.273   3.896   1.950
 4149SOL    HW113346   5.332   3.856   2.020
 4149SOL    HW213347   5.283   3.843   1.865
 4150SOL     OW13348   5.130   0.607   6.634
 4150SOL    HW113349   5.188   0.559   6.568
 4150SOL    HW213350   5.041   0.562   6.639
 4151SOL     OW13351   0.693   5.448   0.730
 4151SOL    HW113352   0.756   5.407   0.665
 4151SOL    HW213353   0.618   5.492   0.681
 4152SOL     OW13354   3.529   4.328   1.330
 4152SOL    HW113355   3.532   4.292   1.423
 4152SOL    HW213356   3.456   4.282   1.279
 4153SOL     OW13357   6.266   4.923   5.742
 4153SOL    HW113358   6.200   4.983   5.788
 4153SOL    HW213359   6.358   4.942   5.776
 4154SOL     OW13360   5.156   2.984   5.897
 4154SOL    HW113361   5.079   2.944   5.847
 4154SOL    HW213362   5.238   2.928   5.882
 4155SOL     OW13363   0.926   3.305   1.767
 4155SOL    HW113364   0.993   3.348   1.706
 4155SOL    HW213365   0.930   3.347   1.857
 4156SOL     OW13366   6.113   6.963   5.462
 4156SOL    HW113367   6.165   6.878   5.452
 4156SOL    HW213368   6.026   6.955   5.414
 4157SOL     OW13369   3.562   1.017   4.788
 4157SOL    HW113370   3.612   1.078   4.727
 4157SOL    HW213371   3.567   0.924   4.754
 4158SOL     OW13372   0.979   6.719   3.983
 4158SOL    HW113373   1.049   6.680   4.042
 4158SOL    HW213374   0.976   6.670   3.896
 4159SOL     OW13375   0.786   2.991   4.957
 4159SOL    HW113376   0.790   3.086   4.989
 4159SOL    HW213377   0.750   2.934   5.030
 4160SOL     OW13378   1.426   0.861   0.833
 4160SOL    HW113379   1.518   0.834   0.804
 4160SOL    HW213380   1.370   0.779   0.845
 4161SOL     OW13381   6.268   1.791   0.468
 4161SOL    HW113382   6.183   1.814   0.421
 4161SOL    HW213383   6.296   1.867   0.527
 4162SOL     OW13384   6.303   0.126   5.530
 4162SOL    HW113385   6.375   0.116   5.462
 4162SOL    HW213386   6.224   0.070   5.503
 4163SOL     OW13387   5.519   1.443   3.998
 4163SOL    HW113388   5.572   1.484   4.073
 4163SOL    HW213389   5.477   1.358   4.030
 4164SOL     OW13390   2.234   0.287   5.929
 4164SOL    HW113391   2.200   0.362   5.872
 4164SOL    HW213392   2.229   0.202   5.878
 4165SOL     OW13393   3.941   6.459   2.232
 4165SOL    HW113394   3.982   6.515   2.160
 4165SOL    HW213395   3.924   6.367   2.198
 4166SOL     OW13396   5.698   2.767   0.994
 4166SOL    HW113397   5.735   2.856   1.021
 4166SOL    HW213398   5.648   2.727   1.071
 4167SOL     OW13399   1.644   2.617   1.485
 4167SOL    HW113400   1.592   2.641   1.403
 4167SOL    HW213401   1.633   2.689   1.554
 4168SOL     OW13402   1.291   5.142   0.916
 4168SOL    HW113403   1.327   5.048   0.911
 4168SOL    HW213404   1.309   5.189   0.829
 4169SOL     OW13405   5.782   3.578   4.592
 4169SOL    HW113406   5.693   3.584   4.637
 4169SOL    HW213407   5.770   3.578   4.493
 4170SOL     OW13408   4.816   2.488   5.706
 4170SOL    HW113409   4.804   2.432   5.625
 4170SOL    HW213410   4.793   2.583   5.685
 4171SOL     OW13411   5.921   4.005   2.000
 4171SOL    HW113412   5.840   3.962   2.040
 4171SOL    HW213413   5.915   4.104   2.010
 4172SOL     OW13414   1.894   1.911   0.163
 4172SOL    HW113415   1.836   1.938   0.240
 4172SOL    HW213416   1.922   1.993   0.112
 4173SOL     OW13417   5.247   3.642   5.338
 4173SOL    HW113418   5.157   3.679   5.315
 4173SOL    HW213419   5.298   3.709   5.391
 4174SOL     OW13420   4.986   0.932   4.467
 4174SOL    HW113421   5.012   0.852   4.413
 4174SOL    HW213422   4.960   0.902   4.559
 4175SOL     OW13423   3.137   0.806   2.816
 4175SOL    HW113424   3.083   0.888   2.796
 4175SOL    HW213425   3.232   0.821   2.787
 4176SOL     OW13426   5.659   6.339   2.796
 4176SOL    HW113427   5.702   6.390   2.721
 4176SOL    HW213428   5.628   6.402   2.866
 4177SOL     OW13429   6.911   5.745   2.574
 4177SOL    HW113430   6.920   5.817   2.643
 4177SOL    HW213431   6.827   5.759   2.521
 4178SOL     OW13432   3.767   2.453   5.743
 4178SOL    HW113433   3.779   2.355   5.754
 4178SOL    HW213434   3.705   2.487   5.814
 4179SOL     OW13435   5.618   3.230   6.235
 4179SOL    HW113436   5.599   3.318   6.278
 4179SOL    HW213437   5.562   3.220   6.153
 4180SOL     OW13438   4.342   3.776   1.703
 4180SOL    HW113439   4.289   3.775   1.619
 4180SOL    HW213440   4.415   3.844   1.696
 4181SOL     OW13441   0.508   1.064   6.700
 4181SOL    HW113442   0.585   1.024   6.651
 4181SOL    HW213443   0.527   1.062   6.799
 4182SOL     OW13444   5.396   1.228   3.638
 4182SOL    HW113445   5.495   1.221   3.631
 4182SOL    HW213446   5.364   1.173   3.716
 4183SOL     OW13447   1.299   1.601   1.232
 4183SOL    HW113448   1.371   1.614   1.301
 4183SOL    HW213449   1.341   1.594   1.141
 4184SOL     OW13450   4.594   5.623   0.468
 4184SOL    HW113451   4.601   5.542   0.525
 4184SOL    HW213452   4.607   5.705   0.524
 4185SOL     OW13453   0.179   0.205   4.256
 4185SOL    HW113454   0.264   0.254   4.237
 4185SOL    HW213455   0.154   0.148   4.177
 4186SOL     OW13456   2.976   4.299   0.960
 4186SOL    HW113457   2.971   4.397   0.983
 4186SOL    HW213458   3.040   4.287   0.884
 4187SOL     OW13459   4.437   4.043   6.904
 4187SOL    HW113460   4.397   4.116   6.960
 4187SOL    HW213461   4.527   4.072   6.871
 4188SOL     OW13462   4.786   6.447   4.618
 4188SOL    HW113463   4.830   6.517   4.675
 4188SOL    HW213464   4.834   6.439   4.531
 4189SOL     OW13465   2.238   2.783   3.810
 4189SOL    HW113466   2.152   2.798   3.859
 4189SOL    HW213467   2.306   2.851   3.839
 4190SOL     OW13468   3.128   0.356   1.438
 4190SOL    HW113469   3.174   0.366   1.350
 4190SOL    HW213470   3.030   0.338   1.423
 4191SOL     OW13471   6.419   1.757   2.469
 4191SOL    HW113472   6.390   1.773   2.375
 4191SOL    HW213473   6.499   1.697   2.470
 4192SOL     OW13474   6.382   1.745   3.365
 4192SOL    HW113475   6.435   1.790   3.293
 4192SOL    HW213476   6.340   1.662   3.329
 4193SOL     OW13477   1.579   0.011   1.918
 4193SOL    HW113478   1.673   0.045   1.921
 4193SOL    HW213479   1.538   0.020   2.009
 4194SOL     OW13480   0.388   0.516   4.503
 4194SOL    HW113481   0.316   0.509   4.435
 4194SOL    HW213482   0.348   0.517   4.595
 4195SOL     OW13483   4.776   0.572   1.990
 4195SOL    HW113484   4.872   0.598   1.984
 4195SOL    HW213485   4.719   0.652   1.975
 4196SOL     OW13486   4.559   2.557   3.308
 4196SOL    HW113487   4.499   2.546   3.229
 4196SOL    HW213488   4.528   2.496   3.381
 4197SOL     OW13489   4.421   4.573   3.969
 4197SOL    HW113490   4.461   4.655   4.008
 4197SOL    HW213491   4.330   4.593   3.934
 4198SOL     OW13492   5.568   3.608   5.786
 4198SOL    HW113493   5.640   3.653   5.732
 4198SOL    HW213494   5.585   3.624   5.883
 4199SOL     OW13495   3.095   4.128   5.043
 4199SOL    HW113496   3.136   4.106   4.955
 4199SOL    HW213497   3.018   4.190   5.030
 4200SOL     OW13498   2.203   0.092   6.312
 4200SOL    HW113499   2.247   0.171   6.269
 4200SOL    HW213500   2.252   0.068   6.396
 4201SOL     OW13501   5.806   6.269   4.348
 4201SOL    HW113502   5.897   6.232   4.369
 4201SOL    HW213503   5.780   6.241   4.255
 4202SOL     OW13504   5.486   4.458   4.286
 4202SOL    HW113505   5.436   4.381   4.246
 4202SOL    HW213506   5.421   4.526   4.318
 4203SOL     OW13507   5.250   5.588   3.604
 4203SOL    HW113508   5.306   5.581   3.521
 4203SOL    HW213509   5.186   5.511   3.608
 4204SOL     OW13510   3.241   3.807   0.524
 4204SOL    HW113511   3.257   3.886   0.583
 4204SOL    HW213512   3.271   3.724   0.571
 4205SOL     OW13513   2.594   5.507   2.927
 4205SOL    HW113514   2.541   5.532   3.008
 4205SOL    HW213515   2.538   5.451   2.866
 4206SOL     OW13516   5.934   0.024   4.490
 4206SOL    HW113517   5.903   6.991   4.410
 4206SOL    HW213518   5.975   6.979   4.556
 4207SOL     OW13519   0.885   0.586   1.275
 4207SOL    HW113520   0.839   0.511   1.322
 4207SOL    HW213521   0.821   0.661   1.262
 4208SOL     OW13522   1.058   3.448   1.594
 4208SOL    HW113523   1.129   3.497   1.544
 4208SOL    HW213524   0.968   3.484   1.568
 4209SOL     OW13525   2.979   0.263   4.940
 4209SOL    HW113526   3.058   0.315   4.907
 4209SOL    HW213527   2.994   0.237   5.035
 4210SOL     OW13528   5.064   2.563   0.580
 4210SOL    HW113529   5.162   2.569   0.602
 4210SOL    HW213530   5.053   2.515   0.493
 4211SOL     OW13531   4.753   4.133   3.589
 4211SOL    HW113532   4.838   4.164   3.632
 4211SOL    HW213533   4.763   4.038   3.561
 4212SOL     OW13534   6.561   0.123   2.315
 4212SOL    HW113535   6.571   0.129   2.216
 4212SOL    HW213536   6.467   0.098   2.338
 4213SOL     OW13537   0.827   0.836   2.246
 4213SOL    HW113538   0.760   0.764   2.263
 4213SOL    HW213539   0.902   0.828   2.311
 4214SOL     OW13540   1.748   3.914   4.469
 4214SOL    HW113541   1.818   3.867   4.523
 4214SOL    HW213542   1.770   4.011   4.464
 4215SOL     OW13543   0.798   5.398   4.392
 4215SOL    HW113544   0.894   5.399   4.366
 4215SOL    HW213545   0.769   5.489   4.420
 4216SOL     OW13546   1.743   3.348   5.298
 4216SOL    HW113547   1.793   3.288   5.361
 4216SOL    HW213548   1.771   3.328   5.204
 4217SOL     OW13549   6.734   0.466   3.486
 4217SOL    HW113550   6.745   0.503   3.394
 4217SOL    HW213551   6.785   0.523   3.551
 4218SOL     OW13552   3.435   6.697   3.123
 4218SOL    HW113553   3.471   6.743   3.042
 4218SOL    HW213554   3.344   6.662   3.103
 4219SOL     OW13555   4.813   6.320   3.435
 4219SOL    HW113556   4.909   6.348   3.427
 4219SOL    HW213557   4.810   6.223   3.461
 4220SOL     OW13558   0.388   3.641   3.511
 4220SOL    HW113559   0.452   3.612   3.582
 4220SOL    HW213560   0.334   3.563   3.480
 4221SOL     OW13561   5.435   5.545   6.110
 4221SOL    HW113562   5.353   5.498   6.075
 4221SOL    HW213563   5.461   5.505   6.198
 4222SOL     OW13564   4.138   2.640   0.103
 4222SOL    HW113565   4.171   2.700   0.176
 4222SOL    HW213566   4.188   2.658   0.019
 4223SOL     OW13567   3.835   3.960   2.662
 4223SOL    HW113568   3.843   3.967   2.563
 4223SOL    HW213569   3.754   4.010   2.692
 4224SOL     OW13570   4.396   2.207   5.171
 4224SOL    HW113571   4.437   2.293   5.139
 4224SOL    HW213572   4.297   2.218   5.177
 4225SOL     OW13573   5.242   0.682   4.956
 4225SOL    HW113574   5.170   0.749   4.934
 4225SOL    HW213575   5.303   0.673   4.878
 4226SOL     OW13576   1.526   0.838   3.324
 4226SOL    HW113577   1.568   0.918   3.366
 4226SOL    HW213578   1.474   0.787   3.393
 4227SOL     OW13579   5.792   4.296   0.386
 4227SOL    HW113580   5.880   4.337   0.360
 4227SOL    HW213581   5.724   4.367   0.402
 4228SOL     OW13582   6.219   5.548   2.452
 4228SOL    HW113583   6.161   5.620   2.413
 4228SOL    HW213584   6.192   5.531   2.547
 4229SOL     OW13585   4.880   4.937   5.465
 4229SOL    HW113586   4.781   4.951   5.466
 4229SOL    HW213587   4.922   5.003   5.403
 4230SOL     OW13588   3.283   0.102   4.228
 4230SOL    HW113589   3.220   0.074   4.156
 4230SOL    HW213590   3.241   0.176   4.281
 4231SOL     OW13591   3.951   6.204   5.436
 4231SOL    HW113592   3.933   6.116   5.480
 4231SOL    HW213593   3.941   6.277   5.503
 4232SOL     OW13594   2.110   4.006   1.830
 4232SOL    HW113595   2.087   3.909   1.831
 4232SOL    HW213596   2.209   4.016   1.820
 4233SOL     OW13597   5.467   0.053   1.310
 4233SOL    HW113598   5.527   6.992   1.324
 4233SOL    HW213599   5.374   0.022   1.289
 4234SOL     OW13600   3.302   3.978   5.372
 4234SOL    HW113601   3.281   3.898   5.315
 4234SOL    HW213602   3.301   4.060   5.315
 4235SOL     OW13603   6.880   3.342   5.835
 4235SOL    HW113604   6.809   3.289   5.881
 4235SOL    HW213605   6.838   3.405   5.770
 4236SOL     OW13606   1.059   4.215   4.979
 4236SOL    HW113607   1.002   4.276   5.035
 4236SOL    HW213608   1.063   4.250   4.885
 4237SOL     OW13609   5.041   4.428   4.296
 4237SOL    HW113610   5.032   4.493   4.221
 4237SOL    HW213611   5.058   4.477   4.382
 4238SOL     OW13612   4.047   4.890   3.846
 4238SOL    HW113613   4.060   4.957   3.772
 4238SOL    HW213614   3.951   4.865   3.852
 4239SOL     OW13615   4.866   5.554   5.972
 4239SOL    HW113616   4.874   5.523   6.067
 4239SOL    HW213617   4.883   5.653   5.969
 4240SOL     OW13618   2.763   4.441   6.526
 4240SOL    HW113619   2.701   4.511   6.492
 4240SOL    HW213620   2.843   4.485   6.567
 4241SOL     OW13621   3.641   0.990   0.088
 4241SOL    HW113622   3.681   0.978   0.178
 4241SOL    HW213623   3.588   1.075   0.085
 4242SOL     OW13624   1.506   0.247   2.494
 4242SOL    HW113625   1.519   0.243   2.395
 4242SOL    HW213626   1.429   0.307   2.515
 4243SOL     OW13627   1.562   2.968   3.546
 4243SOL    HW113628   1.572   2.870   3.563
 4243SOL    HW213629   1.466   2.994   3.557
 4244SOL     OW13630   3.387   6.218   1.536
 4244SOL    HW113631   3.356   6.135   1.491
 4244SOL    HW213632   3.317   6.289   1.527
 4245SOL     OW13633   6.836   3.316   1.875
 4245SOL    HW113634   6.813   3.270   1.789
 4245SOL    HW213635   6.752   3.353   1.915
 4246SOL     OW13636   4.330   2.252   4.101
 4246SOL    HW113637   4.243   2.258   4.149
 4246SOL    HW213638   4.403   2.232   4.166
 4247SOL     OW13639   2.104   4.532   6.268
 4247SOL    HW113640   2.089   4.436   6.289
 4247SOL    HW213641   2.200   4.555   6.283
 4248SOL     OW13642   1.570   7.004   2.912
 4248SOL    HW113643   1.636   6.994   2.987
 4248SOL    HW213644   1.601   6.950   2.834
 4249SOL     OW13645   6.683   6.982   5.516
 4249SOL    HW113646   6.743   7.017   5.445
 4249SOL    HW213647   6.632   6.904   5.480
 4250SOL     OW13648   6.290   5.746   4.115
 4250SOL    HW113649   6.246   5.786   4.034
 4250SOL    HW213650   6.225   5.746   4.191
 4251SOL     OW13651   6.238   2.598   5.616
 4251SOL    HW113652   6.221   2.509   5.574
 4251SOL    HW213653   6.286   2.657   5.551
 4252SOL     OW13654   0.265   6.501   7.013
 4252SOL    HW113655   0.300   6.420   0.043
 4252SOL    HW213656   0.230   6.566   0.062
 4253SOL     OW13657   4.518   5.423   2.749
 4253SOL    HW113658   4.530   5.327   2.724
 4253SOL    HW213659   4.454   5.430   2.826
 4254SOL     OW13660   2.154   2.545   6.001
 4254SOL    HW113661   2.089   2.513   6.070
 4254SOL    HW213662   2.151   2.644   5.995
 4255SOL     OW13663   1.224   3.299   3.267
 4255SOL    HW113664   1.277   3.361   3.208
 4255SOL    HW213665   1.287   3.243   3.320
 4256SOL     OW13666   0.297   6.009   1.136
 4256SOL    HW113667   0.337   6.082   1.191
 4256SOL    HW213668   0.358   5.930   1.136
 4257SOL     OW13669   6.640   7.016   4.179
 4257SOL    HW113670   6.606   0.075   4.233
 4257SOL    HW213671   6.592   7.014   4.091
 4258SOL     OW13672   3.028   5.654   0.883
 4258SOL    HW113673   2.960   5.675   0.953
 4258SOL    HW213674   2.995   5.578   0.827
 4259SOL     OW13675   1.210   0.452   0.313
 4259SOL    HW113676   1.280   0.484   0.376
 4259SOL    HW213677   1.135   0.518   0.310
 4260SOL     OW13678   5.467   0.921   4.449
 4260SOL    HW113679   5.497   0.968   4.532
 4260SOL    HW213680   5.470   0.822   4.464
 4261SOL     OW13681   2.678   6.301   4.261
 4261SOL    HW113682   2.732   6.382   4.282
 4261SOL    HW213683   2.691   6.275   4.165
 4262SOL     OW13684   2.551   4.530   6.394
 4262SOL    HW113685   2.453   4.544   6.408
 4262SOL    HW213686   2.572   4.537   6.296
 4263SOL     OW13687   1.727   1.935   3.653
 4263SOL    HW113688   1.802   1.890   3.703
 4263SOL    HW213689   1.717   2.029   3.686
 4264SOL     OW13690   4.856   1.873   5.551
 4264SOL    HW113691   4.766   1.903   5.520
 4264SOL    HW213692   4.883   1.791   5.501
 4265SOL     OW13693   2.193   0.047   5.825
 4265SOL    HW113694   2.112   0.048   5.885
 4265SOL    HW213695   2.165   0.030   5.731
 4266SOL     OW13696   1.511   5.088   1.624
 4266SOL    HW113697   1.433   5.109   1.564
 4266SOL    HW213698   1.595   5.122   1.582
 4267SOL     OW13699   1.061   4.198   4.650
 4267SOL    HW113700   1.040   4.142   4.730
 4267SOL    HW213701   1.030   4.151   4.567
 4268SOL     OW13702   1.256   3.954   6.134
 4268SOL    HW113703   1.205   3.919   6.213
 4268SOL    HW213704   1.266   4.053   6.142
 4269SOL     OW13705   2.937   1.280   5.060
 4269SOL    HW113706   2.921   1.364   5.112
 4269SOL    HW213707   2.858   1.220   5.068
 4270SOL     OW13708   3.535   3.132   0.195
 4270SOL    HW113709   3.623   3.092   0.222
 4270SOL    HW213710   3.539   3.160   0.100
 4271SOL     OW13711   6.854   1.038   1.467
 4271SOL    HW113712   6.781   1.025   1.534
 4271SOL    HW213713   6.830   0.992   1.382
 4272SOL     OW13714   6.734   0.831   6.246
 4272SOL    HW113715   6.702   0.873   6.330
 4272SOL    HW213716   6.660   0.827   6.180
 4273SOL     OW13717   2.811   6.007   4.466
 4273SOL    HW113718   2.833   5.939   4.536
 4273SOL    HW213719   2.724   5.984   4.423
 4274SOL     OW13720   6.853   1.373   2.397
 4274SOL    HW113721   6.926   1.399   2.335
 4274SOL    HW213722   6.773   1.431   2.381
 4275SOL     OW13723   0.391   2.368   3.433
 4275SOL    HW113724   0.332   2.302   3.480
 4275SOL    HW213725   0.477   2.377   3.482
 4276SOL     OW13726   2.175   5.921   2.983
 4276SOL    HW113727   2.098   5.909   2.920
 4276SOL    HW213728   2.188   5.837   3.035
 4277SOL     OW13729   6.740   5.572   3.047
 4277SOL    HW113730   6.800   5.495   3.026
 4277SOL    HW213731   6.645   5.545   3.036
 4278SOL     OW13732   1.290   6.885   1.251
 4278SOL    HW113733   1.264   6.964   1.196
 4278SOL    HW213734   1.220   6.868   1.320
 4279SOL     OW13735   0.906   1.721   4.033
 4279SOL    HW113736   1.002   1.694   4.040
 4279SOL    HW213737   0.882   1.734   3.936
 4280SOL     OW13738   2.043   6.360   6.417
 4280SOL    HW113739   2.009   6.423   6.347
 4280SOL    HW213740   2.052   6.268   6.378
 4281SOL     OW13741   5.544   5.941   3.071
 4281SOL    HW113742   5.636   5.955   3.108
 4281SOL    HW213743   5.527   5.843   3.061
 4282SOL     OW13744   4.645   5.406   2.014
 4282SOL    HW113745   4.715   5.336   1.994
 4282SOL    HW213746   4.604   5.437   1.929
 4283SOL     OW13747   4.955   1.503   4.725
 4283SOL    HW113748   4.858   1.476   4.720
 4283SOL    HW213749   4.985   1.499   4.820
 4284SOL     OW13750   4.567   5.164   6.504
 4284SOL    HW113751   4.571   5.108   6.422
 4284SOL    HW213752   4.473   5.167   6.538
 4285SOL     OW13753   3.780   1.188   6.177
 4285SOL    HW113754   3.708   1.246   6.139
 4285SOL    HW213755   3.763   1.174   6.275
 4286SOL     OW13756   6.057   0.613   6.486
 4286SOL    HW113757   6.115   0.574   6.557
 4286SOL    HW213758   6.105   0.687   6.440
 4287SOL     OW13759   3.503   0.929   1.319
 4287SOL    HW113760   3.441   0.851   1.328
 4287SOL    HW213761   3.450   1.013   1.310
 4288SOL     OW13762   7.011   6.103   2.038
 4288SOL    HW113763   6.984   6.074   1.946
 4288SOL    HW213764   0.092   6.093   2.048
 4289SOL     OW13765   0.281   4.734   4.641
 4289SOL    HW113766   0.357   4.688   4.686
 4289SOL    HW213767   0.259   4.686   4.555
 4290SOL     OW13768   0.442   1.289   3.107
 4290SOL    HW113769   0.519   1.299   3.044
 4290SOL    HW213770   0.457   1.349   3.186
 4291SOL     OW13771   3.810   4.374   6.230
 4291SOL    HW113772   3.723   4.327   6.214
 4291SOL    HW213773   3.871   4.315   6.282
 4292SOL     OW13774   6.469   1.436   1.692
 4292SOL    HW113775   6.530   1.420   1.769
 4292SOL    HW213776   6.377   1.402   1.713
 4293SOL     OW13777   3.730   2.899   0.176
 4293SOL    HW113778   3.653   2.877   0.116
 4293SOL    HW213779   3.808   2.929   0.121
 4294SOL     OW13780   2.495   1.741   6.598
 4294SOL    HW113781   2.521   1.829   6.557
 4294SOL    HW213782   2.511   1.744   6.696
 4295SOL     OW13783   4.435   6.228   2.999
 4295SOL    HW113784   4.475   6.185   2.918
 4295SOL    HW213785   4.406   6.321   2.977
 4296SOL     OW13786   2.647   6.603   2.715
 4296SOL    HW113787   2.730   6.634   2.761
 4296SOL    HW213788   2.671   6.559   2.629
 4297SOL     OW13789   5.322   5.232   0.440
 4297SOL    HW113790   5.306   5.212   0.537
 4297SOL    HW213791   5.235   5.229   0.390
 4298SOL     OW13792   1.857   0.491   0.500
 4298SOL    HW113793   1.951   0.482   0.533
 4298SOL    HW213794   1.853   0.468   0.403
 4299SOL     OW13795   1.225   2.621   6.892
 4299SOL    HW113796   1.307   2.632   6.949
 4299SOL    HW213797   1.165   2.553   6.934
 4300SOL     OW13798   2.862   0.188   1.629
 4300SOL    HW113799   2.952   0.199   1.669
 4300SOL    HW213800   2.839   0.269   1.575
 4301SOL     OW13801   2.313   5.837   6.799
 4301SOL    HW113802   2.375   5.759   6.804
 4301SOL    HW213803   2.277   5.856   6.890
 4302SOL     OW13804   2.954   4.823   5.753
 4302SOL    HW113805   2.897   4.901   5.728
 4302SOL    HW213806   3.005   4.792   5.673
 4303SOL     OW13807   5.011   5.532   3.065
 4303SOL    HW113808   4.925   5.520   3.015
 4303SOL    HW213809   5.037   5.446   3.109
 4304SOL     OW13810   3.249   4.035   1.346
 4304SOL    HW113811   3.293   4.066   1.263
 4304SOL    HW213812   3.310   3.973   1.396
 4305SOL     OW13813   1.208   6.445   5.960
 4305SOL    HW113814   1.122   6.434   5.911
 4305SOL    HW213815   1.213   6.537   5.999
 4306SOL     OW13816   5.481   4.178   4.910
 4306SOL    HW113817   5.471   4.277   4.896
 4306SOL    HW213818   5.423   4.129   4.846
 4307SOL     OW13819   0.266   0.882   5.731
 4307SOL    HW113820   0.326   0.894   5.810
 4307SOL    HW213821   0.321   0.867   5.649
 4308SOL     OW13822   4.833   5.531   6.266
 4308SOL    HW113823   4.885   5.446   6.267
 4308SOL    HW213824   4.756   5.524   6.329
 4309SOL     OW13825   1.175   1.090   0.055
 4309SOL    HW113826   1.201   1.179   0.017
 4309SOL    HW213827   1.228   1.018   0.010
 4310SOL     OW13828   6.698   2.313   3.021
 4310SOL    HW113829   6.639   2.386   2.987
 4310SOL    HW213830   6.790   2.325   2.984
 4311SOL     OW13831   0.637   6.825   1.654
 4311SOL    HW113832   0.687   6.738   1.665
 4311SOL    HW213833   0.699   6.894   1.616
 4312SOL     OW13834   6.498   4.683   2.470
 4312SOL    HW113835   6.597   4.686   2.457
 4312SOL    HW213836   6.462   4.598   2.430
 4313SOL     OW13837   0.233   3.058   6.569
 4313SOL    HW113838   0.280   3.134   6.524
 4313SOL    HW213839   0.254   3.060   6.667
 4314SOL     OW13840   0.849   1.598   6.369
 4314SOL    HW113841   0.760   1.630   6.335
 4314SOL    HW213842   0.904   1.564   6.293
 4315SOL     OW13843   2.735   1.096   5.062
 4315SOL    HW113844   2.715   1.014   5.115
 4315SOL    HW213845   2.651   1.146   5.044
 4316SOL     OW13846   4.568   6.048   1.693
 4316SOL    HW113847   4.505   5.989   1.644
 4316SOL    HW213848   4.657   6.002   1.702
 4317SOL     OW13849   4.976   0.619   5.917
 4317SOL    HW113850   4.907   0.547   5.909
 4317SOL    HW213851   4.930   0.706   5.937
 4318SOL     OW13852   0.855   6.534   4.428
 4318SOL    HW113853   0.946   6.566   4.403
 4318SOL    HW213854   0.862   6.464   4.499
 4319SOL     OW13855   1.077   4.035   2.474
 4319SOL    HW113856   1.088   4.003   2.567
 4319SOL    HW213857   0.992   4.088   2.467
 4320SOL     OW13858   3.491   0.261   0.420
 4320SOL    HW113859   3.520   0.183   0.476
 4320SOL    HW213860   3.442   0.327   0.476
 4321SOL     OW13861   6.551   6.498   3.120
 4321SOL    HW113862   6.453   6.509   3.109
 4321SOL    HW213863   6.572   6.464   3.211
 4322SOL     OW13864   1.891   2.293   4.903
 4322SOL    HW113865   1.947   2.257   4.977
 4322SOL    HW213866   1.796   2.303   4.935
 4323SOL     OW13867   4.792   5.007   0.168
 4323SOL    HW113868   4.768   5.035   0.261
 4323SOL    HW213869   4.713   5.020   0.109
 4324SOL     OW13870   1.076   4.757   5.587
 4324SOL    HW113871   1.031   4.758   5.676
 4324SOL    HW213872   1.031   4.691   5.527
 4325SOL     OW13873   2.267   6.981   2.336
 4325SOL    HW113874   2.245   6.973   2.433
 4325SOL    HW213875   2.356   0.007   2.325
 4326SOL     OW13876   5.119   2.170   1.913
 4326SOL    HW113877   5.091   2.230   1.988
 4326SOL    HW213878   5.177   2.097   1.948
 4327SOL     OW13879   2.634   5.541   3.629
 4327SOL    HW113880   2.662   5.532   3.724
 4327SOL    HW213881   2.635   5.451   3.585
 4328SOL     OW13882   6.582   0.285   4.006
 4328SOL    HW113883   6.675   0.259   3.979
 4328SOL    HW213884   6.530   0.203   4.030
 4329SOL     OW13885   6.849   2.605   6.852
 4329SOL    HW113886   6.904   2.681   6.886
 4329SOL    HW213887   6.908   2.526   6.834
 4330SOL     OW13888   2.638   5.241   4.499
 4330SOL    HW113889   2.701   5.289   4.561
 4330SOL    HW213890   2.573   5.306   4.461
 4331SOL     OW13891   5.911   2.187   1.877
 4331SOL    HW113892   5.955   2.151   1.959
 4331SOL    HW213893   5.907   2.116   1.807
 4332SOL     OW13894   1.236   5.259   1.561
 4332SOL    HW113895   1.283   5.325   1.619
 4332SOL    HW213896   1.159   5.218   1.611
 4333SOL     OW13897   4.304   2.212   6.101
 4333SOL    HW113898   4.309   2.135   6.037
 4333SOL    HW213899   4.350   2.187   6.186
 4334SOL     OW13900   0.336   2.708   4.301
 4334SOL    HW113901   0.346   2.650   4.382
 4334SOL    HW213902   0.320   2.802   4.330
 4335SOL     OW13903   2.689   3.894   1.384
 4335SOL    HW113904   2.611   3.886   1.322
 4335SOL    HW213905   2.771   3.914   1.332
 4336SOL     OW13906   2.735   6.051   5.232
 4336SOL    HW113907   2.667   6.012   5.293
 4336SOL    HW213908   2.693   6.125   5.178
 4337SOL     OW13909   0.725   5.159   3.752
 4337SOL    HW113910   0.711   5.122   3.844
 4337SOL    HW213911   0.645   5.212   3.724
 4338SOL     OW13912   3.179   2.447   5.849
 4338SOL    HW113913   3.109   2.407   5.790
 4338SOL    HW213914   3.270   2.423   5.813
 4339SOL     OW13915   4.112   4.954   5.988
 4339SOL    HW113916   4.065   4.950   6.076
 4339SOL    HW213917   4.061   4.902   5.920
 4340SOL     OW13918   6.380   4.086   1.690
 4340SOL    HW113919   6.347   4.018   1.624
 4340SOL    HW213920   6.303   4.116   1.747
 4341SOL     OW13921   6.326   6.095   1.449
 4341SOL    HW113922   6.297   6.011   1.495
 4341SOL    HW213923   6.366   6.157   1.517
 4342SOL     OW13924   5.025   3.660   2.351
 4342SOL    HW113925   4.960   3.731   2.323
 4342SOL    HW213926   5.008   3.577   2.298
 4343SOL     OW13927   3.756   6.688   5.915
 4343SOL    HW113928   3.840   6.633   5.919
 4343SOL    HW213929   3.738   6.714   5.821
 4344SOL     OW13930   6.981   3.895   2.956
 4344SOL    HW113931   0.058   3.879   2.983
 4344SOL    HW213932   6.930   3.810   2.962
 4345SOL     OW13933   3.257   3.134   2.742
 4345SOL    HW113934   3.278   3.129   2.645
 4345SOL    HW213935   3.305   3.212   2.783
 4346SOL     OW13936   1.411   2.818   2.717
 4346SOL    HW113937   1.320   2.846   2.747
 4346SOL    HW213938   1.479   2.849   2.783
 4347SOL     OW13939   6.763   5.538   0.402
 4347SOL    HW113940   6.670   5.561   0.430
 4347SOL    HW213941   6.828   5.598   0.449
 4348SOL     OW13942   5.803   5.140   4.664
 4348SOL    HW113943   5.814   5.056   4.611
 4348SOL    HW213944   5.810   5.119   4.761
 4349SOL     OW13945   0.217   3.255   4.161
 4349SOL    HW113946   0.182   3.162   4.162
 4349SOL    HW213947   0.301   3.260   4.215
 4350SOL     OW13948   3.675   0.894   3.912
 4350SOL    HW113949   3.578   0.890   3.890
 4350SOL    HW213950   3.695   0.980   3.960
 4351SOL     OW13951   0.610   5.533   0.365
 4351SOL    HW113952   0.645   5.442   0.343
 4351SOL    HW213953   0.572   5.532   0.457
 4352SOL     OW13954   3.568   5.115   1.648
 4352SOL    HW113955   3.597   5.205   1.616
 4352SOL    HW213956   3.471   5.117   1.671
 4353SOL     OW13957   2.490   2.761   0.921
 4353SOL    HW113958   2.583   2.725   0.932
 4353SOL    HW213959   2.480   2.845   0.975
 4354SOL     OW13960   5.831   6.562   2.611
 4354SOL    HW113961   5.887   6.536   2.690
 4354SOL    HW213962   5.878   6.633   2.559
 4355SOL     OW13963   1.876   5.010   2.471
 4355SOL    HW113964   1.910   5.025   2.563
 4355SOL    HW213965   1.779   5.036   2.467
 4356SOL     OW13966   6.359   2.778   5.431
 4356SOL    HW113967   6.318   2.853   5.484
 4356SOL    HW213968   6.405   2.816   5.350
 4357SOL     OW13969   5.442   0.525   1.881
 4357SOL    HW113970   5.524   0.535   1.937
 4357SOL    HW213971   5.439   0.598   1.813
 4358SOL     OW13972   3.096   0.136   0.415
 4358SOL    HW113973   3.069   0.145   0.319
 4358SOL    HW213974   3.110   0.227   0.454
 4359SOL     OW13975   3.116   1.841   1.040
 4359SOL    HW113976   3.042   1.799   0.986
 4359SOL    HW213977   3.175   1.770   1.076
 4360SOL     OW13978   2.423   4.838   4.007
 4360SOL    HW113979   2.392   4.827   3.912
 4360SOL    HW213980   2.388   4.763   4.063
 4361SOL     OW13981   0.035   2.059   0.269
 4361SOL    HW113982   0.051   1.960   0.260
 4361SOL    HW213983   0.099   2.109   0.211
 4362SOL     OW13984   0.947   5.477   3.296
 4362SOL    HW113985   1.003   5.554   3.265
 4362SOL    HW213986   0.968   5.396   3.242
 4363SOL     OW13987   4.080   1.219   2.427
 4363SOL    HW113988   4.164   1.210   2.374
 4363SOL    HW213989   4.096   1.281   2.504
 4364SOL     OW13990   4.037   3.148   2.923
 4364SOL    HW113991   3.984   3.211   2.866
 4364SOL    HW213992   3.994   3.058   2.922
 4365SOL     OW13993   1.774   1.122   1.157
 4365SOL    HW113994   1.837   1.051   1.123
 4365SOL    HW213995   1.741   1.176   1.080
 4366SOL     OW13996   4.913   0.107   4.629
 4366SOL    HW113997   4.815   0.115   4.612
 4366SOL    HW213998   4.928   0.043   4.705
 4367SOL     OW13999   3.113   6.201   3.182
 4367SOL    HW114000   3.098   6.116   3.231
 4367SOL    HW214001   3.074   6.277   3.234
 4368SOL     OW14002   4.781   4.158   3.900
 4368SOL    HW114003   4.844   4.178   3.825
 4368SOL    HW214004   4.732   4.241   3.925
 4369SOL     OW14005   5.300   4.030   3.738
 4369SOL    HW114006   5.250   3.999   3.657
 4369SOL    HW214007   5.371   4.094   3.710
 4370SOL     OW14008   3.689   4.434   1.613
 4370SOL    HW114009   3.615   4.369   1.599
 4370SOL    HW214010   3.658   4.506   1.676
 4371SOL     OW14011   2.173   0.865   1.771
 4371SOL    HW114012   2.097   0.918   1.732
 4371SOL    HW214013   2.244   0.854   1.701
 4372SOL     OW14014   1.510   3.334   4.332
 4372SOL    HW114015   1.607   3.357   4.329
 4372SOL    HW214016   1.497   3.248   4.380
 4373SOL     OW14017   3.381   0.959   6.541
 4373SOL    HW114018   3.348   0.954   6.635
 4373SOL    HW214019   3.331   0.894   6.484
 4374SOL     OW14020   2.728   6.599   0.653
 4374SOL    HW114021   2.743   6.696   0.674
 4374SOL    HW214022   2.815   6.550   0.653
 4375SOL     OW14023   4.549   1.628   5.291
 4375SOL    HW114024   4.504   1.717   5.282
 4375SOL    HW214025   4.551   1.601   5.387
 4376SOL     OW14026   2.260   5.959   6.567
 4376SOL    HW114027   2.265   5.982   6.664
 4376SOL    HW214028   2.286   6.039   6.512
 4377SOL     OW14029   5.224   6.854   6.541
 4377SOL    HW114030   5.282   6.777   6.519
 4377SOL    HW214031   5.162   6.829   6.616
 4378SOL     OW14032   2.623   5.075   2.266
 4378SOL    HW114033   2.639   4.976   2.271
 4378SOL    HW214034   2.710   5.123   2.282
 4379SOL     OW14035   1.017   0.123   1.617
 4379SOL    HW114036   1.030   0.142   1.520
 4379SOL    HW214037   0.929   0.159   1.647
 4380SOL     OW14038   2.020   4.915   4.568
 4380SOL    HW114039   2.041   4.901   4.471
 4380SOL    HW214040   2.080   4.986   4.605
 4381SOL     OW14041   4.991   6.259   5.678
 4381SOL    HW114042   5.080   6.213   5.679
 4381SOL    HW214043   4.997   6.343   5.624
 4382SOL     OW14044   5.068   3.398   3.340
 4382SOL    HW114045   5.057   3.461   3.417
 4382SOL    HW214046   5.113   3.314   3.372
 4383SOL     OW14047   0.939   1.748   0.002
 4383SOL    HW114048   0.865   1.784   0.059
 4383SOL    HW214049   0.903   1.679   6.957
 4384SOL     OW14050   3.880   6.611   1.268
 4384SOL    HW114051   3.958   6.556   1.297
 4384SOL    HW214052   3.913   6.699   1.232
 4385SOL     OW14053   6.308   1.735   2.205
 4385SOL    HW114054   6.289   1.637   2.192
 4385SOL    HW214055   6.380   1.763   2.143
 4386SOL     OW14056   1.325   3.618   6.626
 4386SOL    HW114057   1.264   3.637   6.703
 4386SOL    HW214058   1.350   3.521   6.627
 4387SOL     OW14059   6.884   2.711   1.946
 4387SOL    HW114060   6.849   2.661   1.867
 4387SOL    HW214061   6.928   2.795   1.915
 4388SOL     OW14062   3.072   1.539   5.276
 4388SOL    HW114063   3.164   1.507   5.256
 4388SOL    HW214064   3.072   1.593   5.360
 4389SOL     OW14065   5.773   1.805   1.795
 4389SOL    HW114066   5.758   1.733   1.862
 4389SOL    HW214067   5.685   1.843   1.767
 4390SOL     OW14068   4.389   2.574   1.637
 4390SOL    HW114069   4.350   2.554   1.547
 4390SOL    HW214070   4.367   2.668   1.663
 4391SOL     OW14071   0.474   5.794   1.098
 4391SOL    HW114072   0.490   5.717   1.160
 4391SOL    HW214073   0.507   5.772   1.007
 4392SOL     OW14074   5.222   3.249   4.275
 4392SOL    HW114075   5.293   3.184   4.299
 4392SOL    HW214076   5.134   3.201   4.265
 4393SOL     OW14077   4.783   5.693   3.623
 4393SOL    HW114078   4.865   5.738   3.658
 4393SOL    HW214079   4.710   5.760   3.612
 4394SOL     OW14080   4.776   0.949   2.511
 4394SOL    HW114081   4.693   0.946   2.455
 4394SOL    HW214082   4.819   1.040   2.502
 4395SOL     OW14083   4.798   1.786   1.487
 4395SOL    HW114084   4.805   1.873   1.535
 4395SOL    HW214085   4.734   1.726   1.535
 4396SOL     OW14086   1.145   0.932   4.254
 4396SOL    HW114087   1.174   1.000   4.187
 4396SOL    HW214088   1.046   0.938   4.266
 4397SOL     OW14089   6.341   0.347   6.358
 4397SOL    HW114090   6.297   0.320   6.272
 4397SOL    HW214091   6.358   0.445   6.358
 4398SOL     OW14092   0.054   4.740   4.027
 4398SOL    HW114093   6.998   4.673   4.020
 4398SOL    HW214094   0.017   4.828   4.058
 4399SOL     OW14095   2.694   1.505   1.377
 4399SOL    HW114096   2.679   1.533   1.472
 4399SOL    HW214097   2.617   1.450   1.345
 4400SOL     OW14098   3.431   5.762   3.735
 4400SOL    HW114099   3.363   5.693   3.760
 4400SOL    HW214100   3.446   5.760   3.636
 4401SOL     OW14101   5.805   6.744   4.501
 4401SOL    HW114102   5.886   6.690   4.524
 4401SOL    HW214103   5.828   6.811   4.430
 4402SOL     OW14104   6.494   0.596   3.299
 4402SOL    HW114105   6.506   0.560   3.392
 4402SOL    HW214106   6.397   0.613   3.282
 4403SOL     OW14107   0.840   6.767   2.680
 4403SOL    HW114108   0.894   6.779   2.763
 4403SOL    HW214109   0.795   6.853   2.656
 4404SOL     OW14110   1.515   4.232   3.431
 4404SOL    HW114111   1.560   4.193   3.350
 4404SOL    HW214112   1.435   4.177   3.454
 4405SOL     OW14113   3.606   4.170   6.515
 4405SOL    HW114114   3.515   4.179   6.474
 4405SOL    HW214115   3.597   4.164   6.614
 4406SOL     OW14116   5.557   3.613   1.887
 4406SOL    HW114117   5.515   3.606   1.978
 4406SOL    HW214118   5.579   3.522   1.853
 4407SOL     OW14119   0.141   6.707   0.132
 4407SOL    HW114120   0.103   6.683   0.221
 4407SOL    HW214121   0.183   6.798   0.137
 4408SOL     OW14122   4.963   6.131   0.631
 4408SOL    HW114123   4.952   6.035   0.606
 4408SOL    HW214124   4.946   6.142   0.729
 4409SOL     OW14125   2.157   1.307   2.073
 4409SOL    HW114126   2.096   1.386   2.080
 4409SOL    HW214127   2.234   1.331   2.014
 4410SOL     OW14128   2.481   5.692   1.540
 4410SOL    HW114129   2.424   5.739   1.607
 4410SOL    HW214130   2.566   5.744   1.527
 4411SOL     OW14131   3.812   2.979   2.823
 4411SOL    HW114132   3.742   3.041   2.858
 4411SOL    HW214133   3.799   2.966   2.724
 4412SOL     OW14134   3.974   1.566   6.109
 4412SOL    HW114135   3.956   1.524   6.198
 4412SOL    HW214136   3.918   1.648   6.098
 4413SOL     OW14137   4.148   5.338   4.551
 4413SOL    HW114138   4.152   5.247   4.509
 4413SOL    HW214139   4.107   5.402   4.486
 4414SOL     OW14140   3.424   5.543   1.493
 4414SOL    HW114141   3.426   5.543   1.393
 4414SOL    HW214142   3.330   5.549   1.524
 4415SOL     OW14143   4.767   1.889   1.029
 4415SOL    HW114144   4.713   1.929   0.955
 4415SOL    HW214145   4.789   1.794   1.007
 4416SOL     OW14146   3.330   1.214   3.920
 4416SOL    HW114147   3.378   1.140   3.967
 4416SOL    HW214148   3.236   1.186   3.900
 4417SOL     OW14149   0.451   0.561   0.650
 4417SOL    HW114150   0.357   0.592   0.642
 4417SOL    HW214151   0.483   0.571   0.744
 4418SOL     OW14152   4.371   0.516   3.928
 4418SOL    HW114153   4.395   0.609   3.900
 4418SOL    HW214154   4.310   0.520   4.007
 4419SOL     OW14155   6.861   5.622   0.143
 4419SOL    HW114156   6.845   5.574   0.229
 4419SOL    HW214157   6.954   5.605   0.112
 4420SOL     OW14158   4.246   0.801   0.040
 4420SOL    HW114159   4.164   0.843   0.002
 4420SOL    HW214160   4.324   0.818   6.997
 4421SOL     OW14161   1.701   1.866   3.382
 4421SOL    HW114162   1.743   1.891   3.294
 4421SOL    HW214163   1.756   1.903   3.457
 4422SOL     OW14164   2.008   4.034   5.904
 4422SOL    HW114165   1.990   3.953   5.848
 4422SOL    HW214166   2.014   4.114   5.844
 4423SOL     OW14167   6.971   1.583   6.619
 4423SOL    HW114168   6.906   1.654   6.643
 4423SOL    HW214169   6.937   1.494   6.651
 4424SOL     OW14170   0.038   6.480   4.019
 4424SOL    HW114171   7.004   6.395   4.006
 4424SOL    HW214172   0.134   6.463   4.000
 4425SOL     OW14173   4.571   4.661   0.229
 4425SOL    HW114174   4.555   4.748   0.183
 4425SOL    HW214175   4.489   4.604   0.221
 4426SOL     OW14176   1.201   0.300   5.292
 4426SOL    HW114177   1.247   0.225   5.339
 4426SOL    HW214178   1.249   0.386   5.312
 4427SOL     OW14179   1.205   6.207   3.302
 4427SOL    HW114180   1.216   6.263   3.385
 4427SOL    HW214181   1.279   6.229   3.238
 4428SOL     OW14182   2.610   5.887   2.956
 4428SOL    HW114183   2.592   5.978   2.993
 4428SOL    HW214184   2.671   5.894   2.877
 4429SOL     OW14185   3.692   0.707   3.070
 4429SOL    HW114186   3.611   0.764   3.056
 4429SOL    HW214187   3.703   0.645   2.993
 4430SOL     OW14188   1.357   0.421   1.492
 4430SOL    HW114189   1.312   0.425   1.581
 4430SOL    HW214190   1.293   0.449   1.421
 4431SOL     OW14191   2.221   1.680   3.408
 4431SOL    HW114192   2.285   1.662   3.483
 4431SOL    HW214193   2.208   1.778   3.399
 4432SOL     OW14194   2.913   3.583   3.976
 4432SOL    HW114195   2.918   3.510   3.907
 4432SOL    HW214196   2.985   3.570   4.043
 4433SOL     OW14197   6.834   0.560   3.716
 4433SOL    HW114198   6.774   0.569   3.796
 4433SOL    HW214199   6.887   0.644   3.705
 4434SOL     OW14200   4.852   2.343   4.496
 4434SOL    HW114201   4.836   2.253   4.537
 4434SOL    HW214202   4.816   2.345   4.403
 4435SOL     OW14203   3.602   3.256   2.368
 4435SOL    HW114204   3.607   3.210   2.280
 4435SOL    HW214205   3.527   3.322   2.367
 4436SOL     OW14206   5.112   0.697   0.722
 4436SOL    HW114207   5.069   0.788   0.722
 4436SOL    HW214208   5.193   0.699   0.663
 4437SOL     OW14209   3.563   0.300   4.554
 4437SOL    HW114210   3.567   0.374   4.486
 4437SOL    HW214211   3.636   0.312   4.621
 4438SOL     OW14212   3.752   3.808   6.439
 4438SOL    HW114213   3.735   3.730   6.500
 4438SOL    HW214214   3.757   3.774   6.344
 4439SOL     OW14215   2.303   4.787   2.351
 4439SOL    HW114216   2.265   4.854   2.287
 4439SOL    HW214217   2.279   4.695   2.320
 4440SOL     OW14218   6.622   0.561   6.773
 4440SOL    HW114219   6.674   0.522   6.697
 4440SOL    HW214220   6.599   0.656   6.752
 4441SOL     OW14221   5.670   2.396   3.782
 4441SOL    HW114222   5.690   2.423   3.876
 4441SOL    HW214223   5.611   2.316   3.781
 4442SOL     OW14224   2.017   6.657   2.203
 4442SOL    HW114225   1.993   6.752   2.184
 4442SOL    HW214226   1.985   6.632   2.294
 4443SOL     OW14227   2.582   1.529   6.041
 4443SOL    HW114228   2.609   1.562   6.131
 4443SOL    HW214229   2.572   1.429   6.044
 4444SOL     OW14230   5.466   0.717   2.607
 4444SOL    HW114231   5.517   0.803   2.603
 4444SOL    HW214232   5.406   0.718   2.686
 4445SOL     OW14233   1.646   1.144   6.037
 4445SOL    HW114234   1.546   1.147   6.042
 4445SOL    HW214235   1.684   1.170   6.126
 4446SOL     OW14236   5.618   5.694   3.646
 4446SOL    HW114237   5.626   5.638   3.563
 4446SOL    HW214238   5.523   5.693   3.677
 4447SOL     OW14239   4.950   3.170   4.842
 4447SOL    HW114240   4.865   3.117   4.841
 4447SOL    HW214241   4.945   3.240   4.913
 4448SOL     OW14242   2.720   2.665   6.305
 4448SOL    HW114243   2.658   2.647   6.229
 4448SOL    HW214244   2.676   2.638   6.391
 4449SOL     OW14245   0.972   1.575   5.458
 4449SOL    HW114246   0.977   1.516   5.539
 4449SOL    HW214247   0.880   1.613   5.451
 4450SOL     OW14248   4.096   3.703   3.473
 4450SOL    HW114249   4.044   3.773   3.424
 4450SOL    HW214250   4.192   3.708   3.446
 4451SOL     OW14251   7.006   4.271   1.749
 4451SOL    HW114252   6.994   4.348   1.812
 4451SOL    HW214253   6.922   4.217   1.747
 4452SOL     OW14254   6.493   4.425   6.415
 4452SOL    HW114255   6.583   4.469   6.410
 4452SOL    HW214256   6.501   4.330   6.387
 4453SOL     OW14257   5.159   1.893   1.174
 4453SOL    HW114258   5.068   1.925   1.200
 4453SOL    HW214259   5.227   1.962   1.199
 4454SOL     OW14260   5.642   3.173   1.153
 4454SOL    HW114261   5.612   3.079   1.172
 4454SOL    HW214262   5.603   3.234   1.222
 4455SOL     OW14263   4.564   1.646   1.551
 4455SOL    HW114264   4.575   1.639   1.452
 4455SOL    HW214265   4.478   1.694   1.572
 4456SOL     OW14266   1.410   5.782   2.596
 4456SOL    HW114267   1.495   5.800   2.645
 4456SOL    HW214268   1.412   5.688   2.560
 4457SOL     OW14269   5.227   1.934   6.790
 4457SOL    HW114270   5.155   1.970   6.731
 4457SOL    HW214271   5.300   1.896   6.734
 4458SOL     OW14272   3.884   1.949   6.820
 4458SOL    HW114273   3.972   1.902   6.815
 4458SOL    HW214274   3.890   2.026   6.884
 4459SOL     OW14275   5.177   6.217   6.034
 4459SOL    HW114276   5.159   6.292   5.971
 4459SOL    HW214277   5.258   6.166   6.004
 4460SOL     OW14278   1.360   1.208   6.020
 4460SOL    HW114279   1.389   1.236   5.929
 4460SOL    HW214280   1.374   1.283   6.085
 4461SOL     OW14281   2.486   0.511   2.205
 4461SOL    HW114282   2.420   0.504   2.280
 4461SOL    HW214283   2.494   0.423   2.159
 4462SOL     OW14284   6.751   5.739   1.247
 4462SOL    HW114285   6.760   5.731   1.346
 4462SOL    HW214286   6.793   5.824   1.216
 4463SOL     OW14287   1.378   3.782   5.874
 4463SOL    HW114288   1.474   3.756   5.881
 4463SOL    HW214289   1.371   3.881   5.873
 4464SOL     OW14290   5.894   3.290   6.666
 4464SOL    HW114291   5.804   3.253   6.691
 4464SOL    HW214292   5.911   3.276   6.569
 4465SOL     OW14293   0.993   6.036   1.695
 4465SOL    HW114294   1.039   6.058   1.609
 4465SOL    HW214295   0.905   6.083   1.700
 4466SOL     OW14296   0.646   2.373   3.532
 4466SOL    HW114297   0.693   2.459   3.549
 4466SOL    HW214298   0.653   2.314   3.612
 4467SOL     OW14299   1.292   0.282   3.212
 4467SOL    HW114300   1.269   0.295   3.308
 4467SOL    HW214301   1.280   0.185   3.188
 4468SOL     OW14302   1.421   2.304   0.226
 4468SOL    HW114303   1.414   2.286   0.325
 4468SOL    HW214304   1.368   2.236   0.176
 4469SOL     OW14305   4.314   6.934   0.274
 4469SOL    HW114306   4.402   6.953   0.319
 4469SOL    HW214307   4.245   6.996   0.310
 4470SOL     OW14308   4.837   5.377   1.094
 4470SOL    HW114309   4.862   5.448   1.028
 4470SOL    HW214310   4.765   5.412   1.155
 4471SOL     OW14311   6.395   3.481   0.406
 4471SOL    HW114312   6.410   3.383   0.403
 4471SOL    HW214313   6.481   3.529   0.389
 4472SOL     OW14314   1.881   4.676   1.714
 4472SOL    HW114315   1.884   4.650   1.618
 4472SOL    HW214316   1.889   4.776   1.723
 4473SOL     OW14317   0.664   0.166   5.692
 4473SOL    HW114318   0.588   0.137   5.635
 4473SOL    HW214319   0.697   0.088   5.747
 4474SOL     OW14320   5.935   0.454   3.791
 4474SOL    HW114321   6.029   0.489   3.781
 4474SOL    HW214322   5.872   0.531   3.802
 4475SOL     OW14323   1.444   4.079   6.859
 4475SOL    HW114324   1.446   4.178   6.875
 4475SOL    HW214325   1.353   4.043   6.882
 4476SOL     OW14326   4.998   6.436   2.635
 4476SOL    HW114327   5.062   6.378   2.685
 4476SOL    HW214328   5.046   6.484   2.562
 4477SOL     OW14329   1.403   1.511   6.809
 4477SOL    HW114330   1.328   1.476   6.753
 4477SOL    HW214331   1.392   1.481   6.903
 4478SOL     OW14332   1.461   5.299   1.899
 4478SOL    HW114333   1.401   5.362   1.850
 4478SOL    HW214334   1.556   5.318   1.874
 4479SOL     OW14335   0.294   0.168   5.895
 4479SOL    HW114336   0.227   0.236   5.924
 4479SOL    HW214337   0.309   0.175   5.796
 4480SOL     OW14338   0.993   4.761   4.015
 4480SOL    HW114339   1.002   4.854   3.979
 4480SOL    HW214340   0.933   4.708   3.956
 4481SOL     OW14341   0.853   6.903   3.491
 4481SOL    HW114342   0.781   6.968   3.516
 4481SOL    HW214343   0.818   6.840   3.422
 4482SOL     OW14344   0.733   4.371   3.938
 4482SOL    HW114345   0.686   4.321   4.011
 4482SOL    HW214346   0.775   4.453   3.976
 4483SOL     OW14347   5.019   2.717   1.736
 4483SOL    HW114348   5.037   2.729   1.834
 4483SOL    HW214349   4.938   2.771   1.711
 4484SOL     OW14350   4.110   2.671   6.299
 4484SOL    HW114351   4.069   2.758   6.271
 4484SOL    HW214352   4.153   2.682   6.389
 4485SOL     OW14353   4.786   0.769   6.716
 4485SOL    HW114354   4.846   0.848   6.709
 4485SOL    HW214355   4.782   0.739   6.812
 4486SOL     OW14356   6.818   2.802   3.863
 4486SOL    HW114357   6.783   2.885   3.906
 4486SOL    HW214358   6.865   2.745   3.930
 4487SOL     OW14359   3.284   2.965   5.828
 4487SOL    HW114360   3.278   2.867   5.806
 4487SOL    HW214361   3.232   2.984   5.911
 4488SOL     OW14362   6.789   1.466   5.833
 4488SOL    HW114363   6.824   1.402   5.765
 4488SOL    HW214364   6.841   1.458   5.918
 4489SOL     OW14365   6.657   0.793   3.064
 4489SOL    HW114366   6.685   0.878   3.019
 4489SOL    HW214367   6.668   0.802   3.163
 4490SOL     OW14368   6.716   2.403   3.413
 4490SOL    HW114369   6.809   2.373   3.435
 4490SOL    HW214370   6.720   2.470   3.338
 4491SOL     OW14371   1.859   3.124   3.199
 4491SOL    HW114372   1.789   3.061   3.233
 4491SOL    HW214373   1.943   3.112   3.252
 4492SOL     OW14374   4.465   3.707   6.690
 4492SOL    HW114375   4.468   3.612   6.722
 4492SOL    HW214376   4.477   3.708   6.591
 4493SOL     OW14377   5.776   5.168   3.220
 4493SOL    HW114378   5.712   5.100   3.184
 4493SOL    HW214379   5.855   5.174   3.159
 4494SOL     OW14380   6.108   3.379   3.993
 4494SOL    HW114381   6.072   3.295   3.952
 4494SOL    HW214382   6.113   3.368   4.092
 4495SOL     OW14383   4.513   6.220   2.130
 4495SOL    HW114384   4.414   6.217   2.116
 4495SOL    HW214385   4.537   6.168   2.212
 4496SOL     OW14386   5.058   4.285   5.799
 4496SOL    HW114387   5.098   4.291   5.891
 4496SOL    HW214388   4.984   4.218   5.800
 4497SOL     OW14389   6.363   5.260   0.949
 4497SOL    HW114390   6.425   5.338   0.960
 4497SOL    HW214391   6.269   5.291   0.966
 4498SOL     OW14392   0.441   4.047   6.801
 4498SOL    HW114393   0.512   4.035   6.871
 4498SOL    HW214394   0.444   3.970   6.737
 4499SOL     OW14395   6.417   3.003   6.674
 4499SOL    HW114396   6.380   3.065   6.604
 4499SOL    HW214397   6.512   2.981   6.652
 4500SOL     OW14398   3.161   3.734   4.721
 4500SOL    HW114399   3.255   3.749   4.692
 4500SOL    HW214400   3.114   3.676   4.655
 4501SOL     OW14401   0.937   4.600   4.557
 4501SOL    HW114402   0.989   4.662   4.616
 4501SOL    HW214403   0.999   4.532   4.517
 4502SOL     OW14404   6.389   3.087   6.964
 4502SOL    HW114405   6.400   3.035   6.879
 4502SOL    HW214406   6.334   3.168   6.946
 4503SOL     OW14407   1.409   1.874   2.760
 4503SOL    HW114408   1.392   1.802   2.827
 4503SOL    HW214409   1.485   1.931   2.791
 4504SOL     OW14410   4.450   2.320   4.863
 4504SOL    HW114411   4.479   2.414   4.884
 4504SOL    HW214412   4.380   2.292   4.929
 4505SOL     OW14413   1.892   5.251   5.842
 4505SOL    HW114414   1.844   5.163   5.845
 4505SOL    HW214415   1.931   5.265   5.751
 4506SOL     OW14416   4.195   7.012   5.461
 4506SOL    HW114417   4.224   6.993   5.367
 4506SOL    HW214418   4.159   6.928   5.501
 4507SOL     OW14419   6.234   4.393   1.538
 4507SOL    HW114420   6.150   4.429   1.579
 4507SOL    HW214421   6.304   4.386   1.608
 4508SOL     OW14422   1.194   4.601   0.509
 4508SOL    HW114423   1.134   4.521   0.502
 4508SOL    HW214424   1.231   4.623   0.419
 4509SOL     OW14425   1.092   1.985   4.159
 4509SOL    HW114426   1.144   2.014   4.078
 4509SOL    HW214427   1.119   1.893   4.185
 4510SOL     OW14428   3.829   6.909   5.293
 4510SOL    HW114429   3.800   6.948   5.380
 4510SOL    HW214430   3.804   6.812   5.290
 4511SOL     OW14431   5.966   3.453   6.330
 4511SOL    HW114432   5.926   3.377   6.380
 4511SOL    HW214433   6.052   3.424   6.288
 4512SOL     OW14434   3.006   4.681   0.521
 4512SOL    HW114435   2.950   4.641   0.593
 4512SOL    HW214436   3.042   4.769   0.552
 4513SOL     OW14437   5.273   0.813   1.925
 4513SOL    HW114438   5.259   0.911   1.935
 4513SOL    HW214439   5.343   0.796   1.855
 4514SOL     OW14440   3.492   1.566   5.751
 4514SOL    HW114441   3.414   1.554   5.690
 4514SOL    HW214442   3.555   1.489   5.739
 4515SOL     OW14443   0.086   5.211   0.985
 4515SOL    HW114444   0.131   5.126   1.010
 4515SOL    HW214445   7.005   5.201   0.997
 4516SOL     OW14446   1.186   6.960   4.749
 4516SOL    HW114447   1.122   6.921   4.682
 4516SOL    HW214448   1.236   6.886   4.794
 4517SOL     OW14449   3.842   6.930   5.614
 4517SOL    HW114450   3.759   6.955   5.663
 4517SOL    HW214451   3.906   7.006   5.616
 4518SOL     OW14452   1.260   1.211   4.145
 4518SOL    HW114453   1.210   1.281   4.094
 4518SOL    HW214454   1.268   1.238   4.241
 4519SOL     OW14455   6.265   2.602   4.577
 4519SOL    HW114456   6.271   2.646   4.487
 4519SOL    HW214457   6.266   2.672   4.648
 4520SOL     OW14458   0.664   4.438   3.050
 4520SOL    HW114459   0.627   4.459   3.140
 4520SOL    HW214460   0.602   4.376   3.002
 4521SOL     OW14461   5.702   2.440   5.660
 4521SOL    HW114462   5.785   2.496   5.666
 4521SOL    HW214463   5.726   2.345   5.681
 4522SOL     OW14464   5.769   0.138   3.334
 4522SOL    HW114465   5.690   0.083   3.362
 4522SOL    HW214466   5.840   0.131   3.404
 4523SOL     OW14467   3.668   3.383   6.641
 4523SOL    HW114468   3.579   3.352   6.674
 4523SOL    HW214469   3.708   3.313   6.581
 4524SOL     OW14470   5.882   0.425   5.056
 4524SOL    HW114471   5.891   0.336   5.100
 4524SOL    HW214472   5.849   0.412   4.962
 4525SOL     OW14473   6.574   1.600   5.525
 4525SOL    HW114474   6.526   1.664   5.583
 4525SOL    HW214475   6.667   1.633   5.508
 4526SOL     OW14476   3.906   1.129   0.652
 4526SOL    HW114477   3.953   1.145   0.565
 4526SOL    HW214478   3.973   1.113   0.724
 4527SOL     OW14479   3.809   1.256   3.877
 4527SOL    HW114480   3.834   1.350   3.901
 4527SOL    HW214481   3.879   1.217   3.817
 4528SOL     OW14482   5.474   0.155   6.280
 4528SOL    HW114483   5.557   0.199   6.314
 4528SOL    HW214484   5.413   0.223   6.242
 4529SOL     OW14485   3.549   0.174   3.540
 4529SOL    HW114486   3.548   0.074   3.540
 4529SOL    HW214487   3.611   0.207   3.611
 4530SOL     OW14488   0.478   3.100   4.977
 4530SOL    HW114489   0.387   3.100   5.019
 4530SOL    HW214490   0.492   3.014   4.928
 4531SOL     OW14491   6.944   3.286   3.479
 4531SOL    HW114492   6.889   3.327   3.406
 4531SOL    HW214493   6.913   3.322   3.568
 4532SOL     OW14494   6.636   1.706   0.280
 4532SOL    HW114495   6.555   1.648   0.279
 4532SOL    HW214496   6.611   1.797   0.314
 4533SOL     OW14497   2.751   5.899   2.728
 4533SOL    HW114498   2.715   5.867   2.640
 4533SOL    HW214499   2.829   5.959   2.713
 4534SOL     OW14500   6.782   3.836   5.523
 4534SOL    HW114501   6.751   3.798   5.610
 4534SOL    HW214502   6.830   3.764   5.472
 4535SOL     OW14503   4.975   2.714   2.447
 4535SOL    HW114504   5.006   2.693   2.540
 4535SOL    HW214505   5.052   2.703   2.383
 4536SOL     OW14506   6.626   1.094   4.041
 4536SOL    HW114507   6.587   1.110   4.132
 4536SOL    HW214508   6.576   1.147   3.973
 4537SOL     OW14509   3.705   3.053   5.839
 4537SOL    HW114510   3.662   3.138   5.869
 4537SOL    HW214511   3.675   3.031   5.746
 4538SOL     OW14512   3.487   1.261   2.527
 4538SOL    HW114513   3.432   1.272   2.610
 4538SOL    HW214514   3.582   1.240   2.553
 4539SOL     OW14515   1.087   1.993   2.504
 4539SOL    HW114516   1.164   2.056   2.510
 4539SOL    HW214517   1.078   1.960   2.409
 4540SOL     OW14518   3.212   3.088   4.456
 4540SOL    HW114519   3.276   3.138   4.398
 4540SOL    HW214520   3.260   3.048   4.534
 4541SOL     OW14521   6.083   1.449   1.207
 4541SOL    HW114522   6.068   1.397   1.123
 4541SOL    HW214523   6.105   1.386   1.281
 4542SOL     OW14524   4.642   0.364   3.849
 4542SOL    HW114525   4.651   0.266   3.828
 4542SOL    HW214526   4.606   0.375   3.941
 4543SOL     OW14527   5.419   1.694   1.873
 4543SOL    HW114528   5.337   1.741   1.904
 4543SOL    HW214529   5.485   1.761   1.840
 4544SOL     OW14530   3.583   4.618   6.503
 4544SOL    HW114531   3.661   4.681   6.506
 4544SOL    HW214532   3.612   4.529   6.538
 4545SOL     OW14533   3.904   2.680   5.940
 4545SOL    HW114534   3.989   2.728   5.916
 4545SOL    HW214535   3.833   2.701   5.872
 4546SOL     OW14536   0.671   6.585   6.129
 4546SOL    HW114537   0.742   6.652   6.151
 4546SOL    HW214538   0.687   6.501   6.180
 4547SOL     OW14539   4.464   1.857   1.144
 4547SOL    HW114540   4.372   1.820   1.140
 4547SOL    HW214541   4.461   1.956   1.128
 4548SOL     OW14542   1.616   3.109   4.078
 4548SOL    HW114543   1.531   3.159   4.095
 4548SOL    HW214544   1.610   3.019   4.122
 4549SOL     OW14545   5.109   1.734   2.595
 4549SOL    HW114546   5.157   1.777   2.518
 4549SOL    HW214547   5.111   1.795   2.674
 4550SOL     OW14548   1.390   6.160   4.747
 4550SOL    HW114549   1.359   6.073   4.710
 4550SOL    HW214550   1.415   6.149   4.843
 4551SOL     OW14551   0.587   2.560   5.819
 4551SOL    HW114552   0.553   2.615   5.895
 4551SOL    HW214553   0.639   2.618   5.756
 4552SOL     OW14554   0.123   3.006   3.989
 4552SOL    HW114555   0.055   3.004   4.063
 4552SOL    HW214556   0.076   3.001   3.901
 4553SOL     OW14557   5.092   4.747   0.711
 4553SOL    HW114558   5.012   4.719   0.765
 4553SOL    HW214559   5.115   4.842   0.733
 4554SOL     OW14560   5.357   0.039   3.238
 4554SOL    HW114561   5.313   6.985   3.291
 4554SOL    HW214562   5.344   0.127   3.282
 4555SOL     OW14563   5.637   1.637   0.244
 4555SOL    HW114564   5.635   1.544   0.280
 4555SOL    HW214565   5.642   1.702   0.319
 4556SOL     OW14566   5.097   1.236   4.588
 4556SOL    HW114567   5.147   1.236   4.501
 4556SOL    HW214568   5.065   1.329   4.608
 4557SOL     OW14569   5.197   0.271   5.767
 4557SOL    HW114570   5.129   0.201   5.744
 4557SOL    HW214571   5.230   0.315   5.684
 4558SOL     OW14572   6.668   3.224   5.972
 4558SOL    HW114573   6.588   3.169   5.949
 4558SOL    HW214574   6.646   3.321   5.959
 4559SOL     OW14575   0.747   6.557   1.635
 4559SOL    HW114576   0.656   6.517   1.651
 4559SOL    HW214577   0.756   6.580   1.538
 4560SOL     OW14578   5.059   2.896   2.862
 4560SOL    HW114579   5.115   2.977   2.878
 4560SOL    HW214580   5.005   2.876   2.945
 4561SOL     OW14581   3.084   0.149   6.305
 4561SOL    HW114582   3.125   0.121   6.218
 4561SOL    HW214583   2.989   0.116   6.309
 4562SOL     OW14584   3.509   5.120   5.362
 4562SOL    HW114585   3.590   5.137   5.418
 4562SOL    HW214586   3.495   5.196   5.298
 4563SOL     OW14587   5.288   2.298   6.611
 4563SOL    HW114588   5.336   2.307   6.524
 4563SOL    HW214589   5.346   2.334   6.684
 4564SOL     OW14590   1.822   5.875   6.787
 4564SOL    HW114591   1.812   5.949   6.721
 4564SOL    HW214592   1.865   5.796   6.743
 4565SOL     OW14593   2.399   0.903   4.024
 4565SOL    HW114594   2.444   0.842   3.958
 4565SOL    HW214595   2.418   0.998   4.001
 4566SOL     OW14596   0.789   1.885   0.179
 4566SOL    HW114597   0.699   1.845   0.162
 4566SOL    HW214598   0.822   1.856   0.268
 4567SOL     OW14599   6.726   0.749   0.576
 4567SOL    HW114600   6.775   0.813   0.636
 4567SOL    HW214601   6.751   0.655   0.601
 4568SOL     OW14602   3.532   5.036   4.838
 4568SOL    HW114603   3.480   4.987   4.768
 4568SOL    HW214604   3.494   5.016   4.928
 4569SOL     OW14605   0.197   1.799   4.213
 4569SOL    HW114606   0.144   1.824   4.132
 4569SOL    HW214607   0.261   1.726   4.190
 4570SOL     OW14608   6.762   5.267   4.403
 4570SOL    HW114609   6.678   5.278   4.350
 4570SOL    HW214610   6.739   5.251   4.499
 4571SOL     OW14611   3.484   3.371   4.113
 4571SOL    HW114612   3.463   3.417   4.026
 4571SOL    HW214613   3.579   3.340   4.111
 4572SOL     OW14614   2.272   6.196   1.793
 4572SOL    HW114615   2.351   6.138   1.813
 4572SOL    HW214616   2.304   6.290   1.776
 4573SOL     OW14617   5.671   6.834   0.672
 4573SOL    HW114618   5.720   6.854   0.587
 4573SOL    HW214619   5.636   6.920   0.711
 4574SOL     OW14620   0.723   4.435   2.061
 4574SOL    HW114621   0.778   4.371   2.116
 4574SOL    HW214622   0.632   4.398   2.048
 4575SOL     OW14623   6.620   0.046   2.021
 4575SOL    HW114624   6.698   0.033   2.082
 4575SOL    HW214625   6.628   0.134   1.974
 4576SOL     OW14626   3.161   6.008   4.807
 4576SOL    HW114627   3.246   6.060   4.796
 4576SOL    HW214628   3.178   5.912   4.786
 4577SOL     OW14629   1.062   2.730   4.411
 4577SOL    HW114630   0.984   2.786   4.384
 4577SOL    HW214631   1.033   2.635   4.423
 4578SOL     OW14632   0.425   3.904   3.868
 4578SOL    HW114633   0.420   3.925   3.770
 4578SOL    HW214634   0.332   3.891   3.904
 4579SOL     OW14635   5.269   2.465   4.257
 4579SOL    HW114636   5.311   2.539   4.205
 4579SOL    HW214637   5.179   2.444   4.217
 4580SOL     OW14638   6.952   5.665   0.552
 4580SOL    HW114639   6.952   5.730   0.629
 4580SOL    HW214640   0.023   5.669   0.506
 4581SOL     OW14641   3.621   5.653   3.369
 4581SOL    HW114642   3.524   5.649   3.396
 4581SOL    HW214643   3.675   5.688   3.445
 4582SOL     OW14644   4.562   6.851   3.220
 4582SOL    HW114645   4.541   6.944   3.190
 4582SOL    HW214646   4.509   6.786   3.165
 4583SOL     OW14647   4.572   1.592   5.575
 4583SOL    HW114648   4.626   1.669   5.610
 4583SOL    HW214649   4.477   1.602   5.603
 4584SOL     OW14650   0.239   4.723   5.705
 4584SOL    HW114651   0.290   4.789   5.649
 4584SOL    HW214652   0.257   4.631   5.670
 4585SOL     OW14653   3.832   6.539   2.671
 4585SOL    HW114654   3.884   6.580   2.747
 4585SOL    HW214655   3.835   6.440   2.679
 4586SOL     OW14656   3.242   6.107   2.204
 4586SOL    HW114657   3.202   6.035   2.261
 4586SOL    HW214658   3.333   6.077   2.173
 4587SOL     OW14659   2.270   4.399   1.120
 4587SOL    HW114660   2.222   4.311   1.124
 4587SOL    HW214661   2.229   4.456   1.049
 4588SOL     OW14662   4.434   3.822   5.529
 4588SOL    HW114663   4.423   3.766   5.447
 4588SOL    HW214664   4.344   3.851   5.561
 4589SOL     OW14665   0.416   1.274   3.888
 4589SOL    HW114666   0.423   1.290   3.986
 4589SOL    HW214667   0.438   1.357   3.838
 4590SOL     OW14668   4.565   5.684   2.647
 4590SOL    HW114669   4.573   5.593   2.689
 4590SOL    HW214670   4.594   5.754   2.713
 4591SOL     OW14671   6.038   5.906   4.819
 4591SOL    HW114672   6.098   5.922   4.897
 4591SOL    HW214673   5.970   5.979   4.814
 4592SOL     OW14674   2.899   1.869   5.709
 4592SOL    HW114675   2.802   1.876   5.686
 4592SOL    HW214676   2.909   1.852   5.806
 4593SOL     OW14677   3.879   6.693   1.578
 4593SOL    HW114678   3.846   6.679   1.484
 4593SOL    HW214679   3.802   6.686   1.642
 4594SOL     OW14680   3.074   1.441   2.595
 4594SOL    HW114681   3.138   1.438   2.518
 4594SOL    HW214682   3.101   1.374   2.664
 4595SOL     OW14683   4.093   2.475   5.738
 4595SOL    HW114684   4.137   2.451   5.824
 4595SOL    HW214685   4.003   2.514   5.757
 4596SOL     OW14686   6.311   0.053   2.028
 4596SOL    HW114687   6.319   6.976   2.060
 4596SOL    HW214688   6.362   0.063   1.943
 4597SOL     OW14689   6.781   4.554   6.741
 4597SOL    HW114690   6.735   4.640   6.761
 4597SOL    HW214691   6.877   4.560   6.767
 4598SOL     OW14692   3.331   4.513   0.699
 4598SOL    HW114693   3.315   4.611   0.707
 4598SOL    HW214694   3.409   4.487   0.756
 4599SOL     OW14695   2.005   5.358   0.099
 4599SOL    HW114696   1.940   5.283   0.102
 4599SOL    HW214697   1.966   5.434   0.046
 4600SOL     OW14698   3.905   5.265   1.441
 4600SOL    HW114699   3.944   5.179   1.410
 4600SOL    HW214700   3.810   5.272   1.410
 4601SOL     OW14701   2.003   5.955   4.598
 4601SOL    HW114702   2.006   5.969   4.499
 4601SOL    HW214703   2.041   5.865   4.620
 4602SOL     OW14704   1.801   1.092   0.715
 4602SOL    HW114705   1.715   1.051   0.744
 4602SOL    HW214706   1.813   1.081   0.616
 4603SOL     OW14707   3.157   0.838   2.131
 4603SOL    HW114708   3.068   0.825   2.174
 4603SOL    HW214709   3.181   0.935   2.133
 4604SOL     OW14710   2.676   0.433   2.413
 4604SOL    HW114711   2.637   0.483   2.336
 4604SOL    HW214712   2.604   0.411   2.479
 4605SOL     OW14713   5.166   6.703   5.742
 4605SOL    HW114714   5.075   6.663   5.733
 4605SOL    HW214715   5.173   6.752   5.829
 4606SOL     OW14716   6.905   6.453   5.712
 4606SOL    HW114717   6.996   6.456   5.752
 4606SOL    HW214718   6.839   6.490   5.778
 4607SOL     OW14719   2.213   2.201   1.405
 4607SOL    HW114720   2.178   2.281   1.358
 4607SOL    HW214721   2.194   2.208   1.503
 4608SOL     OW14722   1.697   3.628   5.362
 4608SOL    HW114723   1.625   3.677   5.313
 4608SOL    HW214724   1.711   3.539   5.321
 4609SOL     OW14725   3.922   6.779   6.623
 4609SOL    HW114726   3.970   6.800   6.708
 4609SOL    HW214727   3.888   6.685   6.626
 4610SOL     OW14728   0.800   3.301   6.803
 4610SOL    HW114729   0.803   3.316   6.902
 4610SOL    HW214730   0.825   3.206   6.783
 4611SOL     OW14731   0.837   3.404   0.063
 4611SOL    HW114732   0.858   3.484   0.007
 4611SOL    HW214733   0.906   3.393   0.134
 4612SOL     OW14734   2.361   0.293   6.181
 4612SOL    HW114735   2.460   0.297   6.175
 4612SOL    HW214736   2.322   0.287   6.090
 4613SOL     OW14737   2.739   5.525   2.084
 4613SOL    HW114738   2.763   5.446   2.028
 4613SOL    HW214739   2.778   5.515   2.175
 4614SOL     OW14740   2.091   5.356   0.672
 4614SOL    HW114741   2.103   5.455   0.675
 4614SOL    HW214742   2.071   5.327   0.578
 4615SOL     OW14743   0.052   2.861   0.241
 4615SOL    HW114744   6.979   2.893   0.212
 4615SOL    HW214745   0.097   2.932   0.295
 4616SOL     OW14746   5.874   1.103   0.147
 4616SOL    HW114747   5.961   1.152   0.143
 4616SOL    HW214748   5.801   1.165   0.173
 4617SOL     OW14749   0.317   3.373   2.041
 4617SOL    HW114750   0.378   3.453   2.036
 4617SOL    HW214751   0.370   3.290   2.026
 4618SOL     OW14752   1.101   2.041   6.109
 4618SOL    HW114753   1.146   2.102   6.175
 4618SOL    HW214754   1.025   1.995   6.154
 4619SOL     OW14755   3.156   0.615   3.900
 4619SOL    HW114756   3.239   0.639   3.849
 4619SOL    HW214757   3.107   0.698   3.925
 4620SOL     OW14758   2.398   4.393   6.198
 4620SOL    HW114759   2.400   4.305   6.151
 4620SOL    HW214760   2.440   4.383   6.288
 4621SOL     OW14761   0.355   6.534   6.520
 4621SOL    HW114762   0.442   6.568   6.486
 4621SOL    HW214763   0.359   6.434   6.530
 4622SOL     OW14764   2.541   3.539   1.045
 4622SOL    HW114765   2.441   3.543   1.044
 4622SOL    HW214766   2.571   3.444   1.052
 4623SOL     OW14767   6.035   4.327   2.522
 4623SOL    HW114768   6.037   4.412   2.469
 4623SOL    HW214769   6.000   4.253   2.465
 4624SOL     OW14770   4.743   6.802   5.388
 4624SOL    HW114771   4.669   6.778   5.324
 4624SOL    HW214772   4.821   6.740   5.373
 4625SOL     OW14773   1.032   3.189   6.591
 4625SOL    HW114774   1.090   3.108   6.591
 4625SOL    HW214775   1.084   3.267   6.627
 4626SOL     OW14776   5.893   5.215   2.210
 4626SOL    HW114777   5.874   5.294   2.151
 4626SOL    HW214778   5.973   5.234   2.266
 4627SOL     OW14779   2.311   0.624   5.956
 4627SOL    HW114780   2.267   0.607   6.044
 4627SOL    HW214781   2.253   0.589   5.883
 4628SOL     OW14782   0.164   3.915   1.934
 4628SOL    HW114783   0.238   3.948   1.875
 4628SOL    HW214784   0.097   3.867   1.878
 4629SOL     OW14785   3.470   5.311   5.167
 4629SOL    HW114786   3.398   5.300   5.099
 4629SOL    HW214787   3.484   5.408   5.185
 4630SOL     OW14788   2.261   0.534   2.617
 4630SOL    HW114789   2.268   0.626   2.654
 4630SOL    HW214790   2.189   0.484   2.665
 4631SOL     OW14791   2.593   0.873   2.378
 4631SOL    HW114792   2.629   0.952   2.328
 4631SOL    HW214793   2.506   0.845   2.337
 4632SOL     OW14794   5.355   5.267   3.807
 4632SOL    HW114795   5.308   5.180   3.802
 4632SOL    HW214796   5.347   5.315   3.720
 4633SOL     OW14797   5.969   2.538   5.718
 4633SOL    HW114798   5.953   2.566   5.813
 4633SOL    HW214799   6.065   2.553   5.695
 4634SOL     OW14800   3.620   4.577   1.029
 4634SOL    HW114801   3.585   4.531   1.110
 4634SOL    HW214802   3.566   4.660   1.013
 4635SOL     OW14803   4.980   4.447   1.238
 4635SOL    HW114804   4.900   4.388   1.254
 4635SOL    HW214805   5.038   4.406   1.168
 4636SOL     OW14806   1.544   4.957   0.801
 4636SOL    HW114807   1.574   4.886   0.866
 4636SOL    HW214808   1.559   5.047   0.841
 4637SOL     OW14809   1.613   1.166   5.181
 4637SOL    HW114810   1.658   1.254   5.196
 4637SOL    HW214811   1.623   1.109   5.263
 4638SOL     OW14812   5.382   3.662   6.386
 4638SOL    HW114813   5.359   3.749   6.431
 4638SOL    HW214814   5.300   3.605   6.382
 4639SOL     OW14815   7.010   3.229   5.574
 4639SOL    HW114816   7.004   3.216   5.673
 4639SOL    HW214817   6.919   3.227   5.534
 4640SOL     OW14818   5.729   3.988   2.659
 4640SOL    HW114819   5.660   4.022   2.723
 4640SOL    HW214820   5.688   3.918   2.601
 4641SOL     OW14821   2.764   4.522   5.499
 4641SOL    HW114822   2.794   4.454   5.432
 4641SOL    HW214823   2.787   4.489   5.591
 4642SOL     OW14824   5.448   5.697   4.502
 4642SOL    HW114825   5.510   5.624   4.472
 4642SOL    HW214826   5.439   5.694   4.601
 4643SOL     OW14827   4.013   3.053   1.237
 4643SOL    HW114828   4.091   3.110   1.210
 4643SOL    HW214829   4.019   2.966   1.190
 4644SOL     OW14830   2.459   4.968   5.005
 4644SOL    HW114831   2.495   5.037   4.942
 4644SOL    HW214832   2.533   4.906   5.032
 4645SOL     OW14833   1.812   6.107   4.746
 4645SOL    HW114834   1.873   6.052   4.689
 4645SOL    HW214835   1.772   6.049   4.817
 4646SOL     OW14836   3.567   0.556   1.906
 4646SOL    HW114837   3.611   0.467   1.922
 4646SOL    HW214838   3.584   0.615   1.985
 4647SOL     OW14839   6.820   0.616   4.534
 4647SOL    HW114840   6.849   0.521   4.540
 4647SOL    HW214841   6.861   0.669   4.609
 4648SOL     OW14842   2.001   4.827   2.856
 4648SOL    HW114843   1.938   4.826   2.933
 4648SOL    HW214844   2.032   4.734   2.836
 4649SOL     OW14845   5.386   6.611   6.464
 4649SOL    HW114846   5.460   6.659   6.511
 4649SOL    HW214847   5.392   6.629   6.366
 4650SOL     OW14848   0.044   5.038   1.884
 4650SOL    HW114849   0.126   5.095   1.882
 4650SOL    HW214850   0.052   4.964   1.818
 4651SOL     OW14851   0.133   1.825   1.331
 4651SOL    HW114852   0.085   1.802   1.415
 4651SOL    HW214853   0.132   1.925   1.319
 4652SOL     OW14854   6.985   5.995   5.835
 4652SOL    HW114855   0.049   6.026   5.788
 4652SOL    HW214856   6.904   6.031   5.788
 4653SOL     OW14857   0.907   5.622   6.536
 4653SOL    HW114858   0.963   5.704   6.522
 4653SOL    HW214859   0.811   5.643   6.517
 4654SOL     OW14860   0.972   1.741   6.546
 4654SOL    HW114861   1.058   1.704   6.581
 4654SOL    HW214862   0.938   1.682   6.473
 4655SOL     OW14863   0.425   5.621   3.452
 4655SOL    HW114864   0.491   5.560   3.408
 4655SOL    HW214865   0.469   5.709   3.471
 4656SOL     OW14866   2.032   0.274   3.089
 4656SOL    HW114867   2.065   0.183   3.112
 4656SOL    HW214868   2.052   0.294   2.993
 4657SOL     OW14869   5.907   0.007   6.798
 4657SOL    HW114870   5.948   0.088   6.839
 4657SOL    HW214871   5.976   6.953   6.791
 4658SOL     OW14872   5.220   0.738   3.550
 4658SOL    HW114873   5.151   0.667   3.538
 4658SOL    HW214874   5.250   0.740   3.646
 4659SOL     OW14875   2.309   2.222   4.334
 4659SOL    HW114876   2.256   2.280   4.396
 4659SOL    HW214877   2.285   2.243   4.239
 4660SOL     OW14878   6.549   1.030   5.865
 4660SOL    HW114879   6.470   1.073   5.822
 4660SOL    HW214880   6.584   0.957   5.806
 4661SOL     OW14881   4.027   3.290   3.665
 4661SOL    HW114882   3.985   3.214   3.615
 4661SOL    HW214883   4.055   3.361   3.600
 4662SOL     OW14884   5.334   0.248   4.297
 4662SOL    HW114885   5.235   0.249   4.278
 4662SOL    HW214886   5.376   0.172   4.248
 4663SOL     OW14887   7.005   1.581   2.185
 4663SOL    HW114888   7.018   1.575   2.086
 4663SOL    HW214889   6.968   1.672   2.208
 4664SOL     OW14890   2.984   2.770   0.488
 4664SOL    HW114891   2.971   2.671   0.488
 4664SOL    HW214892   3.013   2.799   0.397
 4665SOL     OW14893   5.624   0.691   6.949
 4665SOL    HW114894   5.709   0.645   6.975
 4665SOL    HW214895   5.591   0.746   0.007
 4666SOL     OW14896   2.497   1.660   0.268
 4666SOL    HW114897   2.408   1.674   0.224
 4666SOL    HW214898   2.540   1.578   0.231
 4667SOL     OW14899   0.583   5.460   5.570
 4667SOL    HW114900   0.631   5.544   5.545
 4667SOL    HW214901   0.547   5.468   5.662
 4668SOL     OW14902   5.655   1.793   4.782
 4668SOL    HW114903   5.567   1.764   4.819
 4668SOL    HW214904   5.641   1.875   4.726
 4669SOL     OW14905   2.964   0.603   1.038
 4669SOL    HW114906   2.921   0.546   0.969
 4669SOL    HW214907   2.932   0.697   1.029
 4670SOL     OW14908   1.854   0.966   4.280
 4670SOL    HW114909   1.789   0.899   4.243
 4670SOL    HW214910   1.860   0.955   4.379
 4671SOL     OW14911   5.664   3.725   0.766
 4671SOL    HW114912   5.737   3.774   0.813
 4671SOL    HW214913   5.699   3.639   0.730
 4672SOL     OW14914   2.276   3.500   5.649
 4672SOL    HW114915   2.268   3.403   5.671
 4672SOL    HW214916   2.190   3.534   5.611
 4673SOL     OW14917   3.723   0.611   2.512
 4673SOL    HW114918   3.759   0.611   2.606
 4673SOL    HW214919   3.686   0.701   2.490
 4674SOL     OW14920   4.266   5.991   6.221
 4674SOL    HW114921   4.332   6.064   6.202
 4674SOL    HW214922   4.222   6.008   6.309
 4675SOL     OW14923   1.629   4.250   6.082
 4675SOL    HW114924   1.608   4.294   6.169
 4675SOL    HW214925   1.635   4.320   6.010
 4676SOL     OW14926   0.995   5.866   3.965
 4676SOL    HW114927   0.903   5.880   4.000
 4676SOL    HW214928   0.990   5.811   3.881
 4677SOL     OW14929   0.808   3.082   0.848
 4677SOL    HW114930   0.746   3.127   0.911
 4677SOL    HW214931   0.825   3.141   0.769
 4678SOL     OW14932   2.355   4.265   2.079
 4678SOL    HW114933   2.343   4.314   1.993
 4678SOL    HW214934   2.440   4.296   2.123
 4679SOL     OW14935   4.601   0.034   1.503
 4679SOL    HW114936   4.675   7.001   1.545
 4679SOL    HW214937   4.561   0.097   1.570
 4680SOL     OW14938   1.732   0.806   0.893
 4680SOL    HW114939   1.715   0.839   0.986
 4680SOL    HW214940   1.824   0.767   0.888
 4681SOL     OW14941   5.054   5.654   2.171
 4681SOL    HW114942   4.966   5.607   2.168
 4681SOL    HW214943   5.126   5.595   2.135
 4682SOL     OW14944   3.571   4.110   0.011
 4682SOL    HW114945   3.658   4.154   7.007
 4682SOL    HW214946   3.579   4.064   0.100
 4683SOL     OW14947   6.343   4.509   3.874
 4683SOL    HW114948   6.356   4.416   3.907
 4683SOL    HW214949   6.255   4.544   3.905
 4684SOL     OW14950   5.815   6.532   0.335
 4684SOL    HW114951   5.749   6.564   0.267
 4684SOL    HW214952   5.781   6.555   0.426
 4685SOL     OW14953   3.218   3.864   4.953
 4685SOL    HW114954   3.186   3.820   4.869
 4685SOL    HW214955   3.146   3.925   4.988
 4686SOL     OW14956   3.413   6.035   0.720
 4686SOL    HW114957   3.354   5.977   0.777
 4686SOL    HW214958   3.420   5.995   0.628
 4687SOL     OW14959   3.051   0.621   3.018
 4687SOL    HW114960   3.078   0.662   2.931
 4687SOL    HW214961   3.030   0.524   3.005
 4688SOL     OW14962   5.763   3.043   5.647
 4688SOL    HW114963   5.686   3.095   5.683
 4688SOL    HW214964   5.746   2.945   5.659
 4689SOL     OW14965   6.410   0.661   2.623
 4689SOL    HW114966   6.371   0.717   2.696
 4689SOL    HW214967   6.373   0.569   2.629
 4690SOL     OW14968   2.020   2.164   0.899
 4690SOL    HW114969   2.029   2.111   0.814
 4690SOL    HW214970   2.094   2.231   0.905
 4691SOL     OW14971   6.816   4.129   1.930
 4691SOL    HW114972   6.887   4.198   1.937
 4691SOL    HW214973   6.737   4.156   1.984
 4692SOL     OW14974   5.166   3.462   1.920
 4692SOL    HW114975   5.217   3.393   1.868
 4692SOL    HW214976   5.176   3.551   1.876
 4693SOL     OW14977   1.101   0.608   3.521
 4693SOL    HW114978   1.074   0.641   3.431
 4693SOL    HW214979   1.194   0.641   3.542
 4694SOL     OW14980   1.857   0.591   6.927
 4694SOL    HW114981   1.817   0.500   6.922
 4694SOL    HW214982   1.878   0.623   6.835
 4695SOL     OW14983   1.201   6.453   1.468
 4695SOL    HW114984   1.153   6.448   1.556
 4695SOL    HW214985   1.244   6.365   1.449
 4696SOL     OW14986   2.389   5.291   5.766
 4696SOL    HW114987   2.468   5.270   5.710
 4696SOL    HW214988   2.406   5.374   5.819
 4697SOL     OW14989   4.063   5.474   1.504
 4697SOL    HW114990   3.997   5.401   1.487
 4697SOL    HW214991   4.101   5.464   1.596
 4698SOL     OW14992   4.976   1.315   4.233
 4698SOL    HW114993   5.074   1.318   4.214
 4698SOL    HW214994   4.951   1.393   4.290
 4699SOL     OW14995   1.482   0.073   2.152
 4699SOL    HW114996   1.412   0.086   2.222
 4699SOL    HW214997   1.561   0.132   2.173
 4700SOL     OW14998   6.336   2.053   1.966
 4700SOL    HW114999   6.339   2.027   1.869
 4700SOL    HW215000   6.427   2.084   1.994
 4701SOL     OW15001   3.078   2.200   1.798
 4701SOL    HW115002   3.168   2.244   1.801
 4701SOL    HW215003   3.021   2.235   1.872
 4702SOL     OW15004   5.381   4.859   6.633
 4702SOL    HW115005   5.441   4.893   6.705
 4702SOL    HW215006   5.399   4.910   6.548
 4703SOL     OW15007   0.934   5.558   3.574
 4703SOL    HW115008   0.931   5.566   3.475
 4703SOL    HW215009   0.901   5.643   3.616
 4704SOL     OW15010   1.196   5.418   5.055
 4704SOL    HW115011   1.277   5.375   5.094
 4704SOL    HW215012   1.116   5.360   5.073
 4705SOL     OW15013   3.511   1.962   1.680
 4705SOL    HW115014   3.423   1.934   1.641
 4705SOL    HW215015   3.504   1.962   1.780
 4706SOL     OW15016   2.682   1.017   0.680
 4706SOL    HW115017   2.728   1.105   0.693
 4706SOL    HW215018   2.747   0.951   0.642
 4707SOL     OW15019   1.574   6.243   1.582
 4707SOL    HW115020   1.501   6.203   1.637
 4707SOL    HW215021   1.606   6.327   1.625
 4708SOL     OW15022   1.319   2.740   4.260
 4708SOL    HW115023   1.235   2.714   4.309
 4708SOL    HW215024   1.308   2.832   4.222
 4709SOL     OW15025   4.801   3.952   5.280
 4709SOL    HW115026   4.813   3.906   5.192
 4709SOL    HW215027   4.887   3.997   5.306
 4710SOL     OW15028   6.318   5.862   5.239
 4710SOL    HW115029   6.289   5.766   5.241
 4710SOL    HW215030   6.415   5.867   5.264
 4711SOL     OW15031   5.170   3.604   2.632
 4711SOL    HW115032   5.169   3.518   2.581
 4711SOL    HW215033   5.105   3.668   2.590
 4712SOL     OW15034   4.676   4.421   5.703
 4712SOL    HW115035   4.685   4.510   5.659
 4712SOL    HW215036   4.653   4.352   5.634
 4713SOL     OW15037   6.222   4.253   1.099
 4713SOL    HW115038   6.302   4.211   1.057
 4713SOL    HW215039   6.139   4.214   1.059
 4714SOL     OW15040   4.314   1.287   6.782
 4714SOL    HW115041   4.370   1.328   6.854
 4714SOL    HW215042   4.218   1.313   6.796
 4715SOL     OW15043   6.126   1.506   1.893
 4715SOL    HW115044   6.198   1.454   1.847
 4715SOL    HW215045   6.155   1.529   1.986
 4716SOL     OW15046   3.733   5.013   6.129
 4716SOL    HW115047   3.752   4.965   6.043
 4716SOL    HW215048   3.701   5.106   6.108
 4717SOL     OW15049   2.998   5.099   5.110
 4717SOL    HW115050   3.069   5.142   5.166
 4717SOL    HW215051   3.007   5.000   5.115
 4718SOL     OW15052   4.663   4.859   0.889
 4718SOL    HW115053   4.575   4.831   0.927
 4718SOL    HW215054   4.703   4.930   0.947
 4719SOL     OW15055   0.386   4.261   3.832
 4719SOL    HW115056   0.382   4.323   3.910
 4719SOL    HW215057   0.475   4.269   3.787
 4720SOL     OW15058   2.079   3.191   6.835
 4720SOL    HW115059   2.178   3.181   6.819
 4720SOL    HW215060   2.064   3.231   6.925
 4721SOL     OW15061   6.948   2.922   2.791
 4721SOL    HW115062   0.019   2.955   2.761
 4721SOL    HW215063   6.879   2.993   2.776
 4722SOL     OW15064   1.147   5.586   6.932
 4722SOL    HW115065   1.107   5.544   6.851
 4722SOL    HW215066   1.122   5.534   7.013
 4723SOL     OW15067   3.820   4.173   0.455
 4723SOL    HW115068   3.810   4.211   0.547
 4723SOL    HW215069   3.730   4.143   0.422
 4724SOL     OW15070   0.645   6.619   5.007
 4724SOL    HW115071   0.561   6.601   4.955
 4724SOL    HW215072   0.698   6.690   4.960
 4725SOL     OW15073   5.226   5.897   1.083
 4725SOL    HW115074   5.184   5.846   1.008
 4725SOL    HW215075   5.315   5.932   1.054
 4726SOL     OW15076   1.079   3.384   5.629
 4726SOL    HW115077   1.052   3.292   5.603
 4726SOL    HW215078   1.143   3.379   5.706
 4727SOL     OW15079   0.091   4.793   1.096
 4727SOL    HW115080   0.027   4.827   1.165
 4727SOL    HW215081   0.168   4.857   1.087
 4728SOL     OW15082   6.597   1.543   4.614
 4728SOL    HW115083   6.602   1.492   4.700
 4728SOL    HW215084   6.690   1.566   4.583
 4729SOL     OW15085   5.985   1.661   1.737
 4729SOL    HW115086   5.904   1.707   1.772
 4729SOL    HW215087   6.016   1.592   1.803
 4730SOL     OW15088   3.412   6.882   4.329
 4730SOL    HW115089   3.434   6.915   4.421
 4730SOL    HW215090   3.367   6.955   4.277
 4731SOL     OW15091   3.321   6.444   0.442
 4731SOL    HW115092   3.313   6.456   0.541
 4731SOL    HW215093   3.381   6.367   0.422
 4732SOL     OW15094   0.444   4.936   4.369
 4732SOL    HW115095   0.382   4.998   4.322
 4732SOL    HW215096   0.423   4.842   4.344
 4733SOL     OW15097   2.074   3.733   2.956
 4733SOL    HW115098   2.115   3.724   3.047
 4733SOL    HW215099   1.985   3.778   2.964
 4734SOL     OW15100   4.889   3.579   6.732
 4734SOL    HW115101   4.940   3.661   6.705
 4734SOL    HW215102   4.942   3.497   6.709
 4735SOL     OW15103   0.115   0.711   4.895
 4735SOL    HW115104   0.027   0.716   4.848
 4735SOL    HW215105   0.140   0.802   4.929
 4736SOL     OW15106   6.054   2.099   3.256
 4736SOL    HW115107   6.146   2.132   3.235
 4736SOL    HW215108   6.058   2.037   3.335
 4737SOL     OW15109   2.364   4.977   7.006
 4737SOL    HW115110   2.319   4.888   7.007
 4737SOL    HW215111   2.298   5.048   0.011
 4738SOL     OW15112   0.888   6.548   3.227
 4738SOL    HW115113   0.855   6.619   3.288
 4738SOL    HW215114   0.960   6.585   3.168
 4739SOL     OW15115   6.625   2.914   2.977
 4739SOL    HW115116   6.678   2.836   3.009
 4739SOL    HW215117   6.580   2.891   2.890
 4740SOL     OW15118   0.716   0.794   1.277
 4740SOL    HW115119   0.691   0.879   1.230
 4740SOL    HW215120   0.747   0.815   1.370
 4741SOL     OW15121   4.603   4.360   1.717
 4741SOL    HW115122   4.553   4.365   1.804
 4741SOL    HW215123   4.574   4.435   1.658
 4742SOL     OW15124   2.428   5.731   2.259
 4742SOL    HW115125   2.432   5.813   2.316
 4742SOL    HW215126   2.514   5.721   2.209
 4743SOL     OW15127   2.435   2.739   0.194
 4743SOL    HW115128   2.490   2.779   0.120
 4743SOL    HW215129   2.339   2.763   0.180
 4744SOL     OW15130   1.876   2.689   5.016
 4744SOL    HW115131   1.793   2.637   5.037
 4744SOL    HW215132   1.954   2.645   5.060
 4745SOL     OW15133   3.112   6.058   5.086
 4745SOL    HW115134   3.062   6.145   5.076
 4745SOL    HW215135   3.140   6.025   4.996
 4746SOL     OW15136   6.161   0.672   0.587
 4746SOL    HW115137   6.079   0.668   0.530
 4746SOL    HW215138   6.136   0.652   0.682
 4747SOL     OW15139   6.621   2.561   1.577
 4747SOL    HW115140   6.679   2.568   1.657
 4747SOL    HW215141   6.529   2.534   1.604
 4748SOL     OW15142   1.762   0.800   1.590
 4748SOL    HW115143   1.820   0.807   1.509
 4748SOL    HW215144   1.728   0.890   1.615
 4749SOL     OW15145   1.935   0.081   6.373
 4749SOL    HW115146   2.027   0.119   6.376
 4749SOL    HW215147   1.940   7.002   6.350
 4750SOL     OW15148   0.550   1.385   4.633
 4750SOL    HW115149   0.631   1.348   4.587
 4750SOL    HW215150   0.470   1.332   4.609
 4751SOL     OW15151   1.293   3.366   5.807
 4751SOL    HW115152   1.236   3.356   5.888
 4751SOL    HW215153   1.379   3.411   5.831
 4752SOL     OW15154   2.631   6.234   1.797
 4752SOL    HW115155   2.559   6.304   1.803
 4752SOL    HW215156   2.710   6.263   1.850
 4753SOL     OW15157   0.080   0.123   4.901
 4753SOL    HW115158   0.163   0.070   4.915
 4753SOL    HW215159   0.064   0.134   4.802
 4754SOL     OW15160   0.711   0.387   5.529
 4754SOL    HW115161   0.764   0.360   5.449
 4754SOL    HW215162   0.699   0.309   5.590
 4755SOL     OW15163   2.432   1.798   0.487
 4755SOL    HW115164   2.480   1.746   0.417
 4755SOL    HW215165   2.385   1.876   0.445
 4756SOL     OW15166   5.215   3.062   1.230
 4756SOL    HW115167   5.171   3.030   1.314
 4756SOL    HW215168   5.310   3.032   1.229
 4757SOL     OW15169   1.985   1.877   1.739
 4757SOL    HW115170   1.934   1.870   1.654
 4757SOL    HW215171   1.949   1.953   1.794
 4758SOL     OW15172   5.023   4.301   5.066
 4758SOL    HW115173   5.038   4.203   5.058
 4758SOL    HW215174   4.959   4.332   4.996
 4759SOL     OW15175   5.985   4.743   5.283
 4759SOL    HW115176   6.030   4.783   5.362
 4759SOL    HW215177   6.037   4.664   5.251
 4760SOL     OW15178   1.757   2.249   0.498
 4760SOL    HW115179   1.712   2.195   0.570
 4760SOL    HW215180   1.732   2.212   0.408
 4761SOL     OW15181   1.582   5.633   5.507
 4761SOL    HW115182   1.601   5.729   5.485
 4761SOL    HW215183   1.664   5.591   5.547
 4762SOL     OW15184   3.277   0.177   2.853
 4762SOL    HW115185   3.219   0.097   2.868
 4762SOL    HW215186   3.358   0.171   2.911
 4763SOL     OW15187   5.905   5.660   4.744
 4763SOL    HW115188   5.840   5.640   4.671
 4763SOL    HW215189   5.930   5.757   4.741
 4764SOL     OW15190   4.021   3.312   4.939
 4764SOL    HW115191   3.932   3.358   4.946
 4764SOL    HW215192   4.050   3.311   4.843
 4765SOL     OW15193   6.577   4.921   4.940
 4765SOL    HW115194   6.511   4.972   4.885
 4765SOL    HW215195   6.581   4.960   5.032
 4766SOL     OW15196   2.762   0.239   3.616
 4766SOL    HW115197   2.861   0.238   3.631
 4766SOL    HW215198   2.743   0.268   3.522
 4767SOL     OW15199   4.276   5.714   6.235
 4767SOL    HW115200   4.264   5.810   6.208
 4767SOL    HW215201   4.240   5.655   6.163
 4768SOL     OW15202   0.219   1.070   4.812
 4768SOL    HW115203   0.259   1.030   4.894
 4768SOL    HW215204   0.283   1.059   4.736
 4769SOL     OW15205   3.365   0.144   1.961
 4769SOL    HW115206   3.382   0.243   1.965
 4769SOL    HW215207   3.343   0.119   1.867
 4770SOL     OW15208   2.454   0.264   3.910
 4770SOL    HW115209   2.532   0.321   3.937
 4770SOL    HW215210   2.487   0.176   3.877
 4771SOL     OW15211   3.739   4.184   5.507
 4771SOL    HW115212   3.774   4.190   5.413
 4771SOL    HW215213   3.724   4.276   5.543
 4772SOL     OW15214   2.170   2.422   1.282
 4772SOL    HW115215   2.253   2.475   1.302
 4772SOL    HW215216   2.099   2.484   1.248
 4773SOL     OW15217   6.257   5.742   3.440
 4773SOL    HW115218   6.303   5.815   3.491
 4773SOL    HW215219   6.160   5.765   3.430
 4774SOL     OW15220   0.949   4.399   0.509
 4774SOL    HW115221   0.973   4.366   0.600
 4774SOL    HW215222   0.946   4.321   0.445
 4775SOL     OW15223   2.463   1.335   2.353
 4775SOL    HW115224   2.438   1.404   2.420
 4775SOL    HW215225   2.496   1.381   2.270
 4776SOL     OW15226   3.930   5.279   1.777
 4776SOL    HW115227   3.926   5.269   1.677
 4776SOL    HW215228   3.883   5.363   1.804
 4777SOL     OW15229   2.666   4.610   1.353
 4777SOL    HW115230   2.631   4.519   1.328
 4777SOL    HW215231   2.600   4.655   1.413
 4778SOL     OW15232   5.057   3.942   1.737
 4778SOL    HW115233   4.986   3.874   1.722
 4778SOL    HW215234   5.067   3.958   1.835
 4779SOL     OW15235   4.992   0.847   3.133
 4779SOL    HW115236   4.915   0.784   3.142
 4779SOL    HW215237   5.041   0.852   3.220
 4780SOL     OW15238   1.907   6.746   5.433
 4780SOL    HW115239   1.866   6.657   5.415
 4780SOL    HW215240   1.895   6.769   5.530
 4781SOL     OW15241   2.018   5.535   2.203
 4781SOL    HW115242   1.940   5.563   2.147
 4781SOL    HW215243   1.989   5.523   2.298
 4782SOL     OW15244   5.810   6.262   6.514
 4782SOL    HW115245   5.751   6.274   6.593
 4782SOL    HW215246   5.833   6.351   6.475
 4783SOL     OW15247   6.596   4.231   2.048
 4783SOL    HW115248   6.602   4.187   2.138
 4783SOL    HW215249   6.503   4.264   2.033
 4784SOL     OW15250   6.118   4.483   5.281
 4784SOL    HW115251   6.085   4.396   5.245
 4784SOL    HW215252   6.212   4.474   5.311
 4785SOL     OW15253   6.046   0.192   0.787
 4785SOL    HW115254   6.103   0.125   0.833
 4785SOL    HW215255   5.998   0.149   0.711
 4786SOL     OW15256   1.369   3.137   2.672
 4786SOL    HW115257   1.402   3.098   2.586
 4786SOL    HW215258   1.329   3.226   2.654
 4787SOL     OW15259   3.665   2.042   2.242
 4787SOL    HW115260   3.760   2.018   2.262
 4787SOL    HW215261   3.662   2.102   2.162
 4788SOL     OW15262   1.022   6.022   5.214
 4788SOL    HW115263   0.970   6.035   5.298
 4788SOL    HW215264   1.034   5.924   5.197
 4789SOL     OW15265   6.331   0.225   0.689
 4789SOL    HW115266   6.337   0.319   0.656
 4789SOL    HW215267   6.238   0.191   0.678
 4790SOL     OW15268   5.087   1.068   0.355
 4790SOL    HW115269   5.091   0.969   0.362
 4790SOL    HW215270   5.032   1.094   0.275
 4791SOL     OW15271   4.910   0.391   2.740
 4791SOL    HW115272   4.813   0.393   2.765
 4791SOL    HW215273   4.925   0.449   2.660
 4792SOL     OW15274   2.588   2.339   1.597
 4792SOL    HW115275   2.601   2.402   1.520
 4792SOL    HW215276   2.667   2.278   1.603
 4793SOL     OW15277   0.912   6.748   6.191
 4793SOL    HW115278   0.937   6.742   6.094
 4793SOL    HW215279   0.891   6.844   6.213
 4794SOL     OW15280   3.761   0.870   2.295
 4794SOL    HW115281   3.847   0.823   2.314
 4794SOL    HW215282   3.777   0.969   2.294
 4795SOL     OW15283   6.417   2.862   4.449
 4795SOL    HW115284   6.403   2.920   4.529
 4795SOL    HW215285   6.339   2.872   4.387
 4796SOL     OW15286   5.942   3.853   0.943
 4796SOL    HW115287   6.030   3.893   0.970
 4796SOL    HW215288   5.935   3.760   0.979
 4797SOL     OW15289   0.290   4.728   5.007
 4797SOL    HW115290   0.378   4.735   4.959
 4797SOL    HW215291   0.224   4.680   4.950
 4798SOL     OW15292   6.533   4.233   4.788
 4798SOL    HW115293   6.438   4.266   4.784
 4798SOL    HW215294   6.581   4.261   4.705
 4799SOL     OW15295   4.140   1.304   5.173
 4799SOL    HW115296   4.176   1.246   5.101
 4799SOL    HW215297   4.041   1.291   5.181
 4800SOL     OW15298   1.840   1.870   4.485
 4800SOL    HW115299   1.773   1.814   4.438
 4800SOL    HW215300   1.926   1.868   4.435
 4801SOL     OW15301   0.714   2.396   1.130
 4801SOL    HW115302   0.794   2.436   1.175
 4801SOL    HW215303   0.724   2.297   1.123
 4802SOL     OW15304   1.929   0.748   2.406
 4802SOL    HW115305   1.868   0.801   2.347
 4802SOL    HW215306   1.993   0.810   2.452
 4803SOL     OW15307   0.993   0.054   1.075
 4803SOL    HW115308   1.092   0.063   1.070
 4803SOL    HW215309   0.950   0.119   1.013
 4804SOL     OW15310   4.177   5.650   0.264
 4804SOL    HW115311   4.193   5.705   0.346
 4804SOL    HW215312   4.249   5.582   0.255
 4805SOL     OW15313   0.887   1.834   0.436
 4805SOL    HW115314   0.973   1.787   0.453
 4805SOL    HW215315   0.877   1.911   0.500
 4806SOL     OW15316   0.927   2.946   3.398
 4806SOL    HW115317   0.855   2.957   3.330
 4806SOL    HW215318   1.002   2.891   3.360
 4807SOL     OW15319   0.325   6.730   0.874
 4807SOL    HW115320   0.327   6.670   0.794
 4807SOL    HW215321   0.377   6.813   0.855
 4808SOL     OW15322   5.049   3.489   1.354
 4808SOL    HW115323   5.073   3.498   1.257
 4808SOL    HW215324   4.962   3.536   1.371
 4809SOL     OW15325   4.281   5.949   6.702
 4809SOL    HW115326   4.258   5.981   6.794
 4809SOL    HW215327   4.336   6.018   6.656
 4810SOL     OW15328   0.818   0.468   0.847
 4810SOL    HW115329   0.837   0.411   0.767
 4810SOL    HW215330   0.721   0.491   0.850
 4811SOL     OW15331   4.909   6.146   2.527
 4811SOL    HW115332   4.993   6.121   2.479
 4811SOL    HW215333   4.862   6.219   2.477
 4812SOL     OW15334   6.346   5.211   4.317
 4812SOL    HW115335   6.268   5.152   4.295
 4812SOL    HW215336   6.313   5.297   4.356
 4813SOL     OW15337   5.752   2.906   2.399
 4813SOL    HW115338   5.765   2.873   2.492
 4813SOL    HW215339   5.808   2.852   2.336
 4814SOL     OW15340   7.011   3.465   1.289
 4814SOL    HW115341   0.019   3.559   1.310
 4814SOL    HW215342   6.985   3.418   1.374
 4815SOL     OW15343   3.955   6.097   2.490
 4815SOL    HW115344   3.968   6.037   2.569
 4815SOL    HW215345   4.043   6.132   2.459
 4816SOL     OW15346   5.319   5.507   3.289
 4816SOL    HW115347   5.244   5.568   3.312
 4816SOL    HW215348   5.285   5.413   3.284
 4817SOL     OW15349   6.831   1.932   6.693
 4817SOL    HW115350   6.893   1.995   6.645
 4817SOL    HW215351   6.788   1.980   6.769
 4818SOL     OW15352   0.228   6.440   4.426
 4818SOL    HW115353   0.176   6.375   4.481
 4818SOL    HW215354   0.279   6.391   4.355
 4819SOL     OW15355   1.395   2.667   0.666
 4819SOL    HW115356   1.373   2.609   0.744
 4819SOL    HW215357   1.456   2.740   0.694
 4820SOL     OW15358   0.592   2.851   2.552
 4820SOL    HW115359   0.684   2.888   2.563
 4820SOL    HW215360   0.540   2.910   2.490
 4821SOL     OW15361   6.831   5.797   3.731
 4821SOL    HW115362   6.870   5.717   3.685
 4821SOL    HW215363   6.775   5.848   3.666
 4822SOL     OW15364   1.961   3.718   4.498
 4822SOL    HW115365   1.987   3.668   4.415
 4822SOL    HW215366   2.024   3.795   4.512
 4823SOL     OW15367   1.870   2.547   1.915
 4823SOL    HW115368   1.950   2.499   1.879
 4823SOL    HW215369   1.900   2.624   1.971
 4824SOL     OW15370   5.813   1.398   6.509
 4824SOL    HW115371   5.830   1.316   6.563
 4824SOL    HW215372   5.898   1.448   6.496
 4825SOL     OW15373   1.282   6.846   3.523
 4825SOL    HW115374   1.301   6.898   3.606
 4825SOL    HW215375   1.367   6.823   3.477
 4826SOL     OW15376   4.340   0.642   1.255
 4826SOL    HW115377   4.245   0.615   1.237
 4826SOL    HW215378   4.354   0.646   1.354
 4827SOL     OW15379   6.896   1.953   0.514
 4827SOL    HW115380   6.934   1.981   0.425
 4827SOL    HW215381   6.797   1.959   0.512
 4828SOL     OW15382   5.188   1.063   4.368
 4828SOL    HW115383   5.261   1.006   4.404
 4828SOL    HW215384   5.103   1.041   4.416
 4829SOL     OW15385   4.058   6.801   5.144
 4829SOL    HW115386   3.964   6.793   5.177
 4829SOL    HW215387   4.090   6.894   5.160
 4830SOL     OW15388   2.430   6.169   3.005
 4830SOL    HW115389   2.476   6.250   2.966
 4830SOL    HW215390   2.368   6.130   2.937
 4831SOL     OW15391   3.072   4.617   5.324
 4831SOL    HW115392   3.004   4.557   5.283
 4831SOL    HW215393   3.126   4.566   5.392
 4832SOL     OW15394   3.418   3.464   4.600
 4832SOL    HW115395   3.394   3.464   4.502
 4832SOL    HW215396   3.473   3.383   4.620
 4833SOL     OW15397   6.226   3.426   4.681
 4833SOL    HW115398   6.175   3.484   4.618
 4833SOL    HW215399   6.306   3.475   4.714
 4834SOL     OW15400   1.106   4.914   1.161
 4834SOL    HW115401   1.106   4.819   1.192
 4834SOL    HW215402   1.095   4.975   1.240
 4835SOL     OW15403   6.912   2.750   5.988
 4835SOL    HW115404   6.884   2.658   6.016
 4835SOL    HW215405   6.966   2.745   5.904
 4836SOL     OW15406   4.826   1.702   5.826
 4836SOL    HW115407   4.736   1.744   5.827
 4836SOL    HW215408   4.885   1.748   5.893
 4837SOL     OW15409   0.190   3.899   4.002
 4837SOL    HW115410   0.155   3.846   4.079
 4837SOL    HW215411   0.123   3.969   3.977
 4838SOL     OW15412   2.254   3.688   5.852
 4838SOL    HW115413   2.160   3.709   5.825
 4838SOL    HW215414   2.298   3.633   5.781
 4839SOL     OW15415   2.361   1.378   0.956
 4839SOL    HW115416   2.413   1.299   0.989
 4839SOL    HW215417   2.277   1.346   0.911
 4840SOL     OW15418   6.188   3.805   4.402
 4840SOL    HW115419   6.215   3.805   4.306
 4840SOL    HW215420   6.137   3.721   4.423
 4841SOL     OW15421   2.933   6.235   3.409
 4841SOL    HW115422   2.873   6.306   3.372
 4841SOL    HW215423   2.920   6.229   3.508
 4842SOL     OW15424   3.593   5.567   2.983
 4842SOL    HW115425   3.554   5.519   2.905
 4842SOL    HW215426   3.685   5.532   3.001
 4843SOL     OW15427   0.118   1.367   6.967
 4843SOL    HW115428   0.160   1.385   0.038
 4843SOL    HW215429   0.188   1.372   6.896
 4844SOL     OW15430   2.123   5.702   5.211
 4844SOL    HW115431   2.167   5.713   5.121
 4844SOL    HW215432   2.108   5.605   5.228
 4845SOL     OW15433   4.900   3.633   4.765
 4845SOL    HW115434   4.996   3.650   4.784
 4845SOL    HW215435   4.851   3.620   4.851
 4846SOL     OW15436   6.468   3.537   4.667
 4846SOL    HW115437   6.491   3.634   4.661
 4846SOL    HW215438   6.546   3.487   4.704
 4847SOL     OW15439   2.787   6.439   6.096
 4847SOL    HW115440   2.850   6.514   6.113
 4847SOL    HW215441   2.746   6.408   6.182
 4848SOL     OW15442   4.608   0.924   3.995
 4848SOL    HW115443   4.672   0.993   4.030
 4848SOL    HW215444   4.659   0.854   3.946
 4849SOL     OW15445   2.379   6.155   1.242
 4849SOL    HW115446   2.370   6.122   1.336
 4849SOL    HW215447   2.310   6.225   1.224
 4850SOL     OW15448   3.856   0.115   1.049
 4850SOL    HW115449   3.770   0.079   1.012
 4850SOL    HW215450   3.839   0.205   1.090
 4851SOL     OW15451   3.355   4.221   6.395
 4851SOL    HW115452   3.289   4.154   6.427
 4851SOL    HW215453   3.313   4.312   6.393
 4852SOL     OW15454   5.786   4.915   5.553
 4852SOL    HW115455   5.768   4.994   5.611
 4852SOL    HW215456   5.712   4.849   5.562
 4853SOL     OW15457   4.200   6.681   2.639
 4853SOL    HW115458   4.257   6.755   2.605
 4853SOL    HW215459   4.126   6.661   2.574
 4854SOL     OW15460   4.967   6.331   2.253
 4854SOL    HW115461   5.046   6.387   2.277
 4854SOL    HW215462   4.889   6.390   2.234
 4855SOL     OW15463   4.767   4.723   5.815
 4855SOL    HW115464   4.856   4.689   5.846
 4855SOL    HW215465   4.752   4.694   5.721
 4856SOL     OW15466   0.524   4.054   3.074
 4856SOL    HW115467   0.536   4.068   2.975
 4856SOL    HW215468   0.574   3.973   3.102
 4857SOL     OW15469   2.255   2.480   5.329
 4857SOL    HW115470   2.239   2.495   5.427
 4857SOL    HW215471   2.333   2.419   5.317
 4858SOL     OW15472   1.562   6.180   4.439
 4858SOL    HW115473   1.464   6.188   4.419
 4858SOL    HW215474   1.579   6.202   4.535
 4859SOL     OW15475   0.015   6.141   2.865
 4859SOL    HW115476   6.981   6.176   2.943
 4859SOL    HW215477   0.091   6.203   2.844
 4860SOL     OW15478   4.334   5.530   1.919
 4860SOL    HW115479   4.369   5.486   2.001
 4860SOL    HW215480   4.396   5.604   1.892
 4861SOL     OW15481   0.411   4.064   5.843
 4861SOL    HW115482   0.404   4.160   5.870
 4861SOL    HW215483   0.492   4.022   5.886
 4862SOL     OW15484   2.000   5.772   4.275
 4862SOL    HW115485   1.926   5.756   4.340
 4862SOL    HW215486   2.087   5.743   4.316
 4863SOL     OW15487   5.421   2.063   2.579
 4863SOL    HW115488   5.483   2.025   2.648
 4863SOL    HW215489   5.396   1.991   2.514
 4864SOL     OW15490   2.039   1.364   1.009
 4864SOL    HW115491   2.104   1.437   1.029
 4864SOL    HW215492   1.964   1.401   0.953
 4865SOL     OW15493   3.636   5.620   4.682
 4865SOL    HW115494   3.693   5.552   4.636
 4865SOL    HW215495   3.562   5.648   4.621
 4866SOL     OW15496   0.626   4.916   1.937
 4866SOL    HW115497   0.566   4.836   1.946
 4866SOL    HW215498   0.608   4.962   1.850
 4867SOL     OW15499   5.185   5.066   4.079
 4867SOL    HW115500   5.154   5.140   4.020
 4867SOL    HW215501   5.114   4.997   4.088
 4868SOL     OW15502   1.681   6.474   1.433
 4868SOL    HW115503   1.687   6.459   1.531
 4868SOL    HW215504   1.588   6.455   1.401
 4869SOL     OW15505   6.207   1.715   1.119
 4869SOL    HW115506   6.300   1.691   1.147
 4869SOL    HW215507   6.145   1.639   1.141
 4870SOL     OW15508   6.865   0.200   0.808
 4870SOL    HW115509   6.910   0.202   0.719
 4870SOL    HW215510   6.770   0.171   0.796
 4871SOL     OW15511   1.380   3.581   4.391
 4871SOL    HW115512   1.440   3.510   4.354
 4871SOL    HW215513   1.436   3.656   4.426
 4872SOL     OW15514   0.858   0.469   4.385
 4872SOL    HW115515   0.795   0.399   4.352
 4872SOL    HW215516   0.942   0.425   4.418
 4873SOL     OW15517   1.106   6.303   4.924
 4873SOL    HW115518   1.026   6.248   4.948
 4873SOL    HW215519   1.185   6.243   4.910
 4874SOL     OW15520   5.599   2.912   3.847
 4874SOL    HW115521   5.581   2.991   3.906
 4874SOL    HW215522   5.685   2.868   3.874
 4875SOL     OW15523   6.216   2.876   6.335
 4875SOL    HW115524   6.240   2.797   6.393
 4875SOL    HW215525   6.300   2.918   6.301
 4876SOL     OW15526   6.902   1.627   0.236
 4876SOL    HW115527   6.812   1.666   0.252
 4876SOL    HW215528   6.966   1.699   0.210
 4877SOL     OW15529   6.093   1.206   1.380
 4877SOL    HW115530   6.010   1.173   1.426
 4877SOL    HW215531   6.173   1.175   1.431
 4878SOL     OW15532   6.973   2.974   1.893
 4878SOL    HW115533   6.998   3.023   1.976
 4878SOL    HW215534   6.985   3.034   1.813
 4879SOL     OW15535   4.647   5.806   3.291
 4879SOL    HW115536   4.741   5.839   3.286
 4879SOL    HW215537   4.601   5.845   3.371
 4880SOL     OW15538   5.894   2.242   6.159
 4880SOL    HW115539   5.934   2.228   6.068
 4880SOL    HW215540   5.927   2.329   6.196
 4881SOL     OW15541   3.003   5.568   0.069
 4881SOL    HW115542   2.986   5.529   6.996
 4881SOL    HW215543   3.060   5.505   0.122
 4882SOL     OW15544   4.767   6.792   6.809
 4882SOL    HW115545   4.771   6.710   6.752
 4882SOL    HW215546   4.717   6.864   6.761
 4883SOL     OW15547   6.211   5.500   0.485
 4883SOL    HW115548   6.249   5.407   0.487
 4883SOL    HW215549   6.277   5.564   0.524
 4884SOL     OW15550   3.810   6.423   1.886
 4884SOL    HW115551   3.828   6.385   1.795
 4884SOL    HW215552   3.779   6.517   1.877
 4885SOL     OW15553   2.314   6.938   2.777
 4885SOL    HW115554   2.355   6.961   2.689
 4885SOL    HW215555   2.381   6.891   2.834
 4886SOL     OW15556   5.872   0.713   6.070
 4886SOL    HW115557   5.812   0.726   6.149
 4886SOL    HW215558   5.862   0.619   6.036
 4887SOL     OW15559   0.462   1.736   5.748
 4887SOL    HW115560   0.528   1.805   5.718
 4887SOL    HW215561   0.397   1.776   5.812
 4888SOL     OW15562   3.182   5.530   1.954
 4888SOL    HW115563   3.268   5.481   1.970
 4888SOL    HW215564   3.180   5.563   1.859
 4889SOL     OW15565   1.545   3.049   6.366
 4889SOL    HW115566   1.641   3.072   6.383
 4889SOL    HW215567   1.528   2.954   6.395
 4890SOL     OW15568   1.271   0.405   4.377
 4890SOL    HW115569   1.256   0.374   4.471
 4890SOL    HW215570   1.358   0.370   4.344
 4891SOL     OW15571   1.602   3.513   0.970
 4891SOL    HW115572   1.652   3.427   0.979
 4891SOL    HW215573   1.665   3.590   0.982
 4892SOL     OW15574   1.468   5.666   1.694
 4892SOL    HW115575   1.461   5.764   1.676
 4892SOL    HW215576   1.527   5.624   1.624
 4893SOL     OW15577   1.089   3.304   6.035
 4893SOL    HW115578   1.033   3.378   6.000
 4893SOL    HW215579   1.050   3.269   6.120
 4894SOL     OW15580   1.659   1.005   3.108
 4894SOL    HW115581   1.678   0.907   3.112
 4894SOL    HW215582   1.564   1.021   3.135
 4895SOL     OW15583   5.799   4.431   0.081
 4895SOL    HW115584   5.703   4.407   0.092
 4895SOL    HW215585   5.831   4.399   7.009
 4896SOL     OW15586   4.586   5.678   3.068
 4896SOL    HW115587   4.622   5.725   3.148
 4896SOL    HW215588   4.584   5.742   2.990
 4897SOL     OW15589   3.143   5.824   6.015
 4897SOL    HW115590   3.217   5.773   5.972
 4897SOL    HW215591   3.181   5.897   6.072
 4898SOL     OW15592   6.058   2.304   4.899
 4898SOL    HW115593   6.098   2.309   4.991
 4898SOL    HW215594   6.130   2.289   4.832
 4899SOL     OW15595   5.072   4.608   4.541
 4899SOL    HW115596   5.002   4.576   4.605
 4899SOL    HW215597   5.045   4.697   4.504
 4900SOL     OW15598   0.518   6.595   5.384
 4900SOL    HW115599   0.520   6.673   5.322
 4900SOL    HW215600   0.470   6.519   5.340
 4901SOL     OW15601   0.262   6.971   3.384
 4901SOL    HW115602   0.305   6.948   3.297
 4901SOL    HW215603   0.220   6.889   3.423
 4902SOL     OW15604   3.108   4.954   1.919
 4902SOL    HW115605   3.085   4.883   1.853
 4902SOL    HW215606   3.124   4.912   2.009
 4903SOL     OW15607   5.541   6.006   5.747
 4903SOL    HW115608   5.595   6.060   5.683
 4903SOL    HW215609   5.601   5.966   5.816
 4904SOL     OW15610   3.351   5.918   3.383
 4904SOL    HW115611   3.402   6.000   3.356
 4904SOL    HW215612   3.262   5.917   3.337
 4905SOL     OW15613   6.483   3.684   3.410
 4905SOL    HW115614   6.385   3.685   3.387
 4905SOL    HW215615   6.535   3.655   3.330
 4906SOL     OW15616   5.086   0.650   1.263
 4906SOL    HW115617   5.074   0.699   1.177
 4906SOL    HW215618   4.997   0.642   1.309
 4907SOL     OW15619   2.336   1.831   2.567
 4907SOL    HW115620   2.334   1.920   2.522
 4907SOL    HW215621   2.369   1.841   2.660
 4908SOL     OW15622   3.872   5.356   0.179
 4908SOL    HW115623   3.892   5.406   0.263
 4908SOL    HW215624   3.958   5.326   0.137
 4909SOL     OW15625   5.842   0.172   5.563
 4909SOL    HW115626   5.779   0.199   5.490
 4909SOL    HW215627   5.917   0.239   5.568
 4910SOL     OW15628   5.744   6.934   6.571
 4910SOL    HW115629   5.795   6.970   6.649
 4910SOL    HW215630   5.726   7.009   6.506
 4911SOL     OW15631   0.876   3.081   6.116
 4911SOL    HW115632   0.943   3.023   6.071
 4911SOL    HW215633   0.784   3.049   6.095
 4912SOL     OW15634   2.455   2.393   2.047
 4912SOL    HW115635   2.545   2.378   2.005
 4912SOL    HW215636   2.393   2.430   1.978
 4913SOL     OW15637   2.872   3.537   2.329
 4913SOL    HW115638   2.881   3.534   2.229
 4913SOL    HW215639   2.907   3.451   2.368
 4914SOL     OW15640   1.635   6.288   2.270
 4914SOL    HW115641   1.572   6.259   2.343
 4914SOL    HW215642   1.675   6.207   2.228
 4915SOL     OW15643   2.903   6.012   3.037
 4915SOL    HW115644   2.991   6.044   3.073
 4915SOL    HW215645   2.863   6.083   2.979
 4916SOL     OW15646   1.952   1.600   2.415
 4916SOL    HW115647   1.994   1.667   2.475
 4916SOL    HW215648   1.853   1.598   2.431
 4917SOL     OW15649   2.223   5.275   6.408
 4917SOL    HW115650   2.202   5.197   6.349
 4917SOL    HW215651   2.236   5.244   6.501
 4918SOL     OW15652   2.191   0.219   3.735
 4918SOL    HW115653   2.101   0.212   3.778
 4918SOL    HW215654   2.262   0.207   3.804
 4919SOL     OW15655   2.517   3.098   1.630
 4919SOL    HW115656   2.516   3.195   1.656
 4919SOL    HW215657   2.568   3.088   1.544
 4920SOL     OW15658   4.196   0.791   0.605
 4920SOL    HW115659   4.174   0.859   0.535
 4920SOL    HW215660   4.113   0.745   0.636
 4921SOL     OW15661   1.357   4.153   1.871
 4921SOL    HW115662   1.350   4.143   1.971
 4921SOL    HW215663   1.448   4.187   1.848
 4922SOL     OW15664   0.918   2.771   5.686
 4922SOL    HW115665   0.955   2.853   5.643
 4922SOL    HW215666   0.850   2.729   5.626
 4923SOL     OW15667   3.303   1.835   0.647
 4923SOL    HW115668   3.372   1.806   0.581
 4923SOL    HW215669   3.318   1.788   0.734
 4924SOL     OW15670   6.987   3.970   4.282
 4924SOL    HW115671   6.976   3.944   4.378
 4924SOL    HW215672   0.014   3.895   4.232
 4925SOL     OW15673   4.548   5.708   6.391
 4925SOL    HW115674   4.450   5.711   6.372
 4925SOL    HW215675   4.574   5.616   6.419
 4926SOL     OW15676   3.992   2.826   1.078
 4926SOL    HW115677   3.940   2.749   1.115
 4926SOL    HW215678   3.952   2.855   0.991
 4927SOL     OW15679   4.003   3.856   3.063
 4927SOL    HW115680   3.927   3.921   3.057
 4927SOL    HW215681   4.056   3.875   3.146
 4928SOL     OW15682   0.817   6.064   0.620
 4928SOL    HW115683   0.741   6.106   0.570
 4928SOL    HW215684   0.819   6.098   0.714
 4929SOL     OW15685   0.668   5.122   4.268
 4929SOL    HW115686   0.598   5.061   4.307
 4929SOL    HW215687   0.630   5.214   4.260
 4930SOL     OW15688   0.318   2.443   0.436
 4930SOL    HW115689   0.409   2.478   0.417
 4930SOL    HW215690   0.250   2.516   0.422
 4931SOL     OW15691   6.606   0.215   1.116
 4931SOL    HW115692   6.647   0.145   1.057
 4931SOL    HW215693   6.671   0.290   1.127
 4932SOL     OW15694   4.196   2.132   1.129
 4932SOL    HW115695   4.109   2.137   1.080
 4932SOL    HW215696   4.179   2.130   1.227
 4933SOL     OW15697   3.082   0.965   5.123
 4933SOL    HW115698   3.110   0.887   5.068
 4933SOL    HW215699   3.120   1.049   5.084
 4934SOL     OW15700   1.846   5.701   5.002
 4934SOL    HW115701   1.806   5.677   5.090
 4934SOL    HW215702   1.945   5.703   5.009
 4935SOL     OW15703   1.558   1.252   0.443
 4935SOL    HW115704   1.602   1.294   0.523
 4935SOL    HW215705   1.506   1.171   0.472
 4936SOL     OW15706   4.526   5.844   1.340
 4936SOL    HW115707   4.554   5.912   1.273
 4936SOL    HW215708   4.450   5.880   1.394
 4937SOL     OW15709   0.874   3.044   5.288
 4937SOL    HW115710   0.944   3.071   5.353
 4937SOL    HW215711   0.848   3.123   5.231
 4938SOL     OW15712   3.349   4.841   1.772
 4938SOL    HW115713   3.316   4.850   1.866
 4938SOL    HW215714   3.418   4.769   1.769
 4939SOL     OW15715   0.704   1.465   1.833
 4939SOL    HW115716   0.733   1.379   1.875
 4939SOL    HW215717   0.779   1.531   1.838
 4940SOL     OW15718   0.408   1.535   5.385
 4940SOL    HW115719   0.501   1.563   5.408
 4940SOL    HW215720   0.360   1.509   5.469
 4941SOL     OW15721   4.244   2.684   5.613
 4941SOL    HW115722   4.189   2.753   5.660
 4941SOL    HW215723   4.218   2.593   5.644
 4942SOL     OW15724   0.508   1.470   3.310
 4942SOL    HW115725   0.493   1.562   3.273
 4942SOL    HW215726   0.524   1.476   3.409
 4943SOL     OW15727   5.489   2.696   0.023
 4943SOL    HW115728   5.392   2.719   0.025
 4943SOL    HW215729   5.501   2.597   0.029
 4944SOL     OW15730   1.020   5.454   6.744
 4944SOL    HW115731   0.998   5.510   6.664
 4944SOL    HW215732   0.936   5.432   6.794
 4945SOL     OW15733   2.224   0.613   5.482
 4945SOL    HW115734   2.215   0.712   5.487
 4945SOL    HW215735   2.317   0.590   5.452
 4946SOL     OW15736   2.802   5.405   0.163
 4946SOL    HW115737   2.849   5.492   0.149
 4946SOL    HW215738   2.810   5.378   0.259
 4947SOL     OW15739   1.294   0.637   0.867
 4947SOL    HW115740   1.210   0.583   0.872
 4947SOL    HW215741   1.371   0.578   0.843
 4948SOL     OW15742   1.924   2.073   1.913
 4948SOL    HW115743   1.916   2.170   1.934
 4948SOL    HW215744   1.928   2.021   1.999
 4949SOL     OW15745   0.137   4.303   6.026
 4949SOL    HW115746   0.138   4.324   5.928
 4949SOL    HW215747   0.095   4.379   6.075
 4950SOL     OW15748   3.377   4.490   5.738
 4950SOL    HW115749   3.387   4.396   5.705
 4950SOL    HW215750   3.392   4.493   5.836
 4951SOL     OW15751   4.875   5.511   2.635
 4951SOL    HW115752   4.867   5.558   2.547
 4951SOL    HW215753   4.886   5.579   2.708
 4952SOL     OW15754   0.521   0.065   6.460
 4952SOL    HW115755   0.526   6.996   6.510
 4952SOL    HW215756   0.605   0.117   6.475
 4953SOL     OW15757   1.388   2.645   5.005
 4953SOL    HW115758   1.368   2.681   4.914
 4953SOL    HW215759   1.331   2.692   5.072
 4954SOL     OW15760   2.940   3.592   4.869
 4954SOL    HW115761   2.917   3.497   4.851
 4954SOL    HW215762   3.024   3.616   4.821
 4955SOL     OW15763   4.255   5.591   5.976
 4955SOL    HW115764   4.326   5.523   5.990
 4955SOL    HW215765   4.195   5.562   5.901
 4956SOL     OW15766   3.059   0.159   5.179
 4956SOL    HW115767   3.111   0.177   5.263
 4956SOL    HW215768   3.069   0.063   5.154
 4957SOL     OW15769   5.908   4.647   6.716
 4957SOL    HW115770   5.872   4.715   6.779
 4957SOL    HW215771   5.855   4.563   6.724
 4958SOL     OW15772   4.177   5.984   0.648
 4958SOL    HW115773   4.135   6.075   0.644
 4958SOL    HW215774   4.131   5.924   0.582
 4959SOL     OW15775   0.310   2.327   2.953
 4959SOL    HW115776   0.343   2.265   2.881
 4959SOL    HW215777   0.247   2.277   3.013
 4960SOL     OW15778   5.095   4.856   3.828
 4960SOL    HW115779   5.055   4.947   3.838
 4960SOL    HW215780   5.194   4.864   3.820
 4961SOL     OW15781   3.325   2.142   1.321
 4961SOL    HW115782   3.280   2.193   1.395
 4961SOL    HW215783   3.405   2.095   1.356
 4962SOL     OW15784   1.171   4.039   0.817
 4962SOL    HW115785   1.215   3.969   0.762
 4962SOL    HW215786   1.213   4.043   0.907
 4963SOL     OW15787   0.727   3.553   6.257
 4963SOL    HW115788   0.808   3.590   6.211
 4963SOL    HW215789   0.744   3.459   6.286
 4964SOL     OW15790   2.429   6.690   4.460
 4964SOL    HW115791   2.492   6.721   4.530
 4964SOL    HW215792   2.338   6.679   4.499
 4965SOL     OW15793   1.271   6.145   2.931
 4965SOL    HW115794   1.254   6.235   2.891
 4965SOL    HW215795   1.201   6.081   2.900
 4966SOL     OW15796   3.383   6.429   4.287
 4966SOL    HW115797   3.412   6.349   4.235
 4966SOL    HW215798   3.284   6.427   4.299
 4967SOL     OW15799   4.237   4.752   4.814
 4967SOL    HW115800   4.281   4.698   4.886
 4967SOL    HW215801   4.220   4.845   4.846
 4968SOL     OW15802   0.059   2.717   3.223
 4968SOL    HW115803   0.131   2.652   3.201
 4968SOL    HW215804   0.025   2.699   3.316
 4969SOL     OW15805   0.124   5.630   4.198
 4969SOL    HW115806   0.152   5.606   4.105
 4969SOL    HW215807   0.128   5.729   4.210
 4970SOL     OW15808   1.513   1.583   1.055
 4970SOL    HW115809   1.545   1.677   1.045
 4970SOL    HW215810   1.512   1.538   0.966
 4971SOL     OW15811   0.120   5.795   2.301
 4971SOL    HW115812   0.112   5.851   2.383
 4971SOL    HW215813   0.215   5.791   2.272
 4972SOL     OW15814   0.546   4.626   0.701
 4972SOL    HW115815   0.473   4.680   0.659
 4972SOL    HW215816   0.632   4.645   0.653
 4973SOL     OW15817   6.408   1.238   0.919
 4973SOL    HW115818   6.465   1.266   0.841
 4973SOL    HW215819   6.380   1.318   0.971
 4974SOL     OW15820   3.581   6.707   5.085
 4974SOL    HW115821   3.649   6.668   5.148
 4974SOL    HW215822   3.560   6.800   5.114
 4975SOL     OW15823   5.179   4.972   0.860
 4975SOL    HW115824   5.209   5.038   0.929
 4975SOL    HW215825   5.157   4.885   0.904
 4976SOL     OW15826   1.556   6.806   3.441
 4976SOL    HW115827   1.561   6.890   3.387
 4976SOL    HW215828   1.625   6.808   3.513
 4977SOL     OW15829   1.100   4.413   5.722
 4977SOL    HW115830   1.064   4.330   5.680
 4977SOL    HW215831   1.199   4.414   5.714
 4978SOL     OW15832   5.724   4.435   4.631
 4978SOL    HW115833   5.784   4.441   4.551
 4978SOL    HW215834   5.664   4.516   4.634
 4979SOL     OW15835   2.412   6.723   6.025
 4979SOL    HW115836   2.472   6.688   6.097
 4979SOL    HW215837   2.330   6.764   6.067
 4980SOL     OW15838   5.514   3.114   4.062
 4980SOL    HW115839   5.448   3.184   4.035
 4980SOL    HW215840   5.482   3.070   4.146
 4981SOL     OW15841   2.731   4.675   2.536
 4981SOL    HW115842   2.641   4.644   2.567
 4981SOL    HW215843   2.784   4.708   2.615
 4982SOL     OW15844   3.597   1.893   5.636
 4982SOL    HW115845   3.640   1.823   5.693
 4982SOL    HW215846   3.547   1.957   5.694
 4983SOL     OW15847   5.813   5.353   2.835
 4983SOL    HW115848   5.903   5.373   2.874
 4983SOL    HW215849   5.817   5.268   2.783
 4984SOL     OW15850   4.835   3.883   3.487
 4984SOL    HW115851   4.890   3.844   3.413
 4984SOL    HW215852   4.847   3.828   3.570
 4985SOL     OW15853   5.796   0.642   2.431
 4985SOL    HW115854   5.713   0.585   2.437
 4985SOL    HW215855   5.873   0.585   2.400
 4986SOL     OW15856   1.114   4.662   1.339
 4986SOL    HW115857   1.176   4.726   1.384
 4986SOL    HW215858   1.161   4.576   1.321
 4987SOL     OW15859   0.613   1.178   2.353
 4987SOL    HW115860   0.700   1.136   2.379
 4987SOL    HW215861   0.546   1.164   2.426
 4988SOL     OW15862   6.143   5.817   3.877
 4988SOL    HW115863   6.201   5.803   3.797
 4988SOL    HW215864   6.080   5.893   3.860
 4989SOL     OW15865   4.686   0.290   3.473
 4989SOL    HW115866   4.588   0.271   3.463
 4989SOL    HW215867   4.728   0.289   3.382
 4990SOL     OW15868   4.662   2.477   5.367
 4990SOL    HW115869   4.567   2.481   5.399
 4990SOL    HW215870   4.711   2.405   5.416
 4991SOL     OW15871   1.098   4.578   5.952
 4991SOL    HW115872   1.096   4.526   5.866
 4991SOL    HW215873   1.183   4.558   6.000
 4992SOL     OW15874   0.796   3.383   3.796
 4992SOL    HW115875   0.761   3.390   3.703
 4992SOL    HW215876   0.760   3.457   3.852
 4993SOL     OW15877   2.891   6.252   3.710
 4993SOL    HW115878   2.836   6.169   3.712
 4993SOL    HW215879   2.984   6.231   3.740
 4994SOL     OW15880   3.450   5.024   5.607
 4994SOL    HW115881   3.516   4.949   5.600
 4994SOL    HW215882   3.439   5.067   5.517
 4995SOL     OW15883   0.206   0.847   6.088
 4995SOL    HW115884   0.209   0.753   6.053
 4995SOL    HW215885   0.287   0.897   6.056
 4996SOL     OW15886   0.021   1.305   4.210
 4996SOL    HW115887   0.033   1.397   4.173
 4996SOL    HW215888   0.083   1.242   4.164
 4997SOL     OW15889   4.205   1.826   1.253
 4997SOL    HW115890   4.251   1.795   1.336
 4997SOL    HW215891   4.113   1.788   1.249
 4998SOL     OW15892   0.940   3.602   3.359
 4998SOL    HW115893   1.037   3.590   3.379
 4998SOL    HW215894   0.929   3.651   3.273
 4999SOL     OW15895   0.834   2.884   4.319
 4999SOL    HW115896   0.850   2.979   4.293
 4999SOL    HW215897   0.762   2.845   4.261
 5000SOL     OW15898   3.086   5.805   2.841
 5000SOL    HW115899   3.029   5.800   2.923
 5000SOL    HW215900   3.182   5.796   2.866
 5001SOL     OW15901   0.376   6.019   3.480
 5001SOL    HW115902   0.438   5.942   3.471
 5001SOL    HW215903   0.383   6.058   3.572
 5002SOL     OW15904   1.631   4.029   3.784
 5002SOL    HW115905   1.565   4.103   3.799
 5002SOL    HW215906   1.640   3.975   3.868
 5003SOL     OW15907   4.420   0.729   3.761
 5003SOL    HW115908   4.391   0.691   3.673
 5003SOL    HW215909   4.387   0.823   3.769
 5004SOL     OW15910   3.321   5.238   0.079
 5004SOL    HW115911   3.241   5.269   0.130
 5004SOL    HW215912   3.381   5.315   0.060
 5005SOL     OW15913   2.863   2.968   0.201
 5005SOL    HW115914   2.790   2.975   0.269
 5005SOL    HW215915   2.872   2.873   0.171
 5006SOL     OW15916   4.910   1.829   1.788
 5006SOL    HW115917   4.869   1.896   1.727
 5006SOL    HW215918   4.874   1.842   1.881
 5007SOL     OW15919   5.731   6.415   1.845
 5007SOL    HW115920   5.769   6.479   1.780
 5007SOL    HW215921   5.784   6.417   1.930
 5008SOL     OW15922   5.668   0.112   2.503
 5008SOL    HW115923   5.649   0.209   2.495
 5008SOL    HW215924   5.766   0.096   2.487
 5009SOL     OW15925   6.630   2.390   0.513
 5009SOL    HW115926   6.581   2.331   0.448
 5009SOL    HW215927   6.708   2.339   0.550
 5010SOL     OW15928   3.399   3.712   1.236
 5010SOL    HW115929   3.432   3.782   1.299
 5010SOL    HW215930   3.336   3.753   1.171
 5011SOL     OW15931   1.947   2.922   6.791
 5011SOL    HW115932   2.007   2.844   6.775
 5011SOL    HW215933   2.001   3.005   6.805
 5012SOL     OW15934   6.060   1.741   6.119
 5012SOL    HW115935   6.016   1.821   6.159
 5012SOL    HW215936   6.156   1.739   6.146
 5013SOL     OW15937   5.971   0.038   5.795
 5013SOL    HW115938   5.924   0.068   5.712
 5013SOL    HW215939   6.030   6.978   5.774
 5014SOL     OW15940   6.000   3.330   1.771
 5014SOL    HW115941   6.015   3.423   1.740
 5014SOL    HW215942   6.087   3.291   1.802
 5015SOL     OW15943   5.610   0.006   4.020
 5015SOL    HW115944   5.708   0.007   4.001
 5015SOL    HW215945   5.594   6.984   4.110
 5016SOL     OW15946   2.008   3.393   5.781
 5016SOL    HW115947   2.000   3.482   5.735
 5016SOL    HW215948   2.009   3.407   5.880
 5017SOL     OW15949   0.736   3.251   2.217
 5017SOL    HW115950   0.695   3.162   2.198
 5017SOL    HW215951   0.685   3.322   2.169
 5018SOL     OW15952   1.288   0.276   0.098
 5018SOL    HW115953   1.219   0.212   0.065
 5018SOL    HW215954   1.243   0.350   0.148
 5019SOL     OW15955   1.568   5.201   4.785
 5019SOL    HW115956   1.666   5.203   4.765
 5019SOL    HW215957   1.525   5.284   4.750
 5020SOL     OW15958   2.544   7.010   4.254
 5020SOL    HW115959   2.629   0.025   4.213
 5020SOL    HW215960   2.554   6.914   4.279
 5021SOL     OW15961   2.116   0.867   0.394
 5021SOL    HW115962   2.211   0.876   0.365
 5021SOL    HW215963   2.061   0.942   0.357
 5022SOL     OW15964   6.661   3.027   1.316
 5022SOL    HW115965   6.750   3.032   1.270
 5022SOL    HW215966   6.665   2.956   1.387
 5023SOL     OW15967   6.898   4.103   2.380
 5023SOL    HW115968   6.909   4.083   2.477
 5023SOL    HW215969   6.937   4.028   2.326
 5024SOL     OW15970   4.013   3.721   1.131
 5024SOL    HW115971   4.048   3.695   1.220
 5024SOL    HW215972   3.973   3.641   1.086
 5025SOL     OW15973   4.469   0.965   4.273
 5025SOL    HW115974   4.538   0.950   4.203
 5025SOL    HW215975   4.421   1.050   4.255
 5026SOL     OW15976   4.190   6.866   4.743
 5026SOL    HW115977   4.152   6.804   4.674
 5026SOL    HW215978   4.196   6.819   4.831
 5027SOL     OW15979   5.380   6.538   0.373
 5027SOL    HW115980   5.305   6.602   0.362
 5027SOL    HW215981   5.461   6.573   0.327
 5028SOL     OW15982   6.138   1.961   2.561
 5028SOL    HW115983   6.229   1.986   2.593
 5028SOL    HW215984   6.070   1.990   2.628
 5029SOL     OW15985   5.985   1.982   2.803
 5029SOL    HW115986   5.971   1.897   2.853
 5029SOL    HW215987   5.946   2.058   2.856
 5030SOL     OW15988   0.130   4.329   6.492
 5030SOL    HW115989   0.086   4.239   6.491
 5030SOL    HW215990   0.228   4.318   6.509
 5031SOL     OW15991   6.555   6.593   6.097
 5031SOL    HW115992   6.486   6.586   6.169
 5031SOL    HW215993   6.644   6.614   6.137
 5032SOL     OW15994   2.578   3.374   5.307
 5032SOL    HW115995   2.624   3.462   5.321
 5032SOL    HW215996   2.621   3.304   5.365
 5033SOL     OW15997   2.230   0.561   6.795
 5033SOL    HW115998   2.311   0.615   6.772
 5033SOL    HW215999   2.205   0.576   6.890
 5034SOL     OW16000   4.553   6.479   4.462
 5034SOL    HW116001   4.556   6.558   4.400
 5034SOL    HW216002   4.642   6.471   4.508
 5035SOL     OW16003   1.898   3.394   3.862
 5035SOL    HW116004   1.807   3.353   3.864
 5035SOL    HW216005   1.898   3.473   3.801
 5036SOL     OW16006   6.784   2.231   5.687
 5036SOL    HW116007   6.873   2.212   5.645
 5036SOL    HW216008   6.729   2.286   5.625
 5037SOL     OW16009   4.372   4.121   1.383
 5037SOL    HW116010   4.429   4.148   1.461
 5037SOL    HW216011   4.369   4.022   1.377
 5038SOL     OW16012   4.087   3.297   4.355
 5038SOL    HW116013   4.021   3.347   4.410
 5038SOL    HW216014   4.175   3.345   4.357
 5039SOL     OW16015   1.185   3.513   6.870
 5039SOL    HW116016   1.096   3.555   6.856
 5039SOL    HW216017   1.176   3.413   6.870
 5040SOL     OW16018   0.303   0.695   5.382
 5040SOL    HW116019   0.335   0.616   5.331
 5040SOL    HW216020   0.376   0.729   5.441
 5041SOL     OW16021   0.057   3.220   1.744
 5041SOL    HW116022   0.001   3.248   1.822
 5041SOL    HW216023   7.017   3.177   1.675
 5042SOL     OW16024   0.317   2.771   6.245
 5042SOL    HW116025   0.252   2.813   6.309
 5042SOL    HW216026   0.406   2.759   6.290
 5043SOL     OW16027   4.080   6.431   1.312
 5043SOL    HW116028   4.086   6.392   1.404
 5043SOL    HW216029   4.052   6.360   1.247
 5044SOL     OW16030   5.967   4.616   0.597
 5044SOL    HW116031   6.008   4.631   0.507
 5044SOL    HW216032   5.868   4.631   0.591
 5045SOL     OW16033   6.176   3.344   6.652
 5045SOL    HW116034   6.210   3.401   6.726
 5045SOL    HW216035   6.076   3.351   6.648
 5046SOL     OW16036   3.617   3.171   2.938
 5046SOL    HW116037   3.544   3.109   2.970
 5046SOL    HW216038   3.604   3.189   2.841
 5047SOL     OW16039   0.877   3.953   3.449
 5047SOL    HW116040   0.854   4.040   3.405
 5047SOL    HW216041   0.796   3.894   3.453
 5048SOL     OW16042   1.823   0.982   5.702
 5048SOL    HW116043   1.823   1.077   5.673
 5048SOL    HW216044   1.730   0.946   5.700
 5049SOL     OW16045   4.827   1.508   6.723
 5049SOL    HW116046   4.818   1.532   6.626
 5049SOL    HW216047   4.738   1.481   6.759
 5050SOL     OW16048   1.605   0.465   0.609
 5050SOL    HW116049   1.700   0.468   0.578
 5050SOL    HW216050   1.551   0.409   0.545
 5051SOL     OW16051   4.403   5.386   1.310
 5051SOL    HW116052   4.334   5.458   1.310
 5051SOL    HW216053   4.361   5.300   1.338
 5052SOL     OW16054   2.897   1.273   5.440
 5052SOL    HW116055   2.935   1.337   5.507
 5052SOL    HW216056   2.839   1.324   5.376
 5053SOL     OW16057   6.970   6.920   1.509
 5053SOL    HW116058   6.960   7.014   1.476
 5053SOL    HW216059   6.889   6.893   1.561
 5054SOL     OW16060   3.422   4.973   3.765
 5054SOL    HW116061   3.323   4.976   3.774
 5054SOL    HW216062   3.462   5.054   3.807
 5055SOL     OW16063   6.717   3.403   6.883
 5055SOL    HW116064   6.815   3.382   6.879
 5055SOL    HW216065   6.667   3.320   6.909
 5056SOL     OW16066   5.247   4.291   4.462
 5056SOL    HW116067   5.316   4.357   4.492
 5056SOL    HW216068   5.170   4.293   4.525
 5057SOL     OW16069   0.914   5.879   2.364
 5057SOL    HW116070   0.852   5.817   2.315
 5057SOL    HW216071   0.992   5.826   2.399
 5058SOL     OW16072   3.181   5.220   5.319
 5058SOL    HW116073   3.212   5.143   5.375
 5058SOL    HW216074   3.251   5.241   5.251
 5059SOL     OW16075   0.387   0.240   1.945
 5059SOL    HW116076   0.477   0.231   1.987
 5059SOL    HW216077   0.378   0.332   1.905
 5060SOL     OW16078   6.492   1.813   5.683
 5060SOL    HW116079   6.540   1.873   5.747
 5060SOL    HW216080   6.393   1.823   5.696
 5061SOL     OW16081   5.548   4.147   0.149
 5061SOL    HW116082   5.580   4.085   0.221
 5061SOL    HW216083   5.450   4.165   0.162
 5062SOL     OW16084   0.516   0.479   0.925
 5062SOL    HW116085   0.545   0.561   0.974
 5062SOL    HW216086   0.516   0.400   0.987
 5063SOL     OW16087   1.428   6.656   1.076
 5063SOL    HW116088   1.357   6.699   1.132
 5063SOL    HW216089   1.432   6.558   1.096
 5064SOL     OW16090   4.937   3.010   6.851
 5064SOL    HW116091   5.036   2.997   6.855
 5064SOL    HW216092   4.910   3.085   6.911
 5065SOL     OW16093   2.293   6.092   5.336
 5065SOL    HW116094   2.290   6.079   5.237
 5065SOL    HW216095   2.308   6.189   5.356
 5066SOL     OW16096   5.074   4.925   1.349
 5066SOL    HW116097   5.026   4.972   1.275
 5066SOL    HW216098   5.134   4.989   1.396
 5067SOL     OW16099   4.754   1.079   0.017
 5067SOL    HW116100   4.847   1.043   0.014
 5067SOL    HW216101   4.738   1.120   0.107
 5068SOL     OW16102   2.773   5.076   1.364
 5068SOL    HW116103   2.742   4.997   1.311
 5068SOL    HW216104   2.845   5.047   1.427
 5069SOL     OW16105   0.626   5.191   3.412
 5069SOL    HW116106   0.571   5.108   3.421
 5069SOL    HW216107   0.723   5.166   3.403
 5070SOL     OW16108   4.893   3.249   4.452
 5070SOL    HW116109   4.916   3.185   4.379
 5070SOL    HW216110   4.877   3.198   4.536
 5071SOL     OW16111   4.276   1.002   6.806
 5071SOL    HW116112   4.291   1.097   6.777
 5071SOL    HW216113   4.361   0.962   6.839
 5072SOL     OW16114   1.253   4.260   1.072
 5072SOL    HW116115   1.317   4.311   1.015
 5072SOL    HW216116   1.285   4.166   1.082
 5073SOL     OW16117   4.385   1.927   3.831
 5073SOL    HW116118   4.314   1.892   3.891
 5073SOL    HW216119   4.365   2.022   3.807
 5074SOL     OW16120   3.124   4.258   6.104
 5074SOL    HW116121   3.166   4.182   6.153
 5074SOL    HW216122   3.026   4.241   6.094
 5075SOL     OW16123   0.124   5.738   4.511
 5075SOL    HW116124   0.179   5.655   4.508
 5075SOL    HW216125   0.027   5.714   4.508
 5076SOL     OW16126   3.424   0.180   1.490
 5076SOL    HW116127   3.331   0.197   1.456
 5076SOL    HW216128   3.453   0.258   1.546
 5077SOL     OW16129   0.387   2.342   2.304
 5077SOL    HW116130   0.359   2.437   2.320
 5077SOL    HW216131   0.360   2.315   2.211
 5078SOL     OW16132   1.169   1.231   3.703
 5078SOL    HW116133   1.249   1.172   3.698
 5078SOL    HW216134   1.088   1.176   3.722
 5079SOL     OW16135   3.966   5.062   5.414
 5079SOL    HW116136   4.060   5.058   5.448
 5079SOL    HW216137   3.963   5.025   5.321
 5080SOL     OW16138   5.820   6.553   5.561
 5080SOL    HW116139   5.862   6.464   5.575
 5080SOL    HW216140   5.835   6.610   5.642
 5081SOL     OW16141   3.137   3.517   3.510
 5081SOL    HW116142   3.053   3.466   3.489
 5081SOL    HW216143   3.127   3.563   3.598
 5082SOL     OW16144   6.261   5.897   4.548
 5082SOL    HW116145   6.174   5.895   4.597
 5082SOL    HW216146   6.306   5.808   4.556
 5083SOL     OW16147   1.437   5.925   1.731
 5083SOL    HW116148   1.381   6.006   1.712
 5083SOL    HW216149   1.497   5.944   1.809
 5084SOL     OW16150   2.144   6.030   3.446
 5084SOL    HW116151   2.177   6.049   3.353
 5084SOL    HW216152   2.050   6.061   3.455
 5085SOL     OW16153   6.462   3.064   5.945
 5085SOL    HW116154   6.484   2.993   5.879
 5085SOL    HW216155   6.494   3.036   6.036
 5086SOL     OW16156   6.571   5.237   3.295
 5086SOL    HW116157   6.479   5.248   3.333
 5086SOL    HW216158   6.626   5.318   3.319
 5087SOL     OW16159   0.308   5.815   5.556
 5087SOL    HW116160   0.231   5.752   5.562
 5087SOL    HW216161   0.355   5.802   5.469
 5088SOL     OW16162   5.524   0.382   0.091
 5088SOL    HW116163   5.489   0.289   0.079
 5088SOL    HW216164   5.617   0.387   0.054
 5089SOL     OW16165   5.157   2.956   3.365
 5089SOL    HW116166   5.225   3.016   3.408
 5089SOL    HW216167   5.175   2.861   3.392
 5090SOL     OW16168   1.331   4.851   1.002
 5090SOL    HW116169   1.326   4.764   0.953
 5090SOL    HW216170   1.242   4.870   1.044
 5091SOL     OW16171   1.634   5.696   2.364
 5091SOL    HW116172   1.625   5.777   2.422
 5091SOL    HW216173   1.546   5.649   2.358
 5092SOL     OW16174   3.633   2.686   1.764
 5092SOL    HW116175   3.696   2.763   1.756
 5092SOL    HW216176   3.569   2.702   1.839
 5093SOL     OW16177   0.476   2.021   1.053
 5093SOL    HW116178   0.441   2.064   0.970
 5093SOL    HW216179   0.543   2.081   1.096
 5094SOL     OW16180   6.788   0.381   6.595
 5094SOL    HW116181   6.727   0.308   6.625
 5094SOL    HW216182   6.767   0.405   6.500
 5095SOL     OW16183   2.953   0.338   5.513
 5095SOL    HW116184   2.944   0.395   5.594
 5095SOL    HW216185   3.035   0.364   5.462
 5096SOL     OW16186   4.309   5.041   1.887
 5096SOL    HW116187   4.352   5.107   1.825
 5096SOL    HW216188   4.225   5.081   1.924
 5097SOL     OW16189   0.591   0.507   6.347
 5097SOL    HW116190   0.508   0.560   6.366
 5097SOL    HW216191   0.591   0.480   6.251
 5098SOL     OW16192   0.228   2.585   2.287
 5098SOL    HW116193   0.149   2.605   2.229
 5098SOL    HW216194   0.204   2.605   2.383
 5099SOL     OW16195   0.655   6.655   4.264
 5099SOL    HW116196   0.720   6.611   4.326
 5099SOL    HW216197   0.572   6.681   4.314
 5100SOL     OW16198   5.056   6.541   6.308
 5100SOL    HW116199   5.056   6.637   6.336
 5100SOL    HW216200   5.036   6.483   6.386
 5101SOL     OW16201   4.501   6.166   0.488
 5101SOL    HW116202   4.440   6.240   0.461
 5101SOL    HW216203   4.478   6.083   0.436
 5102SOL     OW16204   3.616   6.294   4.994
 5102SOL    HW116205   3.629   6.245   5.080
 5102SOL    HW216206   3.686   6.266   4.929
 5103SOL     OW16207   1.057   0.549   4.666
 5103SOL    HW116208   1.143   0.499   4.653
 5103SOL    HW216209   0.980   0.485   4.663
 5104SOL     OW16210   1.561   6.845   0.937
 5104SOL    HW116211   1.591   6.800   0.852
 5104SOL    HW216212   1.511   6.780   0.993
 5105SOL     OW16213   2.219   3.257   6.430
 5105SOL    HW116214   2.243   3.205   6.511
 5105SOL    HW216215   2.297   3.313   6.401
 5106SOL     OW16216   3.388   0.711   2.253
 5106SOL    HW116217   3.371   0.670   2.343
 5106SOL    HW216218   3.302   0.749   2.217
 5107SOL     OW16219   1.384   0.052   5.819
 5107SOL    HW116220   1.356   6.979   5.789
 5107SOL    HW216221   1.304   0.112   5.823
 5108SOL     OW16222   2.979   3.830   3.876
 5108SOL    HW116223   2.921   3.911   3.881
 5108SOL    HW216224   2.944   3.759   3.936
 5109SOL     OW16225   0.086   1.201   1.235
 5109SOL    HW116226   0.157   1.269   1.248
 5109SOL    HW216227   0.006   1.225   1.290
 5110SOL     OW16228   2.231   5.822   5.450
 5110SOL    HW116229   2.245   5.920   5.437
 5110SOL    HW216230   2.173   5.787   5.376
 5111SOL     OW16231   1.769   1.243   0.197
 5111SOL    HW116232   1.700   1.230   0.125
 5111SOL    HW216233   1.727   1.223   0.286
 5112SOL     OW16234   0.276   6.692   3.811
 5112SOL    HW116235   0.331   6.740   3.743
 5112SOL    HW216236   0.200   6.749   3.840
 5113SOL     OW16237   0.784   6.584   6.565
 5113SOL    HW116238   0.782   6.678   6.600
 5113SOL    HW216239   0.722   6.576   6.488
 5114SOL     OW16240   3.715   4.724   0.089
 5114SOL    HW116241   3.616   4.717   0.081
 5114SOL    HW216242   3.740   4.817   0.116
 5115SOL     OW16243   1.953   3.880   5.427
 5115SOL    HW116244   2.041   3.875   5.379
 5115SOL    HW216245   1.879   3.860   5.362
 5116SOL     OW16246   0.413   3.505   1.434
 5116SOL    HW116247   0.355   3.571   1.481
 5116SOL    HW216248   0.361   3.461   1.360
 5117SOL     OW16249   2.434   4.464   4.004
 5117SOL    HW116250   2.396   4.419   3.923
 5117SOL    HW216251   2.514   4.518   3.978
 5118SOL     OW16252   4.463   6.811   1.476
 5118SOL    HW116253   4.485   6.903   1.445
 5118SOL    HW216254   4.381   6.779   1.429
 5119SOL     OW16255   6.508   0.058   2.696
 5119SOL    HW116256   6.513   0.122   2.773
 5119SOL    HW216257   6.601   0.037   2.664
 5120SOL     OW16258   4.809   1.035   2.779
 5120SOL    HW116259   4.906   1.062   2.779
 5120SOL    HW216260   4.791   0.976   2.701
 5121SOL     OW16261   0.722   3.568   4.785
 5121SOL    HW116262   0.792   3.598   4.851
 5121SOL    HW216263   0.693   3.475   4.808
 5122SOL     OW16264   2.088   6.116   3.185
 5122SOL    HW116265   2.111   6.062   3.104
 5122SOL    HW216266   2.017   6.183   3.160
 5123SOL     OW16267   5.828   4.420   2.267
 5123SOL    HW116268   5.860   4.496   2.210
 5123SOL    HW216269   5.740   4.444   2.307
 5124SOL     OW16270   2.782   5.925   0.385
 5124SOL    HW116271   2.682   5.917   0.383
 5124SOL    HW216272   2.810   5.962   0.474
 5125SOL     OW16273   6.702   2.449   6.331
 5125SOL    HW116274   6.757   2.430   6.250
 5125SOL    HW216275   6.640   2.372   6.349
 5126SOL     OW16276   4.468   3.153   6.541
 5126SOL    HW116277   4.385   3.189   6.584
 5126SOL    HW216278   4.519   3.100   6.609
 5127SOL     OW16279   5.459   3.184   6.810
 5127SOL    HW116280   5.425   3.100   6.768
 5127SOL    HW216281   5.467   3.255   6.740
 5128SOL     OW16282   0.795   6.845   6.773
 5128SOL    HW116283   0.859   6.919   6.753
 5128SOL    HW216284   0.834   6.786   6.844
 5129SOL     OW16285   4.103   2.221   2.254
 5129SOL    HW116286   4.174   2.261   2.196
 5129SOL    HW216287   4.103   2.267   2.343
 5130SOL     OW16288   0.793   6.793   4.886
 5130SOL    HW116289   0.893   6.799   4.890
 5130SOL    HW216290   0.762   6.811   4.793
 5131SOL     OW16291   3.573   4.963   3.232
 5131SOL    HW116292   3.551   4.896   3.161
 5131SOL    HW216293   3.667   4.948   3.263
 5132SOL     OW16294   3.697   1.412   6.552
 5132SOL    HW116295   3.708   1.488   6.617
 5132SOL    HW216296   3.601   1.406   6.525
 5133SOL     OW16297   4.900   4.591   6.784
 5133SOL    HW116298   4.883   4.669   6.844
 5133SOL    HW216299   4.930   4.624   6.695
 5134SOL     OW16300   5.891   5.958   0.347
 5134SOL    HW116301   5.806   5.915   0.317
 5134SOL    HW216302   5.963   5.943   0.279
 5135SOL     OW16303   0.135   2.793   2.474
 5135SOL    HW116304   0.163   2.858   2.544
 5135SOL    HW216305   0.041   2.763   2.491
 5136SOL     OW16306   1.087   1.287   6.017
 5136SOL    HW116307   1.018   1.215   6.018
 5136SOL    HW216308   1.176   1.247   6.042
 5137SOL     OW16309   5.288   0.548   4.131
 5137SOL    HW116310   5.200   0.517   4.095
 5137SOL    HW216311   5.286   0.545   4.231
 5138SOL     OW16312   3.004   3.121   3.344
 5138SOL    HW116313   3.027   3.024   3.357
 5138SOL    HW216314   3.053   3.156   3.265
 5139SOL     OW16315   2.896   0.788   5.809
 5139SOL    HW116316   2.903   0.819   5.714
 5139SOL    HW216317   2.968   0.829   5.863
 5140SOL     OW16318   3.276   3.682   6.375
 5140SOL    HW116319   3.200   3.686   6.440
 5140SOL    HW216320   3.242   3.691   6.282
 5141SOL     OW16321   6.829   2.740   1.353
 5141SOL    HW116322   6.780   2.671   1.301
 5141SOL    HW216323   6.768   2.779   1.422
 5142SOL     OW16324   0.177   0.062   2.187
 5142SOL    HW116325   0.261   0.007   2.189
 5142SOL    HW216326   0.146   0.072   2.092
 5143SOL     OW16327   6.965   6.440   2.534
 5143SOL    HW116328   6.888   6.452   2.596
 5143SOL    HW216329   6.933   6.395   2.450
 5144SOL     OW16330   1.997   2.939   5.301
 5144SOL    HW116331   1.955   2.966   5.215
 5144SOL    HW216332   2.095   2.957   5.297
 5145SOL     OW16333   2.539   5.675   5.783
 5145SOL    HW116334   2.487   5.759   5.799
 5145SOL    HW216335   2.521   5.610   5.857
 5146SOL     OW16336   5.872   6.159   6.896
 5146SOL    HW116337   5.926   6.175   6.979
 5146SOL    HW216338   5.934   6.148   6.818
 5147SOL     OW16339   4.436   2.498   3.065
 5147SOL    HW116340   4.488   2.548   2.996
 5147SOL    HW216341   4.449   2.399   3.052
 5148SOL     OW16342   0.174   0.505   6.321
 5148SOL    HW116343   0.081   0.541   6.325
 5148SOL    HW216344   0.198   0.483   6.227
 5149SOL     OW16345   4.521   5.561   4.134
 5149SOL    HW116346   4.453   5.538   4.065
 5149SOL    HW216347   4.590   5.488   4.138
 5150SOL     OW16348   6.253   6.677   3.294
 5150SOL    HW116349   6.312   6.738   3.241
 5150SOL    HW216350   6.239   6.716   3.385
 5151SOL     OW16351   6.112   6.216   2.132
 5151SOL    HW116352   6.141   6.122   2.145
 5151SOL    HW216353   6.191   6.277   2.140
 5152SOL     OW16354   1.782   1.492   6.761
 5152SOL    HW116355   1.720   1.539   6.824
 5152SOL    HW216356   1.816   1.408   6.804
 5153SOL     OW16357   0.859   2.014   0.665
 5153SOL    HW116358   0.851   1.978   0.758
 5153SOL    HW216359   0.839   2.112   0.665
 5154SOL     OW16360   0.225   3.070   1.062
 5154SOL    HW116361   0.162   3.144   1.085
 5154SOL    HW216362   0.317   3.095   1.093
 5155SOL     OW16363   1.496   1.720   6.620
 5155SOL    HW116364   1.535   1.795   6.674
 5155SOL    HW216365   1.514   1.634   6.667
 5156SOL     OW16366   5.876   6.232   5.076
 5156SOL    HW116367   5.851   6.183   4.993
 5156SOL    HW216368   5.970   6.210   5.101
 5157SOL     OW16369   3.418   0.384   2.063
 5157SOL    HW116370   3.450   0.474   2.034
 5157SOL    HW216371   3.403   0.384   2.162
 5158SOL     OW16372   1.234   1.867   1.977
 5158SOL    HW116373   1.243   1.818   1.890
 5158SOL    HW216374   1.324   1.898   2.008
 5159SOL     OW16375   5.846   3.257   5.973
 5159SOL    HW116376   5.898   3.249   5.888
 5159SOL    HW216377   5.861   3.175   6.029
 5160SOL     OW16378   6.160   6.961   2.930
 5160SOL    HW116379   6.161   6.974   2.831
 5160SOL    HW216380   6.129   0.026   2.975
 5161SOL     OW16381   1.296   3.245   0.773
 5161SOL    HW116382   1.270   3.277   0.681
 5161SOL    HW216383   1.214   3.214   0.821
 5162SOL     OW16384   6.872   6.916   4.262
 5162SOL    HW116385   6.789   6.965   4.236
 5162SOL    HW216386   6.857   6.818   4.252
 5163SOL     OW16387   3.657   0.366   2.372
 5163SOL    HW116388   3.560   0.358   2.346
 5163SOL    HW216389   3.673   0.458   2.410
 5164SOL     OW16390   2.632   3.441   0.167
 5164SOL    HW116391   2.693   3.472   0.240
 5164SOL    HW216392   2.663   3.351   0.134
 5165SOL     OW16393   1.831   4.233   6.331
 5165SOL    HW116394   1.858   4.210   6.237
 5165SOL    HW216395   1.910   4.273   6.378
 5166SOL     OW16396   0.790   4.638   0.534
 5166SOL    HW116397   0.847   4.719   0.515
 5166SOL    HW216398   0.845   4.555   0.521
 5167SOL     OW16399   5.439   3.394   5.678
 5167SOL    HW116400   5.473   3.478   5.721
 5167SOL    HW216401   5.353   3.413   5.631
 5168SOL     OW16402   4.182   2.202   2.841
 5168SOL    HW116403   4.263   2.211   2.783
 5168SOL    HW216404   4.199   2.248   2.929
 5169SOL     OW16405   4.788   5.813   4.961
 5169SOL    HW116406   4.828   5.902   4.984
 5169SOL    HW216407   4.689   5.816   4.975
 5170SOL     OW16408   1.936   3.645   6.475
 5170SOL    HW116409   2.027   3.614   6.502
 5170SOL    HW216410   1.867   3.587   6.518
 5171SOL     OW16411   2.250   5.738   5.726
 5171SOL    HW116412   2.311   5.791   5.786
 5171SOL    HW216413   2.261   5.768   5.632
 5172SOL     OW16414   5.699   5.152   5.220
 5172SOL    HW116415   5.791   5.118   5.236
 5172SOL    HW216416   5.701   5.252   5.210
 5173SOL     OW16417   4.558   5.540   5.378
 5173SOL    HW116418   4.583   5.624   5.426
 5173SOL    HW216419   4.503   5.482   5.438
 5174SOL     OW16420   2.273   6.618   3.056
 5174SOL    HW116421   2.200   6.649   3.116
 5174SOL    HW216422   2.271   6.670   2.970
 5175SOL     OW16423   2.746   2.980   6.950
 5175SOL    HW116424   2.687   2.972   6.869
 5175SOL    HW216425   2.781   2.889   6.974
 5176SOL     OW16426   6.369   5.755   6.556
 5176SOL    HW116427   6.456   5.730   6.599
 5176SOL    HW216428   6.319   5.817   6.615
 5177SOL     OW16429   6.207   7.000   0.857
 5177SOL    HW116430   6.284   6.974   0.800
 5177SOL    HW216431   6.211   6.951   0.944
 5178SOL     OW16432   1.325   4.110   1.524
 5178SOL    HW116433   1.288   4.167   1.598
 5178SOL    HW216434   1.368   4.029   1.564
 5179SOL     OW16435   4.649   5.859   2.848
 5179SOL    HW116436   4.600   5.945   2.865
 5179SOL    HW216437   4.743   5.868   2.881
 5180SOL     OW16438   1.935   5.064   2.746
 5180SOL    HW116439   1.860   5.099   2.802
 5180SOL    HW216440   1.978   4.986   2.792
 5181SOL     OW16441   6.302   0.653   5.734
 5181SOL    HW116442   6.204   0.667   5.751
 5181SOL    HW216443   6.315   0.572   5.678
 5182SOL     OW16444   2.575   6.177   2.679
 5182SOL    HW116445   2.512   6.101   2.693
 5182SOL    HW216446   2.533   6.245   2.619
 5183SOL     OW16447   4.357   2.202   3.839
 5183SOL    HW116448   4.439   2.248   3.805
 5183SOL    HW216449   4.341   2.228   3.934
 5184SOL     OW16450   1.829   1.212   3.101
 5184SOL    HW116451   1.753   1.147   3.104
 5184SOL    HW216452   1.879   1.209   3.188
 5185SOL     OW16453   6.954   0.908   2.254
 5185SOL    HW116454   6.971   1.005   2.233
 5185SOL    HW216455   6.890   0.901   2.330
 5186SOL     OW16456   6.774   3.900   6.653
 5186SOL    HW116457   6.681   3.870   6.676
 5186SOL    HW216458   6.813   3.949   6.730
 5187SOL     OW16459   1.198   4.745   5.012
 5187SOL    HW116460   1.224   4.654   5.045
 5187SOL    HW216461   1.277   4.806   5.017
 5188SOL     OW16462   5.920   0.357   2.459
 5188SOL    HW116463   5.997   0.294   2.452
 5188SOL    HW216464   5.875   0.365   2.371
 5189SOL     OW16465   5.089   6.541   6.679
 5189SOL    HW116466   5.175   6.529   6.728
 5189SOL    HW216467   5.057   6.635   6.691
 5190SOL     OW16468   1.898   4.773   0.017
 5190SOL    HW116469   1.814   4.827   0.023
 5190SOL    HW216470   1.892   4.711   6.956
 5191SOL     OW16471   2.633   4.730   1.829
 5191SOL    HW116472   2.686   4.690   1.903
 5191SOL    HW216473   2.692   4.789   1.774
 5192SOL     OW16474   1.270   4.578   2.263
 5192SOL    HW116475   1.359   4.614   2.291
 5192SOL    HW216476   1.209   4.575   2.342
 5193SOL     OW16477   5.902   1.256   5.320
 5193SOL    HW116478   5.945   1.243   5.231
 5193SOL    HW216479   5.941   1.337   5.364
 5194SOL     OW16480   4.933   1.115   5.864
 5194SOL    HW116481   4.846   1.163   5.858
 5194SOL    HW216482   4.921   1.029   5.913
 5195SOL     OW16483   0.423   0.572   5.114
 5195SOL    HW116484   0.441   0.502   5.045
 5195SOL    HW216485   0.334   0.614   5.096
 5196SOL     OW16486   6.004   6.570   3.792
 5196SOL    HW116487   5.912   6.596   3.822
 5196SOL    HW216488   6.048   6.649   3.749
 5197SOL     OW16489   0.970   2.856   4.775
 5197SOL    HW116490   0.922   2.918   4.837
 5197SOL    HW216491   0.911   2.833   4.698
 5198SOL     OW16492   6.278   4.977   3.345
 5198SOL    HW116493   6.357   4.956   3.287
 5198SOL    HW216494   6.195   4.945   3.300
 5199SOL     OW16495   0.252   4.656   1.303
 5199SOL    HW116496   0.167   4.655   1.251
 5199SOL    HW216497   0.326   4.621   1.246
 5200SOL     OW16498   6.682   3.540   5.002
 5200SOL    HW116499   6.777   3.558   4.978
 5200SOL    HW216500   6.637   3.627   5.025
 5201SOL     OW16501   0.577   5.402   4.211
 5201SOL    HW116502   0.602   5.429   4.118
 5201SOL    HW216503   0.653   5.420   4.273
 5202SOL     OW16504   0.902   4.503   1.356
 5202SOL    HW116505   0.947   4.432   1.411
 5202SOL    HW216506   0.966   4.577   1.337
 5203SOL     OW16507   0.494   3.114   0.111
 5203SOL    HW116508   0.464   3.054   0.037
 5203SOL    HW216509   0.464   3.077   0.199
 5204SOL     OW16510   4.676   4.436   6.953
 5204SOL    HW116511   4.722   4.493   6.884
 5204SOL    HW216512   4.617   4.494   7.010
 5205SOL     OW16513   1.324   0.273   0.767
 5205SOL    HW116514   1.402   0.225   0.726
 5205SOL    HW216515   1.242   0.216   0.758
 5206SOL     OW16516   0.315   4.447   4.846
 5206SOL    HW116517   0.376   4.504   4.791
 5206SOL    HW216518   0.276   4.375   4.789
 5207SOL     OW16519   1.675   4.642   3.835
 5207SOL    HW116520   1.672   4.560   3.778
 5207SOL    HW216521   1.738   4.628   3.911
 5208SOL     OW16522   4.783   0.769   0.254
 5208SOL    HW116523   4.827   0.857   0.236
 5208SOL    HW216524   4.764   0.760   0.351
 5209SOL     OW16525   5.409   5.793   2.566
 5209SOL    HW116526   5.431   5.886   2.595
 5209SOL    HW216527   5.380   5.795   2.470
 5210SOL     OW16528   4.516   4.454   3.274
 5210SOL    HW116529   4.449   4.501   3.330
 5210SOL    HW216530   4.543   4.369   3.318
 5211SOL     OW16531   3.667   3.717   2.353
 5211SOL    HW116532   3.638   3.634   2.401
 5211SOL    HW216533   3.752   3.698   2.303
 5212SOL     OW16534   0.956   0.999   6.907
 5212SOL    HW116535   0.881   1.057   6.940
 5212SOL    HW216536   1.038   1.017   6.960
 5213SOL     OW16537   4.222   2.546   6.518
 5213SOL    HW116538   4.305   2.521   6.567
 5213SOL    HW216539   4.169   2.611   6.572
 5214SOL     OW16540   5.748   1.716   6.715
 5214SOL    HW116541   5.666   1.755   6.756
 5214SOL    HW216542   5.776   1.635   6.766
 5215SOL     OW16543   5.868   5.254   2.553
 5215SOL    HW116544   5.911   5.197   2.623
 5215SOL    HW216545   5.906   5.347   2.558
 5216SOL     OW16546   4.668   5.664   1.463
 5216SOL    HW116547   4.760   5.691   1.436
 5216SOL    HW216548   4.601   5.726   1.420
 5217SOL     OW16549   2.906   5.181   3.827
 5217SOL    HW116550   2.877   5.095   3.786
 5217SOL    HW216551   3.004   5.177   3.846
 5218SOL     OW16552   1.598   6.828   4.697
 5218SOL    HW116553   1.627   6.732   4.707
 5218SOL    HW216554   1.518   6.844   4.756
 5219SOL     OW16555   2.582   5.867   0.838
 5219SOL    HW116556   2.552   5.961   0.826
 5219SOL    HW216557   2.583   5.821   0.749
 5220SOL     OW16558   0.710   6.938   2.144
 5220SOL    HW116559   0.750   6.851   2.170
 5220SOL    HW216560   0.618   6.946   2.181
 5221SOL     OW16561   5.149   1.777   5.181
 5221SOL    HW116562   5.121   1.751   5.274
 5221SOL    HW216563   5.070   1.809   5.130
 5222SOL     OW16564   0.849   6.568   2.503
 5222SOL    HW116565   0.755   6.533   2.501
 5222SOL    HW216566   0.859   6.633   2.578
 5223SOL     OW16567   5.514   0.031   0.753
 5223SOL    HW116568   5.426   0.009   0.712
 5223SOL    HW216569   5.519   7.009   0.845
 5224SOL     OW16570   5.481   1.474   3.194
 5224SOL    HW116571   5.481   1.455   3.293
 5224SOL    HW216572   5.432   1.560   3.177
 5225SOL     OW16573   5.671   6.191   5.287
 5225SOL    HW116574   5.666   6.291   5.290
 5225SOL    HW216575   5.703   6.163   5.197
 5226SOL     OW16576   1.898   6.199   3.724
 5226SOL    HW116577   1.825   6.235   3.666
 5226SOL    HW216578   1.907   6.101   3.709
 5227SOL     OW16579   5.501   3.928   3.506
 5227SOL    HW116580   5.413   3.894   3.540
 5227SOL    HW216581   5.571   3.858   3.520
 5228SOL     OW16582   5.387   0.430   1.157
 5228SOL    HW116583   5.410   0.492   1.233
 5228SOL    HW216584   5.289   0.437   1.137
 5229SOL     OW16585   1.151   4.421   4.482
 5229SOL    HW116586   1.234   4.458   4.525
 5229SOL    HW216587   1.107   4.357   4.544
 5230SOL     OW16588   1.501   6.342   6.501
 5230SOL    HW116589   1.476   6.284   6.579
 5230SOL    HW216590   1.547   6.286   6.432
 5231SOL     OW16591   3.715   2.980   3.825
 5231SOL    HW116592   3.810   2.979   3.793
 5231SOL    HW216593   3.664   3.050   3.775
 5232SOL     OW16594   5.441   3.099   5.540
 5232SOL    HW116595   5.482   3.076   5.451
 5232SOL    HW216596   5.454   3.196   5.559
 5233SOL     OW16597   0.587   0.824   2.441
 5233SOL    HW116598   0.663   0.763   2.463
 5233SOL    HW216599   0.572   0.888   2.516
 5234SOL     OW16600   4.340   6.208   0.963
 5234SOL    HW116601   4.246   6.224   0.935
 5234SOL    HW216602   4.375   6.125   0.918
 5235SOL     OW16603   0.949   3.535   1.310
 5235SOL    HW116604   0.973   3.629   1.285
 5235SOL    HW216605   1.031   3.478   1.309
 5236SOL     OW16606   5.221   3.252   1.002
 5236SOL    HW116607   5.197   3.161   1.035
 5236SOL    HW216608   5.191   3.262   0.907
 5237SOL     OW16609   2.384   1.858   4.613
 5237SOL    HW116610   2.462   1.809   4.653
 5237SOL    HW216611   2.304   1.849   4.673
 5238SOL     OW16612   1.873   3.910   0.929
 5238SOL    HW116613   1.829   3.948   0.847
 5238SOL    HW216614   1.827   3.946   1.011
 5239SOL     OW16615   2.844   3.269   5.152
 5239SOL    HW116616   2.771   3.321   5.196
 5239SOL    HW216617   2.831   3.269   5.053
 5240SOL     OW16618   3.027   2.049   5.107
 5240SOL    HW116619   2.934   2.085   5.109
 5240SOL    HW216620   3.091   2.122   5.082
 5241SOL     OW16621   2.814   5.604   5.735
 5241SOL    HW116622   2.780   5.511   5.718
 5241SOL    HW216623   2.741   5.658   5.777
 5242SOL     OW16624   5.020   0.985   6.177
 5242SOL    HW116625   4.998   1.079   6.201
 5242SOL    HW216626   5.076   0.945   6.249
 5243SOL     OW16627   0.559   3.817   0.341
 5243SOL    HW116628   0.549   3.903   0.390
 5243SOL    HW216629   0.574   3.743   0.406
 5244SOL     OW16630   5.481   3.849   6.708
 5244SOL    HW116631   5.570   3.823   6.671
 5244SOL    HW216632   5.413   3.847   6.636
 5245SOL     OW16633   4.488   4.214   6.457
 5245SOL    HW116634   4.412   4.214   6.522
 5245SOL    HW216635   4.561   4.153   6.490
 5246SOL     OW16636   0.875   3.483   2.970
 5246SOL    HW116637   0.915   3.452   3.056
 5246SOL    HW216638   0.888   3.413   2.899
 5247SOL     OW16639   0.699   5.183   1.133
 5247SOL    HW116640   0.792   5.151   1.116
 5247SOL    HW216641   0.670   5.244   1.059
 5248SOL     OW16642   4.525   0.788   6.600
 5248SOL    HW116643   4.617   0.763   6.629
 5248SOL    HW216644   4.518   0.888   6.592
 5249SOL     OW16645   1.683   5.355   5.114
 5249SOL    HW116646   1.781   5.373   5.112
 5249SOL    HW216647   1.666   5.263   5.151
 5250SOL     OW16648   0.426   1.605   6.414
 5250SOL    HW116649   0.341   1.610   6.466
 5250SOL    HW216650   0.434   1.514   6.374
 5251SOL     OW16651   0.071   2.611   1.365
 5251SOL    HW116652   0.081   2.522   1.320
 5251SOL    HW216653   7.003   2.653   1.336
 5252SOL     OW16654   3.813   6.069   0.645
 5252SOL    HW116655   3.902   6.087   0.602
 5252SOL    HW216656   3.803   5.971   0.660
 5253SOL     OW16657   5.998   2.889   3.661
 5253SOL    HW116658   5.939   2.965   3.631
 5253SOL    HW216659   6.094   2.917   3.653
 5254SOL     OW16660   4.645   1.331   3.995
 5254SOL    HW116661   4.672   1.378   3.912
 5254SOL    HW216662   4.556   1.367   4.026
 5255SOL     OW16663   3.602   6.579   4.614
 5255SOL    HW116664   3.560   6.547   4.699
 5255SOL    HW216665   3.586   6.677   4.604
 5256SOL     OW16666   5.842   6.718   2.910
 5256SOL    HW116667   5.758   6.664   2.911
 5256SOL    HW216668   5.880   6.723   3.002
 5257SOL     OW16669   3.441   1.558   1.881
 5257SOL    HW116670   3.353   1.575   1.837
 5257SOL    HW216671   3.479   1.644   1.916
 5258SOL     OW16672   5.751   2.389   1.911
 5258SOL    HW116673   5.826   2.322   1.905
 5258SOL    HW216674   5.693   2.367   1.990
 5259SOL     OW16675   4.965   4.424   2.396
 5259SOL    HW116676   4.975   4.332   2.357
 5259SOL    HW216677   5.037   4.483   2.359
 5260SOL     OW16678   5.312   3.339   1.313
 5260SOL    HW116679   5.301   3.318   1.216
 5260SOL    HW216680   5.244   3.407   1.340
 5261SOL     OW16681   2.128   2.170   4.716
 5261SOL    HW116682   2.189   2.217   4.780
 5261SOL    HW216683   2.052   2.231   4.692
 5262SOL     OW16684   2.356   0.240   1.734
 5262SOL    HW116685   2.280   0.301   1.757
 5262SOL    HW216686   2.442   0.292   1.739
 5263SOL     OW16687   1.042   6.415   0.432
 5263SOL    HW116688   1.102   6.343   0.467
 5263SOL    HW216689   0.973   6.374   0.372
 5264SOL     OW16690   0.737   2.508   0.658
 5264SOL    HW116691   0.799   2.430   0.648
 5264SOL    HW216692   0.695   2.506   0.748
 5265SOL     OW16693   5.140   4.634   2.328
 5265SOL    HW116694   5.073   4.657   2.258
 5265SOL    HW216695   5.197   4.714   2.348
 5266SOL     OW16696   1.965   7.011   0.872
 5266SOL    HW116697   2.007   0.083   0.876
 5266SOL    HW216698   1.956   6.974   0.965
 5267SOL     OW16699   4.966   4.229   4.575
 5267SOL    HW116700   4.918   4.295   4.632
 5267SOL    HW216701   4.899   4.168   4.531
 5268SOL     OW16702   5.968   4.755   4.988
 5268SOL    HW116703   5.901   4.687   4.958
 5268SOL    HW216704   5.957   4.772   5.086
 5269SOL     OW16705   1.163   5.684   4.262
 5269SOL    HW116706   1.144   5.779   4.235
 5269SOL    HW216707   1.259   5.663   4.244
 5270SOL     OW16708   6.733   3.161   2.973
 5270SOL    HW116709   6.703   3.066   2.962
 5270SOL    HW216710   6.653   3.219   2.989
 5271SOL     OW16711   5.158   4.521   4.784
 5271SOL    HW116712   5.166   4.534   4.685
 5271SOL    HW216713   5.082   4.577   4.818
 5272SOL     OW16714   1.455   1.093   3.991
 5272SOL    HW116715   1.543   1.138   4.005
 5272SOL    HW216716   1.387   1.134   4.051
 5273SOL     OW16717   0.540   0.867   4.918
 5273SOL    HW116718   0.596   0.950   4.911
 5273SOL    HW216719   0.483   0.858   4.837
 5274SOL     OW16720   6.429   5.573   3.756
 5274SOL    HW116721   6.496   5.611   3.819
 5274SOL    HW216722   6.354   5.532   3.808
 5275SOL     OW16723   2.565   6.818   6.678
 5275SOL    HW116724   2.479   6.857   6.712
 5275SOL    HW216725   2.583   6.732   6.726
 5276SOL     OW16726   0.258   0.341   1.125
 5276SOL    HW116727   0.232   0.278   1.052
 5276SOL    HW216728   0.344   0.311   1.167
 5277SOL     OW16729   1.107   1.747   2.652
 5277SOL    HW116730   1.114   1.820   2.584
 5277SOL    HW216731   1.025   1.761   2.708
 5278SOL     OW16732   0.862   4.596   6.413
 5278SOL    HW116733   0.950   4.554   6.435
 5278SOL    HW216734   0.852   4.601   6.313
 5279SOL     OW16735   2.603   5.918   6.354
 5279SOL    HW116736   2.699   5.894   6.341
 5279SOL    HW216737   2.558   5.849   6.410
 5280SOL     OW16738   4.476   6.563   5.134
 5280SOL    HW116739   4.383   6.529   5.117
 5280SOL    HW216740   4.475   6.622   5.215
 5281SOL     OW16741   2.823   0.294   5.221
 5281SOL    HW116742   2.759   0.279   5.296
 5281SOL    HW216743   2.911   0.252   5.243
 5282SOL     OW16744   1.413   6.749   1.602
 5282SOL    HW116745   1.452   6.764   1.512
 5282SOL    HW216746   1.485   6.717   1.664
 5283SOL     OW16747   0.553   0.700   4.351
 5283SOL    HW116748   0.607   0.768   4.401
 5283SOL    HW216749   0.513   0.635   4.416
 5284SOL     OW16750   4.325   2.506   1.365
 5284SOL    HW116751   4.381   2.458   1.298
 5284SOL    HW216752   4.228   2.490   1.345
 5285SOL     OW16753   1.646   1.711   4.366
 5285SOL    HW116754   1.623   1.643   4.296
 5285SOL    HW216755   1.590   1.793   4.353
 5286SOL     OW16756   6.203   3.122   1.388
 5286SOL    HW116757   6.207   3.030   1.427
 5286SOL    HW216758   6.296   3.157   1.376
 5287SOL     OW16759   2.302   5.040   1.331
 5287SOL    HW116760   2.218   5.071   1.376
 5287SOL    HW216761   2.364   5.003   1.400
 5288SOL     OW16762   3.977   0.358   1.413
 5288SOL    HW116763   4.014   0.399   1.330
 5288SOL    HW216764   3.909   0.420   1.453
 5289SOL     OW16765   2.276   4.809   6.143
 5289SOL    HW116766   2.258   4.747   6.067
 5289SOL    HW216767   2.210   4.884   6.141
 5290SOL     OW16768   1.453   3.055   4.832
 5290SOL    HW116769   1.521   3.055   4.907
 5290SOL    HW216770   1.420   2.962   4.819
 5291SOL     OW16771   2.662   4.809   4.666
 5291SOL    HW116772   2.672   4.748   4.744
 5291SOL    HW216773   2.566   4.815   4.639
 5292SOL     OW16774   0.154   3.961   5.812
 5292SOL    HW116775   0.172   3.922   5.722
 5292SOL    HW216776   0.239   3.966   5.864
 5293SOL     OW16777   2.147   6.251   4.229
 5293SOL    HW116778   2.247   6.242   4.228
 5293SOL    HW216779   2.106   6.164   4.256
 5294SOL     OW16780   4.002   0.481   5.394
 5294SOL    HW116781   4.015   0.480   5.493
 5294SOL    HW216782   3.996   0.387   5.360
 5295SOL     OW16783   2.768   1.760   2.591
 5295SOL    HW116784   2.720   1.703   2.525
 5295SOL    HW216785   2.805   1.841   2.545
 5296SOL     OW16786   4.952   4.832   1.810
 5296SOL    HW116787   4.955   4.930   1.831
 5296SOL    HW216788   5.005   4.781   1.877
 5297SOL     OW16789   2.936   5.353   0.430
 5297SOL    HW116790   2.849   5.352   0.479
 5297SOL    HW216791   2.979   5.262   0.437
 5298SOL     OW16792   2.102   0.654   0.004
 5298SOL    HW116793   2.013   0.629   6.984
 5298SOL    HW216794   2.103   0.634   0.102
 5299SOL     OW16795   3.165   1.369   1.389
 5299SOL    HW116796   3.092   1.343   1.452
 5299SOL    HW216797   3.125   1.404   1.304
 5300SOL     OW16798   2.171   4.786   6.995
 5300SOL    HW116799   2.081   4.780   0.022
 5300SOL    HW216800   2.162   4.760   6.899
 5301SOL     OW16801   5.247   0.253   6.024
 5301SOL    HW116802   5.238   0.267   5.925
 5301SOL    HW216803   5.174   0.192   6.055
 5302SOL     OW16804   5.649   6.265   3.359
 5302SOL    HW116805   5.587   6.214   3.419
 5302SOL    HW216806   5.741   6.226   3.365
 5303SOL     OW16807   0.612   5.298   5.910
 5303SOL    HW116808   0.563   5.215   5.883
 5303SOL    HW216809   0.565   5.378   5.874
 5304SOL     OW16810   6.911   0.643   2.126
 5304SOL    HW116811   6.994   0.596   2.157
 5304SOL    HW216812   6.925   0.742   2.129
 5305SOL     OW16813   1.195   5.138   3.144
 5305SOL    HW116814   1.208   5.226   3.190
 5305SOL    HW216815   1.098   5.113   3.147
 5306SOL     OW16816   0.203   3.254   6.140
 5306SOL    HW116817   0.267   3.271   6.215
 5306SOL    HW216818   0.225   3.313   6.063
 5307SOL     OW16819   6.335   1.420   1.442
 5307SOL    HW116820   6.242   1.418   1.477
 5307SOL    HW216821   6.399   1.422   1.519
 5308SOL     OW16822   1.622   4.018   3.277
 5308SOL    HW116823   1.564   3.948   3.319
 5308SOL    HW216824   1.640   3.992   3.182
 5309SOL     OW16825   6.115   6.058   2.585
 5309SOL    HW116826   6.203   6.059   2.539
 5309SOL    HW216827   6.044   6.090   2.522
 5310SOL     OW16828   5.435   2.868   2.345
 5310SOL    HW116829   5.533   2.885   2.347
 5310SOL    HW216830   5.414   2.787   2.400
 5311SOL     OW16831   6.065   0.197   0.367
 5311SOL    HW116832   6.028   0.176   0.457
 5311SOL    HW216833   6.159   0.164   0.362
 5312SOL     OW16834   0.056   6.506   0.540
 5312SOL    HW116835   0.089   6.463   0.625
 5312SOL    HW216836   6.995   6.455   0.506
 5313SOL     OW16837   0.692   5.415   5.032
 5313SOL    HW116838   0.695   5.420   4.932
 5313SOL    HW216839   0.782   5.391   5.067
 5314SOL     OW16840   6.222   0.888   1.985
 5314SOL    HW116841   6.213   0.792   1.956
 5314SOL    HW216842   6.282   0.936   1.922
 5315SOL     OW16843   4.356   1.145   4.551
 5315SOL    HW116844   4.441   1.193   4.529
 5315SOL    HW216845   4.280   1.187   4.501
 5316SOL     OW16846   0.545   2.313   4.494
 5316SOL    HW116847   0.496   2.276   4.416
 5316SOL    HW216848   0.494   2.293   4.578
 5317SOL     OW16849   6.554   2.334   6.582
 5317SOL    HW116850   6.503   2.281   6.514
 5317SOL    HW216851   6.503   2.417   6.604
 5318SOL     OW16852   6.891   3.775   6.449
 5318SOL    HW116853   6.862   3.812   6.537
 5318SOL    HW216854   6.831   3.699   6.424
 5319SOL     OW16855   4.519   6.721   1.193
 5319SOL    HW116856   4.482   6.657   1.126
 5319SOL    HW216857   4.531   6.675   1.281
 5320SOL     OW16858   2.813   5.820   0.990
 5320SOL    HW116859   2.782   5.873   0.911
 5320SOL    HW216860   2.741   5.756   1.017
 5321SOL     OW16861   1.657   4.029   4.865
 5321SOL    HW116862   1.638   3.939   4.824
 5321SOL    HW216863   1.749   4.058   4.840
 5322SOL     OW16864   5.626   6.587   2.118
 5322SOL    HW116865   5.532   6.620   2.117
 5322SOL    HW216866   5.678   6.632   2.045
 5323SOL     OW16867   4.007   1.170   5.520
 5323SOL    HW116868   3.945   1.159   5.598
 5323SOL    HW216869   3.985   1.102   5.450
 5324SOL     OW16870   2.118   1.612   0.418
 5324SOL    HW116871   2.179   1.538   0.391
 5324SOL    HW216872   2.146   1.647   0.508
 5325SOL     OW16873   2.225   1.767   4.825
 5325SOL    HW116874   2.282   1.808   4.897
 5325SOL    HW216875   2.157   1.708   4.866
 5326SOL     OW16876   6.170   6.801   2.487
 5326SOL    HW116877   6.128   6.761   2.406
 5326SOL    HW216878   6.258   6.755   2.505
 5327SOL     OW16879   6.171   2.527   5.157
 5327SOL    HW116880   6.152   2.430   5.175
 5327SOL    HW216881   6.095   2.582   5.191
 5328SOL     OW16882   4.213   4.659   0.085
 5328SOL    HW116883   4.220   4.669   0.184
 5328SOL    HW216884   4.118   4.648   0.058
 5329SOL     OW16885   1.676   6.551   6.237
 5329SOL    HW116886   1.585   6.511   6.250
 5329SOL    HW216887   1.710   6.586   6.325
 5330SOL     OW16888   2.640   3.565   0.529
 5330SOL    HW116889   2.561   3.516   0.492
 5330SOL    HW216890   2.627   3.579   0.627
 5331SOL     OW16891   6.199   0.800   6.374
 5331SOL    HW116892   6.166   0.848   6.293
 5331SOL    HW216893   6.274   0.852   6.415
 5332SOL     OW16894   1.214   5.002   2.285
 5332SOL    HW116895   1.152   4.928   2.260
 5332SOL    HW216896   1.249   5.046   2.203
 5333SOL     OW16897   0.769   6.278   4.317
 5333SOL    HW116898   0.798   6.361   4.269
 5333SOL    HW216899   0.732   6.213   4.251
 5334SOL     OW16900   2.792   0.259   4.287
 5334SOL    HW116901   2.775   0.190   4.217
 5334SOL    HW216902   2.729   0.336   4.274
 5335SOL     OW16903   6.598   5.909   0.697
 5335SOL    HW116904   6.616   5.904   0.795
 5335SOL    HW216905   6.513   5.860   0.677
 5336SOL     OW16906   1.634   3.712   2.199
 5336SOL    HW116907   1.608   3.636   2.139
 5336SOL    HW216908   1.691   3.776   2.148
 5337SOL     OW16909   4.638   4.492   1.372
 5337SOL    HW116910   4.566   4.494   1.303
 5337SOL    HW216911   4.659   4.586   1.402
 5338SOL     OW16912   6.424   2.292   6.322
 5338SOL    HW116913   6.329   2.260   6.325
 5338SOL    HW216914   6.437   2.350   6.241
 5339SOL     OW16915   6.683   1.842   3.472
 5339SOL    HW116916   6.642   1.868   3.385
 5339SOL    HW216917   6.643   1.897   3.545
 5340SOL     OW16918   5.335   2.095   6.971
 5340SOL    HW116919   5.275   2.157   0.004
 5340SOL    HW216920   5.279   2.033   6.916
 5341SOL     OW16921   4.234   0.311   0.109
 5341SOL    HW116922   4.268   0.244   0.044
 5341SOL    HW216923   4.136   0.296   0.126
 5342SOL     OW16924   3.436   0.786   5.573
 5342SOL    HW116925   3.415   0.794   5.475
 5342SOL    HW216926   3.528   0.749   5.584
 5343SOL     OW16927   3.945   3.810   2.285
 5343SOL    HW116928   3.903   3.881   2.341
 5343SOL    HW216929   4.001   3.750   2.343
 5344SOL     OW16930   2.225   2.080   3.047
 5344SOL    HW116931   2.156   2.142   3.086
 5344SOL    HW216932   2.254   2.115   2.957
 5345SOL     OW16933   4.620   6.714   1.829
 5345SOL    HW116934   4.664   6.734   1.741
 5345SOL    HW216935   4.530   6.674   1.812
 5346SOL     OW16936   3.053   6.398   2.690
 5346SOL    HW116937   3.010   6.382   2.779
 5346SOL    HW216938   3.140   6.445   2.703
 5347SOL     OW16939   0.584   1.791   1.179
 5347SOL    HW116940   0.564   1.697   1.151
 5347SOL    HW216941   0.542   1.855   1.116
 5348SOL     OW16942   0.638   0.806   6.536
 5348SOL    HW116943   0.564   0.751   6.575
 5348SOL    HW216944   0.632   0.805   6.437
 5349SOL     OW16945   6.379   0.629   1.491
 5349SOL    HW116946   6.478   0.639   1.496
 5349SOL    HW216947   6.353   0.540   1.530
 5350SOL     OW16948   2.169   1.561   6.105
 5350SOL    HW116949   2.124   1.625   6.042
 5350SOL    HW216950   2.205   1.612   6.183
 5351SOL     OW16951   4.431   6.920   1.991
 5351SOL    HW116952   4.377   6.994   1.953
 5351SOL    HW216953   4.493   6.883   1.922
 5352SOL     OW16954   3.299   5.362   3.736
 5352SOL    HW116955   3.282   5.453   3.771
 5352SOL    HW216956   3.235   5.342   3.662
 5353SOL     OW16957   5.721   5.745   5.100
 5353SOL    HW116958   5.818   5.754   5.120
 5353SOL    HW216959   5.701   5.784   5.011
 5354SOL     OW16960   0.964   4.103   1.411
 5354SOL    HW116961   0.952   4.119   1.313
 5354SOL    HW216962   0.981   4.191   1.457
 5355SOL     OW16963   4.785   2.218   4.922
 5355SOL    HW116964   4.695   2.196   4.960
 5355SOL    HW216965   4.785   2.312   4.890
 5356SOL     OW16966   6.304   3.667   1.231
 5356SOL    HW116967   6.295   3.599   1.304
 5356SOL    HW216968   6.390   3.652   1.183
 5357SOL     OW16969   3.787   0.174   6.971
 5357SOL    HW116970   3.813   0.079   6.956
 5357SOL    HW216971   3.722   0.202   6.901
 5358SOL     OW16972   4.608   3.174   0.820
 5358SOL    HW116973   4.540   3.127   0.764
 5358SOL    HW216974   4.608   3.135   0.912
 5359SOL     OW16975   2.008   0.684   6.702
 5359SOL    HW116976   2.008   0.771   6.751
 5359SOL    HW216977   2.090   0.632   6.726
 5360SOL     OW16978   3.345   6.899   6.614
 5360SOL    HW116979   3.404   6.941   6.683
 5360SOL    HW216980   3.256   6.877   6.655
 5361SOL     OW16981   2.257   0.914   5.981
 5361SOL    HW116982   2.289   0.823   5.956
 5361SOL    HW216983   2.165   0.928   5.945
 5362SOL     OW16984   5.145   5.148   2.721
 5362SOL    HW116985   5.080   5.199   2.664
 5362SOL    HW216986   5.104   5.061   2.748
 5363SOL     OW16987   0.898   5.541   6.149
 5363SOL    HW116988   0.826   5.487   6.105
 5363SOL    HW216989   0.927   5.497   6.233
 5364SOL     OW16990   0.807   6.151   0.902
 5364SOL    HW116991   0.890   6.097   0.916
 5364SOL    HW216992   0.815   6.237   0.950
 5365SOL     OW16993   4.310   2.004   5.926
 5365SOL    HW116994   4.289   1.910   5.950
 5365SOL    HW216995   4.351   2.007   5.835
 5366SOL     OW16996   3.855   3.199   6.924
 5366SOL    HW116997   3.791   3.174   6.851
 5366SOL    HW216998   3.808   3.254   6.992
 5367SOL     OW16999   0.280   4.974   1.079
 5367SOL    HW117000   0.314   5.002   1.168
 5367SOL    HW217001   0.358   4.946   1.021
 5368SOL     OW17002   6.232   1.699   3.948
 5368SOL    HW117003   6.294   1.767   3.909
 5368SOL    HW217004   6.147   1.744   3.976
 5369SOL     OW17005   1.877   4.029   3.301
 5369SOL    HW117006   1.778   4.042   3.296
 5369SOL    HW217007   1.919   4.065   3.218
 5370SOL     OW17008   3.580   3.057   1.115
 5370SOL    HW117009   3.558   3.070   1.211
 5370SOL    HW217010   3.529   2.977   1.080
 5371SOL     OW17011   0.615   4.337   4.953
 5371SOL    HW117012   0.546   4.402   4.923
 5371SOL    HW217013   0.652   4.288   4.874
 5372SOL     OW17014   2.589   5.405   2.651
 5372SOL    HW117015   2.506   5.376   2.604
 5372SOL    HW217016   2.663   5.341   2.630
 5373SOL     OW17017   3.171   5.039   3.560
 5373SOL    HW117018   3.177   5.024   3.659
 5373SOL    HW217019   3.148   5.134   3.542
 5374SOL     OW17020   3.087   2.197   0.298
 5374SOL    HW117021   2.996   2.205   0.257
 5374SOL    HW217022   3.090   2.117   0.357
 5375SOL     OW17023   1.411   4.639   3.906
 5375SOL    HW117024   1.506   4.649   3.879
 5375SOL    HW217025   1.404   4.644   4.006
 5376SOL     OW17026   1.384   3.338   1.047
 5376SOL    HW117027   1.370   3.309   0.952
 5376SOL    HW217028   1.456   3.407   1.050
 5377SOL     OW17029   0.309   1.129   0.750
 5377SOL    HW117030   0.362   1.049   0.722
 5377SOL    HW217031   0.360   1.212   0.726
 5378SOL     OW17032   5.533   0.616   0.373
 5378SOL    HW117033   5.594   0.689   0.342
 5378SOL    HW217034   5.569   0.528   0.343
 5379SOL     OW17035   0.263   6.087   2.106
 5379SOL    HW117036   0.297   5.993   2.107
 5379SOL    HW217037   0.268   6.125   2.198
 5380SOL     OW17038   2.972   0.408   3.915
 5380SOL    HW117039   3.038   0.480   3.895
 5380SOL    HW217040   3.019   0.321   3.927
 5381SOL     OW17041   5.672   4.237   1.226
 5381SOL    HW117042   5.669   4.171   1.151
 5381SOL    HW217043   5.748   4.301   1.212
 5382SOL     OW17044   1.923   0.473   1.422
 5382SOL    HW117045   1.953   0.408   1.352
 5382SOL    HW217046   1.840   0.438   1.467
 5383SOL     OW17047   2.402   1.950   5.030
 5383SOL    HW117048   2.404   2.035   5.082
 5383SOL    HW217049   2.422   1.873   5.091
 5384SOL     OW17050   5.907   6.685   4.073
 5384SOL    HW117051   5.848   6.617   4.029
 5384SOL    HW217052   6.000   6.651   4.075
 5385SOL     OW17053   3.566   3.982   2.401
 5385SOL    HW117054   3.599   3.887   2.394
 5385SOL    HW217055   3.487   3.985   2.462
 5386SOL     OW17056   5.573   6.257   4.518
 5386SOL    HW117057   5.657   6.269   4.466
 5386SOL    HW217058   5.520   6.342   4.516
 5387SOL     OW17059   2.904   5.388   1.691
 5387SOL    HW117060   2.807   5.367   1.682
 5387SOL    HW217061   2.930   5.385   1.788
 5388SOL     OW17062   5.828   0.370   2.708
 5388SOL    HW117063   5.855   0.391   2.614
 5388SOL    HW217064   5.869   0.283   2.736
 5389SOL     OW17065   4.640   2.304   0.745
 5389SOL    HW117066   4.673   2.379   0.688
 5389SOL    HW217067   4.678   2.314   0.837
 5390SOL     OW17068   6.025   4.744   5.799
 5390SOL    HW117069   6.110   4.704   5.834
 5390SOL    HW217070   5.979   4.677   5.740
 5391SOL     OW17071   2.416   2.977   6.972
 5391SOL    HW117072   2.482   2.911   6.938
 5391SOL    HW217073   2.441   3.069   6.940
 5392SOL     OW17074   6.528   3.353   2.086
 5392SOL    HW117075   6.588   3.376   2.163
 5392SOL    HW217076   6.435   3.339   2.121
 5393SOL     OW17077   0.042   0.047   6.660
 5393SOL    HW117078   7.015   6.980   6.688
 5393SOL    HW217079   0.111   0.027   6.591
 5394SOL     OW17080   0.878   4.048   5.911
 5394SOL    HW117081   0.966   4.089   5.936
 5394SOL    HW217082   0.806   4.118   5.919
 5395SOL     OW17083   3.945   1.712   0.292
 5395SOL    HW117084   3.936   1.658   0.375
 5395SOL    HW217085   3.947   1.652   0.212
 5396SOL     OW17086   4.985   3.472   2.154
 5396SOL    HW117087   5.014   3.503   2.064
 5396SOL    HW217088   4.999   3.373   2.161
 5397SOL     OW17089   0.202   3.639   1.569
 5397SOL    HW117090   0.110   3.650   1.530
 5397SOL    HW217091   0.200   3.564   1.635
 5398SOL     OW17092   2.957   2.408   1.626
 5398SOL    HW117093   3.008   2.336   1.578
 5398SOL    HW217094   2.947   2.383   1.722
 5399SOL     OW17095   1.731   5.826   1.246
 5399SOL    HW117096   1.721   5.854   1.341
 5399SOL    HW217097   1.688   5.893   1.186
 5400SOL     OW17098   2.944   4.374   0.597
 5400SOL    HW117099   3.015   4.312   0.630
 5400SOL    HW217100   2.926   4.356   0.501
 5401SOL     OW17101   6.262   2.996   1.769
 5401SOL    HW117102   6.266   3.076   1.829
 5401SOL    HW217103   6.178   2.999   1.715
 5402SOL     OW17104   1.106   6.416   1.732
 5402SOL    HW117105   1.019   6.389   1.773
 5402SOL    HW217106   1.175   6.426   1.804
 5403SOL     OW17107   0.301   2.786   6.550
 5403SOL    HW117108   0.215   2.745   6.581
 5403SOL    HW217109   0.294   2.886   6.554
 5404SOL     OW17110   1.988   2.783   3.577
 5404SOL    HW117111   2.044   2.859   3.544
 5404SOL    HW217112   2.019   2.756   3.668
 5405SOL     OW17113   6.489   5.014   5.897
 5405SOL    HW117114   6.512   4.945   5.965
 5405SOL    HW217115   6.422   5.078   5.935
 5406SOL     OW17116   2.163   0.512   5.753
 5406SOL    HW117117   2.067   0.537   5.737
 5406SOL    HW217118   2.213   0.513   5.666
 5407SOL     OW17119   4.243   3.304   6.599
 5407SOL    HW117120   4.189   3.274   6.678
 5407SOL    HW217121   4.191   3.372   6.547
 5408SOL     OW17122   2.816   0.486   6.638
 5408SOL    HW117123   2.896   0.533   6.603
 5408SOL    HW217124   2.799   0.404   6.583
 5409SOL     OW17125   3.749   0.837   2.746
 5409SOL    HW117126   3.707   0.852   2.657
 5409SOL    HW217127   3.822   0.905   2.759
 5410SOL     OW17128   2.580   2.108   2.305
 5410SOL    HW117129   2.639   2.168   2.360
 5410SOL    HW217130   2.597   2.124   2.208
 5411SOL     OW17131   0.555   5.579   5.181
 5411SOL    HW117132   0.574   5.525   5.099
 5411SOL    HW217133   0.505   5.524   5.247
 5412SOL     OW17134   6.546   2.887   0.712
 5412SOL    HW117135   6.521   2.854   0.621
 5412SOL    HW217136   6.535   2.987   0.715
 5413SOL     OW17137   2.060   1.003   1.544
 5413SOL    HW117138   1.999   1.035   1.471
 5413SOL    HW217139   2.135   1.068   1.555
 5414SOL     OW17140   3.839   1.306   5.166
 5414SOL    HW117141   3.775   1.331   5.239
 5414SOL    HW217142   3.823   1.211   5.139
 5415SOL     OW17143   6.214   4.965   2.028
 5415SOL    HW117144   6.295   4.921   1.990
 5415SOL    HW217145   6.224   5.065   2.022
 5416SOL     OW17146   4.615   5.462   4.866
 5416SOL    HW117147   4.562   5.542   4.895
 5416SOL    HW217148   4.691   5.447   4.929
 5417SOL     OW17149   3.471   7.005   4.559
 5417SOL    HW117150   3.478   6.982   4.656
 5417SOL    HW217151   3.521   0.072   4.542
 5418SOL     OW17152   3.599   0.246   2.957
 5418SOL    HW117153   3.693   0.214   2.958
 5418SOL    HW217154   3.593   0.330   2.902
 5419SOL     OW17155   3.318   4.371   6.754
 5419SOL    HW117156   3.382   4.295   6.763
 5419SOL    HW217157   3.259   4.355   6.675
 5420SOL     OW17158   1.274   1.529   2.525
 5420SOL    HW117159   1.217   1.607   2.550
 5420SOL    HW217160   1.369   1.559   2.518
 5421SOL     OW17161   1.643   3.497   1.979
 5421SOL    HW117162   1.624   3.514   1.883
 5421SOL    HW217163   1.741   3.506   1.996
 5422SOL     OW17164   2.430   3.260   1.176
 5422SOL    HW117165   2.375   3.321   1.119
 5422SOL    HW217166   2.382   3.244   1.262
 5423SOL     OW17167   5.696   3.314   6.964
 5423SOL    HW117168   5.596   3.313   6.961
 5423SOL    HW217169   5.727   3.299   0.039
 5424SOL     OW17170   5.195   4.025   4.390
 5424SOL    HW117171   5.283   4.004   4.348
 5424SOL    HW217172   5.189   4.124   4.405
 5425SOL     OW17173   4.907   0.799   5.374
 5425SOL    HW117174   4.863   0.881   5.411
 5425SOL    HW217175   4.846   0.755   5.309
 5426SOL     OW17176   6.156   0.069   5.166
 5426SOL    HW117177   6.171   0.005   5.091
 5426SOL    HW217178   6.058   0.080   5.183
 5427SOL     OW17179   3.913   5.584   6.564
 5427SOL    HW117180   3.965   5.549   6.643
 5427SOL    HW217181   3.923   5.521   6.487
 5428SOL     OW17182   1.476   0.224   6.929
 5428SOL    HW117183   1.453   0.234   6.833
 5428SOL    HW217184   1.397   0.248   6.986
 5429SOL     OW17185   1.001   2.571   6.500
 5429SOL    HW117186   1.032   2.479   6.524
 5429SOL    HW217187   0.951   2.611   6.577
 5430SOL     OW17188   1.948   2.631   5.652
 5430SOL    HW117189   1.948   2.655   5.555
 5430SOL    HW217190   1.858   2.652   5.691
 5431SOL     OW17191   3.852   6.045   4.954
 5431SOL    HW117192   3.950   6.026   4.961
 5431SOL    HW217193   3.828   6.067   4.859
 5432SOL     OW17194   5.247   6.691   1.132
 5432SOL    HW117195   5.186   6.750   1.185
 5432SOL    HW217196   5.341   6.725   1.138
 5433SOL     OW17197   0.647   1.797   4.967
 5433SOL    HW117198   0.602   1.719   4.924
 5433SOL    HW217199   0.688   1.855   4.897
 5434SOL     OW17200   2.921   0.519   5.728
 5434SOL    HW117201   2.912   0.615   5.757
 5434SOL    HW217202   2.831   0.477   5.723
 5435SOL     OW17203   4.585   0.344   1.646
 5435SOL    HW117204   4.551   0.369   1.736
 5435SOL    HW217205   4.672   0.295   1.655
 5436SOL     OW17206   4.974   4.047   2.904
 5436SOL    HW117207   4.969   3.997   2.818
 5436SOL    HW217208   4.882   4.079   2.930
 5437SOL     OW17209   3.113   3.475   0.026
 5437SOL    HW117210   3.020   3.442   0.007
 5437SOL    HW217211   3.175   3.444   6.971
 5438SOL     OW17212   6.238   2.048   0.905
 5438SOL    HW117213   6.287   1.986   0.966
 5438SOL    HW217214   6.231   2.138   0.949
 5439SOL     OW17215   1.070   2.088   1.510
 5439SOL    HW117216   1.122   2.169   1.535
 5439SOL    HW217217   1.132   2.016   1.480
 5440SOL     OW17218   0.980   1.603   0.917
 5440SOL    HW117219   0.951   1.520   0.965
 5440SOL    HW217220   0.977   1.680   0.980
 5441SOL     OW17221   3.636   1.750   2.962
 5441SOL    HW117222   3.552   1.774   3.012
 5441SOL    HW217223   3.671   1.663   2.997
 5442SOL     OW17224   3.975   0.380   2.572
 5442SOL    HW117225   3.900   0.433   2.611
 5442SOL    HW217226   4.061   0.429   2.587
 5443SOL     OW17227   3.245   6.980   5.346
 5443SOL    HW117228   3.204   6.936   5.266
 5443SOL    HW217229   3.179   6.980   5.421
 5444SOL     OW17230   6.740   0.113   3.334
 5444SOL    HW117231   6.809   0.147   3.399
 5444SOL    HW217232   6.680   0.048   3.380
 5445SOL     OW17233   5.755   3.787   2.216
 5445SOL    HW117234   5.787   3.699   2.181
 5445SOL    HW217235   5.752   3.784   2.316
 5446SOL     OW17236   6.086   5.364   6.042
 5446SOL    HW117237   5.992   5.393   6.061
 5446SOL    HW217238   6.085   5.280   5.988
 5447SOL     OW17239   3.976   2.425   0.072
 5447SOL    HW117240   4.020   2.515   0.078
 5447SOL    HW217241   3.899   2.422   0.136
 5448SOL     OW17242   5.400   2.277   5.341
 5448SOL    HW117243   5.481   2.318   5.299
 5448SOL    HW217244   5.409   2.178   5.341
 5449SOL     OW17245   0.781   3.437   6.561
 5449SOL    HW117246   0.800   3.416   6.657
 5449SOL    HW217247   0.745   3.356   6.516
 5450SOL     OW17248   2.020   0.277   0.947
 5450SOL    HW117249   2.043   0.283   1.044
 5450SOL    HW217250   1.934   0.326   0.930
 5451SOL     OW17251   0.746   6.537   2.905
 5451SOL    HW117252   0.823   6.474   2.892
 5451SOL    HW217253   0.780   6.627   2.933
 5452SOL     OW17254   2.416   4.121   6.405
 5452SOL    HW117255   2.490   4.083   6.349
 5452SOL    HW217256   2.328   4.093   6.368
 5453SOL     OW17257   6.167   4.870   6.802
 5453SOL    HW117258   6.127   4.847   6.713
 5453SOL    HW217259   6.248   4.927   6.789
 5454SOL     OW17260   0.015   4.521   6.827
 5454SOL    HW117261   0.032   4.561   6.917
 5454SOL    HW217262   0.025   4.421   6.833
 5455SOL     OW17263   6.573   3.428   0.681
 5455SOL    HW117264   6.486   3.398   0.642
 5455SOL    HW217265   6.563   3.519   0.721
 5456SOL     OW17266   3.308   6.721   0.358
 5456SOL    HW117267   3.269   6.707   0.267
 5456SOL    HW217268   3.323   6.633   0.403
 5457SOL     OW17269   6.072   3.167   0.779
 5457SOL    HW117270   6.054   3.079   0.735
 5457SOL    HW217271   6.107   3.152   0.872
 5458SOL     OW17272   1.879   4.283   6.821
 5458SOL    HW117273   1.975   4.267   6.845
 5458SOL    HW217274   1.859   4.238   6.734
 5459SOL     OW17275   1.675   4.683   6.468
 5459SOL    HW117276   1.709   4.603   6.419
 5459SOL    HW217277   1.628   4.653   6.552
 5460SOL     OW17278   2.828   0.341   1.406
 5460SOL    HW117279   2.838   0.440   1.391
 5460SOL    HW217280   2.732   0.316   1.403
 5461SOL     OW17281   4.652   0.061   5.110
 5461SOL    HW117282   4.685   0.127   5.042
 5461SOL    HW217283   4.579   0.006   5.069
 5462SOL     OW17284   1.168   0.461   0.647
 5462SOL    HW117285   1.230   0.391   0.683
 5462SOL    HW217286   1.222   0.532   0.602
 5463SOL     OW17287   6.908   2.832   1.042
 5463SOL    HW117288   6.914   2.745   0.995
 5463SOL    HW217289   6.963   2.900   0.994
 5464SOL     OW17290   1.914   6.956   4.362
 5464SOL    HW117291   1.944   6.958   4.458
 5464SOL    HW217292   1.994   6.960   4.302
 5465SOL     OW17293   2.623   0.174   5.406
 5465SOL    HW117294   2.574   0.169   5.493
 5465SOL    HW217295   2.581   0.111   5.341
 5466SOL     OW17296   4.563   4.613   4.589
 5466SOL    HW117297   4.570   4.690   4.652
 5466SOL    HW217298   4.503   4.638   4.513
 5467SOL     OW17299   5.415   1.439   2.356
 5467SOL    HW117300   5.503   1.414   2.315
 5467SOL    HW217301   5.405   1.391   2.443
 5468SOL     OW17302   4.270   1.750   4.940
 5468SOL    HW117303   4.222   1.735   4.854
 5468SOL    HW217304   4.225   1.697   5.012
 5469SOL     OW17305   4.252   4.153   6.625
 5469SOL    HW117306   4.168   4.177   6.576
 5469SOL    HW217307   4.251   4.055   6.645
 5470SOL     OW17308   1.818   5.016   3.832
 5470SOL    HW117309   1.878   5.079   3.781
 5470SOL    HW217310   1.784   5.062   3.914
 5471SOL     OW17311   6.662   5.582   1.908
 5471SOL    HW117312   6.685   5.519   1.982
 5471SOL    HW217313   6.744   5.634   1.883
 5472SOL     OW17314   3.850   4.995   5.873
 5472SOL    HW117315   3.756   4.990   5.840
 5472SOL    HW217316   3.904   4.923   5.830
 5473SOL     OW17317   1.188   3.566   3.425
 5473SOL    HW117318   1.221   3.479   3.389
 5473SOL    HW217319   1.214   3.575   3.521
 5474SOL     OW17320   1.451   5.661   3.706
 5474SOL    HW117321   1.490   5.741   3.750
 5474SOL    HW217322   1.365   5.636   3.751
 5475SOL     OW17323   2.825   2.170   1.321
 5475SOL    HW117324   2.831   2.144   1.224
 5475SOL    HW217325   2.729   2.168   1.350
 5476SOL     OW17326   1.298   3.085   6.066
 5476SOL    HW117327   1.243   3.167   6.079
 5476SOL    HW217328   1.287   3.024   6.144
 5477SOL     OW17329   2.219   3.050   2.978
 5477SOL    HW117330   2.225   3.143   2.942
 5477SOL    HW217331   2.211   3.053   3.077
 5478SOL     OW17332   6.244   6.039   5.466
 5478SOL    HW117333   6.336   6.042   5.504
 5478SOL    HW217334   6.245   5.987   5.380
 5479SOL     OW17335   4.758   0.651   5.185
 5479SOL    HW117336   4.683   0.716   5.174
 5479SOL    HW217337   4.725   0.569   5.233
 5480SOL     OW17338   0.311   3.731   4.339
 5480SOL    HW117339   0.388   3.704   4.396
 5480SOL    HW217340   0.229   3.683   4.369
 5481SOL     OW17341   4.300   6.412   3.870
 5481SOL    HW117342   4.268   6.467   3.793
 5481SOL    HW217343   4.321   6.320   3.838
 5482SOL     OW17344   1.746   4.335   1.419
 5482SOL    HW117345   1.814   4.404   1.444
 5482SOL    HW217346   1.781   4.244   1.439
 5483SOL     OW17347   0.330   2.473   5.773
 5483SOL    HW117348   0.424   2.505   5.784
 5483SOL    HW217349   0.307   2.411   5.848
 5484SOL     OW17350   4.556   0.835   5.107
 5484SOL    HW117351   4.540   0.848   5.205
 5484SOL    HW217352   4.626   0.899   5.076
 5485SOL     OW17353   2.978   0.548   5.129
 5485SOL    HW117354   2.938   0.458   5.114
 5485SOL    HW217355   2.905   0.616   5.138
 5486SOL     OW17356   2.946   6.299   5.103
 5486SOL    HW117357   2.986   6.305   5.194
 5486SOL    HW217358   2.954   6.388   5.057
 5487SOL     OW17359   3.586   5.474   5.927
 5487SOL    HW117360   3.570   5.572   5.925
 5487SOL    HW217361   3.623   5.445   5.839
 5488SOL     OW17362   5.951   1.788   0.817
 5488SOL    HW117363   5.884   1.737   0.870
 5488SOL    HW217364   5.952   1.884   0.847
 5489SOL     OW17365   6.939   4.156   2.904
 5489SOL    HW117366   6.954   4.061   2.929
 5489SOL    HW217367   6.873   4.197   2.966
 5490SOL     OW17368   1.867   6.508   2.886
 5490SOL    HW117369   1.915   6.581   2.837
 5490SOL    HW217370   1.929   6.466   2.952
 5491SOL     OW17371   6.448   4.283   0.568
 5491SOL    HW117372   6.378   4.242   0.626
 5491SOL    HW217373   6.532   4.297   0.621
 5492SOL     OW17374   0.054   2.500   6.362
 5492SOL    HW117375   0.062   2.547   6.274
 5492SOL    HW217376   6.976   2.500   6.391
 5493SOL     OW17377   3.724   3.766   1.125
 5493SOL    HW117378   3.795   3.830   1.096
 5493SOL    HW217379   3.661   3.749   1.049
 5494SOL     OW17380   5.842   3.894   5.129
 5494SOL    HW117381   5.792   3.808   5.120
 5494SOL    HW217382   5.907   3.902   5.054
 5495SOL     OW17383   6.023   6.712   0.609
 5495SOL    HW117384   6.084   6.677   0.680
 5495SOL    HW217385   5.948   6.647   0.596
 5496SOL     OW17386   3.843   0.236   4.164
 5496SOL    HW117387   3.744   0.248   4.172
 5496SOL    HW217388   3.876   0.183   4.243
 5497SOL     OW17389   1.496   0.857   5.894
 5497SOL    HW117390   1.577   0.835   5.949
 5497SOL    HW217391   1.419   0.879   5.954
 5498SOL     OW17392   0.798   5.519   1.521
 5498SOL    HW117393   0.831   5.507   1.614
 5498SOL    HW217394   0.850   5.591   1.476
 5499SOL     OW17395   2.188   0.497   4.848
 5499SOL    HW117396   2.239   0.411   4.846
 5499SOL    HW217397   2.223   0.558   4.777
 5500SOL     OW17398   2.664   0.792   0.995
 5500SOL    HW117399   2.661   0.818   1.092
 5500SOL    HW217400   2.593   0.843   0.946
 5501SOL     OW17401   3.671   3.656   6.672
 5501SOL    HW117402   3.698   3.672   6.767
 5501SOL    HW217403   3.677   3.558   6.652
 5502SOL     OW17404   4.628   2.602   0.379
 5502SOL    HW117405   4.606   2.674   0.445
 5502SOL    HW217406   4.608   2.513   0.419
 5503SOL     OW17407   6.375   4.066   0.901
 5503SOL    HW117408   6.471   4.051   0.927
 5503SOL    HW217409   6.321   3.985   0.925
 5504SOL     OW17410   3.676   1.530   0.102
 5504SOL    HW117411   3.676   1.587   0.184
 5504SOL    HW217412   3.602   1.559   0.041
 5505SOL     OW17413   2.761   5.296   2.969
 5505SOL    HW117414   2.786   5.320   3.062
 5505SOL    HW217415   2.721   5.375   2.923
 5506SOL     OW17416   0.277   3.135   5.829
 5506SOL    HW117417   0.337   3.196   5.879
 5506SOL    HW217418   0.217   3.086   5.892
 5507SOL     OW17419   2.753   6.627   0.038
 5507SOL    HW117420   2.714   6.597   6.970
 5507SOL    HW217421   2.712   6.714   0.065
 5508SOL     OW17422   6.756   1.150   6.333
 5508SOL    HW117423   6.805   1.222   6.382
 5508SOL    HW217424   6.757   1.066   6.387
 5509SOL     OW17425   6.828   5.127   1.022
 5509SOL    HW117426   6.767   5.167   0.953
 5509SOL    HW217427   6.802   5.031   1.037
 5510SOL     OW17428   4.274   5.012   0.316
 5510SOL    HW117429   4.180   5.047   0.323
 5510SOL    HW217430   4.289   4.943   0.387
 5511SOL     OW17431   0.414   2.097   5.549
 5511SOL    HW117432   0.371   2.016   5.509
 5511SOL    HW217433   0.467   2.145   5.479
 5512SOL     OW17434   2.511   1.143   2.155
 5512SOL    HW117435   2.428   1.087   2.159
 5512SOL    HW217436   2.516   1.201   2.236
 5513SOL     OW17437   4.170   4.340   0.406
 5513SOL    HW117438   4.114   4.353   0.488
 5513SOL    HW217439   4.126   4.276   0.345
 5514SOL     OW17440   2.973   1.123   0.365
 5514SOL    HW117441   2.974   1.155   0.460
 5514SOL    HW217442   2.896   1.062   0.350
 5515SOL     OW17443   2.735   5.846   2.404
 5515SOL    HW117444   2.755   5.758   2.446
 5515SOL    HW217445   2.761   5.845   2.308
 5516SOL     OW17446   1.675   2.251   5.510
 5516SOL    HW117447   1.619   2.333   5.522
 5516SOL    HW217448   1.771   2.277   5.502
 5517SOL     OW17449   0.939   2.668   3.240
 5517SOL    HW117450   0.884   2.634   3.163
 5517SOL    HW217451   0.990   2.749   3.212
 5518SOL     OW17452   4.619   4.799   6.961
 5518SOL    HW117453   4.538   4.748   6.931
 5518SOL    HW217454   4.635   4.876   6.901
 5519SOL     OW17455   4.586   2.547   3.935
 5519SOL    HW117456   4.557   2.533   4.029
 5519SOL    HW217457   4.605   2.459   3.892
 5520SOL     OW17458   5.027   6.884   1.406
 5520SOL    HW117459   5.066   6.804   1.453
 5520SOL    HW217460   4.983   6.943   1.473
 5521SOL     OW17461   5.048   6.100   2.111
 5521SOL    HW117462   5.084   6.135   2.025
 5521SOL    HW217463   5.013   6.176   2.166
 5522SOL     OW17464   5.955   6.075   1.263
 5522SOL    HW117465   5.960   6.119   1.173
 5522SOL    HW217466   5.860   6.054   1.284
 5523SOL     OW17467   5.338   1.014   0.978
 5523SOL    HW117468   5.289   1.057   1.054
 5523SOL    HW217469   5.295   1.041   0.892
 5524SOL     OW17470   2.433   1.786   3.910
 5524SOL    HW117471   2.346   1.768   3.957
 5524SOL    HW217472   2.427   1.754   3.815
 5525SOL     OW17473   5.886   1.310   1.707
 5525SOL    HW117474   5.926   1.247   1.774
 5525SOL    HW217475   5.792   1.283   1.688
 5526SOL     OW17476   5.480   4.815   3.924
 5526SOL    HW117477   5.419   4.866   3.863
 5526SOL    HW217478   5.476   4.718   3.901
 5527SOL     OW17479   5.749   1.162   3.919
 5527SOL    HW117480   5.802   1.224   3.977
 5527SOL    HW217481   5.655   1.159   3.951
 5528SOL     OW17482   0.864   0.950   6.641
 5528SOL    HW117483   0.864   0.955   6.741
 5528SOL    HW217484   0.784   0.900   6.610
 5529SOL     OW17485   3.647   0.647   2.159
 5529SOL    HW117486   3.551   0.657   2.186
 5529SOL    HW217487   3.698   0.728   2.187
 5530SOL     OW17488   6.465   2.292   0.916
 5530SOL    HW117489   6.558   2.323   0.936
 5530SOL    HW217490   6.419   2.267   1.002
 5531SOL     OW17491   2.386   3.973   0.949
 5531SOL    HW117492   2.291   3.981   0.976
 5531SOL    HW217493   2.443   3.958   1.030
 5532SOL     OW17494   1.353   2.940   0.194
 5532SOL    HW117495   1.393   3.025   0.229
 5532SOL    HW217496   1.280   2.910   0.255
 5533SOL     OW17497   3.138   1.789   2.508
 5533SOL    HW117498   3.183   1.878   2.503
 5533SOL    HW217499   3.040   1.801   2.517
 5534SOL     OW17500   1.737   0.439   5.107
 5534SOL    HW117501   1.696   0.521   5.068
 5534SOL    HW217502   1.790   0.392   5.037
 5535SOL     OW17503   0.296   1.920   2.912
 5535SOL    HW117504   0.337   1.947   2.999
 5535SOL    HW217505   0.347   1.844   2.872
 5536SOL     OW17506   3.881   6.022   4.385
 5536SOL    HW117507   3.854   6.117   4.395
 5536SOL    HW217508   3.965   6.005   4.438
 5537SOL     OW17509   2.727   1.597   3.500
 5537SOL    HW117510   2.672   1.542   3.436
 5537SOL    HW217511   2.807   1.633   3.452
 5538SOL     OW17512   4.397   5.193   4.884
 5538SOL    HW117513   4.422   5.278   4.837
 5538SOL    HW217514   4.322   5.149   4.835
 5539SOL     OW17515   2.589   4.595   0.534
 5539SOL    HW117516   2.674   4.571   0.582
 5539SOL    HW217517   2.540   4.512   0.510
 5540SOL     OW17518   4.918   5.326   1.774
 5540SOL    HW117519   4.948   5.420   1.786
 5540SOL    HW217520   4.953   5.291   1.687
 5541SOL     OW17521   4.866   1.435   5.790
 5541SOL    HW117522   4.827   1.527   5.795
 5541SOL    HW217523   4.850   1.398   5.699
 5542SOL     OW17524   5.335   4.423   6.807
 5542SOL    HW117525   5.355   4.340   6.754
 5542SOL    HW217526   5.416   4.449   6.859
 5543SOL     OW17527   6.933   2.223   6.031
 5543SOL    HW117528   6.955   2.184   5.941
 5543SOL    HW217529   6.839   2.200   6.056
 5544SOL     OW17530   5.823   1.061   6.890
 5544SOL    HW117531   5.812   0.964   6.912
 5544SOL    HW217532   5.837   1.113   6.974
 5545SOL     OW17533   2.654   2.403   1.863
 5545SOL    HW117534   2.750   2.421   1.881
 5545SOL    HW217535   2.641   2.385   1.765
 5546SOL     OW17536   3.211   5.015   5.499
 5546SOL    HW117537   3.274   4.988   5.572
 5546SOL    HW217538   3.118   4.987   5.522
 5547SOL     OW17539   3.843   5.961   4.138
 5547SOL    HW117540   3.934   5.925   4.115
 5547SOL    HW217541   3.843   5.991   4.233
 5548SOL     OW17542   0.196   2.885   5.277
 5548SOL    HW117543   0.106   2.849   5.253
 5548SOL    HW217544   0.195   2.918   5.371
 5549SOL     OW17545   3.395   4.569   0.427
 5549SOL    HW117546   3.385   4.563   0.527
 5549SOL    HW217547   3.305   4.567   0.385
 5550SOL     OW17548   3.522   6.866   2.410
 5550SOL    HW117549   3.595   6.884   2.345
 5550SOL    HW217550   3.526   6.771   2.439
 5551SOL     OW17551   0.085   1.455   2.840
 5551SOL    HW117552   0.083   1.360   2.871
 5551SOL    HW217553   0.059   1.515   2.916
 5552SOL     OW17554   0.950   2.673   1.651
 5552SOL    HW117555   0.916   2.766   1.657
 5552SOL    HW217556   0.873   2.609   1.647
 5553SOL     OW17557   5.010   6.264   6.871
 5553SOL    HW117558   5.023   6.193   6.941
 5553SOL    HW217559   5.061   6.346   6.897
 5554SOL     OW17560   3.373   1.465   4.024
 5554SOL    HW117561   3.339   1.473   4.118
 5554SOL    HW217562   3.353   1.373   3.989
 5555SOL     OW17563   0.777   6.130   1.944
 5555SOL    HW117564   0.815   6.212   1.902
 5555SOL    HW217565   0.759   6.148   2.041
 5556SOL     OW17566   0.671   1.079   4.452
 5556SOL    HW117567   0.718   0.990   4.455
 5556SOL    HW217568   0.730   1.148   4.494
 5557SOL     OW17569   2.944   0.801   3.322
 5557SOL    HW117570   2.885   0.835   3.396
 5557SOL    HW217571   3.018   0.867   3.306
 5558SOL     OW17572   5.014   2.442   4.820
 5558SOL    HW117573   5.061   2.528   4.842
 5558SOL    HW217574   5.075   2.384   4.766
 5559SOL     OW17575   2.893   0.612   1.321
 5559SOL    HW117576   2.851   0.703   1.329
 5559SOL    HW217577   2.907   0.590   1.225
 5560SOL     OW17578   6.777   1.212   4.509
 5560SOL    HW117579   6.836   1.289   4.487
 5560SOL    HW217580   6.710   1.239   4.578
 5561SOL     OW17581   1.773   3.816   2.911
 5561SOL    HW117582   1.762   3.719   2.890
 5561SOL    HW217583   1.683   3.858   2.926
 5562SOL     OW17584   3.043   2.126   6.484
 5562SOL    HW117585   3.116   2.153   6.421
 5562SOL    HW217586   3.083   2.080   6.563
 5563SOL     OW17587   3.910   4.281   1.676
 5563SOL    HW117588   3.850   4.360   1.692
 5563SOL    HW217589   3.864   4.198   1.708
 5564SOL     OW17590   6.079   3.819   2.111
 5564SOL    HW117591   6.019   3.878   2.057
 5564SOL    HW217592   6.071   3.843   2.208
 5565SOL     OW17593   3.029   3.074   5.524
 5565SOL    HW117594   3.023   3.139   5.448
 5565SOL    HW217595   3.104   3.101   5.585
 5566SOL     OW17596   1.820   4.602   0.572
 5566SOL    HW117597   1.751   4.538   0.538
 5566SOL    HW217598   1.834   4.675   0.506
 5567SOL     OW17599   1.946   5.318   3.325
 5567SOL    HW117600   2.028   5.363   3.290
 5567SOL    HW217601   1.953   5.219   3.307
 5568SOL     OW17602   3.839   2.611   1.165
 5568SOL    HW117603   3.744   2.641   1.180
 5568SOL    HW217604   3.842   2.511   1.164
 5569SOL     OW17605   5.588   2.157   6.886
 5569SOL    HW117606   5.587   2.247   6.843
 5569SOL    HW217607   5.502   2.141   6.934
 5570SOL     OW17608   0.680   3.474   5.075
 5570SOL    HW117609   0.604   3.536   5.094
 5570SOL    HW217610   0.765   3.525   5.075
 5571SOL     OW17611   6.421   4.629   6.798
 5571SOL    HW117612   6.328   4.611   6.765
 5571SOL    HW217613   6.428   4.603   6.895
 5572SOL     OW17614   5.911   2.617   5.251
 5572SOL    HW117615   5.854   2.637   5.171
 5572SOL    HW217616   5.941   2.703   5.293
 5573SOL     OW17617   0.112   3.812   0.197
 5573SOL    HW117618   0.181   3.815   0.125
 5573SOL    HW217619   0.033   3.758   0.167
 5574SOL     OW17620   0.551   6.394   4.471
 5574SOL    HW117621   0.481   6.356   4.532
 5574SOL    HW217622   0.608   6.459   4.522
 5575SOL     OW17623   0.933   1.097   1.225
 5575SOL    HW117624   0.935   1.129   1.320
 5575SOL    HW217625   0.844   1.055   1.206
 5576SOL     OW17626   6.041   5.984   0.075
 5576SOL    HW117627   6.068   5.940   7.007
 5576SOL    HW217628   6.063   6.082   0.070
 5577SOL     OW17629   2.152   3.911   4.807
 5577SOL    HW117630   2.221   3.944   4.871
 5577SOL    HW217631   2.088   3.851   4.856
 5578SOL     OW17632   3.309   1.929   6.455
 5578SOL    HW117633   3.261   1.951   6.370
 5578SOL    HW217634   3.252   1.957   6.532
 5579SOL     OW17635   4.832   5.206   1.993
 5579SOL    HW117636   4.877   5.243   1.911
 5579SOL    HW217637   4.895   5.145   2.041
 5580SOL     OW17638   5.243   0.845   1.394
 5580SOL    HW117639   5.236   0.919   1.327
 5580SOL    HW217640   5.210   0.760   1.353
 5581SOL     OW17641   2.248   2.898   0.392
 5581SOL    HW117642   2.308   2.879   0.470
 5581SOL    HW217643   2.153   2.887   0.420
 5582SOL     OW17644   3.415   2.855   3.281
 5582SOL    HW117645   3.432   2.891   3.373
 5582SOL    HW217646   3.445   2.760   3.276
 5583SOL     OW17647   4.451   0.533   0.069
 5583SOL    HW117648   4.364   0.570   0.100
 5583SOL    HW217649   4.512   0.520   0.148
 5584SOL     OW17650   5.218   3.082   2.985
 5584SOL    HW117651   5.175   3.166   3.015
 5584SOL    HW217652   5.241   3.026   3.065
 5585SOL     OW17653   0.302   6.928   4.523
 5585SOL    HW117654   0.227   6.960   4.466
 5585SOL    HW217655   0.326   6.999   4.590
 5586SOL     OW17656   2.321   1.381   6.427
 5586SOL    HW117657   2.223   1.379   6.406
 5586SOL    HW217658   2.352   1.288   6.446
 5587SOL     OW17659   3.639   6.464   4.376
 5587SOL    HW117660   3.543   6.456   4.350
 5587SOL    HW217661   3.644   6.497   4.471
 5588SOL     OW17662   4.741   0.459   5.954
 5588SOL    HW117663   4.692   0.524   5.896
 5588SOL    HW217664   4.729   0.483   6.050
 5589SOL     OW17665   3.098   4.000   6.886
 5589SOL    HW117666   3.172   4.013   6.820
 5589SOL    HW217667   3.127   4.033   6.976
 5590SOL     OW17668   6.550   6.818   3.744
 5590SOL    HW117669   6.470   6.795   3.687
 5590SOL    HW217670   6.633   6.808   3.690
 5591SOL     OW17671   5.411   0.116   0.046
 5591SOL    HW117672   5.368   0.140   6.978
 5591SOL    HW217673   5.399   0.018   0.063
 5592SOL     OW17674   1.536   2.104   2.873
 5592SOL    HW117675   1.513   2.197   2.846
 5592SOL    HW217676   1.531   2.096   2.973
 5593SOL     OW17677   1.898   4.025   4.711
 5593SOL    HW117678   1.986   3.984   4.733
 5593SOL    HW217679   1.909   4.093   4.638
 5594SOL     OW17680   3.062   1.639   6.250
 5594SOL    HW117681   3.117   1.645   6.333
 5594SOL    HW217682   3.019   1.728   6.231
 5595SOL     OW17683   0.311   1.889   5.935
 5595SOL    HW117684   0.254   1.904   6.015
 5595SOL    HW217685   0.326   1.976   5.887
 5596SOL     OW17686   4.939   2.288   3.480
 5596SOL    HW117687   4.960   2.383   3.500
 5596SOL    HW217688   4.904   2.280   3.387
 5597SOL     OW17689   0.129   1.896   6.134
 5597SOL    HW117690   0.160   1.812   6.178
 5597SOL    HW217691   0.037   1.918   6.164
 5598SOL     OW17692   6.817   1.839   4.168
 5598SOL    HW117693   6.788   1.880   4.081
 5598SOL    HW217694   6.917   1.838   4.172
 5599SOL     OW17695   5.278   2.511   2.914
 5599SOL    HW117696   5.291   2.498   2.815
 5599SOL    HW217697   5.289   2.424   2.961
 5600SOL     OW17698   2.112   2.322   2.447
 5600SOL    HW117699   2.156   2.406   2.417
 5600SOL    HW217700   2.019   2.318   2.411
 5601SOL     OW17701   5.410   3.422   6.023
 5601SOL    HW117702   5.470   3.499   6.043
 5601SOL    HW217703   5.326   3.455   5.981
 5602SOL     OW17704   6.401   2.310   2.255
 5602SOL    HW117705   6.436   2.338   2.344
 5602SOL    HW217706   6.340   2.381   2.219
 5603SOL     OW17707   3.469   2.310   6.019
 5603SOL    HW117708   3.490   2.214   6.004
 5603SOL    HW217709   3.422   2.321   6.107
 5604SOL     OW17710   1.007   6.586   3.724
 5604SOL    HW117711   1.024   6.648   3.648
 5604SOL    HW217712   1.060   6.501   3.710
 5605SOL     OW17713   4.298   6.933   4.050
 5605SOL    HW117714   4.397   6.916   4.044
 5605SOL    HW217715   4.280   0.010   4.025
 5606SOL     OW17716   4.725   2.848   0.243
 5606SOL    HW117717   4.750   2.927   0.298
 5606SOL    HW217718   4.706   2.770   0.303
 5607SOL     OW17719   0.089   2.316   3.164
 5607SOL    HW117720   0.053   2.283   3.251
 5607SOL    HW217721   0.146   2.397   3.181
 5608SOL     OW17722   5.046   0.464   4.025
 5608SOL    HW117723   5.054   0.423   3.933
 5608SOL    HW217724   4.987   0.544   4.021
 5609SOL     OW17725   6.817   0.704   0.062
 5609SOL    HW117726   6.859   0.615   0.040
 5609SOL    HW217727   6.746   0.724   7.012
 5610SOL     OW17728   6.060   6.128   6.714
 5610SOL    HW117729   6.047   6.154   6.619
 5610SOL    HW217730   6.154   6.149   6.741
 5611SOL     OW17731   6.196   4.108   1.874
 5611SOL    HW117732   6.257   4.061   1.938
 5611SOL    HW217733   6.116   4.051   1.857
 5612SOL     OW17734   4.069   1.850   0.624
 5612SOL    HW117735   4.062   1.932   0.682
 5612SOL    HW217736   4.091   1.877   0.530
 5613SOL     OW17737   6.050   5.127   5.869
 5613SOL    HW117738   6.010   5.180   5.795
 5613SOL    HW217739   5.990   5.050   5.891
 5614SOL     OW17740   4.992   2.756   4.518
 5614SOL    HW117741   5.023   2.666   4.549
 5614SOL    HW217742   4.952   2.748   4.427
 5615SOL     OW17743   0.539   3.143   3.658
 5615SOL    HW117744   0.484   3.152   3.741
 5615SOL    HW217745   0.503   3.205   3.588
 5616SOL     OW17746   2.106   3.533   2.729
 5616SOL    HW117747   2.122   3.590   2.810
 5616SOL    HW217748   2.131   3.438   2.750
 5617SOL     OW17749   1.463   4.830   6.126
 5617SOL    HW117750   1.391   4.761   6.119
 5617SOL    HW217751   1.426   4.920   6.102
 5618SOL     OW17752   4.920   6.794   2.456
 5618SOL    HW117753   4.875   6.878   2.424
 5618SOL    HW217754   4.869   6.714   2.424
 5619SOL     OW17755   3.201   3.298   3.199
 5619SOL    HW117756   3.216   3.200   3.188
 5619SOL    HW217757   3.198   3.342   3.109
 5620SOL     OW17758   4.969   4.919   4.144
 5620SOL    HW117759   4.899   4.904   4.074
 5620SOL    HW217760   4.937   4.988   4.209
 5621SOL     OW17761   1.396   2.566   6.697
 5621SOL    HW117762   1.330   2.594   6.766
 5621SOL    HW217763   1.456   2.495   6.735
 5622SOL     OW17764   4.746   5.366   4.147
 5622SOL    HW117765   4.821   5.385   4.084
 5622SOL    HW217766   4.687   5.295   4.108
 5623SOL     OW17767   4.476   4.793   3.800
 5623SOL    HW117768   4.381   4.763   3.793
 5623SOL    HW217769   4.535   4.715   3.819
 5624SOL     OW17770   4.942   4.583   3.545
 5624SOL    HW117771   4.941   4.494   3.499
 5624SOL    HW217772   4.999   4.647   3.493
 5625SOL     OW17773   2.996   6.280   6.063
 5625SOL    HW117774   3.079   6.330   6.089
 5625SOL    HW217775   2.918   6.342   6.067
 5626SOL     OW17776   0.868   4.787   6.659
 5626SOL    HW117777   0.797   4.818   6.596
 5626SOL    HW217778   0.909   4.702   6.624
 5627SOL     OW17779   1.349   5.553   0.195
 5627SOL    HW117780   1.263   5.604   0.196
 5627SOL    HW217781   1.330   5.457   0.171
 5628SOL     OW17782   2.174   3.470   0.419
 5628SOL    HW117783   2.143   3.522   0.499
 5628SOL    HW217784   2.143   3.517   0.336
 5629SOL     OW17785   6.878   3.655   3.467
 5629SOL    HW117786   6.848   3.749   3.484
 5629SOL    HW217787   6.968   3.655   3.424
 5630SOL     OW17788   0.534   3.539   0.558
 5630SOL    HW117789   0.632   3.532   0.545
 5630SOL    HW217790   0.491   3.450   0.541
 5631SOL     OW17791   3.915   1.336   1.438
 5631SOL    HW117792   3.855   1.299   1.509
 5631SOL    HW217793   3.929   1.434   1.453
 5632SOL     OW17794   4.900   6.600   5.728
 5632SOL    HW117795   4.850   6.562   5.650
 5632SOL    HW217796   4.864   6.560   5.813
 5633SOL     OW17797   1.334   5.526   5.574
 5633SOL    HW117798   1.405   5.568   5.517
 5633SOL    HW217799   1.272   5.474   5.516
 5634SOL     OW17800   3.095   0.581   1.619
 5634SOL    HW117801   3.097   0.570   1.719
 5634SOL    HW217802   3.137   0.503   1.575
 5635SOL     OW17803   3.234   0.708   1.898
 5635SOL    HW117804   3.324   0.729   1.860
 5635SOL    HW217805   3.221   0.757   1.984
 5636SOL     OW17806   5.099   0.580   5.671
 5636SOL    HW117807   5.065   0.560   5.763
 5636SOL    HW217808   5.175   0.645   5.676
 5637SOL     OW17809   5.013   6.935   4.781
 5637SOL    HW117810   5.111   6.950   4.771
 5637SOL    HW217811   4.993   6.904   4.874
 5638SOL     OW17812   6.736   5.516   0.868
 5638SOL    HW117813   6.787   5.514   0.783
 5638SOL    HW217814   6.640   5.537   0.849
 5639SOL     OW17815   2.574   0.424   1.733
 5639SOL    HW117816   2.538   0.512   1.703
 5639SOL    HW217817   2.673   0.429   1.743
 5640SOL     OW17818   2.860   6.716   3.485
 5640SOL    HW117819   2.939   6.668   3.448
 5640SOL    HW217820   2.882   6.812   3.500
 5641SOL     OW17821   6.775   4.114   4.163
 5641SOL    HW117822   6.685   4.087   4.198
 5641SOL    HW217823   6.846   4.060   4.209
 5642SOL     OW17824   2.356   3.696   6.441
 5642SOL    HW117825   2.296   3.618   6.457
 5642SOL    HW217826   2.351   3.759   6.518
 5643SOL     OW17827   5.977   2.360   4.327
 5643SOL    HW117828   5.959   2.438   4.387
 5643SOL    HW217829   6.021   2.391   4.243
 5644SOL     OW17830   4.062   0.568   4.968
 5644SOL    HW117831   4.098   0.549   5.060
 5644SOL    HW217832   4.008   0.490   4.937
 5645SOL     OW17833   6.288   6.236   3.689
 5645SOL    HW117834   6.189   6.245   3.688
 5645SOL    HW217835   6.330   6.320   3.654
 5646SOL     OW17836   6.496   6.454   4.071
 5646SOL    HW117837   6.445   6.524   4.121
 5646SOL    HW217838   6.433   6.386   4.034
 5647SOL     OW17839   0.084   4.246   6.824
 5647SOL    HW117840   0.130   4.234   6.911
 5647SOL    HW217841   0.139   4.208   6.750
 5648SOL     OW17842   2.692   0.878   4.719
 5648SOL    HW117843   2.709   0.976   4.713
 5648SOL    HW217844   2.777   0.828   4.709
 5649SOL     OW17845   1.064   6.822   4.996
 5649SOL    HW117846   1.110   6.735   4.977
 5649SOL    HW217847   1.014   6.815   5.082
 5650SOL     OW17848   6.372   4.743   6.264
 5650SOL    HW117849   6.332   4.824   6.306
 5650SOL    HW217850   6.458   4.767   6.219
 5651SOL     OW17851   6.032   1.357   2.402
 5651SOL    HW117852   5.984   1.341   2.316
 5651SOL    HW217853   6.127   1.327   2.394
 5652SOL     OW17854   5.555   4.063   0.689
 5652SOL    HW117855   5.649   4.035   0.673
 5652SOL    HW217856   5.530   4.042   0.784
 5653SOL     OW17857   2.347   6.225   6.735
 5653SOL    HW117858   2.249   6.202   6.737
 5653SOL    HW217859   2.360   6.319   6.766
 5654SOL     OW17860   1.250   6.029   6.256
 5654SOL    HW117861   1.231   6.065   6.348
 5654SOL    HW217862   1.246   6.103   6.190
 5655SOL     OW17863   0.446   5.429   3.092
 5655SOL    HW117864   0.519   5.444   3.158
 5655SOL    HW217865   0.379   5.502   3.099
 5656SOL     OW17866   3.659   5.671   6.488
 5656SOL    HW117867   3.744   5.641   6.532
 5656SOL    HW217868   3.631   5.605   6.419
 5657SOL     OW17869   4.061   5.591   1.985
 5657SOL    HW117870   4.087   5.556   2.075
 5657SOL    HW217871   4.142   5.593   1.926
 5658SOL     OW17872   5.579   6.864   5.031
 5658SOL    HW117873   5.502   6.819   4.986
 5658SOL    HW217874   5.576   6.846   5.130
 5659SOL     OW17875   3.638   4.139   2.706
 5659SOL    HW117876   3.600   4.167   2.795
 5659SOL    HW217877   3.565   4.137   2.638
 5660SOL     OW17878   6.386   6.546   1.074
 5660SOL    HW117879   6.442   6.514   1.150
 5660SOL    HW217880   6.290   6.543   1.100
 5661SOL     OW17881   6.552   5.664   4.858
 5661SOL    HW117882   6.639   5.624   4.828
 5661SOL    HW217883   6.561   5.763   4.863
 5662SOL     OW17884   2.133   4.354   4.697
 5662SOL    HW117885   2.206   4.329   4.761
 5662SOL    HW217886   2.159   4.327   4.604
 5663SOL     OW17887   2.389   4.199   0.427
 5663SOL    HW117888   2.314   4.240   0.479
 5663SOL    HW217889   2.476   4.226   0.468
 5664SOL     OW17890   0.192   5.921   2.560
 5664SOL    HW117891   0.136   5.998   2.588
 5664SOL    HW217892   0.250   5.892   2.635
 5665SOL     OW17893   1.428   1.312   5.750
 5665SOL    HW117894   1.421   1.322   5.650
 5665SOL    HW217895   1.507   1.364   5.783
 5666SOL     OW17896   6.042   6.260   0.082
 5666SOL    HW117897   6.054   6.357   0.062
 5666SOL    HW217898   6.095   6.236   0.163
 5667SOL     OW17899   6.182   5.980   3.052
 5667SOL    HW117900   6.158   6.029   2.968
 5667SOL    HW217901   6.282   5.969   3.057
 5668SOL     OW17902   5.863   2.927   5.875
 5668SOL    HW117903   5.860   2.934   5.975
 5668SOL    HW217904   5.852   3.018   5.835
 5669SOL     OW17905   6.920   3.598   4.918
 5669SOL    HW117906   6.971   3.594   5.004
 5669SOL    HW217907   6.955   3.529   4.856
 5670SOL     OW17908   1.686   3.560   2.882
 5670SOL    HW117909   1.591   3.534   2.867
 5670SOL    HW217910   1.741   3.479   2.902
 5671SOL     OW17911   1.436   1.363   5.459
 5671SOL    HW117912   1.425   1.351   5.360
 5671SOL    HW217913   1.377   1.438   5.490
 5672SOL     OW17914   5.631   3.889   5.392
 5672SOL    HW117915   5.636   3.907   5.294
 5672SOL    HW217916   5.535   3.887   5.420
 5673SOL     OW17917   1.361   0.731   1.190
 5673SOL    HW117918   1.311   0.681   1.260
 5673SOL    HW217919   1.320   0.715   1.100
 5674SOL     OW17920   6.857   3.233   1.219
 5674SOL    HW117921   6.867   3.297   1.295
 5674SOL    HW217922   6.759   3.218   1.201
 5675SOL     OW17923   3.965   1.209   5.976
 5675SOL    HW117924   3.897   1.188   6.046
 5675SOL    HW217925   4.052   1.232   6.020
 5676SOL     OW17926   3.452   6.547   1.713
 5676SOL    HW117927   3.426   6.497   1.796
 5676SOL    HW217928   3.383   6.617   1.694
 5677SOL     OW17929   6.850   1.031   4.191
 5677SOL    HW117930   6.818   1.068   4.278
 5677SOL    HW217931   6.787   1.058   4.118
 5678SOL     OW17932   1.977   5.169   3.674
 5678SOL    HW117933   1.982   5.266   3.697
 5678SOL    HW217934   1.937   5.158   3.583
 5679SOL     OW17935   3.015   5.721   5.369
 5679SOL    HW117936   3.054   5.731   5.277
 5679SOL    HW217937   2.916   5.717   5.362
 5680SOL     OW17938   2.131   6.890   6.104
 5680SOL    HW117939   2.184   6.901   6.188
 5680SOL    HW217940   2.114   6.979   6.063
 5681SOL     OW17941   2.091   4.065   0.259
 5681SOL    HW117942   2.092   4.133   0.185
 5681SOL    HW217943   2.115   3.976   0.222
 5682SOL     OW17944   0.869   3.783   3.916
 5682SOL    HW117945   0.904   3.693   3.890
 5682SOL    HW217946   0.925   3.820   3.991
 5683SOL     OW17947   3.767   3.222   4.689
 5683SOL    HW117948   3.746   3.277   4.770
 5683SOL    HW217949   3.683   3.200   4.641
 5684SOL     OW17950   2.927   3.793   3.383
 5684SOL    HW117951   2.867   3.811   3.461
 5684SOL    HW217952   3.021   3.820   3.405
 5685SOL     OW17953   1.061   5.497   1.730
 5685SOL    HW117954   0.984   5.479   1.790
 5685SOL    HW217955   1.079   5.595   1.728
 5686SOL     OW17956   3.625   5.519   7.017
 5686SOL    HW117957   3.663   5.437   0.043
 5686SOL    HW217958   3.555   5.491   6.951
 5687SOL     OW17959   4.332   5.287   6.168
 5687SOL    HW117960   4.396   5.339   6.111
 5687SOL    HW217961   4.251   5.264   6.114
 5688SOL     OW17962   5.612   1.963   2.729
 5688SOL    HW117963   5.667   1.887   2.694
 5688SOL    HW217964   5.664   2.048   2.720
 5689SOL     OW17965   4.169   2.730   5.880
 5689SOL    HW117966   4.226   2.800   5.924
 5689SOL    HW217967   4.193   2.640   5.917
 5690SOL     OW17968   4.754   6.623   2.322
 5690SOL    HW117969   4.689   6.580   2.385
 5690SOL    HW217970   4.712   6.630   2.231
 5691SOL     OW17971   2.222   0.063   3.121
 5691SOL    HW117972   2.275   0.110   3.051
 5691SOL    HW217973   2.278   7.008   3.161
 5692SOL     OW17974   5.820   3.270   0.193
 5692SOL    HW117975   5.815   3.192   0.255
 5692SOL    HW217976   5.912   3.308   0.193
 5693SOL     OW17977   4.766   2.877   2.460
 5693SOL    HW117978   4.704   2.855   2.385
 5693SOL    HW217979   4.845   2.816   2.457
 5694SOL     OW17980   1.213   1.812   4.354
 5694SOL    HW117981   1.290   1.748   4.345
 5694SOL    HW217982   1.229   1.872   4.433
 5695SOL     OW17983   1.905   3.597   3.674
 5695SOL    HW117984   1.836   3.544   3.624
 5695SOL    HW217985   1.895   3.694   3.652
 5696SOL     OW17986   3.634   0.214   5.792
 5696SOL    HW117987   3.610   0.252   5.703
 5696SOL    HW217988   3.579   0.258   5.863
 5697SOL     OW17989   6.285   3.345   0.005
 5697SOL    HW117990   6.206   3.348   0.067
 5697SOL    HW217991   6.281   3.423   6.961
 5698SOL     OW17992   0.938   4.221   2.677
 5698SOL    HW117993   0.923   4.319   2.687
 5698SOL    HW217994   0.895   4.189   2.592
 5699SOL     OW17995   6.290   1.705   5.065
 5699SOL    HW117996   6.214   1.702   5.000
 5699SOL    HW217997   6.314   1.612   5.092
 5700SOL     OW17998   1.260   5.446   2.871
 5700SOL    HW117999   1.189   5.419   2.937
 5700SOL    HW218000   1.245   5.541   2.843
 5701SOL     OW18001   5.473   4.884   2.012
 5701SOL    HW118002   5.505   4.971   2.048
 5701SOL    HW218003   5.496   4.810   2.076
 5702SOL     OW18004   2.514   0.390   6.866
 5702SOL    HW118005   2.426   0.351   6.894
 5702SOL    HW218006   2.587   0.324   6.885
 5703SOL     OW18007   4.602   4.130   1.563
 5703SOL    HW118008   4.592   4.215   1.614
 5703SOL    HW218009   4.635   4.058   1.625
 5704SOL     OW18010   4.499   5.393   3.759
 5704SOL    HW118011   4.417   5.336   3.760
 5704SOL    HW218012   4.474   5.488   3.777
 5705SOL     OW18013   5.993   1.728   2.897
 5705SOL    HW118014   5.967   1.633   2.911
 5705SOL    HW218015   6.057   1.735   2.821
 5706SOL     OW18016   2.177   1.099   6.889
 5706SOL    HW118017   2.194   1.034   6.962
 5706SOL    HW218018   2.254   1.162   6.881
 5707SOL     OW18019   3.220   1.986   6.214
 5707SOL    HW118020   3.222   2.083   6.191
 5707SOL    HW218021   3.130   1.949   6.190
 5708SOL     OW18022   6.138   0.234   2.147
 5708SOL    HW118023   6.213   0.171   2.125
 5708SOL    HW218024   6.114   0.224   2.244
 5709SOL     OW18025   0.763   1.329   2.684
 5709SOL    HW118026   0.854   1.336   2.723
 5709SOL    HW218027   0.731   1.420   2.658
 5710SOL     OW18028   3.126   4.337   6.565
 5710SOL    HW118029   3.055   4.399   6.601
 5710SOL    HW218030   3.167   4.378   6.484
 5711SOL     OW18031   5.032   1.498   5.007
 5711SOL    HW118032   5.081   1.421   5.048
 5711SOL    HW218033   5.099   1.567   4.977
 5712SOL     OW18034   6.944   5.970   6.476
 5712SOL    HW118035   6.981   6.050   6.523
 5712SOL    HW218036   6.964   5.977   6.378
 5713SOL     OW18037   6.905   2.719   2.449
 5713SOL    HW118038   6.940   2.705   2.356
 5713SOL    HW218039   6.852   2.639   2.477
 5714SOL     OW18040   2.155   0.701   6.293
 5714SOL    HW118041   2.250   0.673   6.308
 5714SOL    HW218042   2.094   0.633   6.331
 5715SOL     OW18043   1.639   6.723   3.060
 5715SOL    HW118044   1.634   6.713   2.960
 5715SOL    HW218045   1.731   6.751   3.086
 5716SOL     OW18046   1.879   2.953   5.062
 5716SOL    HW118047   1.883   2.854   5.045
 5716SOL    HW218048   1.948   2.999   5.006
 5717SOL     OW18049   0.791   3.495   0.549
 5717SOL    HW118050   0.820   3.504   0.645
 5717SOL    HW218051   0.872   3.484   0.491
 5718SOL     OW18052   2.223   4.834   5.290
 5718SOL    HW118053   2.292   4.797   5.353
 5718SOL    HW218054   2.210   4.770   5.214
 5719SOL     OW18055   2.716   0.219   6.938
 5719SOL    HW118056   2.770   0.185   6.861
 5719SOL    HW218057   2.755   0.184   0.006
 5720SOL     OW18058   1.881   5.308   3.949
 5720SOL    HW118059   1.941   5.346   3.878
 5720SOL    HW218060   1.905   5.348   4.037
 5721SOL     OW18061   6.947   4.512   0.638
 5721SOL    HW118062   6.923   4.418   0.660
 5721SOL    HW218063   6.998   4.552   0.714
 5722SOL     OW18064   5.235   1.275   4.198
 5722SOL    HW118065   5.241   1.194   4.257
 5722SOL    HW218066   5.301   1.344   4.229
 5723SOL     OW18067   1.282   4.681   0.751
 5723SOL    HW118068   1.272   4.651   0.656
 5723SOL    HW218069   1.255   4.607   0.812
 5724SOL     OW18070   5.028   2.133   6.645
 5724SOL    HW118071   5.118   2.170   6.671
 5724SOL    HW218072   5.029   2.107   6.549
 5725SOL     OW18073   5.228   5.406   6.030
 5725SOL    HW118074   5.180   5.373   5.949
 5725SOL    HW218075   5.167   5.463   6.085
 5726SOL     OW18076   4.420   3.350   5.793
 5726SOL    HW118077   4.441   3.256   5.820
 5726SOL    HW218078   4.493   3.386   5.735
 5727SOL     OW18079   5.842   2.057   4.087
 5727SOL    HW118080   5.821   1.972   4.039
 5727SOL    HW218081   5.932   2.090   4.059
 5728SOL     OW18082   5.423   0.753   6.363
 5728SOL    HW118083   5.394   0.678   6.303
 5728SOL    HW218084   5.419   0.722   6.458
 5729SOL     OW18085   0.869   3.282   5.141
 5729SOL    HW118086   0.797   3.347   5.114
 5729SOL    HW218087   0.958   3.315   5.110
 5730SOL     OW18088   4.017   5.219   6.924
 5730SOL    HW118089   4.061   5.278   6.992
 5730SOL    HW218090   4.027   5.260   6.833
 5731SOL     OW18091   3.563   0.815   4.440
 5731SOL    HW118092   3.527   0.826   4.347
 5731SOL    HW218093   3.661   0.833   4.440
 5732SOL     OW18094   5.654   3.841   4.030
 5732SOL    HW118095   5.753   3.835   4.026
 5732SOL    HW218096   5.627   3.902   4.105
 5733SOL     OW18097   2.842   6.863   0.701
 5733SOL    HW118098   2.863   6.935   0.635
 5733SOL    HW218099   2.917   6.854   0.766
 5734SOL     OW18100   2.041   6.095   6.299
 5734SOL    HW118101   2.063   6.099   6.202
 5734SOL    HW218102   2.067   6.006   6.337
 5735SOL     OW18103   4.991   0.603   2.244
 5735SOL    HW118104   5.002   0.603   2.144
 5735SOL    HW218105   5.043   0.528   2.284
 5736SOL     OW18106   6.140   4.812   0.059
 5736SOL    HW118107   6.225   4.762   0.074
 5736SOL    HW218108   6.138   4.848   6.984
 5737SOL     OW18109   4.780   5.081   1.443
 5737SOL    HW118110   4.845   5.156   1.438
 5737SOL    HW218111   4.734   5.083   1.532
 5738SOL     OW18112   2.805   0.922   0.406
 5738SOL    HW118113   2.800   0.828   0.440
 5738SOL    HW218114   2.716   0.948   0.368
 5739SOL     OW18115   2.138   0.997   5.607
 5739SOL    HW118116   2.062   0.984   5.544
 5739SOL    HW218117   2.110   1.058   5.682
 5740SOL     OW18118   4.838   3.477   1.840
 5740SOL    HW118119   4.762   3.433   1.792
 5740SOL    HW218120   4.923   3.428   1.821
 5741SOL     OW18121   0.128   3.488   4.322
 5741SOL    HW118122   0.176   3.437   4.251
 5741SOL    HW218123   0.181   3.486   4.407
 5742SOL     OW18124   5.346   0.463   3.577
 5742SOL    HW118125   5.247   0.471   3.585
 5742SOL    HW218126   5.371   0.371   3.547
 5743SOL     OW18127   3.324   5.620   6.767
 5743SOL    HW118128   3.367   5.664   6.688
 5743SOL    HW218129   3.232   5.591   6.743
 5744SOL     OW18130   5.194   6.879   3.369
 5744SOL    HW118131   5.133   6.909   3.442
 5744SOL    HW218132   5.142   6.824   3.303
 5745SOL     OW18133   1.065   3.023   1.726
 5745SOL    HW118134   1.120   3.024   1.642
 5745SOL    HW218135   1.046   3.117   1.754
 5746SOL     OW18136   4.980   6.660   3.275
 5746SOL    HW118137   4.889   6.701   3.271
 5746SOL    HW218138   4.983   6.591   3.347
 5747SOL     OW18139   1.787   6.714   0.807
 5747SOL    HW118140   1.856   6.643   0.815
 5747SOL    HW218141   1.788   6.772   0.888
 5748SOL     OW18142   0.207   6.208   0.981
 5748SOL    HW118143   0.124   6.251   1.017
 5748SOL    HW218144   0.219   6.118   1.023
 5749SOL     OW18145   1.865   5.709   6.239
 5749SOL    HW118146   1.962   5.696   6.219
 5749SOL    HW218147   1.831   5.789   6.190
 5750SOL     OW18148   6.864   3.014   4.415
 5750SOL    HW118149   6.829   3.104   4.440
 5750SOL    HW218150   6.873   2.958   4.497
 5751SOL     OW18151   1.155   3.786   4.686
 5751SOL    HW118152   1.184   3.724   4.759
 5751SOL    HW218153   1.233   3.841   4.657
 5752SOL     OW18154   4.841   0.516   1.018
 5752SOL    HW118155   4.895   0.432   1.017
 5752SOL    HW218156   4.902   0.595   1.009
 5753SOL     OW18157   3.807   4.214   5.233
 5753SOL    HW118158   3.822   4.192   5.137
 5753SOL    HW218159   3.729   4.276   5.242
 5754SOL     OW18160   0.872   5.596   1.113
 5754SOL    HW118161   0.820   5.538   1.177
 5754SOL    HW218162   0.881   5.548   1.026
 5755SOL     OW18163   1.577   2.496   0.088
 5755SOL    HW118164   1.506   2.453   0.144
 5755SOL    HW218165   1.555   2.592   0.074
 5756SOL     OW18166   6.109   6.327   1.839
 5756SOL    HW118167   6.032   6.333   1.776
 5756SOL    HW218168   6.080   6.282   1.923
 5757SOL     OW18169   6.529   1.041   4.603
 5757SOL    HW118170   6.499   0.974   4.671
 5757SOL    HW218171   6.576   0.993   4.528
 5758SOL     OW18172   5.806   6.895   2.681
 5758SOL    HW118173   5.850   6.850   2.759
 5758SOL    HW218174   5.728   6.841   2.651
 5759SOL     OW18175   3.286   0.317   1.183
 5759SOL    HW118176   3.240   0.390   1.132
 5759SOL    HW218177   3.371   0.292   1.136
 5760SOL     OW18178   1.119   2.883   0.654
 5760SOL    HW118179   1.054   2.842   0.590
 5760SOL    HW218180   1.173   2.811   0.697
 5761SOL     OW18181   6.059   0.253   4.763
 5761SOL    HW118182   6.099   0.185   4.825
 5761SOL    HW218183   6.111   0.254   4.678
 5762SOL     OW18184   6.661   5.419   6.665
 5762SOL    HW118185   6.563   5.405   6.678
 5762SOL    HW218186   6.678   5.457   6.574
 5763SOL     OW18187   5.791   0.141   0.169
 5763SOL    HW118188   5.884   0.126   0.203
 5763SOL    HW218189   5.726   0.137   0.246
 5764SOL     OW18190   5.083   6.578   3.775
 5764SOL    HW118191   5.077   6.642   3.698
 5764SOL    HW218192   4.992   6.567   3.816
 5765SOL     OW18193   6.301   5.155   2.468
 5765SOL    HW118194   6.326   5.116   2.556
 5765SOL    HW218195   6.268   5.082   2.407
 5766SOL     OW18196   0.066   1.299   4.530
 5766SOL    HW118197   0.082   1.324   4.626
 5766SOL    HW218198   0.046   1.381   4.477
 5767SOL     OW18199   3.875   6.417   6.962
 5767SOL    HW118200   3.842   6.378   0.030
 5767SOL    HW218201   3.953   6.364   6.929
 5768SOL     OW18202   0.653   0.600   4.869
 5768SOL    HW118203   0.678   0.601   4.772
 5768SOL    HW218204   0.585   0.671   4.887
 5769SOL     OW18205   1.639   3.956   6.137
 5769SOL    HW118206   1.581   3.953   6.219
 5769SOL    HW218207   1.658   4.052   6.113
 5770SOL     OW18208   1.554   4.513   2.050
 5770SOL    HW118209   1.584   4.606   2.026
 5770SOL    HW218210   1.627   4.468   2.102
 5771SOL     OW18211   3.100   5.288   3.524
 5771SOL    HW118212   3.008   5.328   3.532
 5771SOL    HW218213   3.155   5.344   3.463
 5772SOL     OW18214   2.870   0.280   2.697
 5772SOL    HW118215   2.781   0.286   2.742
 5772SOL    HW218216   2.871   0.343   2.619
 5773SOL     OW18217   4.808   1.508   2.356
 5773SOL    HW118218   4.839   1.431   2.300
 5773SOL    HW218219   4.712   1.528   2.335
 5774SOL     OW18220   0.409   6.648   1.970
 5774SOL    HW118221   0.401   6.734   1.918
 5774SOL    HW218222   0.325   6.632   2.021
 5775SOL     OW18223   6.760   5.584   1.574
 5775SOL    HW118224   6.713   5.671   1.592
 5775SOL    HW218225   6.711   5.510   1.620
 5776SOL     OW18226   2.816   1.450   4.210
 5776SOL    HW118227   2.810   1.444   4.309
 5776SOL    HW218228   2.736   1.499   4.175
 5777SOL     OW18229   1.687   6.528   2.362
 5777SOL    HW118230   1.612   6.555   2.422
 5777SOL    HW218231   1.680   6.430   2.341
 5778SOL     OW18232   0.607   1.723   0.798
 5778SOL    HW118233   0.517   1.716   0.841
 5778SOL    HW218234   0.623   1.643   0.741
 5779SOL     OW18235   5.876   1.266   5.708
 5779SOL    HW118236   5.825   1.347   5.678
 5779SOL    HW218237   5.930   1.289   5.789
 5780SOL     OW18238   4.966   5.846   4.065
 5780SOL    HW118239   4.947   5.906   4.142
 5780SOL    HW218240   5.057   5.865   4.028
 5781SOL     OW18241   0.237   5.095   4.955
 5781SOL    HW118242   0.256   5.056   4.865
 5781SOL    HW218243   0.190   5.028   5.012
 5782SOL     OW18244   0.418   0.322   0.325
 5782SOL    HW118245   0.352   0.390   0.295
 5782SOL    HW218246   0.443   0.263   0.248
 5783SOL     OW18247   1.145   2.124   0.520
 5783SOL    HW118248   1.164   2.092   0.613
 5783SOL    HW218249   1.046   2.137   0.509
 5784SOL     OW18250   6.702   6.018   6.597
 5784SOL    HW118251   6.667   5.927   6.618
 5784SOL    HW218252   6.791   6.010   6.552
 5785SOL     OW18253   1.175   1.455   0.167
 5785SOL    HW118254   1.130   1.544   0.170
 5785SOL    HW218255   1.272   1.465   0.188
 5786SOL     OW18256   5.661   5.102   1.722
 5786SOL    HW118257   5.732   5.105   1.652
 5786SOL    HW218258   5.635   5.007   1.740
 5787SOL     OW18259   2.465   2.755   5.925
 5787SOL    HW118260   2.469   2.801   5.836
 5787SOL    HW218261   2.372   2.759   5.961
 5788SOL     OW18262   2.470   1.075   3.705
 5788SOL    HW118263   2.506   1.163   3.672
 5788SOL    HW218264   2.447   1.018   3.626
 5789SOL     OW18265   3.944   4.890   6.242
 5789SOL    HW118266   3.917   4.794   6.232
 5789SOL    HW218267   3.863   4.948   6.238
 5790SOL     OW18268   0.753   2.959   3.670
 5790SOL    HW118269   0.806   2.961   3.585
 5790SOL    HW218270   0.676   3.022   3.663
 5791SOL     OW18271   2.308   0.800   3.251
 5791SOL    HW118272   2.222   0.759   3.221
 5791SOL    HW218273   2.384   0.754   3.206
 5792SOL     OW18274   6.815   2.494   2.581
 5792SOL    HW118275   6.761   2.410   2.585
 5792SOL    HW218276   6.824   2.533   2.672
 5793SOL     OW18277   0.296   0.367   3.838
 5793SOL    HW118278   0.301   0.358   3.739
 5793SOL    HW218279   0.338   0.287   3.881
 5794SOL     OW18280   4.674   4.174   6.848
 5794SOL    HW118281   4.772   4.174   6.869
 5794SOL    HW218282   4.645   4.267   6.824
 5795SOL     OW18283   6.209   4.386   6.947
 5795SOL    HW118284   6.158   4.468   6.923
 5795SOL    HW218285   6.205   4.321   6.871
 5796SOL     OW18286   3.933   1.606   0.628
 5796SOL    HW118287   3.975   1.694   0.651
 5796SOL    HW218288   3.953   1.540   0.699
 5797SOL     OW18289   2.603   1.936   5.592
 5797SOL    HW118290   2.518   1.976   5.559
 5797SOL    HW218291   2.637   1.869   5.526
 5798SOL     OW18292   6.984   4.493   4.426
 5798SOL    HW118293   7.015   4.398   4.421
 5798SOL    HW218294   6.918   4.503   4.500
 5799SOL     OW18295   5.440   0.231   3.546
 5799SOL    HW118296   5.452   0.234   3.645
 5799SOL    HW218297   5.497   0.159   3.507
 5800SOL     OW18298   6.045   5.474   1.107
 5800SOL    HW118299   5.975   5.533   1.146
 5800SOL    HW218300   6.082   5.414   1.178
 5801SOL     OW18301   2.521   1.632   3.235
 5801SOL    HW118302   2.447   1.639   3.168
 5801SOL    HW218303   2.506   1.698   3.309
 5802SOL     OW18304   0.932   3.624   4.991
 5802SOL    HW118305   0.989   3.544   5.013
 5802SOL    HW218306   0.974   3.706   5.030
 5803SOL     OW18307   1.504   4.988   0.236
 5803SOL    HW118308   1.436   4.937   0.289
 5803SOL    HW218309   1.524   5.074   0.282
 5804SOL     OW18310   6.067   3.558   4.496
 5804SOL    HW118311   5.981   3.571   4.545
 5804SOL    HW218312   6.052   3.496   4.419
 5805SOL     OW18313   5.144   3.461   6.722
 5805SOL    HW118314   5.224   3.484   6.667
 5805SOL    HW218315   5.123   3.364   6.713
 5806SOL     OW18316   0.811   6.263   0.346
 5806SOL    HW118317   0.739   6.230   0.408
 5806SOL    HW218318   0.821   6.199   0.270
 5807SOL     OW18319   1.910   3.532   2.033
 5807SOL    HW118320   2.004   3.510   2.007
 5807SOL    HW218321   1.909   3.571   2.125
 5808SOL     OW18322   6.827   3.646   2.983
 5808SOL    HW118323   6.786   3.581   2.919
 5808SOL    HW218324   6.767   3.656   3.063
 5809SOL     OW18325   6.814   3.309   4.156
 5809SOL    HW118326   6.740   3.322   4.091
 5809SOL    HW218327   6.819   3.387   4.218
 5810SOL     OW18328   2.735   2.266   2.433
 5810SOL    HW118329   2.793   2.233   2.507
 5810SOL    HW218330   2.697   2.355   2.456
 5811SOL     OW18331   2.395   1.616   3.659
 5811SOL    HW118332   2.439   1.528   3.641
 5811SOL    HW218333   2.324   1.604   3.729
 5812SOL     OW18334   4.643   0.768   4.810
 5812SOL    HW118335   4.633   0.763   4.909
 5812SOL    HW218336   4.609   0.856   4.777
 5813SOL     OW18337   1.707   0.738   5.351
 5813SOL    HW118338   1.805   0.755   5.364
 5813SOL    HW218339   1.693   0.643   5.326
 5814SOL     OW18340   0.296   5.027   0.693
 5814SOL    HW118341   0.228   4.963   0.729
 5814SOL    HW218342   0.381   5.017   0.744
 5815SOL     OW18343   3.282   1.631   2.720
 5815SOL    HW118344   3.346   1.695   2.677
 5815SOL    HW218345   3.213   1.602   2.653
 5816SOL     OW18346   4.813   0.363   0.755
 5816SOL    HW118347   4.795   0.267   0.777
 5816SOL    HW218348   4.771   0.422   0.824
 5817SOL     OW18349   5.206   3.091   4.955
 5817SOL    HW118350   5.119   3.094   4.906
 5817SOL    HW218351   5.192   3.052   5.046
 5818SOL     OW18352   5.736   6.851   6.168
 5818SOL    HW118353   5.668   6.894   6.227
 5818SOL    HW218354   5.697   6.769   6.126
 5819SOL     OW18355   6.078   0.146   1.437
 5819SOL    HW118356   6.135   0.225   1.414
 5819SOL    HW218357   6.014   0.128   1.363
 5820SOL     OW18358   5.463   6.208   3.166
 5820SOL    HW118359   5.496   6.126   3.120
 5820SOL    HW218360   5.532   6.240   3.231
 5821SOL     OW18361   2.641   0.912   1.667
 5821SOL    HW118362   2.694   0.945   1.746
 5821SOL    HW218363   2.692   0.839   1.622
 5822SOL     OW18364   0.181   1.247   1.984
 5822SOL    HW118365   0.188   1.269   2.081
 5822SOL    HW218366   0.103   1.296   1.944
 5823SOL     OW18367   2.545   2.174   4.001
 5823SOL    HW118368   2.609   2.107   3.962
 5823SOL    HW218369   2.578   2.203   4.091
 5824SOL     OW18370   4.819   0.129   3.636
 5824SOL    HW118371   4.772   0.193   3.575
 5824SOL    HW218372   4.756   0.098   3.707
 5825SOL     OW18373   2.833   0.796   0.781
 5825SOL    HW118374   2.806   0.734   0.707
 5825SOL    HW218375   2.771   0.785   0.858
 5826SOL     OW18376   6.551   0.606   4.561
 5826SOL    HW118377   6.521   0.558   4.478
 5826SOL    HW218378   6.644   0.639   4.548
 5827SOL     OW18379   1.204   5.965   4.979
 5827SOL    HW118380   1.121   6.012   5.007
 5827SOL    HW218381   1.199   5.941   4.882
 5828SOL     OW18382   0.192   3.458   1.777
 5828SOL    HW118383   0.204   3.457   1.876
 5828SOL    HW218384   0.137   3.379   1.749
 5829SOL     OW18385   1.872   1.522   1.788
 5829SOL    HW118386   1.809   1.579   1.736
 5829SOL    HW218387   1.882   1.433   1.744
 5830SOL     OW18388   1.892   1.628   5.810
 5830SOL    HW118389   1.959   1.674   5.868
 5830SOL    HW218390   1.940   1.567   5.746
 5831SOL     OW18391   5.383   6.641   3.114
 5831SOL    HW118392   5.434   6.650   3.200
 5831SOL    HW218393   5.354   6.732   3.083
 5832SOL     OW18394   3.831   3.677   5.186
 5832SOL    HW118395   3.912   3.734   5.200
 5832SOL    HW218396   3.838   3.594   5.241
 5833SOL     OW18397   3.335   2.960   5.026
 5833SOL    HW118398   3.350   2.990   5.121
 5833SOL    HW218399   3.423   2.933   4.986
 5834SOL     OW18400   5.961   1.259   0.692
 5834SOL    HW118401   5.988   1.212   0.608
 5834SOL    HW218402   5.871   1.227   0.721
 5835SOL     OW18403   4.967   2.568   3.493
 5835SOL    HW118404   4.885   2.617   3.465
 5835SOL    HW218405   5.047   2.607   3.446
 5836SOL     OW18406   3.584   6.003   2.564
 5836SOL    HW118407   3.601   6.102   2.569
 5836SOL    HW218408   3.527   5.983   2.484
 5837SOL     OW18409   4.898   4.448   6.411
 5837SOL    HW118410   4.977   4.508   6.397
 5837SOL    HW218411   4.874   4.405   6.324
 5838SOL     OW18412   1.241   0.901   5.674
 5838SOL    HW118413   1.264   0.998   5.674
 5838SOL    HW218414   1.214   0.874   5.581
 5839SOL     OW18415   0.222   2.960   2.671
 5839SOL    HW118416   0.287   2.918   2.733
 5839SOL    HW218417   0.267   3.035   2.621
 5840SOL     OW18418   2.148   5.123   0.059
 5840SOL    HW118419   2.080   5.068   0.010
 5840SOL    HW218420   2.105   5.208   0.091
 5841SOL     OW18421   0.157   2.219   3.581
 5841SOL    HW118422   0.147   2.234   3.679
 5841SOL    HW218423   0.187   2.125   3.565
 5842SOL     OW18424   3.469   3.247   0.774
 5842SOL    HW118425   3.398   3.207   0.831
 5842SOL    HW218426   3.469   3.203   0.684
 5843SOL     OW18427   1.376   3.447   2.081
 5843SOL    HW118428   1.467   3.448   2.039
 5843SOL    HW218429   1.327   3.531   2.057
 5844SOL     OW18430   1.261   6.019   6.840
 5844SOL    HW118431   1.177   5.966   6.850
 5844SOL    HW218432   1.339   5.963   6.868
 5845SOL     OW18433   1.006   2.428   4.475
 5845SOL    HW118434   0.917   2.391   4.504
 5845SOL    HW218435   1.039   2.377   4.396
 5846SOL     OW18436   6.832   3.140   6.492
 5846SOL    HW118437   6.846   3.057   6.438
 5846SOL    HW218438   6.903   3.207   6.470
 5847SOL     OW18439   2.360   2.671   2.658
 5847SOL    HW118440   2.299   2.638   2.586
 5847SOL    HW218441   2.306   2.695   2.739
 5848SOL     OW18442   1.525   4.786   3.388
 5848SOL    HW118443   1.470   4.705   3.407
 5848SOL    HW218444   1.474   4.868   3.413
 5849SOL     OW18445   2.329   6.879   5.525
 5849SOL    HW118446   2.284   6.877   5.436
 5849SOL    HW218447   2.324   6.789   5.568
 5850SOL     OW18448   0.901   4.992   2.728
 5850SOL    HW118449   0.978   5.037   2.771
 5850SOL    HW218450   0.881   5.036   2.640
 5851SOL     OW18451   6.095   3.493   2.180
 5851SOL    HW118452   6.007   3.465   2.219
 5851SOL    HW218453   6.083   3.573   2.122
 5852SOL     OW18454   4.173   5.630   2.919
 5852SOL    HW118455   4.106   5.623   2.993
 5852SOL    HW218456   4.248   5.566   2.937
 5853SOL     OW18457   3.614   4.803   5.613
 5853SOL    HW118458   3.704   4.820   5.574
 5853SOL    HW218459   3.624   4.753   5.699
 5854SOL     OW18460   6.781   1.202   5.982
 5854SOL    HW118461   6.747   1.287   6.022
 5854SOL    HW218462   6.811   1.219   5.888
 5855SOL     OW18463   1.190   0.787   4.771
 5855SOL    HW118464   1.209   0.744   4.860
 5855SOL    HW218465   1.135   0.725   4.715
 5856SOL     OW18466   2.150   4.542   3.860
 5856SOL    HW118467   2.089   4.529   3.782
 5856SOL    HW218468   2.156   4.457   3.912
 5857SOL     OW18469   6.762   3.127   5.461
 5857SOL    HW118470   6.754   3.029   5.479
 5857SOL    HW218471   6.793   3.142   5.367
 5858SOL     OW18472   3.971   0.983   2.578
 5858SOL    HW118473   3.974   0.908   2.513
 5858SOL    HW218474   3.956   1.069   2.529
 5859SOL     OW18475   6.196   6.774   1.027
 5859SOL    HW118476   6.265   6.709   0.994
 5859SOL    HW218477   6.107   6.752   0.986
 5860SOL     OW18478   1.612   3.734   1.237
 5860SOL    HW118479   1.659   3.724   1.325
 5860SOL    HW218480   1.522   3.692   1.242
 5861SOL     OW18481   6.445   2.503   4.238
 5861SOL    HW118482   6.346   2.507   4.228
 5861SOL    HW218483   6.488   2.572   4.180
 5862SOL     OW18484   4.744   4.124   3.006
 5862SOL    HW118485   4.729   4.135   3.104
 5862SOL    HW218486   4.682   4.183   2.955
 5863SOL     OW18487   2.275   1.388   0.266
 5863SOL    HW118488   2.212   1.343   0.329
 5863SOL    HW218489   2.341   1.320   0.232
 5864SOL     OW18490   4.599   4.835   1.497
 5864SOL    HW118491   4.697   4.820   1.501
 5864SOL    HW218492   4.580   4.915   1.440
 5865SOL     OW18493   4.336   0.734   3.233
 5865SOL    HW118494   4.313   0.655   3.290
 5865SOL    HW218495   4.432   0.727   3.204
 5866SOL     OW18496   4.265   0.074   6.420
 5866SOL    HW118497   4.318   7.007   6.413
 5866SOL    HW218498   4.326   0.152   6.406
 5867SOL     OW18499   0.044   2.720   1.622
 5867SOL    HW118500   0.103   2.687   1.695
 5867SOL    HW218501   0.071   2.679   1.536
 5868SOL     OW18502   1.777   6.832   5.166
 5868SOL    HW118503   1.813   6.792   5.250
 5868SOL    HW218504   1.829   6.914   5.143
 5869SOL     OW18505   2.661   4.767   3.592
 5869SOL    HW118506   2.664   4.809   3.502
 5869SOL    HW218507   2.600   4.687   3.589
 5870SOL     OW18508   5.272   5.003   4.914
 5870SOL    HW118509   5.307   4.996   5.008
 5870SOL    HW218510   5.345   4.980   4.850
 5871SOL     OW18511   2.872   3.365   6.925
 5871SOL    HW118512   2.807   3.390   6.853
 5871SOL    HW218513   2.823   3.335   7.006
 5872SOL     OW18514   3.333   6.014   5.411
 5872SOL    HW118515   3.252   6.045   5.461
 5872SOL    HW218516   3.394   6.091   5.396
 5873SOL     OW18517   2.785   3.711   0.017
 5873SOL    HW118518   2.715   3.702   0.088
 5873SOL    HW218519   2.752   3.669   6.950
 5874SOL     OW18520   1.665   4.191   0.797
 5874SOL    HW118521   1.644   4.106   0.846
 5874SOL    HW218522   1.705   4.169   0.708
 5875SOL     OW18523   4.128   1.922   0.188
 5875SOL    HW118524   4.054   1.855   0.195
 5875SOL    HW218525   4.131   1.977   0.272
 5876SOL     OW18526   3.023   4.495   5.961
 5876SOL    HW118527   3.068   4.582   5.940
 5876SOL    HW218528   3.070   4.450   6.036
 5877SOL     OW18529   0.470   6.818   2.824
 5877SOL    HW118530   0.371   6.824   2.835
 5877SOL    HW218531   0.512   6.902   2.858
 5878SOL     OW18532   5.292   4.549   2.770
 5878SOL    HW118533   5.362   4.561   2.840
 5878SOL    HW218534   5.202   4.550   2.814
 5879SOL     OW18535   3.548   3.307   5.965
 5879SOL    HW118536   3.465   3.292   5.911
 5879SOL    HW218537   3.545   3.251   6.047
 5880SOL     OW18538   5.266   2.420   5.624
 5880SOL    HW118539   5.222   2.458   5.542
 5880SOL    HW218540   5.206   2.434   5.703
 5881SOL     OW18541   1.169   6.090   1.966
 5881SOL    HW118542   1.133   6.077   1.874
 5881SOL    HW218543   1.121   6.166   2.010
 5882SOL     OW18544   1.881   5.448   5.507
 5882SOL    HW118545   1.940   5.423   5.584
 5882SOL    HW218546   1.840   5.366   5.469
 5883SOL     OW18547   0.071   4.893   0.785
 5883SOL    HW118548   0.055   4.834   0.865
 5883SOL    HW218549   7.015   4.961   0.779
 5884SOL     OW18550   6.330   2.364   3.548
 5884SOL    HW118551   6.361   2.382   3.454
 5884SOL    HW218552   6.232   2.380   3.554
 5885SOL     OW18553   6.673   5.293   0.321
 5885SOL    HW118554   6.647   5.325   0.230
 5885SOL    HW218555   6.732   5.361   0.365
 5886SOL     OW18556   1.842   3.860   3.668
 5886SOL    HW118557   1.781   3.938   3.681
 5886SOL    HW218558   1.934   3.883   3.699
 5887SOL     OW18559   2.222   2.657   1.018
 5887SOL    HW118560   2.314   2.694   1.029
 5887SOL    HW218561   2.206   2.635   0.921
 5888SOL     OW18562   3.381   6.857   1.031
 5888SOL    HW118563   3.387   6.799   0.950
 5888SOL    HW218564   3.396   6.801   1.113
 5889SOL     OW18565   5.864   0.643   2.000
 5889SOL    HW118566   5.918   0.596   2.070
 5889SOL    HW218567   5.870   0.592   1.914
 5890SOL     OW18568   2.005   5.817   2.754
 5890SOL    HW118569   2.032   5.901   2.707
 5890SOL    HW218570   2.059   5.741   2.720
 5891SOL     OW18571   1.934   3.259   0.429
 5891SOL    HW118572   1.959   3.200   0.353
 5891SOL    HW218573   1.965   3.352   0.411
 5892SOL     OW18574   1.124   3.540   0.747
 5892SOL    HW118575   1.224   3.544   0.751
 5892SOL    HW218576   1.086   3.598   0.819
 5893SOL     OW18577   0.750   6.150   1.400
 5893SOL    HW118578   0.762   6.084   1.326
 5893SOL    HW218579   0.675   6.212   1.377
 5894SOL     OW18580   2.702   5.627   6.717
 5894SOL    HW118581   2.674   5.717   6.752
 5894SOL    HW218582   2.748   5.639   6.629
 5895SOL     OW18583   5.029   4.189   4.132
 5895SOL    HW118584   5.046   4.248   4.211
 5895SOL    HW218585   4.951   4.130   4.151
 5896SOL     OW18586   5.768   2.454   2.419
 5896SOL    HW118587   5.805   2.401   2.495
 5896SOL    HW218588   5.836   2.459   2.346
 5897SOL     OW18589   4.235   2.847   0.261
 5897SOL    HW118590   4.280   2.931   0.291
 5897SOL    HW218591   4.136   2.862   0.259
 5898SOL     OW18592   2.009   1.437   5.654
 5898SOL    HW118593   1.981   1.401   5.565
 5898SOL    HW218594   2.054   1.364   5.707
 5899SOL     OW18595   7.005   6.218   6.628
 5899SOL    HW118596   6.933   6.266   6.578
 5899SOL    HW218597   0.031   6.281   6.692
 5900SOL     OW18598   5.808   6.476   3.150
 5900SOL    HW118599   5.884   6.536   3.175
 5900SOL    HW218600   5.773   6.430   3.231
 5901SOL     OW18601   2.503   0.993   5.210
 5901SOL    HW118602   2.467   1.083   5.186
 5901SOL    HW218603   2.501   0.981   5.309
 5902SOL     OW18604   4.657   3.818   6.204
 5902SOL    HW118605   4.690   3.852   6.115
 5902SOL    HW218606   4.622   3.725   6.194
 5903SOL     OW18607   6.131   2.009   6.011
 5903SOL    HW118608   6.100   2.016   6.106
 5903SOL    HW218609   6.089   2.082   5.957
 5904SOL     OW18610   1.565   4.331   1.851
 5904SOL    HW118611   1.579   4.352   1.754
 5904SOL    HW218612   1.549   4.416   1.901
 5905SOL     OW18613   5.568   1.146   4.133
 5905SOL    HW118614   5.620   1.157   4.218
 5905SOL    HW218615   5.481   1.102   4.153
 5906SOL     OW18616   5.041   1.176   5.629
 5906SOL    HW118617   4.977   1.234   5.578
 5906SOL    HW218618   4.996   1.139   5.710
 5907SOL     OW18619   1.779   3.665   5.817
 5907SOL    HW118620   1.726   3.664   5.902
 5907SOL    HW218621   1.770   3.577   5.771
 5908SOL     OW18622   5.352   3.339   6.481
 5908SOL    HW118623   5.431   3.379   6.434
 5908SOL    HW218624   5.270   3.356   6.427
 5909SOL     OW18625   6.627   4.660   3.743
 5909SOL    HW118626   6.591   4.585   3.688
 5909SOL    HW218627   6.672   4.727   3.683
 5910SOL     OW18628   2.639   4.390   0.860
 5910SOL    HW118629   2.604   4.386   0.953
 5910SOL    HW218630   2.567   4.365   0.796
 5911SOL     OW18631   5.258   6.848   0.004
 5911SOL    HW118632   5.318   6.828   6.944
 5911SOL    HW218633   5.220   6.763   0.040
 5912SOL     OW18634   6.761   3.555   6.321
 5912SOL    HW118635   6.746   3.591   6.229
 5912SOL    HW218636   6.849   3.506   6.324
 5913SOL     OW18637   1.250   2.183   5.444
 5913SOL    HW118638   1.198   2.141   5.519
 5913SOL    HW218639   1.284   2.111   5.383
 5914SOL     OW18640   2.005   6.080   1.176
 5914SOL    HW118641   1.939   6.016   1.217
 5914SOL    HW218642   2.001   6.167   1.225
 5915SOL     OW18643   4.906   3.348   2.905
 5915SOL    HW118644   4.956   3.339   2.819
 5915SOL    HW218645   4.819   3.299   2.899
 5916SOL     OW18646   2.995   0.064   5.929
 5916SOL    HW118647   3.078   0.060   5.984
 5916SOL    HW218648   2.990   0.152   5.882
 5917SOL     OW18649   3.704   2.883   2.571
 5917SOL    HW118650   3.635   2.912   2.637
 5917SOL    HW218651   3.680   2.793   2.534
 5918SOL     OW18652   2.173   2.693   4.119
 5918SOL    HW118653   2.081   2.724   4.094
 5918SOL    HW218654   2.222   2.769   4.162
 5919SOL     OW18655   1.113   2.897   0.312
 5919SOL    HW118656   1.088   2.876   0.218
 5919SOL    HW218657   1.070   2.982   0.340
 5920SOL     OW18658   3.455   5.882   6.963
 5920SOL    HW118659   3.448   5.798   6.908
 5920SOL    HW218660   3.548   5.918   6.958
 5921SOL     OW18661   4.128   5.613   4.908
 5921SOL    HW118662   4.207   5.645   4.855
 5921SOL    HW218663   4.107   5.518   4.884
 5922SOL     OW18664   5.581   4.187   1.943
 5922SOL    HW118665   5.512   4.138   1.891
 5922SOL    HW218666   5.656   4.214   1.883
 5923SOL     OW18667   0.046   0.042   3.553
 5923SOL    HW118668   7.006   0.120   3.529
 5923SOL    HW218669   0.110   0.024   3.478
 5924SOL     OW18670   5.552   2.680   4.547
 5924SOL    HW118671   5.466   2.685   4.497
 5924SOL    HW218672   5.542   2.619   4.625
 5925SOL     OW18673   6.589   6.143   1.037
 5925SOL    HW118674   6.661   6.167   1.102
 5925SOL    HW218675   6.596   6.046   1.014
 5926SOL     OW18676   3.561   5.204   2.123
 5926SOL    HW118677   3.592   5.227   2.216
 5926SOL    HW218678   3.639   5.207   2.060
 5927SOL     OW18679   2.233   5.482   1.998
 5927SOL    HW118680   2.322   5.472   1.953
 5927SOL    HW218681   2.235   5.564   2.056
 5928SOL     OW18682   1.154   6.748   1.499
 5928SOL    HW118683   1.211   6.807   1.556
 5928SOL    HW218684   1.201   6.661   1.484
 5929SOL     OW18685   1.571   0.214   5.619
 5929SOL    HW118686   1.659   0.182   5.585
 5929SOL    HW218687   1.548   0.164   5.703
 5930SOL     OW18688   6.801   1.937   5.085
 5930SOL    HW118689   6.701   1.946   5.083
 5930SOL    HW218690   6.826   1.841   5.073
 5931SOL     OW18691   5.821   5.200   1.348
 5931SOL    HW118692   5.831   5.143   1.429
 5931SOL    HW218693   5.887   5.171   1.278
 5932SOL     OW18694   2.211   6.222   0.363
 5932SOL    HW118695   2.176   6.315   0.373
 5932SOL    HW218696   2.309   6.226   0.340
 5933SOL     OW18697   6.244   3.580   2.899
 5933SOL    HW118698   6.279   3.633   2.977
 5933SOL    HW218699   6.287   3.490   2.898
 5934SOL     OW18700   3.821   4.066   2.968
 5934SOL    HW118701   3.736   4.018   2.989
 5934SOL    HW218702   3.827   4.082   2.870
 5935SOL     OW18703   3.463   3.079   3.495
 5935SOL    HW118704   3.513   3.101   3.579
 5935SOL    HW218705   3.394   3.149   3.478
 5936SOL     OW18706   5.790   5.961   6.603
 5936SOL    HW118707   5.862   6.025   6.578
 5936SOL    HW218708   5.751   5.920   6.521
 5937SOL     OW18709   1.273   3.750   1.018
 5937SOL    HW118710   1.183   3.713   0.994
 5937SOL    HW218711   1.262   3.843   1.054
 5938SOL     OW18712   1.933   4.133   1.379
 5938SOL    HW118713   1.996   4.198   1.421
 5938SOL    HW218714   1.971   4.041   1.383
 5939SOL     OW18715   2.794   0.678   3.107
 5939SOL    HW118716   2.830   0.725   3.188
 5939SOL    HW218717   2.870   0.637   3.056
 5940SOL     OW18718   4.334   5.858   3.533
 5940SOL    HW118719   4.297   5.799   3.462
 5940SOL    HW218720   4.266   5.928   3.557
 5941SOL     OW18721   6.430   4.459   2.345
 5941SOL    HW118722   6.391   4.401   2.273
 5941SOL    HW218723   6.496   4.406   2.398
 5942SOL     OW18724   5.769   1.844   5.663
 5942SOL    HW118725   5.801   1.842   5.758
 5942SOL    HW218726   5.773   1.752   5.625
 5943SOL     OW18727   1.488   5.843   6.863
 5943SOL    HW118728   1.514   5.879   6.953
 5943SOL    HW218729   1.550   5.769   6.838
 5944SOL     OW18730   4.397   2.110   2.699
 5944SOL    HW118731   4.360   2.018   2.689
 5944SOL    HW218732   4.431   2.142   2.610
 5945SOL     OW18733   6.932   5.028   5.557
 5945SOL    HW118734   7.003   5.019   5.486
 5945SOL    HW218735   6.921   4.941   5.604
 5946SOL     OW18736   3.783   2.933   5.512
 5946SOL    HW118737   3.713   3.003   5.522
 5946SOL    HW218738   3.739   2.843   5.503
 5947SOL     OW18739   4.187   3.505   1.598
 5947SOL    HW118740   4.203   3.558   1.682
 5947SOL    HW218741   4.132   3.424   1.620
 5948SOL     OW18742   3.832   4.888   2.547
 5948SOL    HW118743   3.808   4.949   2.472
 5948SOL    HW218744   3.764   4.896   2.620
 5949SOL     OW18745   4.609   4.730   2.077
 5949SOL    HW118746   4.512   4.722   2.098
 5949SOL    HW218747   4.651   4.639   2.075
 5950SOL     OW18748   6.265   2.598   3.818
 5950SOL    HW118749   6.217   2.653   3.887
 5950SOL    HW218750   6.287   2.655   3.739
 5951SOL     OW18751   1.917   5.854   3.691
 5951SOL    HW118752   1.848   5.813   3.751
 5951SOL    HW218753   1.983   5.785   3.663
 5952SOL     OW18754   6.849   6.728   4.897
 5952SOL    HW118755   6.886   6.635   4.896
 5952SOL    HW218756   6.749   6.723   4.900
 5953SOL     OW18757   0.461   3.275   6.265
 5953SOL    HW118758   0.561   3.286   6.266
 5953SOL    HW218759   0.423   3.310   6.350
 5954SOL     OW18760   0.632   5.172   6.835
 5954SOL    HW118761   0.693   5.142   6.761
 5954SOL    HW218762   0.550   5.115   6.835
 5955SOL     OW18763   5.419   5.812   2.263
 5955SOL    HW118764   5.495   5.877   2.251
 5955SOL    HW218765   5.332   5.861   2.255
 5956SOL     OW18766   6.466   2.247   0.333
 5956SOL    HW118767   6.393   2.314   0.341
 5956SOL    HW218768   6.461   2.181   0.408
 5957SOL     OW18769   5.142   6.876   5.965
 5957SOL    HW118770   5.062   6.922   6.003
 5957SOL    HW218771   5.224   6.903   6.015
 5958SOL     OW18772   0.665   5.461   2.376
 5958SOL    HW118773   0.742   5.463   2.312
 5958SOL    HW218774   0.682   5.525   2.451
 5959SOL     OW18775   1.938   1.382   6.055
 5959SOL    HW118776   1.965   1.296   6.012
 5959SOL    HW218777   2.016   1.423   6.101
 5960SOL     OW18778   3.572   0.493   4.105
 5960SOL    HW118779   3.602   0.527   4.016
 5960SOL    HW218780   3.502   0.423   4.092
 5961SOL     OW18781   3.111   0.951   5.885
 5961SOL    HW118782   3.074   1.025   5.941
 5961SOL    HW218783   3.165   0.990   5.810
 5962SOL     OW18784   5.654   5.234   2.345
 5962SOL    HW118785   5.648   5.247   2.444
 5962SOL    HW218786   5.750   5.242   2.317
 5963SOL     OW18787   4.092   3.758   2.033
 5963SOL    HW118788   4.166   3.815   2.069
 5963SOL    HW218789   4.016   3.757   2.098
 5964SOL     OW18790   1.697   4.671   5.335
 5964SOL    HW118791   1.714   4.585   5.285
 5964SOL    HW218792   1.783   4.707   5.370
 5965SOL     OW18793   2.608   1.779   4.730
 5965SOL    HW118794   2.671   1.744   4.660
 5965SOL    HW218795   2.631   1.738   4.818
 5966SOL     OW18796   1.714   6.652   3.710
 5966SOL    HW118797   1.735   6.589   3.785
 5966SOL    HW218798   1.780   6.726   3.708
 5967SOL     OW18799   4.939   0.210   2.319
 5967SOL    HW118800   5.006   0.168   2.380
 5967SOL    HW218801   4.977   0.218   2.227
 5968SOL     OW18802   0.202   2.368   4.291
 5968SOL    HW118803   0.280   2.409   4.244
 5968SOL    HW218804   0.118   2.413   4.262
 5969SOL     OW18805   5.643   3.203   2.574
 5969SOL    HW118806   5.577   3.130   2.554
 5969SOL    HW218807   5.691   3.228   2.490
 5970SOL     OW18808   1.781   2.624   3.521
 5970SOL    HW118809   1.864   2.672   3.548
 5970SOL    HW218810   1.718   2.618   3.599
 5971SOL     OW18811   2.504   0.122   2.309
 5971SOL    HW118812   2.447   0.201   2.288
 5971SOL    HW218813   2.540   0.082   2.225
 5972SOL     OW18814   4.689   6.263   1.104
 5972SOL    HW118815   4.619   6.328   1.073
 5972SOL    HW218816   4.648   6.196   1.165
 5973SOL     OW18817   1.122   4.723   3.500
 5973SOL    HW118818   1.176   4.745   3.582
 5973SOL    HW218819   1.024   4.722   3.524
 5974SOL     OW18820   0.928   3.742   6.487
 5974SOL    HW118821   0.880   3.659   6.460
 5974SOL    HW218822   0.904   3.817   6.424
 5975SOL     OW18823   2.023   2.619   0.258
 5975SOL    HW118824   1.948   2.559   0.285
 5975SOL    HW218825   2.051   2.675   0.336
 5976SOL     OW18826   3.495   3.737   5.485
 5976SOL    HW118827   3.554   3.807   5.524
 5976SOL    HW218828   3.419   3.780   5.436
 5977SOL     OW18829   1.034   3.164   2.912
 5977SOL    HW118830   1.089   3.204   2.987
 5977SOL    HW218831   0.997   3.237   2.856
 5978SOL     OW18832   5.463   5.492   2.582
 5978SOL    HW118833   5.417   5.579   2.603
 5978SOL    HW218834   5.455   5.431   2.660
 5979SOL     OW18835   6.737   0.505   3.210
 5979SOL    HW118836   6.654   0.561   3.217
 5979SOL    HW218837   6.756   0.484   3.115
 5980SOL     OW18838   6.177   3.932   6.376
 5980SOL    HW118839   6.108   3.993   6.417
 5980SOL    HW218840   6.214   3.872   6.446
 5981SOL     OW18841   4.107   1.044   1.778
 5981SOL    HW118842   4.149   0.968   1.828
 5981SOL    HW218843   4.131   1.038   1.682
 5982SOL     OW18844   6.188   2.065   6.588
 5982SOL    HW118845   6.239   2.151   6.588
 5982SOL    HW218846   6.099   2.079   6.545
 5983SOL     OW18847   0.848   0.991   4.660
 5983SOL    HW118848   0.860   0.965   4.756
 5983SOL    HW218849   0.815   1.085   4.655
 5984SOL     OW18850   7.014   0.164   5.711
 5984SOL    HW118851   0.029   0.074   5.680
 5984SOL    HW218852   0.074   0.224   5.728
 5985SOL     OW18853   4.482   2.518   4.200
 5985SOL    HW118854   4.395   2.479   4.167
 5985SOL    HW218855   4.492   2.500   4.297
 5986SOL     OW18856   3.344   3.122   2.490
 5986SOL    HW118857   3.444   3.119   2.489
 5986SOL    HW218858   3.309   3.106   2.397
 5987SOL     OW18859   4.031   0.143   5.613
 5987SOL    HW118860   4.107   0.080   5.625
 5987SOL    HW218861   3.996   0.170   5.703
 5988SOL     OW18862   4.022   0.868   4.329
 5988SOL    HW118863   4.098   0.894   4.388
 5988SOL    HW218864   4.049   0.793   4.269
 5989SOL     OW18865   2.738   0.736   6.238
 5989SOL    HW118866   2.778   0.811   6.291
 5989SOL    HW218867   2.726   0.765   6.143
 5990SOL     OW18868   3.018   4.731   1.759
 5990SOL    HW118869   2.948   4.690   1.817
 5990SOL    HW218870   3.031   4.676   1.677
 5991SOL     OW18871   2.725   5.368   3.875
 5991SOL    HW118872   2.641   5.327   3.910
 5991SOL    HW218873   2.797   5.299   3.872
 5992SOL     OW18874   4.427   0.496   4.267
 5992SOL    HW118875   4.365   0.417   4.278
 5992SOL    HW218876   4.375   0.580   4.277
 5993SOL     OW18877   3.283   5.747   4.792
 5993SOL    HW118878   3.264   5.659   4.749
 5993SOL    HW218879   3.323   5.733   4.882
 5994SOL     OW18880   7.000   2.390   1.912
 5994SOL    HW118881   6.949   2.449   1.849
 5994SOL    HW218882   0.073   2.373   1.875
 5995SOL     OW18883   0.220   4.213   1.623
 5995SOL    HW118884   0.130   4.230   1.665
 5995SOL    HW218885   0.250   4.295   1.574
 5996SOL     OW18886   0.677   5.351   6.168
 5996SOL    HW118887   0.677   5.334   6.070
 5996SOL    HW218888   0.583   5.363   6.200
 5997SOL     OW18889   0.719   6.590   2.100
 5997SOL    HW118890   0.665   6.534   2.164
 5997SOL    HW218891   0.659   6.655   2.053
 5998SOL     OW18892   5.088   1.973   3.334
 5998SOL    HW118893   5.089   1.874   3.342
 5998SOL    HW218894   4.994   2.005   3.319
 5999SOL     OW18895   1.697   1.600   2.510
 5999SOL    HW118896   1.703   1.558   2.601
 5999SOL    HW218897   1.608   1.643   2.499
 6000SOL     OW18898   4.549   6.536   2.475
 6000SOL    HW118899   4.561   6.625   2.518
 6000SOL    HW218900   4.459   6.532   2.432
 6001SOL     OW18901   6.289   2.206   6.966
 6001SOL    HW118902   6.227   2.145   6.915
 6001SOL    HW218903   6.245   2.234   0.033
 6002SOL     OW18904   1.824   0.117   1.871
 6002SOL    HW118905   1.870   0.147   1.954
 6002SOL    HW218906   1.770   0.193   1.834
 6003SOL     OW18907   4.495   4.424   4.250
 6003SOL    HW118908   4.585   4.394   4.283
 6003SOL    HW218909   4.491   4.412   4.151
 6004SOL     OW18910   0.033   3.755   2.349
 6004SOL    HW118911   0.005   3.822   2.418
 6004SOL    HW218912   0.092   3.686   2.392
 6005SOL     OW18913   3.246   6.323   2.988
 6005SOL    HW118914   3.208   6.273   3.066
 6005SOL    HW218915   3.268   6.259   2.914
 6006SOL     OW18916   2.492   6.362   0.063
 6006SOL    HW118917   2.570   6.320   0.017
 6006SOL    HW218918   2.488   6.329   0.157
 6007SOL     OW18919   5.586   2.663   3.696
 6007SOL    HW118920   5.649   2.729   3.736
 6007SOL    HW218921   5.598   2.574   3.741
 6008SOL     OW18922   3.704   4.581   6.766
 6008SOL    HW118923   3.606   4.587   6.779
 6008SOL    HW218924   3.751   4.594   6.853
 6009SOL     OW18925   3.268   2.041   4.583
 6009SOL    HW118926   3.242   1.961   4.636
 6009SOL    HW218927   3.186   2.084   4.544
 6010SOL     OW18928   1.572   2.637   3.340
 6010SOL    HW118929   1.647   2.600   3.396
 6010SOL    HW218930   1.500   2.568   3.333
 6011SOL     OW18931   6.518   3.248   3.141
 6011SOL    HW118932   6.533   3.160   3.186
 6011SOL    HW218933   6.456   3.303   3.197
 6012SOL     OW18934   6.615   3.712   0.725
 6012SOL    HW118935   6.563   3.712   0.640
 6012SOL    HW218936   6.713   3.711   0.705
 6013SOL     OW18937   5.920   1.578   2.549
 6013SOL    HW118938   5.889   1.622   2.464
 6013SOL    HW218939   5.978   1.500   2.527
 6014SOL     OW18940   5.762   0.296   0.979
 6014SOL    HW118941   5.737   0.348   0.897
 6014SOL    HW218942   5.680   0.261   1.022
 6015SOL     OW18943   5.145   1.760   4.795
 6015SOL    HW118944   5.048   1.753   4.771
 6015SOL    HW218945   5.182   1.846   4.759
 6016SOL     OW18946   2.116   6.830   5.053
 6016SOL    HW118947   2.050   6.906   5.048
 6016SOL    HW218948   2.095   6.763   4.982
 6017SOL     OW18949   6.752   4.643   2.378
 6017SOL    HW118950   6.813   4.659   2.456
 6017SOL    HW218951   6.782   4.561   2.329
 6018SOL     OW18952   2.787   4.846   0.888
 6018SOL    HW118953   2.709   4.823   0.945
 6018SOL    HW218954   2.872   4.818   0.933
 6019SOL     OW18955   4.311   6.753   4.259
 6019SOL    HW118956   4.272   6.788   4.343
 6019SOL    HW218957   4.291   6.816   4.184
 6020SOL     OW18958   3.565   0.536   2.879
 6020SOL    HW118959   3.636   0.542   2.809
 6020SOL    HW218960   3.476   0.521   2.835
 6021SOL     OW18961   4.187   1.306   2.908
 6021SOL    HW118962   4.183   1.306   2.809
 6021SOL    HW218963   4.111   1.360   2.945
 6022SOL     OW18964   4.448   1.887   5.262
 6022SOL    HW118965   4.483   1.887   5.168
 6022SOL    HW218966   4.352   1.917   5.261
 6023SOL     OW18967   6.651   1.588   2.414
 6023SOL    HW118968   6.724   1.647   2.449
 6023SOL    HW218969   6.628   1.519   2.483
 6024SOL     OW18970   0.697   4.808   2.722
 6024SOL    HW118971   0.768   4.874   2.745
 6024SOL    HW218972   0.697   4.790   2.624
 6025SOL     OW18973   4.568   2.014   1.419
 6025SOL    HW118974   4.565   1.927   1.369
 6025SOL    HW218975   4.477   2.037   1.451
 6026SOL     OW18976   0.447   4.731   5.256
 6026SOL    HW118977   0.495   4.809   5.297
 6026SOL    HW218978   0.374   4.764   5.196
 6027SOL     OW18979   2.860   3.253   0.474
 6027SOL    HW118980   2.960   3.263   0.479
 6027SOL    HW218981   2.823   3.327   0.417
 6028SOL     OW18982   1.592   3.820   0.338
 6028SOL    HW118983   1.683   3.810   0.298
 6028SOL    HW218984   1.534   3.874   0.276
 6029SOL     OW18985   1.777   5.046   1.197
 6029SOL    HW118986   1.724   4.992   1.131
 6029SOL    HW218987   1.869   5.061   1.160
 6030SOL     OW18988   2.097   0.454   0.649
 6030SOL    HW118989   2.064   0.403   0.729
 6030SOL    HW218990   2.127   0.389   0.579
 6031SOL     OW18991   5.194   6.907   5.045
 6031SOL    HW118992   5.226   6.956   5.127
 6031SOL    HW218993   5.094   6.904   5.046
 6032SOL     OW18994   0.470   3.168   2.608
 6032SOL    HW118995   0.503   3.151   2.701
 6032SOL    HW218996   0.547   3.168   2.545
 6033SOL     OW18997   1.535   0.218   4.441
 6033SOL    HW118998   1.482   0.191   4.360
 6033SOL    HW218999   1.507   0.163   4.519
 6034SOL     OW19000   2.234   4.050   5.484
 6034SOL    HW119001   2.239   3.961   5.439
 6034SOL    HW219002   2.266   4.121   5.421
 6035SOL     OW19003   6.193   0.806   4.091
 6035SOL    HW119004   6.095   0.798   4.105
 6035SOL    HW219005   6.218   0.902   4.082
 6036SOL     OW19006   0.033   0.800   4.414
 6036SOL    HW119007   7.002   0.739   4.477
 6036SOL    HW219008   0.012   0.895   4.437
 6037SOL     OW19009   6.632   4.770   4.704
 6037SOL    HW119010   6.557   4.814   4.654
 6037SOL    HW219011   6.633   4.805   4.798
 6038SOL     OW19012   4.836   3.844   6.552
 6038SOL    HW119013   4.799   3.751   6.555
 6038SOL    HW219014   4.768   3.906   6.513
 6039SOL     OW19015   3.565   4.163   2.987
 6039SOL    HW119016   3.475   4.202   3.003
 6039SOL    HW219017   3.613   4.153   3.074
 6040SOL     OW19018   0.356   1.902   6.902
 6040SOL    HW119019   0.258   1.915   6.889
 6040SOL    HW219020   0.399   1.989   6.926
 6041SOL     OW19021   0.583   2.495   0.421
 6041SOL    HW119022   0.585   2.591   0.394
 6041SOL    HW219023   0.638   2.482   0.504
 6042SOL     OW19024   5.348   4.954   3.745
 6042SOL    HW119025   5.293   4.954   3.662
 6042SOL    HW219026   5.438   4.993   3.725
 6043SOL     OW19027   0.550   4.827   4.068
 6043SOL    HW119028   0.601   4.745   4.094
 6043SOL    HW219029   0.473   4.839   4.130
 6044SOL     OW19030   0.773   0.189   1.789
 6044SOL    HW119031   0.734   0.281   1.777
 6044SOL    HW219032   0.817   0.184   1.879
 6045SOL     OW19033   0.278   3.996   1.446
 6045SOL    HW119034   0.366   3.969   1.486
 6045SOL    HW219035   0.231   4.057   1.510
 6046SOL     OW19036   2.618   2.893   0.364
 6046SOL    HW119037   2.548   2.842   0.316
 6046SOL    HW219038   2.634   2.852   0.454
 6047SOL     OW19039   0.149   6.297   4.891
 6047SOL    HW119040   0.148   6.197   4.885
 6047SOL    HW219041   0.187   6.325   4.979
 6048SOL     OW19042   4.679   6.673   4.978
 6048SOL    HW119043   4.635   6.752   4.935
 6048SOL    HW219044   4.609   6.617   5.023
 6049SOL     OW19045   6.422   5.187   1.378
 6049SOL    HW119046   6.492   5.257   1.392
 6049SOL    HW219047   6.437   5.143   1.290
 6050SOL     OW19048   5.004   4.164   5.392
 6050SOL    HW119049   4.986   4.224   5.315
 6050SOL    HW219050   4.986   4.212   5.478
 6051SOL     OW19051   1.633   1.841   3.009
 6051SOL    HW119052   1.723   1.805   3.033
 6051SOL    HW219053   1.623   1.934   3.045
 6052SOL     OW19054   6.797   1.131   0.203
 6052SOL    HW119055   6.701   1.121   0.229
 6052SOL    HW219056   6.814   1.224   0.172
 6053SOL     OW19057   2.223   0.132   6.721
 6053SOL    HW119058   2.288   0.153   6.794
 6053SOL    HW219059   2.174   0.215   6.695
 6054SOL     OW19060   2.604   5.190   0.183
 6054SOL    HW119061   2.683   5.247   0.158
 6054SOL    HW219062   2.524   5.248   0.197
 6055SOL     OW19063   4.920   0.339   4.477
 6055SOL    HW119064   4.851   0.407   4.500
 6055SOL    HW219065   4.905   0.256   4.530
 6056SOL     OW19066   4.858   2.621   6.080
 6056SOL    HW119067   4.764   2.643   6.106
 6056SOL    HW219068   4.877   2.525   6.100
 6057SOL     OW19069   3.656   0.759   6.125
 6057SOL    HW119070   3.662   0.660   6.137
 6057SOL    HW219071   3.749   0.797   6.122
 6058SOL     OW19072   5.523   1.751   4.266
 6058SOL    HW119073   5.579   1.671   4.244
 6058SOL    HW219074   5.489   1.793   4.182
 6059SOL     OW19075   0.034   5.322   5.889
 6059SOL    HW119076   6.970   5.311   5.833
 6059SOL    HW219077   0.107   5.362   5.833
 6060SOL     OW19078   3.986   6.539   5.938
 6060SOL    HW119079   3.990   6.454   5.990
 6060SOL    HW219080   4.078   6.564   5.907
 6061SOL     OW19081   2.399   1.937   6.182
 6061SOL    HW119082   2.391   1.871   6.257
 6061SOL    HW219083   2.374   1.893   6.096
 6062SOL     OW19084   2.180   0.728   4.208
 6062SOL    HW119085   2.115   0.699   4.279
 6062SOL    HW219086   2.206   0.823   4.223
 6063SOL     OW19087   4.343   0.112   6.941
 6063SOL    HW119088   4.400   0.037   6.974
 6063SOL    HW219089   4.308   0.091   6.850
 6064SOL     OW19090   1.078   6.158   3.664
 6064SOL    HW119091   1.116   6.231   3.721
 6064SOL    HW219092   1.133   6.075   3.675
 6065SOL     OW19093   0.043   0.459   0.825
 6065SOL    HW119094   6.987   0.440   0.761
 6065SOL    HW219095   0.081   0.373   0.859
 6066SOL     OW19096   4.295   2.586   6.886
 6066SOL    HW119097   4.223   2.523   6.858
 6066SOL    HW219098   4.369   2.583   6.819
 6067SOL     OW19099   5.756   2.615   6.866
 6067SOL    HW119100   5.819   2.590   6.939
 6067SOL    HW219101   5.669   2.644   6.905
 6068SOL     OW19102   4.675   2.729   5.066
 6068SOL    HW119103   4.719   2.679   5.140
 6068SOL    HW219104   4.624   2.664   5.009
 6069SOL     OW19105   5.935   3.866   4.046
 6069SOL    HW119106   5.941   3.876   4.145
 6069SOL    HW219107   5.974   3.948   4.002
 6070SOL     OW19108   3.559   2.312   6.445
 6070SOL    HW119109   3.658   2.298   6.447
 6070SOL    HW219110   3.518   2.265   6.523
 6071SOL     OW19111   4.693   6.242   5.165
 6071SOL    HW119112   4.596   6.233   5.143
 6071SOL    HW219113   4.730   6.324   5.122
 6072SOL     OW19114   0.284   1.902   0.758
 6072SOL    HW119115   0.331   1.836   0.816
 6072SOL    HW219116   0.185   1.890   0.766
 6073SOL     OW19117   6.617   2.528   1.260
 6073SOL    HW119118   6.654   2.435   1.270
 6073SOL    HW219119   6.544   2.542   1.327
 6074SOL     OW19120   0.478   6.981   4.306
 6074SOL    HW119121   0.440   6.904   4.255
 6074SOL    HW219122   0.412   7.009   4.376
 6075SOL     OW19123   5.424   4.183   6.706
 6075SOL    HW119124   5.515   4.184   6.748
 6075SOL    HW219125   5.433   4.170   6.608
 6076SOL     OW19126   2.219   6.432   3.282
 6076SOL    HW119127   2.282   6.441   3.205
 6076SOL    HW219128   2.264   6.463   3.365
 6077SOL     OW19129   5.930   5.912   2.103
 6077SOL    HW119130   5.871   5.992   2.117
 6077SOL    HW219131   6.014   5.923   2.155
 6078SOL     OW19132   2.352   4.520   3.371
 6078SOL    HW119133   2.341   4.519   3.271
 6078SOL    HW219134   2.430   4.464   3.397
 6079SOL     OW19135   2.328   1.423   0.614
 6079SOL    HW119136   2.292   1.515   0.633
 6079SOL    HW219137   2.254   1.365   0.580
 6080SOL     OW19138   6.019   2.266   2.300
 6080SOL    HW119139   6.014   2.172   2.266
 6080SOL    HW219140   6.009   2.266   2.400
 6081SOL     OW19141   0.355   4.145   3.372
 6081SOL    HW119142   0.273   4.089   3.374
 6081SOL    HW219143   0.392   4.146   3.279
 6082SOL     OW19144   4.031   1.443   4.222
 6082SOL    HW119145   3.988   1.456   4.133
 6082SOL    HW219146   3.961   1.443   4.294
 6083SOL     OW19147   1.951   6.897   0.368
 6083SOL    HW119148   1.852   6.891   0.351
 6083SOL    HW219149   1.969   6.972   0.431
 6084SOL     OW19150   0.830   5.067   5.721
 6084SOL    HW119151   0.801   5.090   5.815
 6084SOL    HW219152   0.910   5.121   5.697
 6085SOL     OW19153   4.598   3.896   1.363
 6085SOL    HW119154   4.689   3.886   1.324
 6085SOL    HW219155   4.594   3.981   1.416
 6086SOL     OW19156   2.476   1.802   3.434
 6086SOL    HW119157   2.414   1.879   3.450
 6086SOL    HW219158   2.570   1.830   3.453
 6087SOL     OW19159   4.871   6.652   7.002
 6087SOL    HW119160   4.829   6.716   6.937
 6087SOL    HW219161   4.802   6.623   0.051
 6088SOL     OW19162   0.037   0.135   4.634
 6088SOL    HW119163   6.989   0.103   4.567
 6088SOL    HW219164   0.079   0.220   4.602
 6089SOL     OW19165   0.387   3.083   0.357
 6089SOL    HW119166   0.312   3.042   0.410
 6089SOL    HW219167   0.408   3.173   0.394
 6090SOL     OW19168   0.125   5.915   4.261
 6090SOL    HW119169   0.185   5.992   4.283
 6090SOL    HW219170   0.122   5.851   4.338
 6091SOL     OW19171   5.867   2.262   1.437
 6091SOL    HW119172   5.814   2.329   1.384
 6091SOL    HW219173   5.806   2.214   1.500
 6092SOL     OW19174   1.924   2.546   1.452
 6092SOL    HW119175   1.919   2.547   1.352
 6092SOL    HW219176   1.838   2.580   1.490
 6093SOL     OW19177   1.245   3.029   1.522
 6093SOL    HW119178   1.280   3.100   1.461
 6093SOL    HW219179   1.320   2.966   1.545
 6094SOL     OW19180   1.112   0.850   0.836
 6094SOL    HW119181   1.180   0.776   0.831
 6094SOL    HW219182   1.133   0.910   0.913
 6095SOL     OW19183   6.929   3.976   5.919
 6095SOL    HW119184   0.001   3.967   5.878
 6095SOL    HW219185   6.866   3.912   5.874
 6096SOL     OW19186   4.200   1.918   2.959
 6096SOL    HW119187   4.111   1.872   2.964
 6096SOL    HW219188   4.190   2.005   2.911
 6097SOL     OW19189   2.896   1.973   1.848
 6097SOL    HW119190   2.810   1.979   1.899
 6097SOL    HW219191   2.964   2.033   1.890
 6098SOL     OW19192   1.725   1.790   5.315
 6098SOL    HW119193   1.748   1.744   5.229
 6098SOL    HW219194   1.636   1.757   5.347
 6099SOL     OW19195   6.010   5.211   4.866
 6099SOL    HW119196   6.063   5.296   4.861
 6099SOL    HW219197   6.004   5.181   4.961
 6100SOL     OW19198   6.279   2.971   0.341
 6100SOL    HW119199   6.261   2.877   0.372
 6100SOL    HW219200   6.317   2.969   0.249
 6101SOL     OW19201   5.931   1.805   4.645
 6101SOL    HW119202   5.989   1.771   4.570
 6101SOL    HW219203   5.842   1.832   4.608
 6102SOL     OW19204   3.169   0.597   5.370
 6102SOL    HW119205   3.245   0.652   5.335
 6102SOL    HW219206   3.111   0.569   5.294
 6103SOL     OW19207   6.356   0.389   6.028
 6103SOL    HW119208   6.447   0.429   6.039
 6103SOL    HW219209   6.363   0.309   5.969
 6104SOL     OW19210   1.220   2.652   0.458
 6104SOL    HW119211   1.198   2.743   0.424
 6104SOL    HW219212   1.287   2.660   0.532
 6105SOL     OW19213   3.405   5.761   4.263
 6105SOL    HW119214   3.418   5.764   4.362
 6105SOL    HW219215   3.456   5.685   4.224
 6106SOL     OW19216   3.057   5.777   5.107
 6106SOL    HW119217   3.092   5.868   5.128
 6106SOL    HW219218   2.960   5.784   5.084
 6107SOL     OW19219   2.047   4.479   5.313
 6107SOL    HW119220   2.127   4.460   5.369
 6107SOL    HW219221   2.008   4.392   5.281
 6108SOL     OW19222   0.158   2.019   4.424
 6108SOL    HW119223   0.076   1.991   4.473
 6108SOL    HW219224   0.188   1.945   4.364
 6109SOL     OW19225   6.423   4.450   1.726
 6109SOL    HW119226   6.395   4.540   1.693
 6109SOL    HW219227   6.523   4.447   1.732
 6110SOL     OW19228   3.476   2.048   4.382
 6110SOL    HW119229   3.445   2.120   4.444
 6110SOL    HW219230   3.573   2.028   4.401
 6111SOL     OW19231   1.088   5.107   2.888
 6111SOL    HW119232   1.160   5.104   2.957
 6111SOL    HW219233   1.001   5.132   2.932
 6112SOL     OW19234   0.230   2.064   2.467
 6112SOL    HW119235   0.290   2.136   2.432
 6112SOL    HW219236   0.285   1.994   2.513
 6113SOL     OW19237   1.637   5.698   5.209
 6113SOL    HW119238   1.621   5.633   5.283
 6113SOL    HW219239   1.550   5.739   5.181
 6114SOL     OW19240   5.194   5.446   0.687
 6114SOL    HW119241   5.255   5.370   0.707
 6114SOL    HW219242   5.183   5.503   0.768
 6115SOL     OW19243   6.024   4.869   2.689
 6115SOL    HW119244   5.945   4.813   2.713
 6115SOL    HW219245   6.103   4.810   2.670
 6116SOL     OW19246   4.343   0.997   1.637
 6116SOL    HW119247   4.300   1.084   1.613
 6116SOL    HW219248   4.420   1.013   1.697
 6117SOL     OW19249   5.332   6.971   4.230
 6117SOL    HW119250   5.242   6.962   4.271
 6117SOL    HW219251   5.376   6.881   4.227
 6118SOL     OW19252   5.749   0.260   3.057
 6118SOL    HW119253   5.780   0.206   3.135
 6118SOL    HW219254   5.753   0.204   2.974
 6119SOL     OW19255   6.553   5.071   3.772
 6119SOL    HW119256   6.628   5.013   3.741
 6119SOL    HW219257   6.474   5.013   3.796
 6120SOL     OW19258   2.818   1.198   2.985
 6120SOL    HW119259   2.767   1.277   2.951
 6120SOL    HW219260   2.755   1.122   3.001
 6121SOL     OW19261   6.642   2.183   4.591
 6121SOL    HW119262   6.695   2.226   4.663
 6121SOL    HW219263   6.700   2.119   4.540
 6122SOL     OW19264   4.765   5.471   2.933
 6122SOL    HW119265   4.696   5.536   2.965
 6122SOL    HW219266   4.741   5.439   2.842
 6123SOL     OW19267   6.273   1.216   2.325
 6123SOL    HW119268   6.355   1.191   2.273
 6123SOL    HW219269   6.255   1.147   2.394
 6124SOL     OW19270   3.272   0.375   5.852
 6124SOL    HW119271   3.273   0.457   5.796
 6124SOL    HW219272   3.357   0.369   5.904
 6125SOL     OW19273   2.041   5.263   1.845
 6125SOL    HW119274   2.102   5.185   1.836
 6125SOL    HW219275   2.080   5.328   1.910
 6126SOL     OW19276   5.523   5.577   2.167
 6126SOL    HW119277   5.559   5.511   2.233
 6126SOL    HW219278   5.457   5.637   2.213
 6127SOL     OW19279   1.924   4.549   1.463
 6127SOL    HW119280   1.895   4.607   1.387
 6127SOL    HW219281   2.019   4.520   1.449
 6128SOL     OW19282   5.079   2.586   0.955
 6128SOL    HW119283   5.098   2.674   0.912
 6128SOL    HW219284   4.980   2.571   0.958
 6129SOL     OW19285   6.122   4.614   3.949
 6129SOL    HW119286   6.028   4.621   3.915
 6129SOL    HW219287   6.121   4.618   4.049
 6130SOL     OW19288   5.292   3.843   2.364
 6130SOL    HW119289   5.258   3.933   2.337
 6130SOL    HW219290   5.215   3.783   2.383
 6131SOL     OW19291   6.440   0.784   5.176
 6131SOL    HW119292   6.420   0.688   5.194
 6131SOL    HW219293   6.524   0.810   5.223
 6132SOL     OW19294   6.265   2.673   0.358
 6132SOL    HW119295   6.342   2.667   0.296
 6132SOL    HW219296   6.179   2.673   0.306
 6133SOL     OW19297   1.236   4.105   0.404
 6133SOL    HW119298   1.288   4.070   0.327
 6133SOL    HW219299   1.218   4.202   0.390
 6134SOL     OW19300   4.692   2.949   6.676
 6134SOL    HW119301   4.618   2.980   6.735
 6134SOL    HW219302   4.780   2.969   6.719
 6135SOL     OW19303   5.457   0.326   1.500
 6135SOL    HW119304   5.544   0.349   1.456
 6135SOL    HW219305   5.434   0.231   1.481
 6136SOL     OW19306   6.918   1.639   1.287
 6136SOL    HW119307   6.921   1.737   1.267
 6136SOL    HW219308   6.986   1.592   1.231
 6137SOL     OW19309   2.649   6.784   5.900
 6137SOL    HW119310   2.629   6.823   5.810
 6137SOL    HW219311   2.563   6.764   5.947
 6138SOL     OW19312   4.735   0.088   2.934
 6138SOL    HW119313   4.746   0.167   2.874
 6138SOL    HW219314   4.670   0.023   2.893
 6139SOL     OW19315   1.666   4.416   4.203
 6139SOL    HW119316   1.673   4.316   4.208
 6139SOL    HW219317   1.696   4.456   4.290
 6140SOL     OW19318   2.130   6.655   1.082
 6140SOL    HW119319   2.140   6.592   1.159
 6140SOL    HW219320   2.141   6.749   1.114
 6141SOL     OW19321   6.322   6.405   5.847
 6141SOL    HW119322   6.291   6.497   5.870
 6141SOL    HW219323   6.261   6.365   5.779
 6142SOL     OW19324   1.039   4.848   3.044
 6142SOL    HW119325   1.124   4.797   3.029
 6142SOL    HW219326   0.969   4.817   2.980
 6143SOL     OW19327   6.542   4.777   6.524
 6143SOL    HW119328   6.534   4.687   6.481
 6143SOL    HW219329   6.451   4.810   6.549
 6144SOL     OW19330   6.868   5.488   3.634
 6144SOL    HW119331   6.842   5.504   3.729
 6144SOL    HW219332   6.913   5.399   3.626
 6145SOL     OW19333   5.288   5.838   3.210
 6145SOL    HW119334   5.319   5.933   3.218
 6145SOL    HW219335   5.367   5.777   3.213
 6146SOL     OW19336   5.598   1.194   3.376
 6146SOL    HW119337   5.618   1.106   3.419
 6146SOL    HW219338   5.561   1.178   3.284
 6147SOL     OW19339   1.799   3.576   3.213
 6147SOL    HW119340   1.736   3.597   3.137
 6147SOL    HW219341   1.856   3.498   3.188
 6148SOL     OW19342   6.316   6.255   3.957
 6148SOL    HW119343   6.349   6.167   3.991
 6148SOL    HW219344   6.315   6.255   3.857
 6149SOL     OW19345   1.961   6.509   3.351
 6149SOL    HW119346   1.875   6.485   3.305
 6149SOL    HW219347   2.030   6.440   3.328
 6150SOL     OW19348   4.348   4.975   6.145
 6150SOL    HW119349   4.289   4.958   6.066
 6150SOL    HW219350   4.333   5.068   6.179
 6151SOL     OW19351   4.551   1.786   5.805
 6151SOL    HW119352   4.502   1.867   5.773
 6151SOL    HW219353   4.486   1.711   5.820
 6152SOL     OW19354   6.733   4.550   6.474
 6152SOL    HW119355   6.730   4.530   6.572
 6152SOL    HW219356   6.819   4.517   6.436
 6153SOL     OW19357   4.829   3.443   0.732
 6153SOL    HW119358   4.804   3.517   0.795
 6153SOL    HW219359   4.903   3.389   0.772
 6154SOL     OW19360   5.275   3.067   2.459
 6154SOL    HW119361   5.179   3.052   2.435
 6154SOL    HW219362   5.333   3.000   2.413
 6155SOL     OW19363   1.484   3.648   4.015
 6155SOL    HW119364   1.397   3.679   4.053
 6155SOL    HW219365   1.467   3.586   3.938
 6156SOL     OW19366   6.538   0.383   3.674
 6156SOL    HW119367   6.598   0.391   3.594
 6156SOL    HW219368   6.571   0.443   3.747
 6157SOL     OW19369   1.608   1.617   3.284
 6157SOL    HW119370   1.651   1.693   3.331
 6157SOL    HW219371   1.621   1.626   3.185
 6158SOL     OW19372   4.370   0.679   0.401
 6158SOL    HW119373   4.324   0.720   0.479
 6158SOL    HW219374   4.443   0.618   0.432
 6159SOL     OW19375   5.120   3.386   0.042
 6159SOL    HW119376   5.131   3.472   7.010
 6159SOL    HW219377   5.160   3.311   7.006
 6160SOL     OW19378   6.491   5.171   2.151
 6160SOL    HW119379   6.398   5.201   2.128
 6160SOL    HW219380   6.486   5.096   2.217
 6161SOL     OW19381   5.710   0.558   6.378
 6161SOL    HW119382   5.617   0.566   6.416
 6161SOL    HW219383   5.704   0.540   6.280
 6162SOL     OW19384   6.075   5.298   3.565
 6162SOL    HW119385   5.975   5.298   3.576
 6162SOL    HW219386   6.117   5.320   3.653
 6163SOL     OW19387   0.026   4.238   2.072
 6163SOL    HW119388   0.114   4.243   2.024
 6163SOL    HW219389   0.020   4.150   2.120
 6164SOL     OW19390   4.076   2.542   0.412
 6164SOL    HW119391   4.051   2.628   0.368
 6164SOL    HW219392   4.023   2.531   0.496
 6165SOL     OW19393   4.403   6.568   0.629
 6165SOL    HW119394   4.473   6.561   0.701
 6165SOL    HW219395   4.447   6.555   0.540
 6166SOL     OW19396   3.371   1.765   6.725
 6166SOL    HW119397   3.342   1.859   6.707
 6166SOL    HW219398   3.438   1.736   6.657
 6167SOL     OW19399   6.757   4.879   3.636
 6167SOL    HW119400   6.700   4.889   3.555
 6167SOL    HW219401   6.838   4.826   3.613
 6168SOL     OW19402   1.085   2.420   1.796
 6168SOL    HW119403   1.006   2.377   1.840
 6168SOL    HW219404   1.097   2.512   1.832
 6169SOL     OW19405   1.900   4.022   2.344
 6169SOL    HW119406   1.925   3.941   2.396
 6169SOL    HW219407   1.918   4.006   2.247
 6170SOL     OW19408   6.956   2.463   4.267
 6170SOL    HW119409   6.919   2.462   4.360
 6170SOL    HW219410   6.882   2.447   4.202
 6171SOL     OW19411   6.966   0.692   6.196
 6171SOL    HW119412   6.875   0.725   6.221
 6171SOL    HW219413   7.013   0.761   6.141
 6172SOL     OW19414   1.109   4.224   3.940
 6172SOL    HW119415   1.082   4.310   3.983
 6172SOL    HW219416   1.188   4.186   3.988
 6173SOL     OW19417   5.918   6.113   3.303
 6173SOL    HW119418   5.995   6.092   3.243
 6173SOL    HW219419   5.870   6.028   3.326
 6174SOL     OW19420   6.278   3.249   1.880
 6174SOL    HW119421   6.317   3.330   1.838
 6174SOL    HW219422   6.277   3.260   1.980
 6175SOL     OW19423   2.879   2.190   5.930
 6175SOL    HW119424   2.841   2.267   5.879
 6175SOL    HW219425   2.807   2.145   5.983
 6176SOL     OW19426   4.075   4.464   6.486
 6176SOL    HW119427   4.017   4.383   6.479
 6176SOL    HW219428   4.049   4.516   6.568
 6177SOL     OW19429   5.936   0.450   1.153
 6177SOL    HW119430   5.862   0.393   1.118
 6177SOL    HW219431   6.000   0.471   1.079
 6178SOL     OW19432   3.989   4.863   1.791
 6178SOL    HW119433   4.041   4.870   1.876
 6178SOL    HW219434   3.891   4.874   1.810
 6179SOL     OW19435   5.874   4.940   4.490
 6179SOL    HW119436   5.958   4.978   4.528
 6179SOL    HW219437   5.882   4.934   4.391
 6180SOL     OW19438   2.795   4.428   0.046
 6180SOL    HW119439   2.860   4.357   0.070
 6180SOL    HW219440   2.791   4.438   6.965
 6181SOL     OW19441   6.449   6.282   0.166
 6181SOL    HW119442   6.432   6.184   0.159
 6181SOL    HW219443   6.442   6.324   0.075
 6182SOL     OW19444   3.478   2.396   0.865
 6182SOL    HW119445   3.521   2.407   0.954
 6182SOL    HW219446   3.466   2.486   0.823
 6183SOL     OW19447   0.432   6.944   0.469
 6183SOL    HW119448   0.452   6.869   0.406
 6183SOL    HW219449   0.333   6.949   0.485
 6184SOL     OW19450   2.593   6.836   5.632
 6184SOL    HW119451   2.500   6.859   5.604
 6184SOL    HW219452   2.656   6.855   5.556
 6185SOL     OW19453   3.653   3.153   5.126
 6185SOL    HW119454   3.707   3.227   5.165
 6185SOL    HW219455   3.712   3.097   5.066
 6186SOL     OW19456   0.287   1.480   1.708
 6186SOL    HW119457   0.291   1.430   1.795
 6186SOL    HW219458   0.312   1.420   1.633
 6187SOL     OW19459   3.892   1.133   5.750
 6187SOL    HW119460   3.919   1.166   5.840
 6187SOL    HW219461   3.793   1.120   5.748
 6188SOL     OW19462   0.968   1.364   4.816
 6188SOL    HW119463   0.952   1.456   4.779
 6188SOL    HW219464   1.066   1.347   4.823
 6189SOL     OW19465   6.776   6.238   1.244
 6189SOL    HW119466   6.709   6.308   1.268
 6189SOL    HW219467   6.774   6.164   1.312
 6190SOL     OW19468   0.901   3.223   4.691
 6190SOL    HW119469   0.815   3.204   4.739
 6190SOL    HW219470   0.935   3.313   4.717
 6191SOL     OW19471   3.537   3.608   0.278
 6191SOL    HW119472   3.556   3.601   0.376
 6191SOL    HW219473   3.441   3.635   0.264
 6192SOL     OW19474   2.999   1.391   0.913
 6192SOL    HW119475   2.925   1.365   0.851
 6192SOL    HW219476   3.051   1.309   0.938
 6193SOL     OW19477   4.399   5.739   7.016
 6193SOL    HW119478   4.403   5.708   0.093
 6193SOL    HW219479   4.483   5.788   6.994
 6194SOL     OW19480   5.709   6.970   6.968
 6194SOL    HW119481   5.756   7.006   6.888
 6194SOL    HW219482   5.715   0.018   0.025
 6195SOL     OW19483   5.848   6.391   6.181
 6195SOL    HW119484   5.866   6.298   6.148
 6195SOL    HW219485   5.768   6.428   6.134
 6196SOL     OW19486   5.424   3.564   2.797
 6196SOL    HW119487   5.502   3.504   2.780
 6196SOL    HW219488   5.359   3.558   2.721
 6197SOL     OW19489   1.747   5.138   1.454
 6197SOL    HW119490   1.774   5.234   1.463
 6197SOL    HW219491   1.763   5.106   1.361
 6198SOL     OW19492   5.888   1.225   6.695
 6198SOL    HW119493   5.876   1.151   6.761
 6198SOL    HW219494   5.986   1.243   6.683
 6199SOL     OW19495   1.722   0.045   6.139
 6199SOL    HW119496   1.642   7.011   6.110
 6199SOL    HW219497   1.697   0.101   6.219
 6200SOL     OW19498   1.340   0.640   1.994
 6200SOL    HW119499   1.398   0.721   1.998
 6200SOL    HW219500   1.266   0.649   2.061
 6201SOL     OW19501   0.561   4.867   3.214
 6201SOL    HW119502   0.565   4.817   3.128
 6201SOL    HW219503   0.653   4.888   3.246
 6202SOL     OW19504   5.882   1.488   2.983
 6202SOL    HW119505   5.828   1.428   2.924
 6202SOL    HW219506   5.873   1.459   3.078
 6203SOL     OW19507   6.425   0.423   2.081
 6203SOL    HW119508   6.349   0.379   2.032
 6203SOL    HW219509   6.510   0.373   2.063
 6204SOL     OW19510   1.602   6.722   4.993
 6204SOL    HW119511   1.584   6.637   5.044
 6204SOL    HW219512   1.668   6.777   5.043
 6205SOL     OW19513   5.425   4.406   3.609
 6205SOL    HW119514   5.456   4.311   3.614
 6205SOL    HW219515   5.410   4.441   3.702
 6206SOL     OW19516   5.719   1.815   4.004
 6206SOL    HW119517   5.679   1.824   3.913
 6206SOL    HW219518   5.657   1.855   4.072
 6207SOL     OW19519   1.357   5.194   4.410
 6207SOL    HW119520   1.431   5.128   4.403
 6207SOL    HW219521   1.276   5.150   4.448
 6208SOL     OW19522   4.177   4.337   5.930
 6208SOL    HW119523   4.158   4.429   5.965
 6208SOL    HW219524   4.267   4.337   5.885
 6209SOL     OW19525   3.216   2.291   1.521
 6209SOL    HW119526   3.256   2.263   1.608
 6209SOL    HW219527   3.242   2.386   1.502
 6210SOL     OW19528   5.041   2.113   4.777
 6210SOL    HW119529   5.130   2.101   4.819
 6210SOL    HW219530   4.976   2.149   4.844
 6211SOL     OW19531   5.704   4.302   5.044
 6211SOL    HW119532   5.656   4.245   4.978
 6211SOL    HW219533   5.797   4.319   5.012
 6212SOL     OW19534   4.275   5.245   5.260
 6212SOL    HW119535   4.357   5.288   5.222
 6212SOL    HW219536   4.198   5.260   5.199
 6213SOL     OW19537   4.441   5.913   0.350
 6213SOL    HW119538   4.424   5.856   0.431
 6213SOL    HW219539   4.515   5.873   0.296
 6214SOL     OW19540   6.184   6.786   6.395
 6214SOL    HW119541   6.089   6.756   6.393
 6214SOL    HW219542   6.190   6.881   6.363
 6215SOL     OW19543   5.205   2.475   5.351
 6215SOL    HW119544   5.288   2.420   5.348
 6215SOL    HW219545   5.156   2.466   5.264
 6216SOL     OW19546   4.076   1.914   4.244
 6216SOL    HW119547   4.133   1.914   4.162
 6216SOL    HW219548   3.995   1.858   4.228
 6217SOL     OW19549   0.305   4.728   3.238
 6217SOL    HW119550   0.371   4.802   3.250
 6217SOL    HW219551   0.226   4.762   3.187
 6218SOL     OW19552   4.690   6.381   0.276
 6218SOL    HW119553   4.657   6.300   0.229
 6218SOL    HW219554   4.720   6.357   0.368
 6219SOL     OW19555   2.069   1.330   6.312
 6219SOL    HW119556   2.124   1.274   6.251
 6219SOL    HW219557   2.031   1.274   6.385
 6220SOL     OW19558   3.594   6.503   0.546
 6220SOL    HW119559   3.578   6.525   0.449
 6220SOL    HW219560   3.570   6.407   0.562
 6221SOL     OW19561   5.668   6.320   6.784
 6221SOL    HW119562   5.727   6.283   6.856
 6221SOL    HW219563   5.573   6.319   6.816
 6222SOL     OW19564   6.547   1.175   1.917
 6222SOL    HW119565   6.614   1.226   1.862
 6222SOL    HW219566   6.503   1.237   1.982
 6223SOL     OW19567   7.008   4.986   4.142
 6223SOL    HW119568   7.010   5.035   4.229
 6223SOL    HW219569   6.988   5.050   4.068
 6224SOL     OW19570   3.647   0.216   6.740
 6224SOL    HW119571   3.618   0.312   6.737
 6224SOL    HW219572   3.713   0.200   6.667
 6225SOL     OW19573   4.562   5.575   6.675
 6225SOL    HW119574   4.476   5.626   6.666
 6225SOL    HW219575   4.575   5.549   6.770
 6226SOL     OW19576   0.797   0.818   4.468
 6226SOL    HW119577   0.793   0.720   4.487
 6226SOL    HW219578   0.832   0.866   4.548
 6227SOL     OW19579   2.801   4.752   5.372
 6227SOL    HW119580   2.854   4.733   5.289
 6227SOL    HW219581   2.780   4.666   5.419
 6228SOL     OW19582   0.910   3.200   3.503
 6228SOL    HW119583   0.814   3.178   3.485
 6228SOL    HW219584   0.968   3.127   3.466
 6229SOL     OW19585   0.555   2.620   3.831
 6229SOL    HW119586   0.617   2.679   3.884
 6229SOL    HW219587   0.586   2.616   3.736
 6230SOL     OW19588   6.678   0.932   1.646
 6230SOL    HW119589   6.582   0.903   1.652
 6230SOL    HW219590   6.737   0.851   1.640
 6231SOL     OW19591   2.126   5.018   6.540
 6231SOL    HW119592   2.172   5.079   6.605
 6231SOL    HW219593   2.071   4.952   6.590
 6232SOL     OW19594   4.459   0.147   6.052
 6232SOL    HW119595   4.480   0.087   6.129
 6232SOL    HW219596   4.397   0.220   6.082
 6233SOL     OW19597   0.099   3.722   1.295
 6233SOL    HW119598   0.027   3.740   1.362
 6233SOL    HW219599   0.171   3.791   1.305
 6234SOL     OW19600   4.696   5.104   4.514
 6234SOL    HW119601   4.680   5.042   4.591
 6234SOL    HW219602   4.651   5.192   4.531
 6235SOL     OW19603   0.553   0.499   2.555
 6235SOL    HW119604   0.547   0.459   2.647
 6235SOL    HW219605   0.484   0.570   2.546
 6236SOL     OW19606   0.021   5.353   1.331
 6236SOL    HW119607   0.082   5.421   1.289
 6236SOL    HW219608   6.945   5.373   1.306
 6237SOL     OW19609   3.118   1.244   1.862
 6237SOL    HW119610   3.120   1.191   1.947
 6237SOL    HW219611   3.051   1.318   1.870
 6238SOL     OW19612   2.244   0.274   4.100
 6238SOL    HW119613   2.307   0.265   4.024
 6238SOL    HW219614   2.291   0.254   4.186
 6239SOL     OW19615   4.803   1.170   4.471
 6239SOL    HW119616   4.813   1.127   4.381
 6239SOL    HW219617   4.884   1.150   4.526
 6240SOL     OW19618   3.824   2.972   4.079
 6240SOL    HW119619   3.782   2.965   3.989
 6240SOL    HW219620   3.900   3.037   4.076
 6241SOL     OW19621   3.560   0.183   3.866
 6241SOL    HW119622   3.538   0.179   3.963
 6241SOL    HW219623   3.560   0.090   3.828
 6242SOL     OW19624   2.470   2.185   3.108
 6242SOL    HW119625   2.388   2.129   3.122
 6242SOL    HW219626   2.535   2.136   3.051
 6243SOL     OW19627   4.356   1.671   6.527
 6243SOL    HW119628   4.384   1.721   6.446
 6243SOL    HW219629   4.368   1.573   6.512
 6244SOL     OW19630   5.107   2.764   2.021
 6244SOL    HW119631   5.196   2.804   1.997
 6244SOL    HW219632   5.060   2.824   2.086
 6245SOL     OW19633   0.297   5.193   1.940
 6245SOL    HW119634   0.345   5.210   2.026
 6245SOL    HW219635   0.364   5.192   1.865
 6246SOL     OW19636   6.697   6.671   3.939
 6246SOL    HW119637   6.649   6.700   3.856
 6246SOL    HW219638   6.643   6.600   3.985
 6247SOL     OW19639   5.927   6.274   4.074
 6247SOL    HW119640   5.853   6.233   4.020
 6247SOL    HW219641   5.999   6.306   4.014
 6248SOL     OW19642   4.043   2.949   5.627
 6248SOL    HW119643   4.096   2.993   5.555
 6248SOL    HW219644   3.948   2.939   5.598
 6249SOL     OW19645   5.870   3.046   2.105
 6249SOL    HW119646   5.899   3.095   2.188
 6249SOL    HW219647   5.879   2.948   2.119
 6250SOL     OW19648   6.014   0.103   6.509
 6250SOL    HW119649   5.970   0.144   6.589
 6250SOL    HW219650   5.944   0.073   6.445
 6251SOL     OW19651   2.402   0.223   4.335
 6251SOL    HW119652   2.439   0.131   4.321
 6251SOL    HW219653   2.469   0.291   4.303
 6252SOL     OW19654   3.066   5.495   6.610
 6252SOL    HW119655   3.043   5.593   6.609
 6252SOL    HW219656   3.039   5.454   6.523
 6253SOL     OW19657   3.638   5.647   3.960
 6253SOL    HW119658   3.733   5.680   3.968
 6253SOL    HW219659   3.590   5.702   3.892
 6254SOL     OW19660   0.206   0.024   1.266
 6254SOL    HW119661   0.267   0.072   1.330
 6254SOL    HW219662   0.243   6.951   1.247
 6255SOL     OW19663   0.977   1.574   0.636
 6255SOL    HW119664   1.032   1.650   0.600
 6255SOL    HW219665   0.973   1.580   0.736
 6256SOL     OW19666   5.619   5.992   2.274
 6256SOL    HW119667   5.657   6.056   2.206
 6256SOL    HW219668   5.587   6.044   2.354
 6257SOL     OW19669   3.393   4.370   0.983
 6257SOL    HW119670   3.319   4.332   0.927
 6257SOL    HW219671   3.355   4.438   1.045
 6258SOL     OW19672   4.411   5.474   5.154
 6258SOL    HW119673   4.487   5.471   5.089
 6258SOL    HW219674   4.441   5.518   5.239
 6259SOL     OW19675   3.815   0.892   4.528
 6259SOL    HW119676   3.908   0.888   4.491
 6259SOL    HW219677   3.819   0.891   4.628
 6260SOL     OW19678   1.713   1.227   6.607
 6260SOL    HW119679   1.787   1.209   6.542
 6260SOL    HW219680   1.722   1.320   6.641
 6261SOL     OW19681   3.876   0.346   0.642
 6261SOL    HW119682   3.943   0.272   0.645
 6261SOL    HW219683   3.841   0.356   0.549
 6262SOL     OW19684   6.019   1.084   2.665
 6262SOL    HW119685   6.044   0.995   2.626
 6262SOL    HW219686   5.998   1.148   2.591
 6263SOL     OW19687   5.730   6.006   5.479
 6263SOL    HW119688   5.723   6.076   5.407
 6263SOL    HW219689   5.826   5.990   5.501
 6264SOL     OW19690   2.619   6.550   6.796
 6264SOL    HW119691   2.526   6.517   6.808
 6264SOL    HW219692   2.679   6.474   6.770
 6265SOL     OW19693   4.774   6.610   6.586
 6265SOL    HW119694   4.827   6.641   6.507
 6265SOL    HW219695   4.686   6.573   6.555
 6266SOL     OW19696   2.922   5.076   2.835
 6266SOL    HW119697   2.869   5.135   2.897
 6266SOL    HW219698   2.886   5.085   2.742
 6267SOL     OW19699   1.688   6.581   4.750
 6267SOL    HW119700   1.694   6.600   4.848
 6267SOL    HW219701   1.619   6.511   4.734
 6268SOL     OW19702   2.966   1.470   0.519
 6268SOL    HW119703   2.881   1.516   0.494
 6268SOL    HW219704   3.009   1.518   0.595
 6269SOL     OW19705   6.665   5.210   6.919
 6269SOL    HW119706   6.630   5.174   6.832
 6269SOL    HW219707   6.721   5.141   6.964
 6270SOL     OW19708   2.044   6.253   0.948
 6270SOL    HW119709   2.013   6.181   1.010
 6270SOL    HW219710   2.137   6.280   0.973
 6271SOL     OW19711   0.139   3.440   5.917
 6271SOL    HW119712   0.044   3.410   5.915
 6271SOL    HW219713   0.184   3.412   5.832
 6272SOL     OW19714   7.002   0.203   0.163
 6272SOL    HW119715   6.936   0.146   0.114
 6272SOL    HW219716   6.991   0.190   0.261
 6273SOL     OW19717   1.094   6.310   2.109
 6273SOL    HW119718   1.174   6.370   2.109
 6273SOL    HW219719   1.043   6.322   2.195
 6274SOL     OW19720   2.945   5.536   3.817
 6274SOL    HW119721   2.877   5.470   3.849
 6274SOL    HW219722   2.902   5.625   3.804
 6275SOL     OW19723   2.888   5.934   6.981
 6275SOL    HW119724   2.973   5.882   6.977
 6275SOL    HW219725   2.902   6.026   6.945
 6276SOL     OW19726   1.402   5.525   2.437
 6276SOL    HW119727   1.331   5.470   2.482
 6276SOL    HW219728   1.395   5.514   2.338
 6277SOL     OW19729   5.510   2.948   1.240
 6277SOL    HW119730   5.537   2.949   1.336
 6277SOL    HW219731   5.495   2.853   1.210
 6278SOL     OW19732   3.845   2.123   0.247
 6278SOL    HW119733   3.901   2.126   0.164
 6278SOL    HW219734   3.830   2.217   0.279
 6279SOL     OW19735   3.664   6.682   1.762
 6279SOL    HW119736   3.636   6.772   1.794
 6279SOL    HW219737   3.582   6.626   1.746
 6280SOL     OW19738   5.419   2.755   6.564
 6280SOL    HW119739   5.323   2.769   6.586
 6280SOL    HW219740   5.475   2.816   6.620
 6281SOL     OW19741   4.992   3.947   6.160
 6281SOL    HW119742   4.900   3.916   6.137
 6281SOL    HW219743   5.057   3.913   6.092
 6282SOL     OW19744   0.456   3.297   5.973
 6282SOL    HW119745   0.478   3.394   5.962
 6282SOL    HW219746   0.460   3.272   6.070
 6283SOL     OW19747   1.942   6.287   4.522
 6283SOL    HW119748   1.975   6.213   4.464
 6283SOL    HW219749   1.889   6.249   4.598
 6284SOL     OW19750   1.105   3.796   5.126
 6284SOL    HW119751   1.078   3.758   5.214
 6284SOL    HW219752   1.147   3.886   5.140
 6285SOL     OW19753   1.549   3.711   3.109
 6285SOL    HW119754   1.535   3.733   3.012
 6285SOL    HW219755   1.516   3.619   3.127
 6286SOL     OW19756   0.824   2.653   6.687
 6286SOL    HW119757   0.732   2.687   6.668
 6286SOL    HW219758   0.818   2.571   6.745
 6287SOL     OW19759   4.902   4.771   5.236
 6287SOL    HW119760   4.987   4.775   5.183
 6287SOL    HW219761   4.898   4.849   5.298
 6288SOL     OW19762   2.615   4.031   6.233
 6288SOL    HW119763   2.705   4.040   6.276
 6288SOL    HW219764   2.618   4.070   6.141
 6289SOL     OW19765   1.989   4.304   5.588
 6289SOL    HW119766   2.062   4.244   5.619
 6289SOL    HW219767   1.931   4.254   5.523
 6290SOL     OW19768   5.988   6.557   4.347
 6290SOL    HW119769   5.898   6.582   4.313
 6290SOL    HW219770   6.048   6.534   4.270
 6291SOL     OW19771   3.806   3.531   2.742
 6291SOL    HW119772   3.739   3.552   2.671
 6291SOL    HW219773   3.860   3.612   2.762
 6292SOL     OW19774   1.569   4.338   3.949
 6292SOL    HW119775   1.601   4.358   4.041
 6292SOL    HW219776   1.532   4.421   3.907
 6293SOL     OW19777   2.769   1.510   6.391
 6293SOL    HW119778   2.673   1.526   6.369
 6293SOL    HW219779   2.791   1.554   6.478
 6294SOL     OW19780   1.689   1.049   2.526
 6294SOL    HW119781   1.787   1.036   2.507
 6294SOL    HW219782   1.673   1.038   2.624
 6295SOL     OW19783   4.265   2.926   6.089
 6295SOL    HW119784   4.341   2.979   6.125
 6295SOL    HW219785   4.179   2.975   6.104
 6296SOL     OW19786   1.012   3.130   0.508
 6296SOL    HW119787   0.953   3.168   0.580
 6296SOL    HW219788   1.070   3.058   0.548
 6297SOL     OW19789   6.412   1.490   4.198
 6297SOL    HW119790   6.465   1.509   4.115
 6297SOL    HW219791   6.471   1.448   4.266
 6298SOL     OW19792   0.245   6.120   0.715
 6298SOL    HW119793   0.195   6.179   0.778
 6298SOL    HW219794   0.262   6.032   0.758
 6299SOL     OW19795   3.593   1.429   3.593
 6299SOL    HW119796   3.547   1.463   3.675
 6299SOL    HW219797   3.565   1.483   3.514
 6300SOL     OW19798   2.653   1.389   6.997
 6300SOL    HW119799   2.687   1.361   6.907
 6300SOL    HW219800   2.727   1.432   0.031
 6301SOL     OW19801   4.344   6.274   0.166
 6301SOL    HW119802   4.263   6.216   0.169
 6301SOL    HW219803   4.425   6.219   0.149
 6302SOL     OW19804   2.442   2.483   6.119
 6302SOL    HW119805   2.354   2.437   6.133
 6302SOL    HW219806   2.428   2.564   6.062
 6303SOL     OW19807   0.604   6.114   4.500
 6303SOL    HW119808   0.653   6.168   4.432
 6303SOL    HW219809   0.550   6.175   4.558
 6304SOL     OW19810   3.590   0.511   4.382
 6304SOL    HW119811   3.595   0.496   4.283
 6304SOL    HW219812   3.547   0.600   4.400
 6305SOL     OW19813   1.042   5.617   5.609
 6305SOL    HW119814   1.140   5.603   5.593
 6305SOL    HW219815   1.027   5.642   5.705
 6306SOL     OW19816   0.303   5.019   4.719
 6306SOL    HW119817   0.347   5.085   4.659
 6306SOL    HW219818   0.302   4.929   4.675
 6307SOL     OW19819   3.486   2.877   2.040
 6307SOL    HW119820   3.395   2.875   2.082
 6307SOL    HW219821   3.553   2.907   2.108
 6308SOL     OW19822   0.300   2.245   0.207
 6308SOL    HW119823   0.268   2.281   0.295
 6308SOL    HW219824   0.363   2.310   0.165
 6309SOL     OW19825   2.347   6.557   5.044
 6309SOL    HW119826   2.400   6.478   5.076
 6309SOL    HW219827   2.253   6.529   5.027
 6310SOL     OW19828   1.251   6.954   2.849
 6310SOL    HW119829   1.314   6.938   2.925
 6310SOL    HW219830   1.260   0.031   2.817
 6311SOL     OW19831   6.362   1.027   6.780
 6311SOL    HW119832   6.448   0.980   6.761
 6311SOL    HW219833   6.287   0.980   6.734
 6312SOL     OW19834   3.308   5.808   0.230
 6312SOL    HW119835   3.240   5.878   0.210
 6312SOL    HW219836   3.385   5.817   0.166
 6313SOL     OW19837   6.413   4.806   4.089
 6313SOL    HW119838   6.415   4.828   3.991
 6313SOL    HW219839   6.380   4.712   4.101
 6314SOL     OW19840   1.956   6.556   2.443
 6314SOL    HW119841   1.992   6.469   2.475
 6314SOL    HW219842   1.861   6.544   2.412
 6315SOL     OW19843   2.008   1.571   3.538
 6315SOL    HW119844   1.933   1.521   3.495
 6315SOL    HW219845   2.077   1.594   3.469
 6316SOL     OW19846   4.452   1.146   4.822
 6316SOL    HW119847   4.413   1.167   4.733
 6316SOL    HW219848   4.551   1.130   4.812
 6317SOL     OW19849   5.608   4.752   2.558
 6317SOL    HW119850   5.531   4.688   2.563
 6317SOL    HW219851   5.601   4.805   2.473
 6318SOL     OW19852   6.732   6.773   0.332
 6318SOL    HW119853   6.723   6.673   0.332
 6318SOL    HW219854   6.767   6.804   0.243
 6319SOL     OW19855   5.166   2.138   4.211
 6319SOL    HW119856   5.089   2.194   4.179
 6319SOL    HW219857   5.162   2.048   4.167
 6320SOL     OW19858   6.190   1.656   5.561
 6320SOL    HW119859   6.163   1.714   5.638
 6320SOL    HW219860   6.232   1.572   5.596
 6321SOL     OW19861   0.348   2.646   0.113
 6321SOL    HW119862   0.276   2.639   0.183
 6321SOL    HW219863   0.327   2.582   0.038
 6322SOL     OW19864   1.113   1.210   2.597
 6322SOL    HW119865   1.198   1.211   2.545
 6322SOL    HW219866   1.125   1.262   2.682
 6323SOL     OW19867   2.278   4.833   0.883
 6323SOL    HW119868   2.314   4.817   0.791
 6323SOL    HW219869   2.347   4.882   0.937
 6324SOL     OW19870   4.574   3.397   1.098
 6324SOL    HW119871   4.485   3.421   1.058
 6324SOL    HW219872   4.583   3.297   1.098
 6325SOL     OW19873   1.228   2.813   3.895
 6325SOL    HW119874   1.187   2.794   3.806
 6325SOL    HW219875   1.163   2.864   3.951
 6326SOL     OW19876   5.143   5.480   5.597
 6326SOL    HW119877   5.144   5.454   5.500
 6326SOL    HW219878   5.232   5.519   5.622
 6327SOL     OW19879   0.365   1.309   3.560
 6327SOL    HW119880   0.318   1.302   3.472
 6327SOL    HW219881   0.316   1.374   3.619
 6328SOL     OW19882   4.471   3.695   5.292
 6328SOL    HW119883   4.544   3.701   5.224
 6328SOL    HW219884   4.396   3.639   5.256
 6329SOL     OW19885   0.347   2.123   5.815
 6329SOL    HW119886   0.434   2.148   5.856
 6329SOL    HW219887   0.361   2.096   5.720
 6330SOL     OW19888   4.953   1.559   3.969
 6330SOL    HW119889   4.936   1.630   4.038
 6330SOL    HW219890   5.052   1.552   3.952
 6331SOL     OW19891   0.964   3.224   3.957
 6331SOL    HW119892   1.003   3.289   4.022
 6331SOL    HW219893   0.882   3.264   3.916
 6332SOL     OW19894   3.246   1.560   6.849
 6332SOL    HW119895   3.271   1.493   6.779
 6332SOL    HW219896   3.278   1.650   6.821
 6333SOL     OW19897   6.207   0.981   1.212
 6333SOL    HW119898   6.286   0.987   1.273
 6333SOL    HW219899   6.171   1.073   1.195
 6334SOL     OW19900   1.413   1.078   1.514
 6334SOL    HW119901   1.411   1.046   1.419
 6334SOL    HW219902   1.326   1.057   1.558
 6335SOL     OW19903   6.340   3.206   6.483
 6335SOL    HW119904   6.428   3.253   6.473
 6335SOL    HW219905   6.280   3.260   6.542
 6336SOL     OW19906   0.487   4.095   5.074
 6336SOL    HW119907   0.513   4.189   5.051
 6336SOL    HW219908   0.564   4.034   5.055
 6337SOL     OW19909   5.162   6.653   5.334
 6337SOL    HW119910   5.179   6.640   5.431
 6337SOL    HW219911   5.242   6.695   5.291
 6338SOL     OW19912   0.982   1.030   3.447
 6338SOL    HW119913   0.936   1.019   3.535
 6338SOL    HW219914   0.930   0.982   3.376
 6339SOL     OW19915   0.604   4.472   3.679
 6339SOL    HW119916   0.622   4.428   3.591
 6339SOL    HW219917   0.641   4.416   3.753
 6340SOL     OW19918   2.691   4.134   0.491
 6340SOL    HW119919   2.770   4.073   0.489
 6340SOL    HW219920   2.663   4.149   0.586
 6341SOL     OW19921   0.471   5.736   1.928
 6341SOL    HW119922   0.468   5.645   1.887
 6341SOL    HW219923   0.560   5.777   1.912
 6342SOL     OW19924   1.657   1.339   1.030
 6342SOL    HW119925   1.731   1.397   0.997
 6342SOL    HW219926   1.585   1.396   1.070
 6343SOL     OW19927   1.290   5.659   0.509
 6343SOL    HW119928   1.199   5.646   0.470
 6343SOL    HW219929   1.297   5.607   0.594
 6344SOL     OW19930   0.627   1.116   3.786
 6344SOL    HW119931   0.601   1.073   3.700
 6344SOL    HW219932   0.547   1.159   3.828
 6345SOL     OW19933   6.010   2.609   2.597
 6345SOL    HW119934   5.977   2.521   2.563
 6345SOL    HW219935   5.932   2.669   2.616
 6346SOL     OW19936   7.006   4.082   5.527
 6346SOL    HW119937   7.013   4.070   5.626
 6346SOL    HW219938   0.050   4.019   5.481
 6347SOL     OW19939   2.142   2.446   3.537
 6347SOL    HW119940   2.075   2.495   3.481
 6347SOL    HW219941   2.097   2.369   3.582
 6348SOL     OW19942   1.255   2.382   6.056
 6348SOL    HW119943   1.211   2.348   5.972
 6348SOL    HW219944   1.239   2.317   6.130
 6349SOL     OW19945   6.651   0.975   0.943
 6349SOL    HW119946   6.645   1.072   0.964
 6349SOL    HW219947   6.609   0.922   1.016
 6350SOL     OW19948   1.170   6.479   1.198
 6350SOL    HW119949   1.257   6.463   1.152
 6350SOL    HW219950   1.181   6.461   1.296
 6351SOL     OW19951   5.787   4.290   1.827
 6351SOL    HW119952   5.809   4.317   1.734
 6351SOL    HW219953   5.869   4.296   1.884
 6352SOL     OW19954   3.685   1.181   4.604
 6352SOL    HW119955   3.594   1.215   4.583
 6352SOL    HW219956   3.748   1.258   4.613
 6353SOL     OW19957   3.591   6.395   5.762
 6353SOL    HW119958   3.551   6.304   5.771
 6353SOL    HW219959   3.633   6.404   5.672
 6354SOL     OW19960   4.801   5.284   2.309
 6354SOL    HW119961   4.767   5.372   2.343
 6354SOL    HW219962   4.893   5.297   2.270
 6355SOL     OW19963   3.549   5.648   0.518
 6355SOL    HW119964   3.484   5.573   0.524
 6355SOL    HW219965   3.585   5.654   0.425
 6356SOL     OW19966   0.190   6.037   6.062
 6356SOL    HW119967   0.245   6.047   5.979
 6356SOL    HW219968   0.206   6.115   6.122
 6357SOL     OW19969   5.500   0.830   2.185
 6357SOL    HW119970   5.519   0.927   2.165
 6357SOL    HW219971   5.402   0.815   2.186
 6358SOL     OW19972   1.179   2.146   5.000
 6358SOL    HW119973   1.134   2.118   4.915
 6358SOL    HW219974   1.250   2.213   4.980
 6359SOL     OW19975   5.513   5.707   1.102
 6359SOL    HW119976   5.602   5.660   1.105
 6359SOL    HW219977   5.458   5.668   1.028
 6360SOL     OW19978   1.067   1.333   1.115
 6360SOL    HW119979   1.159   1.298   1.096
 6360SOL    HW219980   1.003   1.256   1.124
 6361SOL     OW19981   0.603   1.300   0.425
 6361SOL    HW119982   0.528   1.233   0.427
 6361SOL    HW219983   0.688   1.254   0.448
 6362SOL     OW19984   1.512   5.781   0.591
 6362SOL    HW119985   1.432   5.741   0.546
 6362SOL    HW219986   1.501   5.880   0.598
 6363SOL     OW19987   2.118   3.824   2.482
 6363SOL    HW119988   2.131   3.727   2.461
 6363SOL    HW219989   2.141   3.840   2.578
 6364SOL     OW19990   2.528   2.397   4.322
 6364SOL    HW119991   2.447   2.341   4.337
 6364SOL    HW219992   2.502   2.493   4.317
 6365SOL     OW19993   5.632   6.969   3.098
 6365SOL    HW119994   5.691   6.935   3.171
 6365SOL    HW219995   5.561   0.009   3.136
 6366SOL     OW19996   6.144   1.191   5.137
 6366SOL    HW119997   6.136   1.092   5.144
 6366SOL    HW219998   6.185   1.215   5.049
 6367SOL     OW19999   1.030   2.345   3.062
 6367SOL    HW120000   0.942   2.387   3.085
 6367SOL    HW220001   1.101   2.416   3.060
 6368SOL     OW20002   4.830   3.914   4.631
 6368SOL    HW120003   4.786   3.994   4.673
 6368SOL    HW220004   4.838   3.842   4.700
 6369SOL     OW20005   4.553   5.306   0.339
 6369SOL    HW120006   4.579   5.385   0.283
 6369SOL    HW220007   4.635   5.254   0.362
 6370SOL     OW20008   5.646   3.853   4.361
 6370SOL    HW120009   5.625   3.855   4.459
 6370SOL    HW220010   5.564   3.878   4.310
 6371SOL     OW20011   5.387   4.519   1.362
 6371SOL    HW120012   5.458   4.544   1.296
 6371SOL    HW220013   5.392   4.422   1.382
 6372SOL     OW20014   6.243   1.735   1.675
 6372SOL    HW120015   6.233   1.686   1.589
 6372SOL    HW220016   6.156   1.732   1.725
 6373SOL     OW20017   4.840   3.701   1.428
 6373SOL    HW120018   4.783   3.623   1.400
 6373SOL    HW220019   4.864   3.755   1.347
 6374SOL     OW20020   4.779   3.647   6.959
 6374SOL    HW120021   4.796   3.618   6.865
 6374SOL    HW220022   4.837   3.726   6.981
 6375SOL     OW20023   4.631   1.241   2.040
 6375SOL    HW120024   4.644   1.289   1.953
 6375SOL    HW220025   4.712   1.187   2.061
 6376SOL     OW20026   3.124   0.396   0.516
 6376SOL    HW120027   3.083   0.486   0.529
 6376SOL    HW220028   3.223   0.405   0.511
 6377SOL     OW20029   0.546   0.425   7.013
 6377SOL    HW120030   0.620   0.400   0.057
 6377SOL    HW220031   0.583   0.470   6.932
 6378SOL     OW20032   5.554   4.427   2.369
 6378SOL    HW120033   5.501   4.502   2.408
 6378SOL    HW220034   5.509   4.340   2.389
 6379SOL     OW20035   2.148   5.054   6.269
 6379SOL    HW120036   2.138   5.017   6.361
 6379SOL    HW220037   2.058   5.073   6.230
 6380SOL     OW20038   0.672   4.130   5.452
 6380SOL    HW120039   0.718   4.152   5.365
 6380SOL    HW220040   0.740   4.100   5.519
 6381SOL     OW20041   4.303   3.365   0.561
 6381SOL    HW120042   4.402   3.377   0.570
 6381SOL    HW220043   4.283   3.302   0.486
 6382SOL     OW20044   1.448   1.420   0.240
 6382SOL    HW120045   1.524   1.459   0.187
 6382SOL    HW220046   1.484   1.362   0.312
 6383SOL     OW20047   2.357   2.410   2.292
 6383SOL    HW120048   2.426   2.419   2.364
 6383SOL    HW220049   2.400   2.372   2.210
 6384SOL     OW20050   6.489   2.534   1.808
 6384SOL    HW120051   6.417   2.465   1.822
 6384SOL    HW220052   6.462   2.619   1.853
 6385SOL     OW20053   6.980   3.746   6.904
 6385SOL    HW120054   6.881   3.734   6.910
 6385SOL    HW220055   7.010   3.730   6.810
 6386SOL     OW20056   2.749   2.536   0.678
 6386SOL    HW120057   2.809   2.515   0.601
 6386SOL    HW220058   2.731   2.452   0.730
 6387SOL     OW20059   0.555   6.805   6.980
 6387SOL    HW120060   0.566   6.729   6.916
 6387SOL    HW220061   0.468   6.796   0.011
 6388SOL     OW20062   5.721   5.572   1.969
 6388SOL    HW120063   5.630   5.584   2.008
 6388SOL    HW220064   5.731   5.480   1.933
 6389SOL     OW20065   6.517   6.474   0.747
 6389SOL    HW120066   6.575   6.393   0.758
 6389SOL    HW220067   6.507   6.520   0.835
 6390SOL     OW20068   5.397   0.755   0.128
 6390SOL    HW120069   5.428   0.686   0.194
 6390SOL    HW220070   5.424   0.846   0.159
 6391SOL     OW20071   1.375   2.037   5.248
 6391SOL    HW120072   1.312   2.073   5.179
 6391SOL    HW220073   1.387   1.939   5.235
 6392SOL     OW20074   4.068   6.849   3.898
 6392SOL    HW120075   4.032   6.941   3.909
 6392SOL    HW220076   4.149   6.838   3.957
 6393SOL     OW20077   1.670   5.556   0.080
 6393SOL    HW120078   1.604   5.571   0.153
 6393SOL    HW220079   1.718   5.642   0.061
 6394SOL     OW20080   1.696   4.905   1.814
 6394SOL    HW120081   1.630   4.979   1.798
 6394SOL    HW220082   1.779   4.942   1.856
 6395SOL     OW20083   2.115   3.846   3.963
 6395SOL    HW120084   2.149   3.802   4.046
 6395SOL    HW220085   2.024   3.810   3.941
 6396SOL     OW20086   1.470   3.067   5.416
 6396SOL    HW120087   1.398   3.094   5.480
 6396SOL    HW220088   1.541   3.016   5.464
 6397SOL     OW20089   5.499   3.739   4.853
 6397SOL    HW120090   5.596   3.751   4.872
 6397SOL    HW220091   5.485   3.655   4.800
 6398SOL     OW20092   2.634   0.040   2.556
 6398SOL    HW120093   2.603   6.963   2.568
 6398SOL    HW220094   2.584   0.082   2.481
 6399SOL     OW20095   3.200   0.000   6.926
 6399SOL    HW120096   3.174   6.936   6.875
 6399SOL    HW220097   3.299   0.014   6.917
 6400SOL     OW20098   0.514   6.206   3.080
 6400SOL    HW120099   0.534   6.188   3.177
 6400SOL    HW220100   0.435   6.152   3.052
 6401SOL     OW20101   4.321   5.139   2.754
 6401SOL    HW120102   4.267   5.222   2.737
 6401SOL    HW220103   4.417   5.157   2.734
 6402SOL     OW20104   2.647   4.540   5.944
 6402SOL    HW120105   2.683   4.464   5.890
 6402SOL    HW220106   2.547   4.543   5.934
 6403SOL     OW20107   5.133   5.210   5.045
 6403SOL    HW120108   5.171   5.130   4.999
 6403SOL    HW220109   5.200   5.284   5.043
 6404SOL     OW20110   4.681   6.686   1.525
 6404SOL    HW120111   4.737   6.681   1.443
 6404SOL    HW220112   4.596   6.735   1.506
 6405SOL     OW20113   5.058   1.070   2.821
 6405SOL    HW120114   5.107   0.992   2.859
 6405SOL    HW220115   5.118   1.151   2.823
 6406SOL     OW20116   0.602   3.436   2.975
 6406SOL    HW120117   0.697   3.466   2.969
 6406SOL    HW220118   0.546   3.509   3.015
 6407SOL     OW20119   0.441   6.897   2.547
 6407SOL    HW120120   0.453   6.864   2.641
 6407SOL    HW220121   0.343   6.906   2.529
 6408SOL     OW20122   6.940   1.021   1.956
 6408SOL    HW120123   7.015   0.956   1.962
 6408SOL    HW220124   6.853   0.972   1.954
 6409SOL     OW20125   5.118   4.599   3.745
 6409SOL    HW120126   5.117   4.686   3.795
 6409SOL    HW220127   5.051   4.602   3.671
 6410SOL     OW20128   1.962   1.522   0.223
 6410SOL    HW120129   1.988   1.552   0.315
 6410SOL    HW220130   1.896   1.448   0.230
 6411SOL     OW20131   0.602   2.901   2.063
 6411SOL    HW120132   0.660   2.830   2.024
 6411SOL    HW220133   0.566   2.870   2.151
 6412SOL     OW20134   3.355   1.198   0.186
 6412SOL    HW120135   3.342   1.179   0.284
 6412SOL    HW220136   3.269   1.183   0.138
 6413SOL     OW20137   4.834   6.058   3.464
 6413SOL    HW120138   4.771   6.002   3.518
 6413SOL    HW220139   4.868   6.005   3.387
 6414SOL     OW20140   2.760   0.293   0.649
 6414SOL    HW120141   2.788   0.210   0.601
 6414SOL    HW220142   2.796   0.292   0.742
 6415SOL     OW20143   0.780   2.313   4.033
 6415SOL    HW120144   0.683   2.335   4.047
 6415SOL    HW220145   0.804   2.234   4.089
 6416SOL     OW20146   2.935   5.191   0.004
 6416SOL    HW120147   2.893   5.268   0.052
 6416SOL    HW220148   2.998   5.226   6.953
 6417SOL     OW20149   4.254   3.057   0.014
 6417SOL    HW120150   4.287   2.962   0.009
 6417SOL    HW220151   4.302   3.105   0.087
 6418SOL     OW20152   5.094   4.520   0.450
 6418SOL    HW120153   5.011   4.465   0.448
 6418SOL    HW220154   5.161   4.483   0.385
 6419SOL     OW20155   1.001   6.478   6.330
 6419SOL    HW120156   1.083   6.490   6.385
 6419SOL    HW220157   0.969   6.567   6.297
 6420SOL     OW20158   2.282   4.673   4.174
 6420SOL    HW120159   2.347   4.661   4.249
 6420SOL    HW220160   2.285   4.593   4.115
 6421SOL     OW20161   4.022   0.777   2.359
 6421SOL    HW120162   4.084   0.820   2.294
 6421SOL    HW220163   4.025   0.678   2.347
 6422SOL     OW20164   6.506   2.527   4.739
 6422SOL    HW120165   6.411   2.501   4.719
 6422SOL    HW220166   6.558   2.530   4.653
 6423SOL     OW20167   1.390   4.812   4.545
 6423SOL    HW120168   1.463   4.810   4.477
 6423SOL    HW220169   1.429   4.831   4.635
 6424SOL     OW20170   6.618   4.782   5.613
 6424SOL    HW120171   6.646   4.787   5.709
 6424SOL    HW220172   6.529   4.738   5.606
 6425SOL     OW20173   6.627   5.993   4.194
 6425SOL    HW120174   6.609   6.091   4.197
 6425SOL    HW220175   6.708   5.972   4.250
 6426SOL     OW20176   4.165   4.750   4.546
 6426SOL    HW120177   4.233   4.688   4.506
 6426SOL    HW220178   4.178   4.752   4.645
 6427SOL     OW20179   3.990   3.027   3.810
 6427SOL    HW120180   4.004   3.126   3.806
 6427SOL    HW220181   4.077   2.981   3.797
 6428SOL     OW20182   5.897   2.705   0.820
 6428SOL    HW120183   5.874   2.611   0.793
 6428SOL    HW220184   5.828   2.739   0.884
 6429SOL     OW20185   2.511   1.261   5.027
 6429SOL    HW120186   2.429   1.308   5.058
 6429SOL    HW220187   2.529   1.283   4.931
 6430SOL     OW20188   6.195   0.848   5.366
 6430SOL    HW120189   6.159   0.769   5.416
 6430SOL    HW220190   6.139   0.928   5.385
 6431SOL     OW20191   3.436   4.985   2.054
 6431SOL    HW120192   3.486   5.067   2.083
 6431SOL    HW220193   3.499   4.921   2.011
 6432SOL     OW20194   5.188   3.702   6.126
 6432SOL    HW120195   5.160   3.644   6.049
 6432SOL    HW220196   5.282   3.680   6.153
 6433SOL     OW20197   3.200   4.482   5.530
 6433SOL    HW120198   3.201   4.396   5.581
 6433SOL    HW220199   3.227   4.557   5.590
 6434SOL     OW20200   5.078   5.319   5.811
 6434SOL    HW120201   5.008   5.255   5.779
 6434SOL    HW220202   5.111   5.374   5.734
 6435SOL     OW20203   4.552   1.646   1.284
 6435SOL    HW120204   4.651   1.664   1.282
 6435SOL    HW220205   4.510   1.686   1.202
 6436SOL     OW20206   6.792   3.382   3.244
 6436SOL    HW120207   6.876   3.415   3.202
 6436SOL    HW220208   6.779   3.285   3.220
 6437SOL     OW20209   1.102   2.309   5.847
 6437SOL    HW120210   1.097   2.221   5.800
 6437SOL    HW220211   1.121   2.382   5.782
 6438SOL     OW20212   0.411   4.855   0.043
 6438SOL    HW120213   0.317   4.887   0.035
 6438SOL    HW220214   0.416   4.759   0.015
 6439SOL     OW20215   5.147   6.492   3.104
 6439SOL    HW120216   5.215   6.549   3.151
 6439SOL    HW220217   5.057   6.507   3.145
 6440SOL     OW20218   3.351   1.315   6.050
 6440SOL    HW120219   3.256   1.342   6.063
 6440SOL    HW220220   3.377   1.248   6.120
 6441SOL     OW20221   6.888   1.806   2.263
 6441SOL    HW120222   6.901   1.901   2.235
 6441SOL    HW220223   6.838   1.803   2.349
 6442SOL     OW20224   2.583   2.025   4.831
 6442SOL    HW120225   2.508   2.037   4.897
 6442SOL    HW220226   2.575   1.936   4.787
 6443SOL     OW20227   3.792   3.139   6.487
 6443SOL    HW120228   3.886   3.119   6.516
 6443SOL    HW220229   3.791   3.161   6.389
 6444SOL     OW20230   6.627   4.672   5.016
 6444SOL    HW120231   6.653   4.621   4.934
 6444SOL    HW220232   6.584   4.758   4.989
 6445SOL     OW20233   2.923   3.351   3.482
 6445SOL    HW120234   2.886   3.404   3.405
 6445SOL    HW220235   2.954   3.262   3.449
 6446SOL     OW20236   1.225   1.688   6.658
 6446SOL    HW120237   1.228   1.590   6.637
 6446SOL    HW220238   1.310   1.732   6.626
 6447SOL     OW20239   5.807   3.539   2.083
 6447SOL    HW120240   5.835   3.599   2.008
 6447SOL    HW220241   5.767   3.455   2.046
 6448SOL     OW20242   3.877   4.630   1.145
 6448SOL    HW120243   3.880   4.589   1.236
 6448SOL    HW220244   3.790   4.609   1.102
 6449SOL     OW20245   3.350   5.089   0.636
 6449SOL    HW120246   3.260   5.088   0.679
 6449SOL    HW220247   3.352   5.021   0.562
 6450SOL     OW20248   6.688   4.310   6.851
 6450SOL    HW120249   6.593   4.290   6.825
 6450SOL    HW220250   6.717   4.395   6.806
 6451SOL     OW20251   3.852   3.189   1.404
 6451SOL    HW120252   3.915   3.139   1.344
 6451SOL    HW220253   3.838   3.281   1.368
 6452SOL     OW20254   3.898   2.102   4.655
 6452SOL    HW120255   3.820   2.068   4.602
 6452SOL    HW220256   3.919   2.195   4.627
 6453SOL     OW20257   2.100   0.824   2.938
 6453SOL    HW120258   2.046   0.785   2.864
 6453SOL    HW220259   2.196   0.834   2.909
 6454SOL     OW20260   5.181   2.678   3.365
 6454SOL    HW120261   5.264   2.631   3.395
 6454SOL    HW220262   5.157   2.650   3.272
 6455SOL     OW20263   6.805   2.800   4.182
 6455SOL    HW120264   6.904   2.806   4.181
 6455SOL    HW220265   6.773   2.790   4.276
 6456SOL     OW20266   5.638   1.376   2.246
 6456SOL    HW120267   5.647   1.285   2.286
 6456SOL    HW220268   5.726   1.405   2.207
 6457SOL     OW20269   3.563   6.886   2.720
 6457SOL    HW120270   3.568   6.792   2.684
 6457SOL    HW220271   3.510   6.943   2.659
 6458SOL     OW20272   6.864   6.639   4.172
 6458SOL    HW120273   6.938   6.581   4.138
 6458SOL    HW220274   6.801   6.659   4.097
 6459SOL     OW20275   0.703   3.267   3.182
 6459SOL    HW120276   0.799   3.297   3.183
 6459SOL    HW220277   0.649   3.335   3.132
 6460SOL     OW20278   0.464   5.380   6.716
 6460SOL    HW120279   0.542   5.343   6.767
 6460SOL    HW220280   0.394   5.411   6.780
 6461SOL     OW20281   1.634   6.471   0.890
 6461SOL    HW120282   1.690   6.539   0.842
 6461SOL    HW220283   1.538   6.499   0.888
 6462SOL     OW20284   1.458   3.518   5.084
 6462SOL    HW120285   1.511   3.461   5.021
 6462SOL    HW220286   1.441   3.467   5.168
 6463SOL     OW20287   4.287   2.789   0.940
 6463SOL    HW120288   4.293   2.690   0.926
 6463SOL    HW220289   4.223   2.808   1.015
 6464SOL     OW20290   0.837   4.180   3.762
 6464SOL    HW120291   0.805   4.250   3.826
 6464SOL    HW220292   0.794   4.093   3.783
 6465SOL     OW20293   3.614   0.636   3.880
 6465SOL    HW120294   3.543   0.648   3.810
 6465SOL    HW220295   3.673   0.716   3.881
 6466SOL     OW20296   6.625   4.781   0.082
 6466SOL    HW120297   6.563   4.829   0.144
 6466SOL    HW220298   6.662   4.701   0.128
 6467SOL     OW20299   1.933   2.553   6.493
 6467SOL    HW120300   1.891   2.623   6.436
 6467SOL    HW220301   1.894   2.463   6.472
 6468SOL     OW20302   2.304   0.402   1.338
 6468SOL    HW120303   2.282   0.432   1.431
 6468SOL    HW220304   2.283   0.305   1.328
 6469SOL     OW20305   1.945   1.274   1.618
 6469SOL    HW120306   1.915   1.259   1.524
 6469SOL    HW220307   2.045   1.265   1.623
 6470SOL     OW20308   6.979   1.998   6.948
 6470SOL    HW120309   7.006   1.902   6.941
 6470SOL    HW220310   6.885   2.003   6.981
 6471SOL     OW20311   0.402   6.383   5.852
 6471SOL    HW120312   0.416   6.470   5.898
 6471SOL    HW220313   0.476   6.367   5.787
 6472SOL     OW20314   6.829   6.702   2.712
 6472SOL    HW120315   6.912   6.655   2.743
 6472SOL    HW220316   6.759   6.634   2.690
 6473SOL     OW20317   2.175   1.418   3.092
 6473SOL    HW120318   2.185   1.343   3.157
 6473SOL    HW220319   2.260   1.428   3.040
 6474SOL     OW20320   3.805   6.148   4.671
 6474SOL    HW120321   3.883   6.120   4.616
 6474SOL    HW220322   3.822   6.239   4.709
 6475SOL     OW20323   5.894   5.574   2.201
 6475SOL    HW120324   5.854   5.622   2.279
 6475SOL    HW220325   5.838   5.591   2.120
 6476SOL     OW20326   3.754   2.791   6.699
 6476SOL    HW120327   3.822   2.798   6.626
 6476SOL    HW220328   3.671   2.747   6.664
 6477SOL     OW20329   0.303   6.192   1.834
 6477SOL    HW120330   0.313   6.124   1.906
 6477SOL    HW220331   0.368   6.267   1.849
 6478SOL     OW20332   2.547   6.168   0.874
 6478SOL    HW120333   2.475   6.222   0.832
 6478SOL    HW220334   2.537   6.170   0.974
 6479SOL     OW20335   4.335   6.167   3.520
 6479SOL    HW120336   4.257   6.103   3.522
 6479SOL    HW220337   4.366   6.178   3.426
 6480SOL     OW20338   4.132   1.273   6.424
 6480SOL    HW120339   4.118   1.193   6.482
 6480SOL    HW220340   4.219   1.316   6.446
 6481SOL     OW20341   3.628   3.138   2.130
 6481SOL    HW120342   3.695   3.211   2.116
 6481SOL    HW220343   3.566   3.133   2.052
 6482SOL     OW20344   4.926   4.057   5.870
 6482SOL    HW120345   5.008   3.999   5.868
 6482SOL    HW220346   4.844   3.999   5.868
 6483SOL     OW20347   2.263   6.126   5.018
 6483SOL    HW120348   2.225   6.157   4.931
 6483SOL    HW220349   2.338   6.186   5.045
 6484SOL     OW20350   3.081   1.187   3.061
 6484SOL    HW120351   2.984   1.190   3.036
 6484SOL    HW220352   3.096   1.116   3.129
 6485SOL     OW20353   2.698   6.238   4.999
 6485SOL    HW120354   2.696   6.202   4.906
 6485SOL    HW220355   2.793   6.238   5.032
 6486SOL     OW20356   0.648   5.216   2.814
 6486SOL    HW120357   0.622   5.212   2.911
 6486SOL    HW220358   0.731   5.162   2.800
 6487SOL     OW20359   6.826   4.604   3.956
 6487SOL    HW120360   6.750   4.646   3.906
 6487SOL    HW220361   6.889   4.561   3.892
 6488SOL     OW20362   3.492   5.533   4.185
 6488SOL    HW120363   3.458   5.440   4.177
 6488SOL    HW220364   3.521   5.566   4.096
 6489SOL     OW20365   5.468   2.621   5.059
 6489SOL    HW120366   5.449   2.634   5.156
 6489SOL    HW220367   5.387   2.646   5.006
 6490SOL     OW20368   2.271   2.049   0.451
 6490SOL    HW120369   2.214   1.985   0.400
 6490SOL    HW220370   2.270   2.138   0.406
 6491SOL     OW20371   1.921   0.035   1.617
 6491SOL    HW120372   1.847   0.084   1.571
 6491SOL    HW220373   1.918   0.056   1.715
 6492SOL     OW20374   3.877   3.431   4.519
 6492SOL    HW120375   3.821   3.449   4.438
 6492SOL    HW220376   3.827   3.372   4.582
 6493SOL     OW20377   1.248   4.493   4.226
 6493SOL    HW120378   1.319   4.563   4.226
 6493SOL    HW220379   1.225   4.469   4.320
 6494SOL     OW20380   6.410   0.970   1.810
 6494SOL    HW120381   6.474   1.043   1.833
 6494SOL    HW220382   6.452   0.882   1.834
 6495SOL     OW20383   6.477   0.213   2.933
 6495SOL    HW120384   6.459   0.307   2.904
 6495SOL    HW220385   6.433   0.196   3.021
 6496SOL     OW20386   3.385   2.234   1.755
 6496SOL    HW120387   3.415   2.173   1.828
 6496SOL    HW220388   3.447   2.312   1.748
 6497SOL     OW20389   0.141   1.091   0.506
 6497SOL    HW120390   0.110   1.184   0.487
 6497SOL    HW220391   0.168   1.084   0.602
 6498SOL     OW20392   2.253   4.162   4.162
 6498SOL    HW120393   2.207   4.097   4.223
 6498SOL    HW220394   2.310   4.224   4.216
 6499SOL     OW20395   4.910   2.825   3.074
 6499SOL    HW120396   4.899   2.750   3.138
 6499SOL    HW220397   4.881   2.911   3.118
 6500SOL     OW20398   1.483   3.791   3.346
 6500SOL    HW120399   1.386   3.793   3.370
 6500SOL    HW220400   1.494   3.749   3.256
 6501SOL     OW20401   5.429   2.277   2.786
 6501SOL    HW120402   5.388   2.202   2.735
 6501SOL    HW220403   5.403   2.270   2.882
 6502SOL     OW20404   0.022   3.979   2.175
 6502SOL    HW120405   0.062   3.979   2.083
 6502SOL    HW220406   0.049   3.896   2.223
 6503SOL     OW20407   0.035   3.690   6.028
 6503SOL    HW120408   0.082   3.602   6.033
 6503SOL    HW220409   0.035   3.722   5.933
 6504SOL     OW20410   3.777   6.560   6.363
 6504SOL    HW120411   3.821   6.596   6.446
 6504SOL    HW220412   3.844   6.507   6.310
 6505SOL     OW20413   6.982   5.774   0.814
 6505SOL    HW120414   6.917   5.736   0.880
 6505SOL    HW220415   0.050   5.796   0.861
 6506SOL     OW20416   0.737   3.828   2.204
 6506SOL    HW120417   0.662   3.881   2.244
 6506SOL    HW220418   0.763   3.754   2.267
 6507SOL     OW20419   4.350   5.761   0.552
 6507SOL    HW120420   4.285   5.685   0.554
 6507SOL    HW220421   4.304   5.845   0.583
 6508SOL     OW20422   0.314   0.239   3.562
 6508SOL    HW120423   0.265   0.301   3.501
 6508SOL    HW220424   0.301   0.145   3.530
 6509SOL     OW20425   2.454   1.597   6.874
 6509SOL    HW120426   2.419   1.620   6.965
 6509SOL    HW220427   2.532   1.535   6.882
 6510SOL     OW20428   3.323   6.229   5.126
 6510SOL    HW120429   3.265   6.148   5.135
 6510SOL    HW220430   3.387   6.232   5.203
 6511SOL     OW20431   3.068   2.500   0.516
 6511SOL    HW120432   3.141   2.477   0.452
 6511SOL    HW220433   2.989   2.440   0.500
 6512SOL     OW20434   4.560   1.406   0.737
 6512SOL    HW120435   4.492   1.424   0.808
 6512SOL    HW220436   4.519   1.425   0.647
 6513SOL     OW20437   2.591   4.593   2.878
 6513SOL    HW120438   2.544   4.509   2.904
 6513SOL    HW220439   2.555   4.626   2.791
 6514SOL     OW20440   5.388   6.866   5.640
 6514SOL    HW120441   5.306   6.839   5.689
 6514SOL    HW220442   5.393   6.966   5.636
 6515SOL     OW20443   1.311   5.201   2.731
 6515SOL    HW120444   1.239   5.157   2.786
 6515SOL    HW220445   1.349   5.278   2.782
 6516SOL     OW20446   6.707   3.135   2.203
 6516SOL    HW120447   6.722   3.044   2.165
 6516SOL    HW220448   6.655   3.190   2.137
 6517SOL     OW20449   6.666   3.554   0.419
 6517SOL    HW120450   6.694   3.593   0.331
 6517SOL    HW220451   6.695   3.614   0.493
 6518SOL     OW20452   0.684   1.070   2.096
 6518SOL    HW120453   0.611   1.126   2.136
 6518SOL    HW220454   0.681   0.978   2.135
 6519SOL     OW20455   1.268   0.853   3.458
 6519SOL    HW120456   1.215   0.927   3.500
 6519SOL    HW220457   1.249   0.851   3.360
 6520SOL     OW20458   0.273   5.378   0.539
 6520SOL    HW120459   0.240   5.373   0.634
 6520SOL    HW220460   0.251   5.293   0.492
 6521SOL     OW20461   2.092   4.346   4.041
 6521SOL    HW120462   2.005   4.306   4.012
 6521SOL    HW220463   2.153   4.274   4.074
 6522SOL     OW20464   2.482   2.667   5.154
 6522SOL    HW120465   2.462   2.764   5.141
 6522SOL    HW220466   2.442   2.636   5.240
 6523SOL     OW20467   6.241   6.578   0.739
 6523SOL    HW120468   6.244   6.493   0.687
 6523SOL    HW220469   6.334   6.617   0.745
 6524SOL     OW20470   2.963   3.247   0.921
 6524SOL    HW120471   2.905   3.282   0.994
 6524SOL    HW220472   2.954   3.147   0.916
 6525SOL     OW20473   0.922   5.106   3.401
 6525SOL    HW120474   0.903   5.047   3.479
 6525SOL    HW220475   0.991   5.174   3.425
 6526SOL     OW20476   0.845   5.823   0.743
 6526SOL    HW120477   0.857   5.763   0.664
 6526SOL    HW220478   0.792   5.903   0.717
 6527SOL     OW20479   6.332   1.567   0.640
 6527SOL    HW120480   6.309   1.630   0.714
 6527SOL    HW220481   6.305   1.606   0.553
 6528SOL     OW20482   4.290   6.762   6.963
 6528SOL    HW120483   4.348   6.822   0.000
 6528SOL    HW220484   4.342   6.682   6.934
 6529SOL     OW20485   5.257   6.993   2.107
 6529SOL    HW120486   5.206   0.060   2.120
 6529SOL    HW220487   5.353   7.014   2.088
 6530SOL     OW20488   0.471   2.737   3.301
 6530SOL    HW120489   0.526   2.712   3.381
 6530SOL    HW220490   0.439   2.831   3.311
 6531SOL     OW20491   3.932   3.867   4.991
 6531SOL    HW120492   4.006   3.810   5.025
 6531SOL    HW220493   3.961   3.963   4.992
 6532SOL     OW20494   1.686   6.772   0.313
 6532SOL    HW120495   1.677   6.753   0.411
 6532SOL    HW220496   1.596   6.787   0.273
 6533SOL     OW20497   4.938   4.365   2.006
 6533SOL    HW120498   4.902   4.349   1.914
 6533SOL    HW220499   5.038   4.362   2.004
 6534SOL     OW20500   0.182   4.389   3.018
 6534SOL    HW120501   0.099   4.436   2.990
 6534SOL    HW220502   0.158   4.301   3.060
 6535SOL     OW20503   5.188   3.900   5.130
 6535SOL    HW120504   5.208   3.974   5.066
 6535SOL    HW220505   5.137   3.828   5.083
 6536SOL     OW20506   0.787   4.683   5.213
 6536SOL    HW120507   0.707   4.736   5.187
 6536SOL    HW220508   0.870   4.732   5.185
 6537SOL     OW20509   6.299   5.244   3.410
 6537SOL    HW120510   6.303   5.151   3.373
 6537SOL    HW220511   6.233   5.247   3.485
 6538SOL     OW20512   1.180   2.342   4.669
 6538SOL    HW120513   1.275   2.368   4.654
 6538SOL    HW220514   1.121   2.394   4.607
 6539SOL     OW20515   4.575   6.592   6.363
 6539SOL    HW120516   4.499   6.653   6.341
 6539SOL    HW220517   4.658   6.626   6.319
 6540SOL     OW20518   6.774   2.856   5.470
 6540SOL    HW120519   6.700   2.791   5.491
 6540SOL    HW220520   6.862   2.814   5.493
 6541SOL     OW20521   5.212   1.768   5.991
 6541SOL    HW120522   5.271   1.707   6.044
 6541SOL    HW220523   5.267   1.839   5.947
 6542SOL     OW20524   1.178   3.665   2.665
 6542SOL    HW120525   1.277   3.660   2.649
 6542SOL    HW220526   1.151   3.760   2.679
 6543SOL     OW20527   3.761   1.633   4.779
 6543SOL    HW120528   3.716   1.720   4.797
 6543SOL    HW220529   3.812   1.604   4.861
 6544SOL     OW20530   0.814   6.817   0.542
 6544SOL    HW120531   0.875   6.737   0.544
 6544SOL    HW220532   0.767   6.825   0.629
 6545SOL     OW20533   4.783   6.960   1.302
 6545SOL    HW120534   4.883   6.949   1.306
 6545SOL    HW220535   4.755   0.017   1.362
 6546SOL     OW20536   4.926   4.186   6.544
 6546SOL    HW120537   4.959   4.174   6.638
 6546SOL    HW220538   4.934   4.283   6.518
 6547SOL     OW20539   0.558   6.333   5.635
 6547SOL    HW120540   0.509   6.271   5.574
 6547SOL    HW220541   0.641   6.365   5.590
 6548SOL     OW20542   0.144   1.204   5.891
 6548SOL    HW120543   0.074   1.211   5.819
 6548SOL    HW220544   0.104   1.159   5.971
 6549SOL     OW20545   4.072   1.636   2.687
 6549SOL    HW120546   4.074   1.735   2.673
 6549SOL    HW220547   4.077   1.616   2.785
 6550SOL     OW20548   5.881   6.265   2.932
 6550SOL    HW120549   5.869   6.315   3.018
 6550SOL    HW220550   5.794   6.262   2.882
 6551SOL     OW20551   2.850   3.889   0.724
 6551SOL    HW120552   2.827   3.981   0.756
 6551SOL    HW220553   2.876   3.832   0.802
 6552SOL     OW20554   2.103   4.990   0.296
 6552SOL    HW120555   2.034   5.040   0.348
 6552SOL    HW220556   2.092   5.011   0.199
 6553SOL     OW20557   0.515   1.722   3.204
 6553SOL    HW120558   0.587   1.730   3.274
 6553SOL    HW220559   0.466   1.808   3.197
 6554SOL     OW20560   1.495   1.938   4.318
 6554SOL    HW120561   1.434   1.946   4.398
 6554SOL    HW220562   1.532   2.028   4.296
 6555SOL     OW20563   0.004   4.060   3.898
 6555SOL    HW120564   0.042   4.111   3.821
 6555SOL    HW220565   6.944   4.110   3.935
 6556SOL     OW20566   4.838   3.116   2.584
 6556SOL    HW120567   4.838   3.097   2.683
 6556SOL    HW220568   4.813   3.032   2.535
 6557SOL     OW20569   1.769   0.385   2.428
 6557SOL    HW120570   1.749   0.321   2.502
 6557SOL    HW220571   1.860   0.424   2.441
 6558SOL     OW20572   5.639   6.569   7.004
 6558SOL    HW120573   5.699   6.590   6.927
 6558SOL    HW220574   5.663   6.481   0.025
 6559SOL     OW20575   6.384   3.083   6.255
 6559SOL    HW120576   6.484   3.073   6.259
 6559SOL    HW220577   6.352   3.133   6.335
 6560SOL     OW20578   6.446   5.031   0.085
 6560SOL    HW120579   6.461   4.995   0.177
 6560SOL    HW220580   6.515   5.100   0.065
 6561SOL     OW20581   3.134   4.409   0.212
 6561SOL    HW120582   3.086   4.322   0.204
 6561SOL    HW220583   3.068   4.481   0.234
 6562SOL     OW20584   5.454   2.622   1.549
 6562SOL    HW120585   5.401   2.602   1.466
 6562SOL    HW220586   5.521   2.693   1.530
 6563SOL     OW20587   6.126   4.953   5.139
 6563SOL    HW120588   6.220   4.955   5.174
 6563SOL    HW220589   6.117   4.879   5.073
 6564SOL     OW20590   5.651   3.455   2.697
 6564SOL    HW120591   5.719   3.514   2.654
 6564SOL    HW220592   5.634   3.375   2.639
 6565SOL     OW20593   5.315   6.892   3.012
 6565SOL    HW120594   5.327   6.899   2.913
 6565SOL    HW220595   5.322   6.983   3.053
 6566SOL     OW20596   5.024   5.773   3.741
 6566SOL    HW120597   5.009   5.870   3.758
 6566SOL    HW220598   5.092   5.738   3.805
 6567SOL     OW20599   3.918   0.517   2.337
 6567SOL    HW120600   3.841   0.573   2.367
 6567SOL    HW220601   3.947   0.458   2.412
 6568SOL     OW20602   4.664   1.427   1.080
 6568SOL    HW120603   4.588   1.477   1.038
 6568SOL    HW220604   4.632   1.380   1.162
 6569SOL     OW20605   0.889   4.764   4.360
 6569SOL    HW120606   0.984   4.781   4.334
 6569SOL    HW220607   0.886   4.688   4.425
 6570SOL     OW20608   4.355   6.870   2.529
 6570SOL    HW120609   4.326   6.946   2.471
 6570SOL    HW220610   4.455   6.864   2.529
 6571SOL     OW20611   3.068   6.004   3.352
 6571SOL    HW120612   2.989   5.942   3.351
 6571SOL    HW220613   3.049   6.080   3.414
 6572SOL     OW20614   1.754   5.740   3.882
 6572SOL    HW120615   1.712   5.767   3.969
 6572SOL    HW220616   1.719   5.651   3.854
 6573SOL     OW20617   0.787   2.461   3.100
 6573SOL    HW120618   0.709   2.524   3.098
 6573SOL    HW220619   0.779   2.401   3.179
 6574SOL     OW20620   1.483   4.866   2.124
 6574SOL    HW120621   1.556   4.842   2.060
 6574SOL    HW220622   1.484   4.965   2.140
 6575SOL     OW20623   0.206   1.272   3.337
 6575SOL    HW120624   0.180   1.181   3.306
 6575SOL    HW220625   0.208   1.334   3.259
 6576SOL     OW20626   4.370   6.468   1.295
 6576SOL    HW120627   4.277   6.480   1.259
 6576SOL    HW220628   4.366   6.463   1.395
 6577SOL     OW20629   3.138   1.485   3.638
 6577SOL    HW120630   3.130   1.386   3.628
 6577SOL    HW220631   3.148   1.528   3.548
 6578SOL     OW20632   0.931   4.896   0.460
 6578SOL    HW120633   0.983   4.891   0.546
 6578SOL    HW220634   0.870   4.975   0.463
 6579SOL     OW20635   0.090   0.945   4.189
 6579SOL    HW120636   0.003   0.992   4.171
 6579SOL    HW220637   0.079   0.882   4.265
 6580SOL     OW20638   2.195   2.022   0.706
 6580SOL    HW120639   2.231   2.034   0.613
 6580SOL    HW220640   2.268   2.033   0.772
 6581SOL     OW20641   0.362   2.197   0.873
 6581SOL    HW120642   0.387   2.286   0.913
 6581SOL    HW220643   0.365   2.204   0.774
 6582SOL     OW20644   6.169   1.412   2.992
 6582SOL    HW120645   6.072   1.423   3.013
 6582SOL    HW220646   6.179   1.375   2.900
 6583SOL     OW20647   3.583   4.703   0.609
 6583SOL    HW120648   3.592   4.666   0.517
 6583SOL    HW220649   3.646   4.779   0.621
 6584SOL     OW20650   4.154   2.357   6.808
 6584SOL    HW120651   4.076   2.385   6.751
 6584SOL    HW220652   4.152   2.257   6.820
 6585SOL     OW20653   5.807   6.966   2.008
 6585SOL    HW120654   5.800   0.031   1.953
 6585SOL    HW220655   5.759   6.891   1.961
 6586SOL     OW20656   6.981   1.339   6.734
 6586SOL    HW120657   0.032   1.332   6.663
 6586SOL    HW220658   0.004   1.378   6.817
 6587SOL     OW20659   2.192   4.627   5.121
 6587SOL    HW120660   2.240   4.564   5.061
 6587SOL    HW220661   2.167   4.580   5.206
 6588SOL     OW20662   0.373   2.218   0.603
 6588SOL    HW120663   0.435   2.148   0.567
 6588SOL    HW220664   0.368   2.294   0.538
 6589SOL     OW20665   0.035   6.687   2.385
 6589SOL    HW120666   0.054   6.592   2.411
 6589SOL    HW220667   6.958   6.693   2.352
 6590SOL     OW20668   0.998   6.409   4.171
 6590SOL    HW120669   1.068   6.369   4.112
 6590SOL    HW220670   1.042   6.458   4.246
 6591SOL     OW20671   6.196   4.105   3.731
 6591SOL    HW120672   6.207   4.009   3.707
 6591SOL    HW220673   6.197   4.161   3.648
 6592SOL     OW20674   6.289   6.704   3.933
 6592SOL    HW120675   6.339   6.749   4.008
 6592SOL    HW220676   6.236   6.628   3.970
 6593SOL     OW20677   1.438   0.905   1.971
 6593SOL    HW120678   1.521   0.959   1.952
 6593SOL    HW220679   1.396   0.938   2.055
 6594SOL     OW20680   5.055   6.826   6.774
 6594SOL    HW120681   5.104   6.827   6.862
 6594SOL    HW220682   4.966   6.871   6.785
 6595SOL     OW20683   0.780   2.064   5.298
 6595SOL    HW120684   0.850   2.133   5.278
 6595SOL    HW220685   0.691   2.098   5.271
 6596SOL     OW20686   5.188   0.624   2.500
 6596SOL    HW120687   5.263   0.689   2.514
 6596SOL    HW220688   5.101   0.674   2.502
 6597SOL     OW20689   0.517   4.191   1.299
 6597SOL    HW120690   0.495   4.122   1.369
 6597SOL    HW220691   0.549   4.145   1.216
 6598SOL     OW20692   2.025   4.760   4.004
 6598SOL    HW120693   2.061   4.676   3.962
 6598SOL    HW220694   1.935   4.741   4.043
 6599SOL     OW20695   6.835   5.409   6.189
 6599SOL    HW120696   6.894   5.462   6.250
 6599SOL    HW220697   6.853   5.312   6.201
 6600SOL     OW20698   4.588   0.102   5.638
 6600SOL    HW120699   4.607   0.072   5.545
 6600SOL    HW220700   4.638   0.187   5.656
 6601SOL     OW20701   1.368   2.325   1.891
 6601SOL    HW120702   1.283   2.345   1.842
 6601SOL    HW220703   1.347   2.303   1.986
 6602SOL     OW20704   0.571   5.529   1.736
 6602SOL    HW120705   0.482   5.488   1.718
 6602SOL    HW220706   0.587   5.604   1.672
 6603SOL     OW20707   0.227   3.923   2.687
 6603SOL    HW120708   0.155   3.854   2.688
 6603SOL    HW220709   0.298   3.895   2.622
 6604SOL     OW20710   1.516   5.880   3.128
 6604SOL    HW120711   1.566   5.926   3.201
 6604SOL    HW220712   1.581   5.838   3.064
 6605SOL     OW20713   0.064   5.861   1.255
 6605SOL    HW120714   0.162   5.841   1.255
 6605SOL    HW220715   0.036   5.893   1.346
 6606SOL     OW20716   1.685   3.319   3.058
 6606SOL    HW120717   1.723   3.317   2.966
 6606SOL    HW220718   1.747   3.270   3.120
 6607SOL     OW20719   5.800   3.140   3.690
 6607SOL    HW120720   5.747   3.197   3.753
 6607SOL    HW220721   5.758   3.144   3.599
 6608SOL     OW20722   1.560   6.645   5.709
 6608SOL    HW120723   1.536   6.556   5.671
 6608SOL    HW220724   1.617   6.633   5.790
 6609SOL     OW20725   4.356   1.691   6.890
 6609SOL    HW120726   4.312   1.605   6.913
 6609SOL    HW220727   4.453   1.676   6.872
 6610SOL     OW20728   2.637   5.632   1.068
 6610SOL    HW120729   2.685   5.625   1.155
 6610SOL    HW220730   2.542   5.661   1.084
 6611SOL     OW20731   3.226   1.788   5.081
 6611SOL    HW120732   3.147   1.843   5.111
 6611SOL    HW220733   3.235   1.708   5.140
 6612SOL     OW20734   0.248   0.329   6.523
 6612SOL    HW120735   0.174   0.294   6.580
 6612SOL    HW220736   0.210   0.388   6.452
 6613SOL     OW20737   4.283   0.380   0.698
 6613SOL    HW120738   4.317   0.473   0.707
 6613SOL    HW220739   4.280   0.354   0.602
 6614SOL     OW20740   4.212   5.187   0.717
 6614SOL    HW120741   4.124   5.146   0.740
 6614SOL    HW220742   4.279   5.115   0.700
 6615SOL     OW20743   4.121   5.453   5.708
 6615SOL    HW120744   4.089   5.509   5.631
 6615SOL    HW220745   4.059   5.376   5.720
 6616SOL     OW20746   3.656   1.761   6.875
 6616SOL    HW120747   3.738   1.815   6.895
 6616SOL    HW220748   3.634   1.769   6.778
 6617SOL     OW20749   3.792   0.722   4.133
 6617SOL    HW120750   3.694   0.722   4.152
 6617SOL    HW220751   3.816   0.804   4.082
 6618SOL     OW20752   6.150   2.476   4.141
 6618SOL    HW120753   6.171   2.439   4.050
 6618SOL    HW220754   6.089   2.555   4.132
 6619SOL     OW20755   4.731   5.533   3.845
 6619SOL    HW120756   4.752   5.580   3.759
 6619SOL    HW220757   4.707   5.438   3.825
 6620SOL     OW20758   1.321   2.720   3.394
 6620SOL    HW120759   1.304   2.624   3.417
 6620SOL    HW220760   1.419   2.736   3.389
 6621SOL     OW20761   3.403   3.534   4.329
 6621SOL    HW120762   3.427   3.487   4.244
 6621SOL    HW220763   3.332   3.602   4.311
 6622SOL     OW20764   0.568   5.332   0.948
 6622SOL    HW120765   0.485   5.382   0.974
 6622SOL    HW220766   0.595   5.359   0.855
 6623SOL     OW20767   2.925   3.909   4.848
 6623SOL    HW120768   2.925   3.944   4.942
 6623SOL    HW220769   2.893   3.815   4.848
 6624SOL     OW20770   2.677   2.192   2.900
 6624SOL    HW120771   2.760   2.235   2.936
 6624SOL    HW220772   2.698   2.103   2.862
 6625SOL     OW20773   6.374   3.880   5.650
 6625SOL    HW120774   6.313   3.859   5.726
 6625SOL    HW220775   6.425   3.964   5.670
 6626SOL     OW20776   2.938   5.970   5.443
 6626SOL    HW120777   2.881   6.021   5.379
 6626SOL    HW220778   2.958   5.879   5.406
 6627SOL     OW20779   1.982   6.045   4.326
 6627SOL    HW120780   1.973   5.952   4.293
 6627SOL    HW220781   1.906   6.101   4.292
 6628SOL     OW20782   3.576   5.957   4.073
 6628SOL    HW120783   3.532   5.877   4.115
 6628SOL    HW220784   3.658   5.981   4.124
 6629SOL     OW20785   5.130   5.827   6.098
 6629SOL    HW120786   5.067   5.826   6.020
 6629SOL    HW220787   5.111   5.907   6.155
 6630SOL     OW20788   1.505   0.966   0.027
 6630SOL    HW120789   1.409   0.954   7.018
 6630SOL    HW220790   1.557   1.001   6.967
 6631SOL     OW20791   2.007   3.518   6.046
 6631SOL    HW120792   2.091   3.562   6.078
 6631SOL    HW220793   1.928   3.572   6.075
 6632SOL     OW20794   1.404   0.151   0.358
 6632SOL    HW120795   1.359   0.174   0.272
 6632SOL    HW220796   1.342   0.097   0.415
 6633SOL     OW20797   3.974   5.418   6.330
 6633SOL    HW120798   3.955   5.482   6.255
 6633SOL    HW220799   4.068   5.385   6.322
 6634SOL     OW20800   3.976   2.149   3.940
 6634SOL    HW120801   4.012   2.066   3.898
 6634SOL    HW220802   3.877   2.143   3.946
 6635SOL     OW20803   4.844   4.818   4.762
 6635SOL    HW120804   4.801   4.906   4.781
 6635SOL    HW220805   4.877   4.816   4.668
 6636SOL     OW20806   4.534   0.905   0.259
 6636SOL    HW120807   4.470   0.842   0.301
 6636SOL    HW220808   4.626   0.865   0.258
 6637SOL     OW20809   0.537   1.978   0.635
 6637SOL    HW120810   0.452   1.972   0.687
 6637SOL    HW220811   0.595   1.900   0.656
 6638SOL     OW20812   3.084   4.011   4.043
 6638SOL    HW120813   3.077   3.928   3.988
 6638SOL    HW220814   3.046   3.994   4.134
 6639SOL     OW20815   4.909   2.893   0.678
 6639SOL    HW120816   4.969   2.847   0.614
 6639SOL    HW220817   4.904   2.990   0.655
 6640SOL     OW20818   1.412   4.099   4.936
 6640SOL    HW120819   1.370   4.041   5.005
 6640SOL    HW220820   1.500   4.061   4.909
 6641SOL     OW20821   5.588   2.007   1.197
 6641SOL    HW120822   5.671   2.001   1.252
 6641SOL    HW220823   5.536   1.922   1.204
 6642SOL     OW20824   1.880   5.994   0.222
 6642SOL    HW120825   1.912   6.017   0.314
 6642SOL    HW220826   1.815   6.064   0.191
 6643SOL     OW20827   3.551   5.997   6.178
 6643SOL    HW120828   3.530   5.998   6.080
 6643SOL    HW220829   3.522   5.910   6.217
 6644SOL     OW20830   1.920   6.478   3.842
 6644SOL    HW120831   1.927   6.404   3.909
 6644SOL    HW220832   1.984   6.461   3.767
 6645SOL     OW20833   5.977   3.022   6.708
 6645SOL    HW120834   6.049   3.088   6.728
 6645SOL    HW220835   5.978   2.999   6.611
 6646SOL     OW20836   4.072   6.637   5.602
 6646SOL    HW120837   4.114   6.564   5.656
 6646SOL    HW220838   4.114   6.725   5.626
 6647SOL     OW20839   4.189   5.181   1.124
 6647SOL    HW120840   4.256   5.168   1.052
 6647SOL    HW220841   4.134   5.262   1.106
 6648SOL     OW20842   3.240   6.481   5.196
 6648SOL    HW120843   3.278   6.558   5.246
 6648SOL    HW220844   3.312   6.416   5.173
 6649SOL     OW20845   4.949   2.707   6.462
 6649SOL    HW120846   5.008   2.770   6.411
 6649SOL    HW220847   4.966   2.613   6.432
 6650SOL     OW20848   1.715   1.304   4.854
 6650SOL    HW120849   1.623   1.277   4.880
 6650SOL    HW220850   1.710   1.361   4.772
 6651SOL     OW20851   6.673   2.213   6.125
 6651SOL    HW120852   6.587   2.264   6.119
 6651SOL    HW220853   6.686   2.181   6.219
 6652SOL     OW20854   6.655   4.326   0.115
 6652SOL    HW120855   6.654   4.337   0.016
 6652SOL    HW220856   6.601   4.246   0.140
 6653SOL     OW20857   5.735   4.666   0.191
 6653SOL    HW120858   5.700   4.631   0.277
 6653SOL    HW220859   5.758   4.589   0.131
 6654SOL     OW20860   6.286   3.857   3.594
 6654SOL    HW120861   6.301   3.891   3.501
 6654SOL    HW220862   6.256   3.762   3.590
 6655SOL     OW20863   0.256   5.497   2.086
 6655SOL    HW120864   0.320   5.508   2.163
 6655SOL    HW220865   0.295   5.436   2.018
 6656SOL     OW20866   4.436   1.680   3.744
 6656SOL    HW120867   4.415   1.777   3.757
 6656SOL    HW220868   4.516   1.656   3.798
 6657SOL     OW20869   5.445   2.264   3.836
 6657SOL    HW120870   5.411   2.351   3.801
 6657SOL    HW220871   5.431   2.260   3.935
 6658SOL     OW20872   6.771   5.803   5.602
 6658SOL    HW120873   6.740   5.870   5.669
 6658SOL    HW220874   6.834   5.739   5.646
 6659SOL     OW20875   1.040   5.111   1.710
 6659SOL    HW120876   0.994   5.105   1.799
 6659SOL    HW220877   1.129   5.066   1.716
 6660SOL     OW20878   6.689   6.662   4.610
 6660SOL    HW120879   6.767   6.655   4.672
 6660SOL    HW220880   6.642   6.749   4.626
 6661SOL     OW20881   3.883   5.828   3.868
 6661SOL    HW120882   3.847   5.917   3.839
 6661SOL    HW220883   3.972   5.841   3.911
 6662SOL     OW20884   3.975   6.623   2.446
 6662SOL    HW120885   3.959   6.564   2.367
 6662SOL    HW220886   3.925   6.588   2.525
 6663SOL     OW20887   0.687   4.227   5.945
 6663SOL    HW120888   0.712   4.310   5.895
 6663SOL    HW220889   0.621   4.249   6.016
 6664SOL     OW20890   2.897   0.274   0.875
 6664SOL    HW120891   2.992   0.274   0.844
 6664SOL    HW220892   2.883   0.200   0.941
 6665SOL     OW20893   2.637   0.660   6.567
 6665SOL    HW120894   2.709   0.599   6.601
 6665SOL    HW220895   2.586   0.696   6.645
 6666SOL     OW20896   3.912   6.387   5.197
 6666SOL    HW120897   3.900   6.317   5.266
 6666SOL    HW220898   3.882   6.352   5.108
 6667SOL     OW20899   1.067   5.842   6.530
 6667SOL    HW120900   1.062   5.816   6.434
 6667SOL    HW220901   1.159   5.875   6.551
 6668SOL     OW20902   0.050   4.526   0.321
 6668SOL    HW120903   0.025   4.590   0.394
 6668SOL    HW220904   7.006   4.448   0.321
 6669SOL     OW20905   1.203   1.993   2.916
 6669SOL    HW120906   1.224   1.946   3.002
 6669SOL    HW220907   1.223   1.932   2.839
 6670SOL     OW20908   3.684   2.709   0.353
 6670SOL    HW120909   3.748   2.632   0.344
 6670SOL    HW220910   3.706   2.779   0.285
 6671SOL     OW20911   4.371   5.024   0.061
 6671SOL    HW120912   4.334   5.033   0.154
 6671SOL    HW220913   4.353   4.932   0.026
 6672SOL     OW20914   1.192   2.363   1.552
 6672SOL    HW120915   1.288   2.387   1.567
 6672SOL    HW220916   1.141   2.375   1.638
 6673SOL     OW20917   6.239   2.827   4.018
 6673SOL    HW120918   6.297   2.878   4.081
 6673SOL    HW220919   6.212   2.887   3.942
 6674SOL     OW20920   0.615   1.480   0.220
 6674SOL    HW120921   0.700   1.524   0.192
 6674SOL    HW220922   0.634   1.417   0.296
 6675SOL     OW20923   4.869   0.522   6.634
 6675SOL    HW120924   4.811   0.583   6.689
 6675SOL    HW220925   4.811   0.468   6.573
 6676SOL     OW20926   0.871   4.077   4.143
 6676SOL    HW120927   0.891   4.174   4.157
 6676SOL    HW220928   0.781   4.067   4.100
 6677SOL     OW20929   0.608   1.644   6.216
 6677SOL    HW120930   0.581   1.620   6.122
 6677SOL    HW220931   0.529   1.637   6.276
 6678SOL     OW20932   2.471   4.173   5.991
 6678SOL    HW120933   2.476   4.209   5.898
 6678SOL    HW220934   2.386   4.120   6.001
 6679SOL     OW20935   1.493   0.792   3.624
 6679SOL    HW120936   1.415   0.834   3.578
 6679SOL    HW220937   1.495   0.694   3.602
 6680SOL     OW20938   6.570   6.496   1.262
 6680SOL    HW120939   6.577   6.468   1.358
 6680SOL    HW220940   6.625   6.579   1.247
 6681SOL     OW20941   3.180   6.011   1.807
 6681SOL    HW120942   3.175   6.059   1.719
 6681SOL    HW220943   3.242   5.932   1.798
 6682SOL     OW20944   3.474   5.742   5.946
 6682SOL    HW120945   3.511   5.835   5.948
 6682SOL    HW220946   3.421   5.729   5.862
 6683SOL     OW20947   0.015   4.570   6.124
 6683SOL    HW120948   0.070   4.649   6.097
 6683SOL    HW220949   0.012   4.565   6.224
 6684SOL     OW20950   3.427   6.173   0.386
 6684SOL    HW120951   3.463   6.195   0.296
 6684SOL    HW220952   3.444   6.076   0.406
 6685SOL     OW20953   5.186   2.914   0.118
 6685SOL    HW120954   5.174   2.862   0.033
 6685SOL    HW220955   5.123   2.879   0.188
 6686SOL     OW20956   5.115   5.001   4.664
 6686SOL    HW120957   5.146   4.987   4.758
 6686SOL    HW220958   5.118   4.914   4.615
 6687SOL     OW20959   6.665   1.709   1.391
 6687SOL    HW120960   6.657   1.773   1.468
 6687SOL    HW220961   6.762   1.688   1.376
 6688SOL     OW20962   4.571   5.016   1.255
 6688SOL    HW120963   4.583   5.063   1.167
 6688SOL    HW220964   4.649   5.036   1.314
 6689SOL     OW20965   2.429   4.712   5.770
 6689SOL    HW120966   2.375   4.699   5.854
 6689SOL    HW220967   2.475   4.801   5.774
 6690SOL     OW20968   0.463   0.159   6.201
 6690SOL    HW120969   0.451   0.095   6.125
 6690SOL    HW220970   0.491   0.109   6.283
 6691SOL     OW20971   3.188   2.068   2.391
 6691SOL    HW120972   3.185   2.097   2.486
 6691SOL    HW220973   3.117   2.116   2.339
 6692SOL     OW20974   3.995   5.461   2.226
 6692SOL    HW120975   3.998   5.377   2.281
 6692SOL    HW220976   4.010   5.540   2.285
 6693SOL     OW20977   3.320   1.533   5.184
 6693SOL    HW120978   3.358   1.441   5.171
 6693SOL    HW220979   3.378   1.584   5.247
 6694SOL     OW20980   3.352   4.062   1.689
 6694SOL    HW120981   3.301   4.136   1.644
 6694SOL    HW220982   3.320   4.052   1.783
 6695SOL     OW20983   2.662   2.029   0.598
 6695SOL    HW120984   2.602   2.000   0.673
 6695SOL    HW220985   2.610   2.027   0.512
 6696SOL     OW20986   3.871   3.010   4.342
 6696SOL    HW120987   3.970   3.019   4.351
 6696SOL    HW220988   3.848   2.982   4.249
 6697SOL     OW20989   4.314   2.289   2.111
 6697SOL    HW120990   4.385   2.315   2.177
 6697SOL    HW220991   4.353   2.227   2.043
 6698SOL     OW20992   3.218   4.303   1.621
 6698SOL    HW120993   3.204   4.333   1.526
 6698SOL    HW220994   3.287   4.362   1.664
 6699SOL     OW20995   1.249   4.194   5.378
 6699SOL    HW120996   1.236   4.153   5.468
 6699SOL    HW220997   1.233   4.293   5.384
 6700SOL     OW20998   5.745   0.436   0.357
 6700SOL    HW120999   5.842   0.454   0.345
 6700SOL    HW221000   5.719   0.356   0.303
 6701SOL     OW21001   6.275   6.991   1.557
 6701SOL    HW121002   6.303   6.920   1.493
 6701SOL    HW221003   6.201   0.027   1.517
 6702SOL     OW21004   3.364   2.831   1.090
 6702SOL    HW121005   3.313   2.763   1.037
 6702SOL    HW221006   3.301   2.898   1.128
 6703SOL     OW21007   6.957   1.486   0.450
 6703SOL    HW121008   6.927   1.532   0.367
 6703SOL    HW221009   6.926   1.391   0.450
 6704SOL     OW21010   3.144   6.692   5.987
 6704SOL    HW121011   3.187   6.618   5.935
 6704SOL    HW221012   3.067   6.729   5.934
 6705SOL     OW21013   0.150   4.447   2.463
 6705SOL    HW121014   0.127   4.365   2.515
 6705SOL    HW221015   0.229   4.492   2.506
 6706SOL     OW21016   0.281   6.458   1.495
 6706SOL    HW121017   0.196   6.464   1.548
 6706SOL    HW221018   0.297   6.544   1.447
 6707SOL     OW21019   5.046   1.261   2.254
 6707SOL    HW121020   5.082   1.224   2.340
 6707SOL    HW221021   5.119   1.311   2.207
 6708SOL     OW21022   0.953   3.952   0.673
 6708SOL    HW121023   0.874   3.923   0.727
 6708SOL    HW221024   1.025   3.983   0.735
 6709SOL     OW21025   2.223   4.087   2.362
 6709SOL    HW121026   2.178   3.998   2.362
 6709SOL    HW221027   2.307   4.083   2.307
 6710SOL     OW21028   4.814   1.528   0.752
 6710SOL    HW121029   4.874   1.464   0.704
 6710SOL    HW221030   4.729   1.481   0.777
 6711SOL     OW21031   3.184   5.973   6.526
 6711SOL    HW121032   3.259   5.935   6.580
 6711SOL    HW221033   3.152   5.904   6.460
 6712SOL     OW21034   5.672   4.015   1.600
 6712SOL    HW121035   5.687   3.922   1.634
 6712SOL    HW221036   5.574   4.029   1.584
 6713SOL     OW21037   1.591   5.078   4.467
 6713SOL    HW121038   1.620   5.077   4.563
 6713SOL    HW221039   1.616   4.992   4.424
 6714SOL     OW21040   5.133   1.202   1.462
 6714SOL    HW121041   5.078   1.285   1.455
 6714SOL    HW221042   5.177   1.184   1.374
 6715SOL     OW21043   1.778   0.463   6.630
 6715SOL    HW121044   1.839   0.535   6.600
 6715SOL    HW221045   1.759   0.401   6.554
 6716SOL     OW21046   6.731   6.120   2.521
 6716SOL    HW121047   6.763   6.149   2.611
 6716SOL    HW221048   6.799   6.144   2.452
 6717SOL     OW21049   5.831   1.907   5.927
 6717SOL    HW121050   5.892   1.918   6.006
 6717SOL    HW221051   5.743   1.951   5.946
 6718SOL     OW21052   4.379   1.457   0.993
 6718SOL    HW121053   4.348   1.430   1.084
 6718SOL    HW221054   4.306   1.509   0.947
 6719SOL     OW21055   1.907   1.292   6.884
 6719SOL    HW121056   1.897   1.194   6.864
 6719SOL    HW221057   1.996   1.308   6.928
 6720SOL     OW21058   1.717   0.899   6.267
 6720SOL    HW121059   1.803   0.872   6.225
 6720SOL    HW221060   1.712   0.999   6.272
 6721SOL     OW21061   5.993   0.652   0.806
 6721SOL    HW121062   5.927   0.624   0.737
 6721SOL    HW221063   6.018   0.573   0.862
 6722SOL     OW21064   5.578   3.674   0.210
 6722SOL    HW121065   5.545   3.682   0.116
 6722SOL    HW221066   5.514   3.721   0.271
 6723SOL     OW21067   1.087   2.534   5.667
 6723SOL    HW121068   1.036   2.478   5.603
 6723SOL    HW221069   1.030   2.610   5.698
 6724SOL     OW21070   2.106   3.566   4.292
 6724SOL    HW121071   2.191   3.617   4.285
 6724SOL    HW221072   2.095   3.508   4.211
 6725SOL     OW21073   5.128   2.641   3.110
 6725SOL    HW121074   5.066   2.704   3.062
 6725SOL    HW221075   5.185   2.594   3.042
 6726SOL     OW21076   0.431   0.400   5.457
 6726SOL    HW121077   0.404   0.339   5.382
 6726SOL    HW221078   0.529   0.392   5.473
 6727SOL     OW21079   1.516   5.104   5.428
 6727SOL    HW121080   1.501   5.168   5.503
 6727SOL    HW221081   1.520   5.011   5.464
 6728SOL     OW21082   3.611   1.492   2.691
 6728SOL    HW121083   3.571   1.417   2.744
 6728SOL    HW221084   3.541   1.535   2.634
 6729SOL     OW21085   4.283   1.179   2.234
 6729SOL    HW121086   4.239   1.204   2.148
 6729SOL    HW221087   4.341   1.254   2.265
 6730SOL     OW21088   0.153   1.359   0.835
 6730SOL    HW121089   0.089   1.405   0.774
 6730SOL    HW221090   0.203   1.289   0.783
 6731SOL     OW21091   3.565   0.029   6.205
 6731SOL    HW121092   3.593   0.124   6.191
 6731SOL    HW221093   3.511   0.022   6.289
 6732SOL     OW21094   6.541   5.404   5.348
 6732SOL    HW121095   6.545   5.316   5.396
 6732SOL    HW221096   6.524   5.387   5.251
 6733SOL     OW21097   4.734   4.355   5.957
 6733SOL    HW121098   4.651   4.361   6.012
 6733SOL    HW221099   4.712   4.369   5.860
 6734SOL     OW21100   6.149   1.941   4.270
 6734SOL    HW121101   6.227   1.881   4.286
 6734SOL    HW221102   6.176   2.019   4.214
 6735SOL     OW21103   6.565   2.676   3.182
 6735SOL    HW121104   6.475   2.653   3.146
 6735SOL    HW221105   6.636   2.634   3.126
 6736SOL     OW21106   3.597   3.601   0.562
 6736SOL    HW121107   3.601   3.697   0.589
 6736SOL    HW221108   3.591   3.544   0.644
 6737SOL     OW21109   6.775   3.662   0.186
 6737SOL    HW121110   6.771   3.762   0.195
 6737SOL    HW221111   6.727   3.634   0.103
 6738SOL     OW21112   1.191   6.342   3.832
 6738SOL    HW121113   1.283   6.327   3.799
 6738SOL    HW221114   1.189   6.333   3.932
 6739SOL     OW21115   6.894   6.992   5.007
 6739SOL    HW121116   6.877   6.902   4.967
 6739SOL    HW221117   6.972   0.017   4.962
 6740SOL     OW21118   0.321   6.682   3.121
 6740SOL    HW121119   0.387   6.610   3.099
 6740SOL    HW221120   0.327   6.754   3.051
 6741SOL     OW21121   4.124   1.831   6.809
 6741SOL    HW121122   4.215   1.799   6.782
 6741SOL    HW221123   4.098   1.789   6.896
 6742SOL     OW21124   5.686   4.608   3.612
 6742SOL    HW121125   5.669   4.706   3.600
 6742SOL    HW221126   5.602   4.564   3.643
 6743SOL     OW21127   4.093   3.796   0.690
 6743SOL    HW121128   4.126   3.756   0.775
 6743SOL    HW221129   4.165   3.854   0.651
 6744SOL     OW21130   6.441   6.883   6.127
 6744SOL    HW121131   6.495   6.853   6.206
 6744SOL    HW221132   6.415   6.804   6.073
 6745SOL     OW21133   0.368   4.515   5.557
 6745SOL    HW121134   0.431   4.577   5.510
 6745SOL    HW221135   0.378   4.422   5.521
 6746SOL     OW21136   0.732   1.930   2.608
 6746SOL    HW121137   0.770   2.014   2.569
 6746SOL    HW221138   0.805   1.875   2.647
 6747SOL     OW21139   1.801   6.199   5.771
 6747SOL    HW121140   1.780   6.218   5.867
 6747SOL    HW221141   1.895   6.166   5.763
 6748SOL     OW21142   2.239   1.064   4.582
 6748SOL    HW121143   2.214   0.996   4.651
 6748SOL    HW221144   2.205   1.036   4.493
 6749SOL     OW21145   4.082   5.148   1.989
 6749SOL    HW121146   4.011   5.178   1.925
 6749SOL    HW221147   4.042   5.142   2.081
 6750SOL     OW21148   3.884   1.416   5.459
 6750SOL    HW121149   3.921   1.324   5.472
 6750SOL    HW221150   3.784   1.411   5.452
 6751SOL     OW21151   4.821   6.931   4.042
 6751SOL    HW121152   4.830   0.011   4.062
 6751SOL    HW221153   4.911   6.892   4.028
 6752SOL     OW21154   2.017   4.729   2.092
 6752SOL    HW121155   2.066   4.657   2.141
 6752SOL    HW221156   2.072   4.760   2.015
 6753SOL     OW21157   3.769   3.289   5.589
 6753SOL    HW121158   3.852   3.307   5.642
 6753SOL    HW221159   3.706   3.366   5.599
 6754SOL     OW21160   6.555   1.444   0.741
 6754SOL    HW121161   6.557   1.492   0.829
 6754SOL    HW221162   6.478   1.478   0.687
 6755SOL     OW21163   2.841   5.658   6.483
 6755SOL    HW121164   2.895   5.742   6.486
 6755SOL    HW221165   2.861   5.608   6.398
 6756SOL     OW21166   2.630   2.036   5.854
 6756SOL    HW121167   2.657   1.975   5.779
 6756SOL    HW221168   2.598   2.123   5.816
 6757SOL     OW21169   4.077   6.811   0.466
 6757SOL    HW121170   4.002   6.878   0.463
 6757SOL    HW221171   4.161   6.856   0.493
 6758SOL     OW21172   5.170   1.702   3.357
 6758SOL    HW121173   5.246   1.739   3.411
 6758SOL    HW221174   5.181   1.603   3.346
 6759SOL     OW21175   0.091   2.289   2.506
 6759SOL    HW121176   0.025   2.308   2.433
 6759SOL    HW221177   0.124   2.195   2.497
 6760SOL     OW21178   4.952   2.725   4.234
 6760SOL    HW121179   4.975   2.629   4.223
 6760SOL    HW221180   4.873   2.747   4.177
 6761SOL     OW21181   4.185   1.695   4.667
 6761SOL    HW121182   4.145   1.767   4.611
 6761SOL    HW221183   4.281   1.683   4.641
 6762SOL     OW21184   6.587   5.713   3.933
 6762SOL    HW121185   6.624   5.779   3.869
 6762SOL    HW221186   6.579   5.755   4.024
 6763SOL     OW21187   5.293   5.438   5.113
 6763SOL    HW121188   5.390   5.461   5.106
 6763SOL    HW221189   5.248   5.453   5.025
 6764SOL     OW21190   1.450   5.263   0.663
 6764SOL    HW121191   1.518   5.245   0.734
 6764SOL    HW221192   1.492   5.253   0.573
 6765SOL     OW21193   0.228   4.829   2.968
 6765SOL    HW121194   0.199   4.925   2.964
 6765SOL    HW221195   0.327   4.825   2.978
 6766SOL     OW21196   6.065   0.767   1.078
 6766SOL    HW121197   6.117   0.754   1.163
 6766SOL    HW221198   6.104   0.711   1.006
 6767SOL     OW21199   3.071   0.844   0.602
 6767SOL    HW121200   3.055   0.776   0.531
 6767SOL    HW221201   3.000   0.835   0.673
 6768SOL     OW21202   2.054   0.743   0.646
 6768SOL    HW121203   2.087   0.790   0.564
 6768SOL    HW221204   2.046   0.645   0.628
 6769SOL     OW21205   4.077   3.018   1.647
 6769SOL    HW121206   4.159   3.059   1.689
 6769SOL    HW221207   4.035   3.084   1.585
 6770SOL     OW21208   0.502   0.156   1.713
 6770SOL    HW121209   0.435   0.158   1.787
 6770SOL    HW221210   0.587   0.116   1.747
 6771SOL     OW21211   4.197   2.304   3.089
 6771SOL    HW121212   4.233   2.385   3.136
 6771SOL    HW221213   4.114   2.273   3.135
 6772SOL     OW21214   3.309   1.662   2.998
 6772SOL    HW121215   3.243   1.591   3.023
 6772SOL    HW221216   3.321   1.662   2.898
 6773SOL     OW21217   0.596   4.168   2.038
 6773SOL    HW121218   0.607   4.119   1.952
 6773SOL    HW221219   0.684   4.173   2.086
 6774SOL     OW21220   0.543   1.787   6.596
 6774SOL    HW121221   0.554   1.772   6.694
 6774SOL    HW221222   0.508   1.704   6.553
 6775SOL     OW21223   2.678   4.845   0.296
 6775SOL    HW121224   2.751   4.810   0.237
 6775SOL    HW221225   2.669   4.786   0.376
 6776SOL     OW21226   6.102   5.711   6.957
 6776SOL    HW121227   6.107   5.665   0.028
 6776SOL    HW221228   6.043   5.658   6.896
 6777SOL     OW21229   5.006   4.738   6.565
 6777SOL    HW121230   5.007   4.815   6.502
 6777SOL    HW221231   5.049   4.658   6.522
 6778SOL     OW21232   0.757   6.013   2.786
 6778SOL    HW121233   0.710   5.956   2.854
 6778SOL    HW221234   0.784   6.100   2.828
 6779SOL     OW21235   0.373   4.014   0.210
 6779SOL    HW121236   0.300   4.067   0.253
 6779SOL    HW221237   0.380   3.924   0.254
 6780SOL     OW21238   0.191   2.835   1.927
 6780SOL    HW121239   0.110   2.854   1.872
 6780SOL    HW221240   0.191   2.894   2.008
 6781SOL     OW21241   5.836   4.949   5.835
 6781SOL    HW121242   5.751   4.936   5.886
 6781SOL    HW221243   5.893   4.868   5.842
 6782SOL     OW21244   6.495   1.564   2.930
 6782SOL    HW121245   6.490   1.486   2.992
 6782SOL    HW221246   6.464   1.536   2.839
 6783SOL     OW21247   0.316   5.979   6.590
 6783SOL    HW121248   0.383   5.942   6.655
 6783SOL    HW221249   0.353   5.973   6.497
 6784SOL     OW21250   3.277   2.998   0.246
 6784SOL    HW121251   3.366   3.013   0.202
 6784SOL    HW221252   3.285   3.015   0.344
 6785SOL     OW21253   5.708   6.345   2.434
 6785SOL    HW121254   5.673   6.347   2.340
 6785SOL    HW221255   5.716   6.438   2.469
 6786SOL     OW21256   2.327   3.054   5.861
 6786SOL    HW121257   2.272   3.098   5.791
 6786SOL    HW221258   2.420   3.039   5.826
 6787SOL     OW21259   1.474   3.908   2.317
 6787SOL    HW121260   1.538   3.844   2.275
 6787SOL    HW221261   1.383   3.867   2.322
 6788SOL     OW21262   2.896   3.659   0.896
 6788SOL    HW121263   2.863   3.624   0.984
 6788SOL    HW221264   2.931   3.584   0.841
 6789SOL     OW21265   0.472   6.607   2.495
 6789SOL    HW121266   0.506   6.607   2.589
 6789SOL    HW221267   0.464   6.701   2.462
 6790SOL     OW21268   1.806   2.922   0.226
 6790SOL    HW121269   1.744   2.884   0.296
 6790SOL    HW221270   1.758   2.926   0.139
 6791SOL     OW21271   4.569   3.550   6.195
 6791SOL    HW121272   4.510   3.503   6.260
 6791SOL    HW221273   4.571   3.499   6.108
 6792SOL     OW21274   6.886   5.650   1.037
 6792SOL    HW121275   6.858   5.581   0.971
 6792SOL    HW221276   6.822   5.651   1.114
 6793SOL     OW21277   6.764   2.226   1.683
 6793SOL    HW121278   6.712   2.234   1.598
 6793SOL    HW221279   6.860   2.249   1.665
 6794SOL     OW21280   4.843   1.329   5.536
 6794SOL    HW121281   4.748   1.333   5.505
 6794SOL    HW221282   4.905   1.334   5.457
 6795SOL     OW21283   3.168   5.818   6.917
 6795SOL    HW121284   3.239   5.873   6.961
 6795SOL    HW221285   3.204   5.726   6.899
 6796SOL     OW21286   4.771   2.019   2.976
 6796SOL    HW121287   4.845   1.952   2.967
 6796SOL    HW221288   4.683   1.971   2.976
 6797SOL     OW21289   6.021   3.310   2.576
 6797SOL    HW121290   5.930   3.352   2.572
 6797SOL    HW221291   6.079   3.352   2.507
 6798SOL     OW21292   6.176   6.391   2.538
 6798SOL    HW121293   6.129   6.419   2.622
 6798SOL    HW221294   6.113   6.342   2.479
 6799SOL     OW21295   5.238   6.147   0.688
 6799SOL    HW121296   5.140   6.169   0.688
 6799SOL    HW221297   5.280   6.186   0.606
 6800SOL     OW21298   2.510   4.727   6.868
 6800SOL    HW121299   2.453   4.721   6.786
 6800SOL    HW221300   2.464   4.680   6.944
 6801SOL     OW21301   1.725   1.905   2.498
 6801SOL    HW121302   1.725   1.820   2.445
 6801SOL    HW221303   1.660   1.970   2.458
 6802SOL     OW21304   2.342   6.126   2.286
 6802SOL    HW121305   2.288   6.081   2.215
 6802SOL    HW221306   2.399   6.058   2.332
 6803SOL     OW21307   5.526   1.812   0.047
 6803SOL    HW121308   5.565   1.734   0.095
 6803SOL    HW221309   5.483   1.875   0.112
 6804SOL     OW21310   1.707   6.349   3.590
 6804SOL    HW121311   1.722   6.355   3.491
 6804SOL    HW221312   1.709   6.440   3.630
 6805SOL     OW21313   5.829   0.383   4.795
 6805SOL    HW121314   5.811   0.438   4.713
 6805SOL    HW221315   5.917   0.336   4.784
 6806SOL     OW21316   4.551   1.085   5.741
 6806SOL    HW121317   4.599   0.999   5.725
 6806SOL    HW221318   4.478   1.096   5.674
 6807SOL     OW21319   2.874   3.008   0.623
 6807SOL    HW121320   2.881   2.937   0.552
 6807SOL    HW221321   2.851   3.095   0.581
 6808SOL     OW21322   1.113   3.162   5.409
 6808SOL    HW121323   1.175   3.182   5.485
 6808SOL    HW221324   1.146   3.208   5.327
 6809SOL     OW21325   2.174   3.500   6.518
 6809SOL    HW121326   2.184   3.415   6.467
 6809SOL    HW221327   2.164   3.480   6.615
 6810SOL     OW21328   6.250   1.449   2.144
 6810SOL    HW121329   6.349   1.432   2.148
 6810SOL    HW221330   6.201   1.367   2.172
 6811SOL     OW21331   5.689   5.310   1.895
 6811SOL    HW121332   5.777   5.277   1.929
 6811SOL    HW221333   5.660   5.253   1.818
 6812SOL     OW21334   3.456   3.582   3.218
 6812SOL    HW121335   3.498   3.514   3.158
 6812SOL    HW221336   3.482   3.564   3.313
 6813SOL     OW21337   4.267   3.307   0.822
 6813SOL    HW121338   4.261   3.208   0.832
 6813SOL    HW221339   4.284   3.330   0.726
 6814SOL     OW21340   2.196   3.365   0.755
 6814SOL    HW121341   2.120   3.305   0.727
 6814SOL    HW221342   2.282   3.328   0.718
 6815SOL     OW21343   1.929   0.405   2.005
 6815SOL    HW121344   1.847   0.460   1.993
 6815SOL    HW221345   1.993   0.452   2.065
 6816SOL     OW21346   6.572   4.473   1.292
 6816SOL    HW121347   6.477   4.503   1.306
 6816SOL    HW221348   6.574   4.374   1.282
 6817SOL     OW21349   0.040   1.543   5.973
 6817SOL    HW121350   0.092   1.546   6.058
 6817SOL    HW221351   0.085   1.600   5.904
 6818SOL     OW21352   3.629   6.256   2.839
 6818SOL    HW121353   3.622   6.289   2.933
 6818SOL    HW221354   3.725   6.257   2.811
 6819SOL     OW21355   3.044   1.586   3.884
 6819SOL    HW121356   2.963   1.642   3.864
 6819SOL    HW221357   3.088   1.561   3.798
 6820SOL     OW21358   0.842   4.672   3.525
 6820SOL    HW121359   0.800   4.762   3.521
 6820SOL    HW221360   0.776   4.603   3.495
 6821SOL     OW21361   2.846   1.953   4.602
 6821SOL    HW121362   2.923   2.017   4.605
 6821SOL    HW221363   2.781   1.976   4.674
 6822SOL     OW21364   5.373   1.974   5.873
 6822SOL    HW121365   5.421   1.967   5.786
 6822SOL    HW221366   5.313   2.055   5.871
 6823SOL     OW21367   2.973   3.546   3.034
 6823SOL    HW121368   3.046   3.579   3.095
 6823SOL    HW221369   3.009   3.537   2.941
 6824SOL     OW21370   1.004   3.768   6.735
 6824SOL    HW121371   0.982   3.760   6.637
 6824SOL    HW221372   0.970   3.856   6.769
 6825SOL     OW21373   5.136   0.360   2.887
 6825SOL    HW121374   5.216   0.392   2.836
 6825SOL    HW221375   5.053   0.379   2.836
 6826SOL     OW21376   1.601   3.026   2.831
 6826SOL    HW121377   1.546   3.041   2.749
 6826SOL    HW221378   1.543   2.988   2.904
 6827SOL     OW21379   5.770   5.417   5.293
 6827SOL    HW121380   5.751   5.366   5.377
 6827SOL    HW221381   5.810   5.505   5.316
 6828SOL     OW21382   1.532   2.676   1.207
 6828SOL    HW121383   1.462   2.693   1.137
 6828SOL    HW221384   1.618   2.651   1.163
 6829SOL     OW21385   4.736   5.776   3.937
 6829SOL    HW121386   4.727   5.679   3.913
 6829SOL    HW221387   4.819   5.790   3.991
 6830SOL     OW21388   5.691   2.516   4.067
 6830SOL    HW121389   5.623   2.589   4.072
 6830SOL    HW221390   5.661   2.439   4.124
 6831SOL     OW21391   0.450   0.908   5.922
 6831SOL    HW121392   0.508   0.980   5.958
 6831SOL    HW221393   0.502   0.823   5.915
 6832SOL     OW21394   2.843   5.263   2.258
 6832SOL    HW121395   2.864   5.186   2.197
 6832SOL    HW221396   2.923   5.322   2.265
 6833SOL     OW21397   3.988   5.072   0.315
 6833SOL    HW121398   3.951   5.022   0.237
 6833SOL    HW221399   3.919   5.135   0.350
 6834SOL     OW21400   3.646   5.485   2.250
 6834SOL    HW121401   3.705   5.558   2.218
 6834SOL    HW221402   3.567   5.524   2.298
 6835SOL     OW21403   3.792   0.056   4.887
 6835SOL    HW121404   3.882   0.071   4.849
 6835SOL    HW221405   3.756   6.986   4.855
 6836SOL     OW21406   3.650   6.315   0.103
 6836SOL    HW121407   3.696   6.244   0.156
 6836SOL    HW221408   3.600   6.272   0.028
 6837SOL     OW21409   1.653   3.183   1.937
 6837SOL    HW121410   1.659   3.160   2.034
 6837SOL    HW221411   1.688   3.276   1.923
 6838SOL     OW21412   2.259   1.480   6.689
 6838SOL    HW121413   2.313   1.464   6.606
 6838SOL    HW221414   2.314   1.532   6.755
 6839SOL     OW21415   4.487   1.135   1.020
 6839SOL    HW121416   4.552   1.193   0.973
 6839SOL    HW221417   4.394   1.154   0.987
 6840SOL     OW21418   0.910   1.942   6.269
 6840SOL    HW121419   0.986   1.906   6.322
 6840SOL    HW221420   0.827   1.941   6.325
 6841SOL     OW21421   6.412   3.561   6.435
 6841SOL    HW121422   6.364   3.475   6.450
 6841SOL    HW221423   6.425   3.576   6.336
 6842SOL     OW21424   2.031   4.538   2.850
 6842SOL    HW121425   2.010   4.477   2.927
 6842SOL    HW221426   2.040   4.484   2.767
 6843SOL     OW21427   4.676   6.454   6.849
 6843SOL    HW121428   4.758   6.498   6.885
 6843SOL    HW221429   4.703   6.378   6.789
 6844SOL     OW21430   5.353   0.710   5.704
 6844SOL    HW121431   5.337   0.756   5.791
 6844SOL    HW221432   5.409   0.769   5.645
 6845SOL     OW21433   5.113   1.669   2.168
 6845SOL    HW121434   5.102   1.653   2.265
 6845SOL    HW221435   5.051   1.611   2.116
 6846SOL     OW21436   2.329   3.958   7.004
 6846SOL    HW121437   2.423   3.985   6.983
 6846SOL    HW221438   2.280   3.941   6.918
 6847SOL     OW21439   6.525   3.298   4.141
 6847SOL    HW121440   6.501   3.343   4.055
 6847SOL    HW221441   6.486   3.350   4.218
 6848SOL     OW21442   5.885   4.635   3.336
 6848SOL    HW121443   5.923   4.543   3.329
 6848SOL    HW221444   5.902   4.684   3.250
 6849SOL     OW21445   3.482   4.152   6.770
 6849SOL    HW121446   3.415   4.079   6.761
 6849SOL    HW221447   3.541   4.134   6.849
 6850SOL     OW21448   4.139   1.849   3.958
 6850SOL    HW121449   4.163   1.759   3.994
 6850SOL    HW221450   4.081   1.839   3.877
 6851SOL     OW21451   2.127   3.237   3.808
 6851SOL    HW121452   2.075   3.322   3.800
 6851SOL    HW221453   2.087   3.180   3.879
 6852SOL     OW21454   2.812   5.055   0.419
 6852SOL    HW121455   2.768   4.981   0.367
 6852SOL    HW221456   2.743   5.100   0.476
 6853SOL     OW21457   4.855   3.243   6.968
 6853SOL    HW121458   4.804   3.291   6.897
 6853SOL    HW221459   4.931   3.300   6.998
 6854SOL     OW21460   5.656   5.831   6.400
 6854SOL    HW121461   5.702   5.779   6.328
 6854SOL    HW221462   5.557   5.817   6.393
 6855SOL     OW21463   3.952   5.270   3.484
 6855SOL    HW121464   3.857   5.298   3.468
 6855SOL    HW221465   4.004   5.348   3.520
 6856SOL     OW21466   0.840   1.626   6.767
 6856SOL    HW121467   0.876   1.680   6.691
 6856SOL    HW221468   0.747   1.656   6.788
 6857SOL     OW21469   0.674   3.931   4.996
 6857SOL    HW121470   0.651   3.835   5.013
 6857SOL    HW221471   0.694   3.944   4.899
 6858SOL     OW21472   2.456   3.832   1.717
 6858SOL    HW121473   2.421   3.891   1.789
 6858SOL    HW221474   2.556   3.834   1.718
 6859SOL     OW21475   1.097   1.439   2.250
 6859SOL    HW121476   1.138   1.431   2.340
 6859SOL    HW221477   1.127   1.524   2.207
 6860SOL     OW21478   0.889   6.400   1.959
 6860SOL    HW121479   0.971   6.378   2.012
 6860SOL    HW221480   0.827   6.454   2.014
 6861SOL     OW21481   5.731   2.694   5.059
 6861SOL    HW121482   5.638   2.656   5.064
 6861SOL    HW221483   5.728   2.789   5.030
 6862SOL     OW21484   0.878   4.433   5.062
 6862SOL    HW121485   0.797   4.384   5.030
 6862SOL    HW221486   0.850   4.516   5.109
 6863SOL     OW21487   6.046   0.614   5.636
 6863SOL    HW121488   6.085   0.522   5.633
 6863SOL    HW221489   5.949   0.610   5.612
 6864SOL     OW21490   1.393   3.462   6.083
 6864SOL    HW121491   1.444   3.384   6.119
 6864SOL    HW221492   1.321   3.487   6.148
 6865SOL     OW21493   2.260   6.739   3.697
 6865SOL    HW121494   2.332   6.769   3.760
 6865SOL    HW221495   2.199   6.815   3.677
 6866SOL     OW21496   1.069   4.514   0.898
 6866SOL    HW121497   0.975   4.490   0.923
 6866SOL    HW221498   1.116   4.555   0.976
 6867SOL     OW21499   2.152   3.928   6.808
 6867SOL    HW121500   2.114   3.926   6.716
 6867SOL    HW221501   2.079   3.935   6.875
 6868SOL     OW21502   2.357   5.051   4.167
 6868SOL    HW121503   2.269   5.089   4.138
 6868SOL    HW221504   2.387   4.983   4.100
 6869SOL     OW21505   3.290   0.817   6.312
 6869SOL    HW121506   3.197   0.853   6.319
 6869SOL    HW221507   3.349   0.886   6.269
 6870SOL     OW21508   6.318   2.449   0.751
 6870SOL    HW121509   6.388   2.500   0.703
 6870SOL    HW221510   6.360   2.376   0.805
 6871SOL     OW21511   0.542   3.991   2.323
 6871SOL    HW121512   0.551   4.090   2.337
 6871SOL    HW221513   0.466   3.973   2.260
 6872SOL     OW21514   1.595   3.843   0.597
 6872SOL    HW121515   1.607   3.819   0.501
 6872SOL    HW221516   1.645   3.778   0.654
 6873SOL     OW21517   0.780   4.698   3.835
 6873SOL    HW121518   0.718   4.772   3.862
 6873SOL    HW221519   0.776   4.685   3.736
 6874SOL     OW21520   5.282   6.388   3.374
 6874SOL    HW121521   5.304   6.483   3.395
 6874SOL    HW221522   5.344   6.354   3.303
 6875SOL     OW21523   2.348   1.873   6.865
 6875SOL    HW121524   2.271   1.912   6.814
 6875SOL    HW221525   2.356   1.776   6.843
 6876SOL     OW21526   4.926   5.136   3.808
 6876SOL    HW121527   4.846   5.181   3.769
 6876SOL    HW221528   4.961   5.190   3.884
 6877SOL     OW21529   1.428   3.732   2.607
 6877SOL    HW121530   1.481   3.683   2.537
 6877SOL    HW221531   1.409   3.825   2.575
 6878SOL     OW21532   2.082   0.559   4.453
 6878SOL    HW121533   2.001   0.561   4.512
 6878SOL    HW221534   2.096   0.467   4.417
 6879SOL     OW21535   2.223   1.678   0.636
 6879SOL    HW121536   2.215   1.677   0.736
 6879SOL    HW221537   2.301   1.735   0.610
 6880SOL     OW21538   1.615   5.243   6.503
 6880SOL    HW121539   1.609   5.144   6.513
 6880SOL    HW221540   1.566   5.271   6.421
 6881SOL     OW21541   0.836   2.737   0.536
 6881SOL    HW121542   0.820   2.638   0.530
 6881SOL    HW221543   0.749   2.785   0.525
 6882SOL     OW21544   2.769   6.621   6.377
 6882SOL    HW121545   2.763   6.531   6.420
 6882SOL    HW221546   2.848   6.624   6.315
 6883SOL     OW21547   5.048   0.528   0.308
 6883SOL    HW121548   4.986   0.518   0.386
 6883SOL    HW221549   5.001   0.503   0.224
 6884SOL     OW21550   2.230   4.134   2.924
 6884SOL    HW121551   2.136   4.133   2.958
 6884SOL    HW221552   2.231   4.108   2.827
 6885SOL     OW21553   5.569   5.515   5.052
 6885SOL    HW121554   5.614   5.585   5.107
 6885SOL    HW221555   5.621   5.429   5.056
 6886SOL     OW21556   5.026   1.521   7.007
 6886SOL    HW121557   5.006   1.616   6.983
 6886SOL    HW221558   5.107   1.490   6.957
 6887SOL     OW21559   5.674   5.847   6.012
 6887SOL    HW121560   5.575   5.840   6.022
 6887SOL    HW221561   5.718   5.771   6.060
 6888SOL     OW21562   6.238   4.948   6.397
 6888SOL    HW121563   6.210   4.996   6.315
 6888SOL    HW221564   6.159   4.931   6.455
 6889SOL     OW21565   6.985   2.345   6.741
 6889SOL    HW121566   0.014   2.274   6.688
 6889SOL    HW221567   6.917   2.389   6.683
 6890SOL     OW21568   4.697   4.534   3.061
 6890SOL    HW121569   4.637   4.527   3.141
 6890SOL    HW221570   4.782   4.580   3.088
 6891SOL     OW21571   1.636   1.352   0.697
 6891SOL    HW121572   1.668   1.272   0.748
 6891SOL    HW221573   1.566   1.399   0.751
 6892SOL     OW21574   2.978   0.803   4.744
 6892SOL    HW121575   3.000   0.806   4.646
 6892SOL    HW221576   3.054   0.841   4.797
 6893SOL     OW21577   5.778   3.133   0.807
 6893SOL    HW121578   5.739   3.124   0.715
 6893SOL    HW221579   5.739   3.212   0.853
 6894SOL     OW21580   5.733   5.523   0.179
 6894SOL    HW121581   5.782   5.601   0.139
 6894SOL    HW221582   5.797   5.467   0.232
 6895SOL     OW21583   0.534   6.354   1.602
 6895SOL    HW121584   0.438   6.359   1.575
 6895SOL    HW221585   0.540   6.357   1.702
 6896SOL     OW21586   4.590   1.305   4.536
 6896SOL    HW121587   4.657   1.241   4.498
 6896SOL    HW221588   4.590   1.389   4.482
 6897SOL     OW21589   4.934   3.369   5.046
 6897SOL    HW121590   4.893   3.317   5.121
 6897SOL    HW221591   4.885   3.456   5.037
 6898SOL     OW21592   1.894   6.993   1.294
 6898SOL    HW121593   1.820   6.995   1.362
 6898SOL    HW221594   1.861   6.947   1.211
 6899SOL     OW21595   6.475   6.025   2.117
 6899SOL    HW121596   6.550   6.024   2.051
 6899SOL    HW221597   6.499   6.087   2.193
 6900SOL     OW21598   6.061   3.699   5.435
 6900SOL    HW121599   5.985   3.652   5.391
 6900SOL    HW221600   6.090   3.648   5.516
 6901SOL     OW21601   5.071   4.392   6.882
 6901SOL    HW121602   5.002   4.436   6.824
 6901SOL    HW221603   5.162   4.425   6.857
 6902SOL     OW21604   1.099   6.116   5.793
 6902SOL    HW121605   1.187   6.102   5.838
 6902SOL    HW221606   1.034   6.047   5.824
 6903SOL     OW21607   1.511   5.805   4.549
 6903SOL    HW121608   1.513   5.818   4.648
 6903SOL    HW221609   1.428   5.756   4.524
 6904SOL     OW21610   6.582   6.838   4.956
 6904SOL    HW121611   6.551   6.909   5.018
 6904SOL    HW221612   6.530   6.754   4.972
 6905SOL     OW21613   4.898   6.198   6.049
 6905SOL    HW121614   4.995   6.179   6.057
 6905SOL    HW221615   4.857   6.135   5.982
 6906SOL     OW21616   3.475   2.001   3.534
 6906SOL    HW121617   3.400   2.066   3.530
 6906SOL    HW221618   3.474   1.953   3.621
 6907SOL     OW21619   6.102   2.387   0.595
 6907SOL    HW121620   6.173   2.395   0.665
 6907SOL    HW221621   6.050   2.472   0.590
 6908SOL     OW21622   2.794   4.545   0.714
 6908SOL    HW121623   2.853   4.479   0.668
 6908SOL    HW221624   2.734   4.498   0.779
 6909SOL     OW21625   6.452   5.434   2.329
 6909SOL    HW121626   6.507   5.504   2.284
 6909SOL    HW221627   6.372   5.476   2.372
 6910SOL     OW21628   1.795   2.785   2.828
 6910SOL    HW121629   1.850   2.859   2.866
 6910SOL    HW221630   1.702   2.789   2.866
 6911SOL     OW21631   2.085   6.931   5.341
 6911SOL    HW121632   2.054   6.980   5.260
 6911SOL    HW221633   2.039   6.842   5.346
 6912SOL     OW21634   2.502   3.680   6.888
 6912SOL    HW121635   2.471   3.688   6.982
 6912SOL    HW221636   2.525   3.770   6.852
 6913SOL     OW21637   5.253   6.339   6.272
 6913SOL    HW121638   5.216   6.280   6.200
 6913SOL    HW221639   5.196   6.421   6.279
 6914SOL     OW21640   6.309   2.996   2.878
 6914SOL    HW121641   6.288   2.928   2.948
 6914SOL    HW221642   6.226   3.015   2.824
 6915SOL     OW21643   6.747   3.533   3.663
 6915SOL    HW121644   6.806   3.456   3.688
 6915SOL    HW221645   6.788   3.582   3.585
 6916SOL     OW21646   5.128   5.964   6.703
 6916SOL    HW121647   5.114   5.940   6.799
 6916SOL    HW221648   5.221   5.939   6.675
 6917SOL     OW21649   5.106   5.989   1.507
 6917SOL    HW121650   5.047   6.055   1.460
 6917SOL    HW221651   5.110   5.904   1.454
 6918SOL     OW21652   2.556   3.026   1.063
 6918SOL    HW121653   2.495   3.104   1.069
 6918SOL    HW221654   2.650   3.057   1.050
 6919SOL     OW21655   5.757   5.920   3.394
 6919SOL    HW121656   5.729   5.861   3.470
 6919SOL    HW221657   5.749   5.870   3.308
 6920SOL     OW21658   5.881   1.289   6.080
 6920SOL    HW121659   5.851   1.384   6.073
 6920SOL    HW221660   5.816   1.229   6.034
 6921SOL     OW21661   4.258   0.293   4.345
 6921SOL    HW121662   4.163   0.280   4.315
 6921SOL    HW221663   4.260   0.305   4.444
 6922SOL     OW21664   1.591   4.466   5.919
 6922SOL    HW121665   1.628   4.558   5.916
 6922SOL    HW221666   1.639   4.408   5.854
 6923SOL     OW21667   6.215   0.431   2.595
 6923SOL    HW121668   6.270   0.360   2.551
 6923SOL    HW221669   6.137   0.388   2.641
 6924SOL     OW21670   2.955   6.166   1.674
 6924SOL    HW121671   2.920   6.097   1.737
 6924SOL    HW221672   2.949   6.131   1.580
 6925SOL     OW21673   5.905   6.310   5.607
 6925SOL    HW121674   5.823   6.289   5.661
 6925SOL    HW221675   5.930   6.230   5.552
 6926SOL     OW21676   3.259   2.416   0.323
 6926SOL    HW121677   3.233   2.473   0.245
 6926SOL    HW221678   3.218   2.326   0.314
 6927SOL     OW21679   5.020   0.969   0.687
 6927SOL    HW121680   5.049   1.033   0.617
 6927SOL    HW221681   4.992   1.019   0.769
 6928SOL     OW21682   4.931   4.953   1.117
 6928SOL    HW121683   4.989   4.889   1.066
 6928SOL    HW221684   4.875   5.005   1.053
 6929SOL     OW21685   6.359   5.171   1.704
 6929SOL    HW121686   6.416   5.225   1.643
 6929SOL    HW221687   6.410   5.146   1.786
 6930SOL     OW21688   0.773   0.103   0.837
 6930SOL    HW121689   0.741   0.160   0.914
 6930SOL    HW221690   0.714   0.023   0.829
 6931SOL     OW21691   2.790   3.639   1.151
 6931SOL    HW121692   2.699   3.674   1.130
 6931SOL    HW221693   2.784   3.542   1.176
 6932SOL     OW21694   4.226   6.010   6.949
 6932SOL    HW121695   4.294   6.044   7.013
 6932SOL    HW221696   4.179   5.930   6.988
 6933SOL     OW21697   3.574   6.093   6.484
 6933SOL    HW121698   3.649   6.159   6.479
 6933SOL    HW221699   3.487   6.140   6.472
 6934SOL     OW21700   5.250   4.012   6.779
 6934SOL    HW121701   5.309   4.086   6.748
 6934SOL    HW221702   5.302   3.927   6.783
 6935SOL     OW21703   4.322   5.832   2.179
 6935SOL    HW121704   4.228   5.842   2.212
 6935SOL    HW221705   4.371   5.768   2.237
 6936SOL     OW21706   0.454   1.958   5.101
 6936SOL    HW121707   0.517   1.891   5.061
 6936SOL    HW221708   0.360   1.925   5.090
 6937SOL     OW21709   5.205   5.530   0.064
 6937SOL    HW121710   5.294   5.488   0.085
 6937SOL    HW221711   5.200   5.619   0.110
 6938SOL     OW21712   1.608   0.672   5.028
 6938SOL    HW121713   1.536   0.642   4.966
 6938SOL    HW221714   1.693   0.684   4.978
 6939SOL     OW21715   5.854   3.580   3.653
 6939SOL    HW121716   5.797   3.558   3.732
 6939SOL    HW221717   5.809   3.547   3.569
 6940SOL     OW21718   3.073   5.891   0.643
 6940SOL    HW121719   2.985   5.938   0.633
 6940SOL    HW221720   3.146   5.946   0.603
 6941SOL     OW21721   3.425   3.876   3.245
 6941SOL    HW121722   3.498   3.941   3.266
 6941SOL    HW221723   3.464   3.788   3.219
 6942SOL     OW21724   6.374   6.239   1.692
 6942SOL    HW121725   6.295   6.239   1.754
 6942SOL    HW221726   6.447   6.295   1.731
 6943SOL     OW21727   3.991   4.600   6.718
 6943SOL    HW121728   3.973   4.609   6.816
 6943SOL    HW221729   3.907   4.618   6.667
 6944SOL     OW21730   1.275   4.511   5.072
 6944SOL    HW121731   1.361   4.461   5.084
 6944SOL    HW221732   1.223   4.470   4.997
 6945SOL     OW21733   5.407   2.050   0.759
 6945SOL    HW121734   5.481   2.007   0.811
 6945SOL    HW221735   5.337   2.083   0.822
 6946SOL     OW21736   4.755   5.256   3.192
 6946SOL    HW121737   4.768   5.298   3.102
 6946SOL    HW221738   4.770   5.158   3.186
 6947SOL     OW21739   5.776   4.290   5.322
 6947SOL    HW121740   5.696   4.281   5.264
 6947SOL    HW221741   5.859   4.294   5.266
 6948SOL     OW21742   0.166   4.709   6.681
 6948SOL    HW121743   0.261   4.678   6.679
 6948SOL    HW221744   0.113   4.650   6.741
 6949SOL     OW21745   2.342   1.834   4.330
 6949SOL    HW121746   2.357   1.847   4.428
 6949SOL    HW221747   2.424   1.861   4.279
 6950SOL     OW21748   0.142   0.543   4.359
 6950SOL    HW121749   0.195   0.540   4.274
 6950SOL    HW221750   0.098   0.633   4.367
 6951SOL     OW21751   1.017   4.342   6.262
 6951SOL    HW121752   1.115   4.359   6.251
 6951SOL    HW221753   0.965   4.412   6.213
 6952SOL     OW21754   4.609   5.912   3.593
 6952SOL    HW121755   4.511   5.919   3.571
 6952SOL    HW221756   4.624   5.940   3.688
 6953SOL     OW21757   5.897   1.658   1.213
 6953SOL    HW121758   5.970   1.610   1.261
 6953SOL    HW221759   5.883   1.616   1.123
 6954SOL     OW21760   6.018   4.468   0.342
 6954SOL    HW121761   6.032   4.529   0.263
 6954SOL    HW221762   6.107   4.436   0.375
 6955SOL     OW21763   4.517   6.606   3.084
 6955SOL    HW121764   4.554   6.530   3.138
 6955SOL    HW221765   4.582   6.630   3.012
 6956SOL     OW21766   6.124   5.279   2.313
 6956SOL    HW121767   6.106   5.372   2.347
 6956SOL    HW221768   6.189   5.234   2.374
 6957SOL     OW21769   5.744   5.647   5.631
 6957SOL    HW121770   5.687   5.663   5.712
 6957SOL    HW221771   5.838   5.627   5.660
 6958SOL     OW21772   3.130   3.893   3.544
 6958SOL    HW121773   3.186   3.975   3.554
 6958SOL    HW221774   3.175   3.817   3.593
 6959SOL     OW21775   1.195   4.429   2.697
 6959SOL    HW121776   1.137   4.394   2.770
 6959SOL    HW221777   1.221   4.355   2.636
 6960SOL     OW21778   3.353   4.009   0.778
 6960SOL    HW121779   3.305   3.958   0.850
 6960SOL    HW221780   3.447   4.026   0.807
 6961SOL     OW21781   4.451   2.480   5.126
 6961SOL    HW121782   4.478   2.488   5.222
 6961SOL    HW221783   4.354   2.500   5.116
 6962SOL     OW21784   2.304   6.743   6.393
 6962SOL    HW121785   2.271   6.654   6.422
 6962SOL    HW221786   2.400   6.735   6.366
 6963SOL     OW21787   6.017   5.950   0.585
 6963SOL    HW121788   6.109   5.952   0.544
 6963SOL    HW221789   5.949   5.967   0.514
 6964SOL     OW21790   1.706   1.420   5.191
 6964SOL    HW121791   1.671   1.488   5.128
 6964SOL    HW221792   1.804   1.437   5.208
 6965SOL     OW21793   0.567   1.700   6.846
 6965SOL    HW121794   0.518   1.780   6.880
 6965SOL    HW221795   0.519   1.617   6.874
 6966SOL     OW21796   1.696   6.293   1.088
 6966SOL    HW121797   1.668   6.355   1.015
 6966SOL    HW221798   1.651   6.320   1.174
 6967SOL     OW21799   4.390   1.401   6.518
 6967SOL    HW121800   4.477   1.361   6.488
 6967SOL    HW221801   4.365   1.362   6.606
 6968SOL     OW21802   3.800   6.640   3.160
 6968SOL    HW121803   3.744   6.694   3.097
 6968SOL    HW221804   3.896   6.668   3.153
 6969SOL     OW21805   2.151   1.911   2.276
 6969SOL    HW121806   2.225   1.943   2.336
 6969SOL    HW221807   2.137   1.813   2.289
 6970SOL     OW21808   3.797   5.972   5.494
 6970SOL    HW121809   3.707   5.933   5.515
 6970SOL    HW221810   3.816   5.963   5.396
 6971SOL     OW21811   6.480   4.080   0.360
 6971SOL    HW121812   6.474   4.177   0.384
 6971SOL    HW221813   6.471   4.024   0.443
 6972SOL     OW21814   5.186   3.802   1.286
 6972SOL    HW121815   5.197   3.756   1.374
 6972SOL    HW221816   5.096   3.845   1.282
 6973SOL     OW21817   1.975   2.542   3.344
 6973SOL    HW121818   1.993   2.581   3.254
 6973SOL    HW221819   1.896   2.588   3.384
 6974SOL     OW21820   3.838   3.488   3.332
 6974SOL    HW121821   3.821   3.504   3.235
 6974SOL    HW221822   3.936   3.471   3.347
 6975SOL     OW21823   2.817   5.361   4.684
 6975SOL    HW121824   2.896   5.359   4.622
 6975SOL    HW221825   2.840   5.311   4.768
 6976SOL     OW21826   4.634   4.336   6.262
 6976SOL    HW121827   4.702   4.262   6.258
 6976SOL    HW221828   4.555   4.305   6.315
 6977SOL     OW21829   4.607   5.074   1.649
 6977SOL    HW121830   4.611   4.977   1.671
 6977SOL    HW221831   4.537   5.119   1.704
 6978SOL     OW21832   6.933   3.752   1.533
 6978SOL    HW121833   6.942   3.746   1.633
 6978SOL    HW221834   6.910   3.845   1.507
 6979SOL     OW21835   1.799   2.900   1.856
 6979SOL    HW121836   1.760   2.982   1.896
 6979SOL    HW221837   1.889   2.882   1.897
 6980SOL     OW21838   1.841   5.587   2.004
 6980SOL    HW121839   1.868   5.603   1.909
 6980SOL    HW221840   1.802   5.671   2.042
 6981SOL     OW21841   3.970   2.956   0.041
 6981SOL    HW121842   4.067   2.979   0.056
 6981SOL    HW221843   3.927   3.028   7.006
 6982SOL     OW21844   1.539   0.497   2.742
 6982SOL    HW121845   1.597   0.555   2.684
 6982SOL    HW221846   1.570   0.402   2.736
 6983SOL     OW21847   5.582   0.648   4.440
 6983SOL    HW121848   5.680   0.652   4.460
 6983SOL    HW221849   5.542   0.571   4.489
 6984SOL     OW21850   0.877   2.640   3.546
 6984SOL    HW121851   0.922   2.683   3.467
 6984SOL    HW221852   0.938   2.571   3.586
 6985SOL     OW21853   5.503   3.712   6.968
 6985SOL    HW121854   5.582   3.661   6.933
 6985SOL    HW221855   5.467   3.771   6.896
 6986SOL     OW21856   4.876   4.484   5.405
 6986SOL    HW121857   4.822   4.562   5.435
 6986SOL    HW221858   4.960   4.478   5.460
 6987SOL     OW21859   6.994   0.909   6.607
 6987SOL    HW121860   6.970   0.831   6.549
 6987SOL    HW221861   0.051   0.882   6.668
 6988SOL     OW21862   2.953   1.676   6.590
 6988SOL    HW121863   3.039   1.666   6.541
 6988SOL    HW221864   2.960   1.633   6.680
 6989SOL     OW21865   0.642   5.213   2.301
 6989SOL    HW121866   0.640   5.313   2.309
 6989SOL    HW221867   0.549   5.178   2.309
 6990SOL     OW21868   3.946   3.266   0.661
 6990SOL    HW121869   3.962   3.360   0.693
 6990SOL    HW221870   3.956   3.203   0.738
 6991SOL     OW21871   6.108   3.079   2.702
 6991SOL    HW121872   6.185   3.062   2.640
 6991SOL    HW221873   6.059   3.161   2.672
 6992SOL     OW21874   1.303   6.059   0.221
 6992SOL    HW121875   1.376   6.123   0.247
 6992SOL    HW221876   1.233   6.108   0.168
 6993SOL     OW21877   4.949   1.650   1.292
 6993SOL    HW121878   4.913   1.723   1.349
 6993SOL    HW221879   4.919   1.663   1.197
 6994SOL     OW21880   2.605   0.853   3.814
 6994SOL    HW121881   2.640   0.784   3.750
 6994SOL    HW221882   2.559   0.926   3.764
 6995SOL     OW21883   0.272   3.979   1.157
 6995SOL    HW121884   0.278   3.993   1.256
 6995SOL    HW221885   0.356   3.935   1.125
 6996SOL     OW21886   1.268   1.405   6.588
 6996SOL    HW121887   1.199   1.333   6.588
 6996SOL    HW221888   1.353   1.369   6.549
 6997SOL     OW21889   5.716   5.216   5.990
 6997SOL    HW121890   5.770   5.152   6.045
 6997SOL    HW221891   5.619   5.202   6.008
 6998SOL     OW21892   6.832   1.385   0.128
 6998SOL    HW121893   6.835   1.378   0.028
 6998SOL    HW221894   6.854   1.479   0.155
 6999SOL     OW21895   0.051   3.218   0.076
 6999SOL    HW121896   0.031   3.302   0.026
 6999SOL    HW221897   0.011   3.223   0.168
 7000SOL     OW21898   6.731   6.034   3.305
 7000SOL    HW121899   6.754   6.008   3.211
 7000SOL    HW221900   6.794   6.106   3.336
 7001SOL     OW21901   0.071   2.302   3.831
 7001SOL    HW121902   0.135   2.362   3.877
 7001SOL    HW221903   7.008   2.288   3.888
 7002SOL     OW21904   0.912   5.669   2.996
 7002SOL    HW121905   0.970   5.704   3.070
 7002SOL    HW221906   0.816   5.674   3.024
 7003SOL     OW21907   6.772   4.159   0.504
 7003SOL    HW121908   6.856   4.108   0.487
 7003SOL    HW221909   6.713   4.107   0.566
 7004SOL     OW21910   1.834   6.347   0.682
 7004SOL    HW121911   1.852   6.396   0.597
 7004SOL    HW221912   1.856   6.406   0.760
 7005SOL     OW21913   1.398   6.396   1.107
 7005SOL    HW121914   1.375   6.339   1.029
 7005SOL    HW221915   1.430   6.339   1.182
 7006SOL     OW21916   1.130   6.965   3.938
 7006SOL    HW121917   1.199   6.945   3.868
 7006SOL    HW221918   1.060   6.893   3.936
 7007SOL     OW21919   2.567   0.512   5.942
 7007SOL    HW121920   2.587   0.439   6.007
 7007SOL    HW221921   2.474   0.544   5.955
 7008SOL     OW21922   5.154   3.605   2.934
 7008SOL    HW121923   5.055   3.617   2.938
 7008SOL    HW221924   5.181   3.577   2.842
 7009SOL     OW21925   4.573   5.829   2.333
 7009SOL    HW121926   4.589   5.820   2.431
 7009SOL    HW221927   4.660   5.840   2.286
 7010SOL     OW21928   5.329   3.625   1.728
 7010SOL    HW121929   5.412   3.603   1.779
 7010SOL    HW221930   5.290   3.541   1.690
 7011SOL     OW21931   3.373   6.413   6.812
 7011SOL    HW121932   3.422   6.499   6.823
 7011SOL    HW221933   3.439   6.337   6.807
 7012SOL     OW21934   6.645   2.917   0.425
 7012SOL    HW121935   6.591   2.834   0.437
 7012SOL    HW221936   6.703   2.907   0.344
 7013SOL     OW21937   2.874   1.836   0.326
 7013SOL    HW121938   2.908   1.916   0.376
 7013SOL    HW221939   2.839   1.865   0.237
 7014SOL     OW21940   5.981   3.438   0.754
 7014SOL    HW121941   6.048   3.479   0.692
 7014SOL    HW221942   6.001   3.341   0.764
 7015SOL     OW21943   5.231   6.280   1.030
 7015SOL    HW121944   5.151   6.234   1.069
 7015SOL    HW221945   5.219   6.380   1.036
 7016SOL     OW21946   3.275   5.113   1.016
 7016SOL    HW121947   3.329   5.116   1.100
 7016SOL    HW221948   3.178   5.116   1.038
 7017SOL     OW21949   6.065   4.950   4.776
 7017SOL    HW121950   6.023   5.036   4.806
 7017SOL    HW221951   6.043   4.878   4.842
 7018SOL     OW21952   5.244   3.581   4.537
 7018SOL    HW121953   5.155   3.567   4.496
 7018SOL    HW221954   5.309   3.515   4.499
 7019SOL     OW21955   4.071   5.661   2.467
 7019SOL    HW121956   4.154   5.634   2.516
 7019SOL    HW221957   4.001   5.686   2.534
 7020SOL     OW21958   0.570   2.796   6.646
 7020SOL    HW121959   0.471   2.785   6.631
 7020SOL    HW221960   0.588   2.888   6.681
 7021SOL     OW21961   0.857   2.196   4.864
 7021SOL    HW121962   0.934   2.260   4.856
 7021SOL    HW221963   0.790   2.232   4.929
 7022SOL     OW21964   3.394   1.715   0.879
 7022SOL    HW121965   3.476   1.661   0.860
 7022SOL    HW221966   3.368   1.704   0.975
 7023SOL     OW21967   0.361   1.963   0.239
 7023SOL    HW121968   0.387   1.941   0.333
 7023SOL    HW221969   0.350   2.062   0.229
 7024SOL     OW21970   4.083   3.315   4.662
 7024SOL    HW121971   4.007   3.348   4.606
 7024SOL    HW221972   4.162   3.296   4.603
 7025SOL     OW21973   3.386   0.443   0.852
 7025SOL    HW121974   3.364   0.509   0.924
 7025SOL    HW221975   3.463   0.386   0.882
 7026SOL     OW21976   3.579   2.709   1.192
 7026SOL    HW121977   3.560   2.708   1.290
 7026SOL    HW221978   3.501   2.750   1.144
 7027SOL     OW21979   2.377   5.152   2.856
 7027SOL    HW121980   2.434   5.073   2.834
 7027SOL    HW221981   2.375   5.215   2.778
 7028SOL     OW21982   2.733   0.460   3.782
 7028SOL    HW121983   2.721   0.388   3.714
 7028SOL    HW221984   2.810   0.437   3.842
 7029SOL     OW21985   3.175   3.672   3.741
 7029SOL    HW121986   3.266   3.683   3.781
 7029SOL    HW221987   3.113   3.740   3.779
 7030SOL     OW21988   6.743   1.309   5.002
 7030SOL    HW121989   6.780   1.289   5.093
 7030SOL    HW221990   6.753   1.407   4.983
 7031SOL     OW21991   4.365   6.900   0.627
 7031SOL    HW121992   4.373   6.999   0.640
 7031SOL    HW221993   4.439   6.868   0.568
 7032SOL     OW21994   4.783   5.819   4.534
 7032SOL    HW121995   4.772   5.914   4.507
 7032SOL    HW221996   4.839   5.771   4.467
 7033SOL     OW21997   1.935   1.947   4.868
 7033SOL    HW121998   2.029   1.962   4.899
 7033SOL    HW221999   1.907   2.025   4.812
 7034SOL     OW22000   6.474   0.682   3.673
 7034SOL    HW122001   6.520   0.767   3.645
 7034SOL    HW222002   6.528   0.637   3.744
 7035SOL     OW22003   1.576   0.340   0.214
 7035SOL    HW122004   1.499   0.278   0.229
 7035SOL    HW222005   1.648   0.292   0.164
 7036SOL     OW22006   6.354   1.838   2.908
 7036SOL    HW122007   6.421   1.777   2.949
 7036SOL    HW222008   6.273   1.785   2.880
 7037SOL     OW22009   1.188   0.491   5.886
 7037SOL    HW122010   1.282   0.480   5.916
 7037SOL    HW222011   1.157   0.406   5.842
 7038SOL     OW22012   1.212   4.346   6.802
 7038SOL    HW122013   1.164   4.386   6.880
 7038SOL    HW222014   1.309   4.336   6.825
 7039SOL     OW22015   0.316   6.372   2.134
 7039SOL    HW122016   0.259   6.452   2.113
 7039SOL    HW222017   0.260   6.290   2.135
 7040SOL     OW22018   4.960   3.503   4.522
 7040SOL    HW122019   4.928   3.412   4.497
 7040SOL    HW222020   4.912   3.534   4.604
 7041SOL     OW22021   1.698   6.711   4.141
 7041SOL    HW122022   1.781   6.733   4.089
 7041SOL    HW222023   1.698   6.762   4.227
 7042SOL     OW22024   5.234   6.176   5.646
 7042SOL    HW122025   5.287   6.161   5.563
 7042SOL    HW222026   5.264   6.111   5.717
 7043SOL     OW22027   2.380   5.021   1.074
 7043SOL    HW122028   2.408   5.102   1.022
 7043SOL    HW222029   2.371   5.046   1.171
 7044SOL     OW22030   4.914   6.842   5.009
 7044SOL    HW122031   4.916   6.908   5.084
 7044SOL    HW222032   4.841   6.776   5.024
 7045SOL     OW22033   6.608   6.355   1.842
 7045SOL    HW122034   6.705   6.378   1.849
 7045SOL    HW222035   6.557   6.409   1.909
 7046SOL     OW22036   2.900   1.701   4.452
 7046SOL    HW122037   2.856   1.718   4.364
 7046SOL    HW222038   2.899   1.785   4.507
 7047SOL     OW22039   1.399   6.615   0.750
 7047SOL    HW122040   1.354   6.608   0.660
 7047SOL    HW222041   1.347   6.678   0.808
 7048SOL     OW22042   0.035   6.245   4.558
 7048SOL    HW122043   6.969   6.246   4.504
 7048SOL    HW222044   0.035   6.323   4.621
 7049SOL     OW22045   3.533   1.254   3.397
 7049SOL    HW122046   3.589   1.172   3.389
 7049SOL    HW222047   3.563   1.308   3.475
 7050SOL     OW22048   3.898   4.159   1.235
 7050SOL    HW122049   3.855   4.242   1.199
 7050SOL    HW222050   3.968   4.184   1.302
 7051SOL     OW22051   0.561   0.899   1.697
 7051SOL    HW122052   0.545   0.994   1.671
 7051SOL    HW222053   0.509   0.878   1.780
 7052SOL     OW22054   4.762   0.701   2.786
 7052SOL    HW122055   4.671   0.662   2.772
 7052SOL    HW222056   4.792   0.682   2.879
 7053SOL     OW22057   2.160   3.439   3.333
 7053SOL    HW122058   2.163   3.508   3.405
 7053SOL    HW222059   2.095   3.367   3.358
 7054SOL     OW22060   6.492   1.092   0.290
 7054SOL    HW122061   6.477   1.113   0.193
 7054SOL    HW222062   6.456   1.001   0.310
 7055SOL     OW22063   2.590   1.314   0.286
 7055SOL    HW122064   2.593   1.365   0.372
 7055SOL    HW222065   2.666   1.343   0.227
 7056SOL     OW22066   0.311   5.354   1.133
 7056SOL    HW122067   0.318   5.390   1.226
 7056SOL    HW222068   0.216   5.354   1.104
 7057SOL     OW22069   2.435   5.457   4.513
 7057SOL    HW122070   2.349   5.421   4.476
 7057SOL    HW222071   2.452   5.419   4.603
 7058SOL     OW22072   5.386   2.961   6.262
 7058SOL    HW122073   5.374   3.007   6.174
 7058SOL    HW222074   5.313   2.990   6.324
 7059SOL     OW22075   2.047   0.497   5.325
 7059SOL    HW122076   2.137   0.520   5.361
 7059SOL    HW222077   1.996   0.582   5.306
 7060SOL     OW22078   3.496   1.274   1.093
 7060SOL    HW122079   3.415   1.229   1.131
 7060SOL    HW222080   3.573   1.210   1.092
 7061SOL     OW22081   0.513   1.615   1.734
 7061SOL    HW122082   0.422   1.575   1.736
 7061SOL    HW222083   0.578   1.551   1.775
 7062SOL     OW22084   3.375   0.642   3.731
 7062SOL    HW122085   3.346   0.693   3.651
 7062SOL    HW222086   3.396   0.547   3.705
 7063SOL     OW22087   0.482   0.619   1.268
 7063SOL    HW122088   0.550   0.687   1.240
 7063SOL    HW222089   0.397   0.665   1.293
 7064SOL     OW22090   3.984   1.648   5.350
 7064SOL    HW122091   3.969   1.559   5.393
 7064SOL    HW222092   3.898   1.698   5.347
 7065SOL     OW22093   4.153   5.541   5.221
 7065SOL    HW122094   4.232   5.489   5.188
 7065SOL    HW222095   4.169   5.638   5.207
 7066SOL     OW22096   3.750   0.333   0.374
 7066SOL    HW122097   3.660   0.290   0.370
 7066SOL    HW222098   3.813   0.283   0.316
 7067SOL     OW22099   1.812   3.289   6.683
 7067SOL    HW122100   1.738   3.295   6.750
 7067SOL    HW222101   1.896   3.258   6.729
 7068SOL     OW22102   5.075   3.853   4.146
 7068SOL    HW122103   5.039   3.876   4.236
 7068SOL    HW222104   5.084   3.936   4.091
 7069SOL     OW22105   5.835   0.696   6.611
 7069SOL    HW122106   5.802   0.639   6.536
 7069SOL    HW222107   5.935   0.698   6.610
 7070SOL     OW22108   0.074   0.240   5.141
 7070SOL    HW122109   0.085   0.200   5.050
 7070SOL    HW222110   0.164   0.259   5.181
 7071SOL     OW22111   4.826   5.654   6.627
 7071SOL    HW122112   4.869   5.567   6.604
 7071SOL    HW222113   4.728   5.639   6.644
 7072SOL     OW22114   0.935   3.627   6.138
 7072SOL    HW122115   1.015   3.652   6.194
 7072SOL    HW222116   0.965   3.603   6.046
 7073SOL     OW22117   4.488   1.644   4.309
 7073SOL    HW122118   4.524   1.731   4.274
 7073SOL    HW222119   4.557   1.573   4.298
 7074SOL     OW22120   5.592   4.476   3.364
 7074SOL    HW122121   5.665   4.522   3.414
 7074SOL    HW222122   5.516   4.457   3.426
 7075SOL     OW22123   2.993   4.831   3.050
 7075SOL    HW122124   2.978   4.928   3.030
 7075SOL    HW222125   3.012   4.819   3.147
 7076SOL     OW22126   5.664   2.105   1.582
 7076SOL    HW122127   5.595   2.174   1.563
 7076SOL    HW222128   5.623   2.030   1.634
 7077SOL     OW22129   3.835   5.529   1.840
 7077SOL    HW122130   3.914   5.563   1.891
 7077SOL    HW222131   3.794   5.603   1.787
 7078SOL     OW22132   5.877   0.844   0.083
 7078SOL    HW122133   5.953   0.832   0.018
 7078SOL    HW222134   5.879   0.937   0.120
 7079SOL     OW22135   1.477   6.400   4.680
 7079SOL    HW122136   1.452   6.310   4.715
 7079SOL    HW222137   1.395   6.457   4.672
 7080SOL     OW22138   3.841   2.181   5.554
 7080SOL    HW122139   3.793   2.212   5.636
 7080SOL    HW222140   3.777   2.134   5.494
 7081SOL     OW22141   1.782   0.187   0.114
 7081SOL    HW122142   1.846   0.227   0.180
 7081SOL    HW222143   1.796   0.228   0.024
 7082SOL     OW22144   0.133   4.142   3.127
 7082SOL    HW122145   0.199   4.120   3.055
 7082SOL    HW222146   0.073   4.063   3.143
 7083SOL     OW22147   5.555   2.638   2.920
 7083SOL    HW122148   5.493   2.572   2.961
 7083SOL    HW222149   5.597   2.599   2.838
 7084SOL     OW22150   1.374   5.494   6.826
 7084SOL    HW122151   1.297   5.534   6.874
 7084SOL    HW222152   1.454   5.489   6.886
 7085SOL     OW22153   0.469   3.613   2.001
 7085SOL    HW122154   0.505   3.696   1.960
 7085SOL    HW222155   0.536   3.574   2.064
 7086SOL     OW22156   5.175   1.192   3.931
 7086SOL    HW122157   5.105   1.245   3.882
 7086SOL    HW222158   5.188   1.232   4.022
 7087SOL     OW22159   4.858   3.672   2.631
 7087SOL    HW122160   4.809   3.670   2.543
 7087SOL    HW222161   4.872   3.767   2.659
 7088SOL     OW22162   5.730   2.141   5.239
 7088SOL    HW122163   5.799   2.174   5.302
 7088SOL    HW222164   5.748   2.177   5.147
 7089SOL     OW22165   2.877   5.792   1.718
 7089SOL    HW122166   2.826   5.801   1.804
 7089SOL    HW222167   2.814   5.802   1.641
 7090SOL     OW22168   4.722   2.913   1.373
 7090SOL    HW122169   4.624   2.913   1.356
 7090SOL    HW222170   4.761   2.826   1.342
 7091SOL     OW22171   0.597   6.128   0.466
 7091SOL    HW122172   0.522   6.193   0.480
 7091SOL    HW222173   0.568   6.059   0.399
 7092SOL     OW22174   4.464   0.516   6.286
 7092SOL    HW122175   4.409   0.451   6.234
 7092SOL    HW222176   4.404   0.566   6.350
 7093SOL     OW22177   3.202   3.061   1.180
 7093SOL    HW122178   3.240   3.133   1.238
 7093SOL    HW222179   3.109   3.040   1.208
 7094SOL     OW22180   3.284   0.331   6.254
 7094SOL    HW122181   3.201   0.278   6.275
 7094SOL    HW222182   3.258   0.423   6.224
 7095SOL     OW22183   2.405   4.814   4.588
 7095SOL    HW122184   2.402   4.892   4.525
 7095SOL    HW222185   2.339   4.829   4.662
 7096SOL     OW22186   6.846   0.328   1.066
 7096SOL    HW122187   6.854   0.428   1.068
 7096SOL    HW222188   6.826   0.298   0.973
 7097SOL     OW22189   4.720   1.637   2.032
 7097SOL    HW122190   4.744   1.732   2.051
 7097SOL    HW222191   4.800   1.579   2.048
 7098SOL     OW22192   1.004   0.206   3.711
 7098SOL    HW122193   0.996   0.156   3.797
 7098SOL    HW222194   0.918   0.197   3.660
 7099SOL     OW22195   3.072   1.879   4.164
 7099SOL    HW122196   3.153   1.937   4.154
 7099SOL    HW222197   3.099   1.786   4.190
 7100SOL     OW22198   6.616   3.957   1.802
 7100SOL    HW122199   6.689   4.020   1.830
 7100SOL    HW222200   6.542   4.009   1.760
 7101SOL     OW22201   2.441   6.295   5.096
 7101SOL    HW122202   2.425   6.305   5.194
 7101SOL    HW222203   2.540   6.286   5.079
 7102SOL     OW22204   5.818   1.129   2.348
 7102SOL    HW122205   5.771   1.044   2.370
 7102SOL    HW222206   5.888   1.111   2.279
 7103SOL     OW22207   4.865   3.667   3.176
 7103SOL    HW122208   4.848   3.588   3.234
 7103SOL    HW222209   4.851   3.642   3.080
 7104SOL     OW22210   5.180   2.990   3.865
 7104SOL    HW122211   5.224   2.908   3.829
 7104SOL    HW222212   5.082   2.988   3.844
 7105SOL     OW22213   3.681   3.997   3.555
 7105SOL    HW122214   3.615   4.023   3.626
 7105SOL    HW222215   3.722   3.909   3.579
 7106SOL     OW22216   3.227   1.927   1.611
 7106SOL    HW122217   3.176   1.958   1.531
 7106SOL    HW222218   3.215   1.993   1.685
 7107SOL     OW22219   4.167   0.403   6.319
 7107SOL    HW122220   4.120   0.488   6.342
 7107SOL    HW222221   4.113   0.325   6.349
 7108SOL     OW22222   4.812   0.856   2.161
 7108SOL    HW122223   4.896   0.817   2.199
 7108SOL    HW222224   4.733   0.814   2.204
 7109SOL     OW22225   2.465   5.615   6.825
 7109SOL    HW122226   2.480   5.583   6.918
 7109SOL    HW222227   2.549   5.605   6.772
 7110SOL     OW22228   3.807   6.684   4.040
 7110SOL    HW122229   3.779   6.634   3.958
 7110SOL    HW222230   3.869   6.628   4.095
 7111SOL     OW22231   0.068   0.556   5.126
 7111SOL    HW122232   0.004   0.483   5.100
 7111SOL    HW222233   0.088   0.613   5.046
 7112SOL     OW22234   0.968   5.281   5.112
 7112SOL    HW122235   0.944   5.250   5.020
 7112SOL    HW222236   0.923   5.223   5.180
 7113SOL     OW22237   3.787   6.630   5.269
 7113SOL    HW122238   3.724   6.611   5.345
 7113SOL    HW222239   3.833   6.545   5.243
 7114SOL     OW22240   5.661   4.543   0.791
 7114SOL    HW122241   5.662   4.461   0.734
 7114SOL    HW222242   5.576   4.545   0.844
 7115SOL     OW22243   6.135   3.940   6.031
 7115SOL    HW122244   6.149   3.999   5.952
 7115SOL    HW222245   6.075   3.985   6.097
 7116SOL     OW22246   6.289   3.834   4.141
 7116SOL    HW122247   6.312   3.928   4.117
 7116SOL    HW222248   6.363   3.773   4.111
 7117SOL     OW22249   5.249   0.263   3.341
 7117SOL    HW122250   5.314   0.254   3.417
 7117SOL    HW222251   5.219   0.358   3.334
 7118SOL     OW22252   3.726   4.403   5.671
 7118SOL    HW122253   3.721   4.351   5.756
 7118SOL    HW222254   3.681   4.492   5.684
 7119SOL     OW22255   3.405   6.965   4.822
 7119SOL    HW122256   3.308   6.945   4.838
 7119SOL    HW222257   3.444   7.012   4.901
 7120SOL     OW22258   4.541   0.477   0.535
 7120SOL    HW122259   4.567   0.522   0.620
 7120SOL    HW222260   4.623   0.450   0.485
 7121SOL     OW22261   1.349   6.199   1.706
 7121SOL    HW122262   1.306   6.220   1.793
 7121SOL    HW222263   1.301   6.247   1.632
 7122SOL     OW22264   3.491   1.823   0.055
 7122SOL    HW122265   3.533   1.810   0.145
 7122SOL    HW222266   3.546   1.776   7.003
 7123SOL     OW22267   5.434   5.175   6.044
 7123SOL    HW122268   5.443   5.085   6.001
 7123SOL    HW222269   5.357   5.224   6.004
 7124SOL     OW22270   1.134   1.820   1.183
 7124SOL    HW122271   1.040   1.789   1.165
 7124SOL    HW222272   1.196   1.742   1.183
 7125SOL     OW22273   0.536   6.443   2.261
 7125SOL    HW122274   0.448   6.418   2.218
 7125SOL    HW222275   0.522   6.457   2.359
 7126SOL     OW22276   3.399   5.288   0.845
 7126SOL    HW122277   3.349   5.311   0.762
 7126SOL    HW222278   3.349   5.218   0.896
 7127SOL     OW22279   2.294   6.398   6.093
 7127SOL    HW122280   2.301   6.298   6.091
 7127SOL    HW222281   2.378   6.438   6.057
 7128SOL     OW22282   3.789   4.261   6.865
 7128SOL    HW122283   3.856   4.292   6.933
 7128SOL    HW222284   3.749   4.341   6.820
 7129SOL     OW22285   0.778   7.005   0.359
 7129SOL    HW122286   0.728   0.056   0.410
 7129SOL    HW222287   0.783   6.920   0.412
 7130SOL     OW22288   3.387   6.453   3.748
 7130SOL    HW122289   3.397   6.535   3.805
 7130SOL    HW222290   3.292   6.442   3.721
 7131SOL     OW22291   2.360   1.575   1.756
 7131SOL    HW122292   2.351   1.653   1.817
 7131SOL    HW222293   2.293   1.583   1.682
 7132SOL     OW22294   5.340   4.551   0.619
 7132SOL    HW122295   5.355   4.452   0.614
 7132SOL    HW222296   5.369   4.584   0.709
 7133SOL     OW22297   5.178   6.107   2.493
 7133SOL    HW122298   5.198   6.035   2.559
 7133SOL    HW222299   5.215   6.081   2.403
 7134SOL     OW22300   4.685   5.453   0.078
 7134SOL    HW122301   4.722   5.468   7.004
 7134SOL    HW222302   4.753   5.407   0.134
 7135SOL     OW22303   1.526   3.464   1.416
 7135SOL    HW122304   1.603   3.411   1.380
 7135SOL    HW222305   1.489   3.522   1.343
 7136SOL     OW22306   1.520   1.897   2.082
 7136SOL    HW122307   1.561   1.847   2.005
 7136SOL    HW222308   1.555   1.991   2.083
 7137SOL     OW22309   2.822   1.565   1.710
 7137SOL    HW122310   2.877   1.648   1.699
 7137SOL    HW222311   2.876   1.485   1.685
 7138SOL     OW22312   0.902   2.178   0.361
 7138SOL    HW122313   0.945   2.266   0.339
 7138SOL    HW222314   0.945   2.106   0.306
 7139SOL     OW22315   5.846   6.320   0.726
 7139SOL    HW122316   5.872   6.238   0.777
 7139SOL    HW222317   5.885   6.316   0.634
 7140SOL     OW22318   6.064   4.036   0.343
 7140SOL    HW122319   6.121   4.065   0.265
 7140SOL    HW222320   5.968   4.033   0.315
 7141SOL     OW22321   3.242   0.563   1.080
 7141SOL    HW122322   3.274   0.618   1.157
 7141SOL    HW222323   3.144   0.574   1.069
 7142SOL     OW22324   3.744   0.486   4.732
 7142SOL    HW122325   3.670   0.548   4.704
 7142SOL    HW222326   3.832   0.524   4.703
 7143SOL     OW22327   2.631   3.445   6.761
 7143SOL    HW122328   2.645   3.442   6.662
 7143SOL    HW222329   2.565   3.517   6.783
 7144SOL     OW22330   6.549   1.027   6.128
 7144SOL    HW122331   6.573   1.007   6.034
 7144SOL    HW222332   6.455   1.062   6.131
 7145SOL     OW22333   5.295   1.899   6.296
 7145SOL    HW122334   5.306   1.841   6.215
 7145SOL    HW222335   5.234   1.854   6.360
 7146SOL     OW22336   1.368   1.996   5.996
 7146SOL    HW122337   1.389   2.047   5.913
 7146SOL    HW222338   1.270   1.999   6.014
 7147SOL     OW22339   6.513   6.733   1.860
 7147SOL    HW122340   6.480   6.697   1.772
 7147SOL    HW222341   6.485   6.828   1.869
 7148SOL     OW22342   5.722   6.944   1.234
 7148SOL    HW122343   5.720   6.967   1.137
 7148SOL    HW222344   5.795   6.878   1.251
 7149SOL     OW22345   5.784   4.202   5.806
 7149SOL    HW122346   5.714   4.192   5.877
 7149SOL    HW222347   5.783   4.121   5.748
 7150SOL     OW22348   3.180   3.428   6.702
 7150SOL    HW122349   3.273   3.402   6.676
 7150SOL    HW222350   3.135   3.351   6.747
 7151SOL     OW22351   4.519   1.126   0.413
 7151SOL    HW122352   4.597   1.180   0.382
 7151SOL    HW222353   4.521   1.037   0.368
 7152SOL     OW22354   6.367   1.038   6.450
 7152SOL    HW122355   6.401   1.112   6.508
 7152SOL    HW222356   6.408   1.046   6.359
 7153SOL     OW22357   3.712   5.659   0.272
 7153SOL    HW122358   3.771   5.588   0.312
 7153SOL    HW222359   3.725   5.662   0.173
 7154SOL     OW22360   3.887   1.818   1.675
 7154SOL    HW122361   3.966   1.862   1.634
 7154SOL    HW222362   3.805   1.872   1.658
 7155SOL     OW22363   0.944   1.266   1.746
 7155SOL    HW122364   0.902   1.342   1.696
 7155SOL    HW222365   0.934   1.283   1.845
 7156SOL     OW22366   6.213   2.972   5.541
 7156SOL    HW122367   6.206   3.064   5.502
 7156SOL    HW222368   6.212   2.978   5.641
 7157SOL     OW22369   0.157   4.094   6.204
 7157SOL    HW122370   0.160   4.162   6.130
 7157SOL    HW222371   0.063   4.088   6.239
 7158SOL     OW22372   4.559   6.848   4.006
 7158SOL    HW122373   4.656   6.866   4.021
 7158SOL    HW222374   4.548   6.781   3.932
 7159SOL     OW22375   0.087   6.268   3.598
 7159SOL    HW122376   0.168   6.240   3.546
 7159SOL    HW222377   0.071   6.204   3.672
 7160SOL     OW22378   6.276   0.093   3.768
 7160SOL    HW122379   6.339   0.077   3.691
 7160SOL    HW222380   6.183   0.075   3.739
 7161SOL     OW22381   3.870   3.575   3.067
 7161SOL    HW122382   3.905   3.667   3.082
 7161SOL    HW222383   3.852   3.562   2.970
 7162SOL     OW22384   0.408   5.961   1.578
 7162SOL    HW122385   0.488   5.987   1.632
 7162SOL    HW222386   0.413   5.864   1.554
 7163SOL     OW22387   6.845   0.912   0.784
 7163SOL    HW122388   6.769   0.927   0.848
 7163SOL    HW222389   6.911   0.986   0.792
 7164SOL     OW22390   1.968   0.932   6.844
 7164SOL    HW122391   1.897   0.947   6.912
 7164SOL    HW222392   2.054   0.972   6.876
 7165SOL     OW22393   6.208   2.020   0.634
 7165SOL    HW122394   6.216   2.035   0.732
 7165SOL    HW222395   6.115   2.042   0.605
 7166SOL     OW22396   6.805   5.875   5.983
 7166SOL    HW122397   6.875   5.915   5.923
 7166SOL    HW222398   6.772   5.789   5.943
 7167SOL     OW22399   6.610   2.563   4.990
 7167SOL    HW122400   6.698   2.603   5.014
 7167SOL    HW222401   6.606   2.550   4.891
 7168SOL     OW22402   1.939   1.164   1.865
 7168SOL    HW122403   2.005   1.212   1.923
 7168SOL    HW222404   1.945   1.199   1.772
 7169SOL     OW22405   2.190   4.004   6.291
 7169SOL    HW122406   2.246   3.963   6.218
 7169SOL    HW222407   2.093   3.996   6.267
 7170SOL     OW22408   3.881   1.766   1.280
 7170SOL    HW122409   3.838   1.783   1.191
 7170SOL    HW222410   3.824   1.704   1.333
 7171SOL     OW22411   6.935   4.013   0.689
 7171SOL    HW122412   6.908   3.939   0.751
 7171SOL    HW222413   6.978   3.974   0.608
 7172SOL     OW22414   0.960   2.518   4.032
 7172SOL    HW122415   0.894   2.593   4.036
 7172SOL    HW222416   0.911   2.431   4.025
 7173SOL     OW22417   4.807   4.985   5.905
 7173SOL    HW122418   4.797   4.892   5.872
 7173SOL    HW222419   4.814   5.048   5.827
 7174SOL     OW22420   6.672   4.487   1.987
 7174SOL    HW122421   6.607   4.554   2.023
 7174SOL    HW222422   6.640   4.395   2.008
 7175SOL     OW22423   6.699   3.757   5.806
 7175SOL    HW122424   6.636   3.693   5.762
 7175SOL    HW222425   6.729   3.719   5.893
 7176SOL     OW22426   0.314   0.373   6.097
 7176SOL    HW122427   0.391   0.420   6.054
 7176SOL    HW222428   0.346   0.287   6.139
 7177SOL     OW22429   1.368   5.855   3.942
 7177SOL    HW122430   1.310   5.773   3.938
 7177SOL    HW222431   1.324   5.924   3.999
 7178SOL     OW22432   2.107   6.430   4.938
 7178SOL    HW122433   2.031   6.493   4.925
 7178SOL    HW222434   2.165   6.431   4.857
 7179SOL     OW22435   3.758   5.171   6.377
 7179SOL    HW122436   3.728   5.078   6.356
 7179SOL    HW222437   3.848   5.187   6.337
 7180SOL     OW22438   1.762   3.072   1.651
 7180SOL    HW122439   1.742   3.057   1.555
 7180SOL    HW222440   1.774   2.983   1.697
 7181SOL     OW22441   2.525   1.591   6.382
 7181SOL    HW122442   2.504   1.639   6.467
 7181SOL    HW222443   2.463   1.513   6.372
 7182SOL     OW22444   1.792   1.240   4.265
 7182SOL    HW122445   1.775   1.244   4.166
 7182SOL    HW222446   1.795   1.144   4.294
 7183SOL     OW22447   1.282   6.698   1.883
 7183SOL    HW122448   1.355   6.763   1.865
 7183SOL    HW222449   1.239   6.671   1.797
 7184SOL     OW22450   6.615   0.547   3.915
 7184SOL    HW122451   6.621   0.630   3.970
 7184SOL    HW222452   6.603   0.468   3.975
 7185SOL     OW22453   4.144   0.817   4.905
 7185SOL    HW122454   4.240   0.822   4.932
 7185SOL    HW222455   4.113   0.722   4.909
 7186SOL     OW22456   6.467   0.680   6.569
 7186SOL    HW122457   6.457   0.647   6.475
 7186SOL    HW222458   6.395   0.639   6.626
 7187SOL     OW22459   3.229   3.269   4.035
 7187SOL    HW122460   3.190   3.178   4.051
 7187SOL    HW222461   3.311   3.280   4.092
 7188SOL     OW22462   4.372   4.430   0.041
 7188SOL    HW122463   4.363   4.413   6.961
 7188SOL    HW222464   4.317   4.510   0.066
 7189SOL     OW22465   6.418   2.767   5.815
 7189SOL    HW122466   6.345   2.798   5.876
 7189SOL    HW222467   6.388   2.688   5.763
 7190SOL     OW22468   6.097   5.013   0.396
 7190SOL    HW122469   6.065   4.927   0.358
 7190SOL    HW222470   6.161   5.056   0.333
 7191SOL     OW22471   6.511   4.915   3.139
 7191SOL    HW122472   6.432   4.936   3.081
 7191SOL    HW222473   6.569   4.849   3.092
 7192SOL     OW22474   2.690   4.198   6.607
 7192SOL    HW122475   2.721   4.292   6.591
 7192SOL    HW222476   2.606   4.181   6.556
 7193SOL     OW22477   3.473   2.115   2.711
 7193SOL    HW122478   3.554   2.083   2.759
 7193SOL    HW222479   3.488   2.112   2.612
 7194SOL     OW22480   2.824   3.095   6.046
 7194SOL    HW122481   2.784   3.172   6.095
 7194SOL    HW222482   2.763   3.016   6.053
 7195SOL     OW22483   0.691   4.975   5.040
 7195SOL    HW122484   0.789   4.958   5.057
 7195SOL    HW222485   0.652   5.025   5.117
 7196SOL     OW22486   3.302   4.007   2.224
 7196SOL    HW122487   3.240   4.039   2.296
 7196SOL    HW222488   3.396   4.034   2.247
 7197SOL     OW22489   2.914   4.709   6.441
 7197SOL    HW122490   2.837   4.767   6.466
 7197SOL    HW222491   3.000   4.760   6.455
 7198SOL     OW22492   0.854   0.610   1.967
 7198SOL    HW122493   0.793   0.547   2.016
 7198SOL    HW222494   0.801   0.684   1.928
 7199SOL     OW22495   6.141   1.685   2.671
 7199SOL    HW122496   6.202   1.643   2.604
 7199SOL    HW222497   6.046   1.673   2.642
 7200SOL     OW22498   1.030   2.299   0.923
 7200SOL    HW122499   1.042   2.342   1.012
 7200SOL    HW222500   1.038   2.200   0.933
 7201SOL     OW22501   5.806   5.121   3.946
 7201SOL    HW122502   5.898   5.087   3.928
 7201SOL    HW222503   5.796   5.144   4.043
 7202SOL     OW22504   5.009   0.212   6.240
 7202SOL    HW122505   5.011   0.213   6.340
 7202SOL    HW222506   5.005   0.307   6.207
 7203SOL     OW22507   0.281   1.372   1.245
 7203SOL    HW122508   0.313   1.357   1.151
 7203SOL    HW222509   0.280   1.470   1.265
 7204SOL     OW22510   6.664   0.654   2.313
 7204SOL    HW122511   6.729   0.709   2.259
 7204SOL    HW222512   6.704   0.566   2.335
 7205SOL     OW22513   2.946   1.910   3.884
 7205SOL    HW122514   2.981   1.910   3.977
 7205SOL    HW222515   2.847   1.918   3.885
 7206SOL     OW22516   1.986   3.351   0.044
 7206SOL    HW122517   1.897   3.395   0.050
 7206SOL    HW222518   1.990   3.275   0.109
 7207SOL     OW22519   1.801   0.697   3.412
 7207SOL    HW122520   1.704   0.724   3.409
 7207SOL    HW222521   1.856   0.765   3.363
 7208SOL     OW22522   2.835   0.592   4.391
 7208SOL    HW122523   2.877   0.563   4.305
 7208SOL    HW222524   2.862   0.529   4.464
 7209SOL     OW22525   3.913   1.354   2.247
 7209SOL    HW122526   3.966   1.293   2.305
 7209SOL    HW222527   3.901   1.312   2.156
 7210SOL     OW22528   2.761   1.547   3.203
 7210SOL    HW122529   2.677   1.601   3.204
 7210SOL    HW222530   2.739   1.450   3.214
 7211SOL     OW22531   4.810   6.204   5.407
 7211SOL    HW122532   4.738   6.217   5.339
 7211SOL    HW222533   4.833   6.293   5.448
 7212SOL     OW22534   0.365   4.685   6.139
 7212SOL    HW122535   0.373   4.591   6.107
 7212SOL    HW222536   0.293   4.732   6.088
 7213SOL     OW22537   3.900   2.482   6.806
 7213SOL    HW122538   3.944   2.419   6.870
 7213SOL    HW222539   3.901   2.575   6.844
 7214SOL     OW22540   6.583   0.746   6.049
 7214SOL    HW122541   6.565   0.798   5.965
 7214SOL    HW222542   6.597   0.650   6.026
 7215SOL     OW22543   5.977   2.297   2.563
 7215SOL    HW122544   6.065   2.285   2.608
 7215SOL    HW222545   5.904   2.270   2.625
 7216SOL     OW22546   3.659   6.565   3.370
 7216SOL    HW122547   3.690   6.593   3.279
 7216SOL    HW222548   3.699   6.476   3.393
 7217SOL     OW22549   1.208   2.989   2.816
 7217SOL    HW122550   1.278   3.043   2.769
 7217SOL    HW222551   1.135   3.049   2.847
 7218SOL     OW22552   6.655   3.053   4.693
 7218SOL    HW122553   6.686   3.136   4.647
 7218SOL    HW222554   6.555   3.055   4.702
 7219SOL     OW22555   3.504   6.414   2.670
 7219SOL    HW122556   3.490   6.347   2.597
 7219SOL    HW222557   3.555   6.372   2.745
 7220SOL     OW22558   6.373   4.871   3.802
 7220SOL    HW122559   6.398   4.774   3.805
 7220SOL    HW222560   6.319   4.888   3.719
 7221SOL     OW22561   3.754   5.944   3.543
 7221SOL    HW122562   3.715   5.975   3.630
 7221SOL    HW222563   3.763   5.844   3.545
 7222SOL     OW22564   6.556   6.027   4.608
 7222SOL    HW122565   6.538   5.970   4.688
 7222SOL    HW222566   6.601   5.973   4.537
 7223SOL     OW22567   0.263   4.269   1.939
 7223SOL    HW122568   0.269   4.339   1.867
 7223SOL    HW222569   0.354   4.231   1.956
 7224SOL     OW22570   4.164   2.011   2.496
 7224SOL    HW122571   4.068   1.997   2.469
 7224SOL    HW222572   4.178   2.107   2.521
 7225SOL     OW22573   1.510   5.785   1.023
 7225SOL    HW122574   1.441   5.734   1.074
 7225SOL    HW222575   1.601   5.760   1.055
 7226SOL     OW22576   6.346   6.380   0.549
 7226SOL    HW122577   6.433   6.421   0.578
 7226SOL    HW222578   6.320   6.308   0.613
 7227SOL     OW22579   2.108   0.894   2.619
 7227SOL    HW122580   2.035   0.857   2.675
 7227SOL    HW222581   2.128   0.988   2.647
 7228SOL     OW22582   0.144   3.029   2.122
 7228SOL    HW122583   0.230   3.077   2.139
 7228SOL    HW222584   0.069   3.076   2.170
 7229SOL     OW22585   6.400   1.076   5.247
 7229SOL    HW122586   6.386   0.978   5.260
 7229SOL    HW222587   6.319   1.126   5.278
 7230SOL     OW22588   1.900   5.255   4.464
 7230SOL    HW122589   1.825   5.321   4.456
 7230SOL    HW222590   1.889   5.200   4.546
 7231SOL     OW22591   4.311   2.070   6.327
 7231SOL    HW122592   4.290   2.133   6.402
 7231SOL    HW222593   4.226   2.036   6.287
 7232SOL     OW22594   5.029   6.769   3.602
 7232SOL    HW122595   5.085   6.836   3.652
 7232SOL    HW222596   4.975   6.817   3.533
 7233SOL     OW22597   7.017   1.167   4.915
 7233SOL    HW122598   6.953   1.106   4.962
 7233SOL    HW222599   0.073   1.113   4.875
 7234SOL     OW22600   5.125   3.982   3.521
 7234SOL    HW122601   5.098   3.905   3.463
 7234SOL    HW222602   5.126   4.066   3.467
 7235SOL     OW22603   0.361   5.409   1.401
 7235SOL    HW122604   0.359   5.423   1.500
 7235SOL    HW222605   0.405   5.322   1.381
 7236SOL     OW22606   0.919   3.321   2.725
 7236SOL    HW122607   0.960   3.397   2.675
 7236SOL    HW222608   0.839   3.287   2.674
 7237SOL     OW22609   5.739   1.058   0.463
 7237SOL    HW122610   5.833   1.077   0.436
 7237SOL    HW222611   5.706   1.133   0.521
 7238SOL     OW22612   4.122   3.176   6.825
 7238SOL    HW122613   4.176   3.123   6.890
 7238SOL    HW222614   4.028   3.185   6.858
 7239SOL     OW22615   6.802   2.443   2.125
 7239SOL    HW122616   6.745   2.402   2.054
 7239SOL    HW222617   6.889   2.472   2.085
 7240SOL     OW22618   6.391   1.917   6.755
 7240SOL    HW122619   6.299   1.953   6.741
 7240SOL    HW222620   6.409   1.909   6.853
 7241SOL     OW22621   2.214   1.247   1.580
 7241SOL    HW122622   2.224   1.270   1.483
 7241SOL    HW222623   2.305   1.228   1.618
 7242SOL     OW22624   6.525   5.142   4.542
 7242SOL    HW122625   6.468   5.176   4.467
 7242SOL    HW222626   6.500   5.046   4.561
 7243SOL     OW22627   5.952   4.306   5.992
 7243SOL    HW122628   5.901   4.296   5.906
 7243SOL    HW222629   5.906   4.374   6.050
 7244SOL     OW22630   0.534   5.832   6.687
 7244SOL    HW122631   0.469   5.758   6.698
 7244SOL    HW222632   0.588   5.818   6.604
 7245SOL     OW22633   0.771   2.889   0.239
 7245SOL    HW122634   0.758   2.982   0.206
 7245SOL    HW222635   0.851   2.886   0.299
 7246SOL     OW22636   3.704   6.538   3.823
 7246SOL    HW122637   3.625   6.574   3.773
 7246SOL    HW222638   3.673   6.481   3.899
 7247SOL     OW22639   3.009   3.981   5.360
 7247SOL    HW122640   2.964   3.912   5.416
 7247SOL    HW222641   3.108   3.974   5.374
 7248SOL     OW22642   3.423   1.282   5.239
 7248SOL    HW122643   3.326   1.260   5.250
 7248SOL    HW222644   3.457   1.243   5.154
 7249SOL     OW22645   3.622   5.259   2.385
 7249SOL    HW122646   3.635   5.264   2.484
 7249SOL    HW222647   3.639   5.349   2.345
 7250SOL     OW22648   5.642   5.412   5.532
 7250SOL    HW122649   5.651   5.336   5.596
 7250SOL    HW222650   5.658   5.498   5.580
 7251SOL     OW22651   0.089   5.602   5.564
 7251SOL    HW122652   0.054   5.651   5.484
 7251SOL    HW222653   0.014   5.590   5.630
 7252SOL     OW22654   3.823   4.037   2.385
 7252SOL    HW122655   3.723   4.037   2.393
 7252SOL    HW222656   3.860   4.122   2.421
 7253SOL     OW22657   1.737   5.959   4.951
 7253SOL    HW122658   1.748   6.036   5.014
 7253SOL    HW222659   1.769   5.875   4.996
 7254SOL     OW22660   5.363   3.332   4.027
 7254SOL    HW122661   5.336   3.410   3.970
 7254SOL    HW222662   5.302   3.327   4.106
 7255SOL     OW22663   5.057   3.209   6.693
 7255SOL    HW122664   5.025   3.149   6.767
 7255SOL    HW222665   4.992   3.204   6.617
 7256SOL     OW22666   3.346   0.176   5.655
 7256SOL    HW122667   3.410   0.224   5.595
 7256SOL    HW222668   3.325   0.233   5.734
 7257SOL     OW22669   0.300   1.569   4.425
 7257SOL    HW122670   0.335   1.532   4.339
 7257SOL    HW222671   0.361   1.640   4.459
 7258SOL     OW22672   6.198   2.257   2.935
 7258SOL    HW122673   6.271   2.249   3.004
 7258SOL    HW222674   6.124   2.313   2.972
 7259SOL     OW22675   1.660   4.192   2.887
 7259SOL    HW122676   1.655   4.116   2.822
 7259SOL    HW222677   1.569   4.209   2.925
 7260SOL     OW22678   6.008   3.183   1.544
 7260SOL    HW122679   6.095   3.181   1.495
 7260SOL    HW222680   6.018   3.235   1.629
 7261SOL     OW22681   6.870   4.098   6.819
 7261SOL    HW122682   6.964   4.134   6.813
 7261SOL    HW222683   6.807   4.173   6.836
 7262SOL     OW22684   6.371   1.411   5.600
 7262SOL    HW122685   6.450   1.473   5.603
 7262SOL    HW222686   6.345   1.386   5.693
 7263SOL     OW22687   0.161   5.063   6.711
 7263SOL    HW122688   0.078   5.088   6.761
 7263SOL    HW222689   0.171   5.123   6.631
 7264SOL     OW22690   6.225   1.737   0.856
 7264SOL    HW122691   6.225   1.727   0.955
 7264SOL    HW222692   6.131   1.751   0.824
 7265SOL     OW22693   4.380   5.519   5.651
 7265SOL    HW122694   4.339   5.607   5.626
 7265SOL    HW222695   4.308   5.450   5.660
 7266SOL     OW22696   0.159   0.669   3.812
 7266SOL    HW122697   0.076   0.726   3.811
 7266SOL    HW222698   0.165   0.622   3.899
 7267SOL     OW22699   6.210   4.925   4.278
 7267SOL    HW122700   6.127   4.971   4.246
 7267SOL    HW222701   6.259   4.887   4.200
 7268SOL     OW22702   6.137   6.177   4.242
 7268SOL    HW122703   6.061   6.217   4.190
 7268SOL    HW222704   6.214   6.160   4.181
 7269SOL     OW22705   2.415   4.491   4.968
 7269SOL    HW122706   2.456   4.471   5.057
 7269SOL    HW222707   2.477   4.550   4.916
 7270SOL     OW22708   0.926   1.233   4.289
 7270SOL    HW122709   0.897   1.145   4.251
 7270SOL    HW222710   1.022   1.227   4.315
 7271SOL     OW22711   0.972   4.369   3.614
 7271SOL    HW122712   0.916   4.452   3.606
 7271SOL    HW222713   0.929   4.307   3.679
 7272SOL     OW22714   6.385   4.767   2.886
 7272SOL    HW122715   6.466   4.761   2.945
 7272SOL    HW222716   6.363   4.863   2.870
 7273SOL     OW22717   0.295   2.344   5.530
 7273SOL    HW122718   0.288   2.404   5.610
 7273SOL    HW222719   0.340   2.258   5.557
 7274SOL     OW22720   0.625   4.542   0.317
 7274SOL    HW122721   0.527   4.551   0.338
 7274SOL    HW222722   0.678   4.593   0.385
 7275SOL     OW22723   6.836   0.352   2.876
 7275SOL    HW122724   6.797   0.287   2.941
 7275SOL    HW222725   6.791   0.441   2.886
 7276SOL     OW22726   5.080   6.478   4.149
 7276SOL    HW122727   5.002   6.519   4.102
 7276SOL    HW222728   5.081   6.379   4.131
 7277SOL     OW22729   4.932   7.005   6.089
 7277SOL    HW122730   4.858   0.015   6.028
 7277SOL    HW222731   4.965   0.066   6.141
 7278SOL     OW22732   3.250   4.021   3.010
 7278SOL    HW122733   3.278   4.086   3.080
 7278SOL    HW222734   3.194   3.949   3.052
 7279SOL     OW22735   3.607   6.301   6.045
 7279SOL    HW122736   3.607   6.366   5.969
 7279SOL    HW222737   3.523   6.311   6.098
 7280SOL     OW22738   4.926   1.662   6.256
 7280SOL    HW122739   4.897   1.578   6.210
 7280SOL    HW222740   4.941   1.734   6.188
 7281SOL     OW22741   4.579   1.273   6.904
 7281SOL    HW122742   4.586   1.308   6.997
 7281SOL    HW222743   4.547   1.179   6.906
 7282SOL     OW22744   6.313   5.855   2.381
 7282SOL    HW122745   6.361   5.924   2.435
 7282SOL    HW222746   6.362   5.768   2.387
 7283SOL     OW22747   1.897   0.670   3.865
 7283SOL    HW122748   1.812   0.618   3.854
 7283SOL    HW222749   1.974   0.607   3.875
 7284SOL     OW22750   6.745   4.161   5.203
 7284SOL    HW122751   6.758   4.230   5.275
 7284SOL    HW222752   6.818   4.093   5.208
 7285SOL     OW22753   5.164   5.532   1.614
 7285SOL    HW122754   5.122   5.528   1.523
 7285SOL    HW222755   5.250   5.583   1.608
 7286SOL     OW22756   2.240   3.165   1.372
 7286SOL    HW122757   2.191   3.234   1.424
 7286SOL    HW222758   2.210   3.074   1.401
 7287SOL     OW22759   6.049   1.202   6.280
 7287SOL    HW122760   5.983   1.219   6.206
 7287SOL    HW222761   6.080   1.289   6.317
 7288SOL     OW22762   3.891   6.859   0.097
 7288SOL    HW122763   3.857   6.765   0.100
 7288SOL    HW222764   3.969   6.868   0.158
 7289SOL     OW22765   4.649   2.242   2.867
 7289SOL    HW122766   4.554   2.251   2.896
 7289SOL    HW222767   4.689   2.160   2.909
 7290SOL     OW22768   2.621   5.142   4.864
 7290SOL    HW122769   2.718   5.119   4.854
 7290SOL    HW222770   2.595   5.210   4.795
 7291SOL     OW22771   2.361   6.032   1.476
 7291SOL    HW122772   2.459   6.041   1.495
 7291SOL    HW222773   2.324   5.956   1.529
 7292SOL     OW22774   2.497   6.800   3.853
 7292SOL    HW122775   2.577   6.816   3.795
 7292SOL    HW222776   2.506   6.710   3.897
 7293SOL     OW22777   1.604   2.178   5.252
 7293SOL    HW122778   1.520   2.125   5.261
 7293SOL    HW222779   1.642   2.196   5.343
 7294SOL     OW22780   3.068   5.061   0.763
 7294SOL    HW122781   3.011   5.107   0.830
 7294SOL    HW222782   3.069   4.962   0.782
 7295SOL     OW22783   6.303   0.577   1.170
 7295SOL    HW122784   6.391   0.576   1.217
 7295SOL    HW222785   6.313   0.626   1.083
 7296SOL     OW22786   3.689   4.917   1.425
 7296SOL    HW122787   3.718   4.838   1.478
 7296SOL    HW222788   3.612   4.962   1.471
 7297SOL     OW22789   4.908   6.543   1.606
 7297SOL    HW122790   4.812   6.558   1.582
 7297SOL    HW222791   4.919   6.548   1.705
 7298SOL     OW22792   5.772   3.616   4.298
 7298SOL    HW122793   5.845   3.621   4.230
 7298SOL    HW222794   5.714   3.697   4.291
 7299SOL     OW22795   6.398   4.143   6.901
 7299SOL    HW122796   6.414   4.187   6.989
 7299SOL    HW222797   6.401   4.211   6.828
 7300SOL     OW22798   5.059   5.407   1.304
 7300SOL    HW122799   5.157   5.389   1.316
 7300SOL    HW222800   5.026   5.356   1.224
 7301SOL     OW22801   6.872   6.911   6.245
 7301SOL    HW122802   6.775   6.928   6.262
 7301SOL    HW222803   6.895   6.937   6.151
 7302SOL     OW22804   5.647   0.845   6.717
 7302SOL    HW122805   5.605   0.818   6.803
 7302SOL    HW222806   5.725   0.786   6.698
 7303SOL     OW22807   3.089   0.578   6.883
 7303SOL    HW122808   3.028   0.554   6.807
 7303SOL    HW222809   3.081   0.508   6.955
 7304SOL     OW22810   4.025   4.039   6.288
 7304SOL    HW122811   4.011   3.985   6.205
 7304SOL    HW222812   4.089   4.114   6.268
 7305SOL     OW22813   4.877   1.183   0.469
 7305SOL    HW122814   4.944   1.120   0.431
 7305SOL    HW222815   4.914   1.276   0.468
 7306SOL     OW22816   4.406   5.264   1.687
 7306SOL    HW122817   4.329   5.327   1.695
 7306SOL    HW222818   4.470   5.299   1.618
 7307SOL     OW22819   4.306   6.707   2.096
 7307SOL    HW122820   4.328   6.799   2.062
 7307SOL    HW222821   4.346   6.638   2.036
 7308SOL     OW22822   6.898   3.065   4.844
 7308SOL    HW122823   6.888   3.015   4.930
 7308SOL    HW222824   6.808   3.073   4.800
 7309SOL     OW22825   4.744   6.338   1.464
 7309SOL    HW122826   4.723   6.311   1.558
 7309SOL    HW222827   4.807   6.416   1.465
 7310SOL     OW22828   2.971   4.938   1.498
 7310SOL    HW122829   3.066   4.943   1.529
 7310SOL    HW222830   2.957   4.852   1.448
 7311SOL     OW22831   2.729   2.159   2.052
 7311SOL    HW122832   2.817   2.205   2.059
 7311SOL    HW222833   2.684   2.186   1.966
 7312SOL     OW22834   6.530   1.563   5.839
 7312SOL    HW122835   6.608   1.502   5.826
 7312SOL    HW222836   6.562   1.658   5.838
 7313SOL     OW22837   4.101   2.751   6.634
 7313SOL    HW122838   4.162   2.830   6.641
 7313SOL    HW222839   4.060   2.732   6.723
 7314SOL     OW22840   6.974   3.591   4.597
 7314SOL    HW122841   7.014   3.537   4.524
 7314SOL    HW222842   0.028   3.628   4.656
 7315SOL     OW22843   6.475   7.014   3.939
 7315SOL    HW122844   6.506   6.944   3.876
 7315SOL    HW222845   6.417   0.062   3.890
 7316SOL     OW22846   3.627   3.524   5.600
 7316SOL    HW122847   3.593   3.593   5.536
 7316SOL    HW222848   3.619   3.557   5.693
 7317SOL     OW22849   3.313   1.101   3.471
 7317SOL    HW122850   3.357   1.082   3.559
 7317SOL    HW222851   3.363   1.173   3.423
 7318SOL     OW22852   1.445   2.421   1.204
 7318SOL    HW122853   1.411   2.497   1.259
 7318SOL    HW222854   1.544   2.430   1.192
 7319SOL     OW22855   6.129   4.192   6.739
 7319SOL    HW122856   6.170   4.101   6.742
 7319SOL    HW222857   6.115   4.219   6.644
 7320SOL     OW22858   6.941   3.300   2.491
 7320SOL    HW122859   0.019   3.314   2.515
 7320SOL    HW222860   6.897   3.242   2.560
 7321SOL     OW22861   2.710   1.226   4.536
 7321SOL    HW122862   2.732   1.321   4.513
 7321SOL    HW222863   2.786   1.185   4.587
 7322SOL     OW22864   0.580   4.142   2.813
 7322SOL    HW122865   0.609   4.234   2.786
 7322SOL    HW222866   0.584   4.080   2.735
 7323SOL     OW22867   1.894   2.711   4.100
 7323SOL    HW122868   1.866   2.616   4.112
 7323SOL    HW222869   1.899   2.755   4.190
 7324SOL     OW22870   5.989   0.772   3.174
 7324SOL    HW122871   5.940   0.750   3.258
 7324SOL    HW222872   5.961   0.709   3.102
 7325SOL     OW22873   3.312   6.213   6.464
 7325SOL    HW122874   3.261   6.293   6.496
 7325SOL    HW222875   3.267   6.130   6.497
 7326SOL     OW22876   2.937   6.808   5.831
 7326SOL    HW122877   2.955   6.905   5.850
 7326SOL    HW222878   2.846   6.783   5.865
 7327SOL     OW22879   1.518   3.225   6.153
 7327SOL    HW122880   1.473   3.170   6.083
 7327SOL    HW222881   1.519   3.175   6.240
 7328SOL     OW22882   2.402   0.119   6.506
 7328SOL    HW122883   2.315   0.149   6.546
 7328SOL    HW222884   2.461   0.199   6.493
 7329SOL     OW22885   3.819   3.642   0.801
 7329SOL    HW122886   3.755   3.566   0.789
 7329SOL    HW222887   3.788   3.721   0.747
 7330SOL     OW22888   3.529   1.367   0.290
 7330SOL    HW122889   3.615   1.366   0.239
 7330SOL    HW222890   3.455   1.336   0.230
 7331SOL     OW22891   5.240   0.774   2.210
 7331SOL    HW122892   5.189   0.697   2.249
 7331SOL    HW222893   5.239   0.769   2.111
 7332SOL     OW22894   3.635   5.374   0.996
 7332SOL    HW122895   3.578   5.329   0.926
 7332SOL    HW222896   3.619   5.330   1.085
 7333SOL     OW22897   1.042   4.595   2.436
 7333SOL    HW122898   0.951   4.631   2.459
 7333SOL    HW222899   1.061   4.515   2.492
 7334SOL     OW22900   4.180   6.384   4.610
 7334SOL    HW122901   4.194   6.481   4.590
 7334SOL    HW222902   4.115   6.346   4.544
 7335SOL     OW22903   1.746   2.105   2.695
 7335SOL    HW122904   1.756   2.033   2.628
 7335SOL    HW222905   1.686   2.074   2.769
 7336SOL     OW22906   2.225   5.954   3.876
 7336SOL    HW122907   2.213   6.041   3.828
 7336SOL    HW222908   2.135   5.919   3.904
 7337SOL     OW22909   6.965   3.210   2.223
 7337SOL    HW122910   6.968   3.227   2.321
 7337SOL    HW222911   6.870   3.217   2.191
 7338SOL     OW22912   6.836   2.238   0.593
 7338SOL    HW122913   6.931   2.233   0.563
 7338SOL    HW222914   6.826   2.188   0.679
 7339SOL     OW22915   0.027   5.481   4.656
 7339SOL    HW122916   0.071   5.395   4.630
 7339SOL    HW222917   6.966   5.497   4.595
 7340SOL     OW22918   2.325   6.869   6.820
 7340SOL    HW122919   2.308   6.966   6.838
 7340SOL    HW222920   2.239   6.823   6.801
 7341SOL     OW22921   6.075   2.454   6.313
 7341SOL    HW122922   6.094   2.373   6.258
 7341SOL    HW222923   6.096   2.435   6.409
 7342SOL     OW22924   0.135   0.157   2.585
 7342SOL    HW122925   0.182   0.219   2.522
 7342SOL    HW222926   0.127   0.067   2.544
 7343SOL     OW22927   4.978   3.830   0.511
 7343SOL    HW122928   5.018   3.740   0.523
 7343SOL    HW222929   4.899   3.823   0.450
 7344SOL     OW22930   1.542   6.156   6.308
 7344SOL    HW122931   1.633   6.115   6.305
 7344SOL    HW222932   1.474   6.088   6.282
 7345SOL     OW22933   3.590   5.073   5.826
 7345SOL    HW122934   3.516   5.039   5.770
 7345SOL    HW222935   3.559   5.086   5.920
 7346SOL     OW22936   4.780   4.946   3.190
 7346SOL    HW122937   4.721   4.963   3.111
 7346SOL    HW222938   4.724   4.913   3.267
 7347SOL     OW22939   5.601   2.352   6.438
 7347SOL    HW122940   5.654   2.355   6.523
 7347SOL    HW222941   5.561   2.442   6.421
 7348SOL     OW22942   0.434   4.737   2.222
 7348SOL    HW122943   0.448   4.819   2.167
 7348SOL    HW222944   0.336   4.720   2.232
 7349SOL     OW22945   3.978   2.063   1.572
 7349SOL    HW122946   4.024   2.146   1.539
 7349SOL    HW222947   3.892   2.088   1.616
 7350SOL     OW22948   3.406   0.297   5.156
 7350SOL    HW122949   3.483   0.359   5.170
 7350SOL    HW222950   3.327   0.349   5.124
 7351SOL     OW22951   3.164   5.066   4.128
 7351SOL    HW122952   3.181   5.103   4.220
 7351SOL    HW222953   3.092   4.996   4.133
 7352SOL     OW22954   6.995   2.621   3.474
 7352SOL    HW122955   0.033   2.618   3.556
 7352SOL    HW222956   6.901   2.644   3.498
 7353SOL     OW22957   6.393   0.617   6.323
 7353SOL    HW122958   6.436   0.625   6.233
 7353SOL    HW222959   6.311   0.674   6.326
 7354SOL     OW22960   1.201   1.550   2.906
 7354SOL    HW122961   1.204   1.577   2.810
 7354SOL    HW222962   1.294   1.543   2.942
 7355SOL     OW22963   1.058   2.119   6.926
 7355SOL    HW122964   0.977   2.126   6.985
 7355SOL    HW222965   1.063   2.027   6.888
 7356SOL     OW22966   4.435   3.996   6.255
 7356SOL    HW122967   4.512   3.935   6.272
 7356SOL    HW222968   4.469   4.088   6.237
 7357SOL     OW22969   5.257   6.375   2.185
 7357SOL    HW122970   5.274   6.367   2.283
 7357SOL    HW222971   5.175   6.323   2.161
 7358SOL     OW22972   5.027   1.345   3.775
 7358SOL    HW122973   4.980   1.343   3.687
 7358SOL    HW222974   4.962   1.375   3.846
 7359SOL     OW22975   5.020   0.124   0.563
 7359SOL    HW122976   5.032   0.117   0.464
 7359SOL    HW222977   5.045   0.216   0.593
 7360SOL     OW22978   2.830   3.565   5.565
 7360SOL    HW122979   2.780   3.585   5.481
 7360SOL    HW222980   2.927   3.553   5.543
 7361SOL     OW22981   5.201   0.562   3.266
 7361SOL    HW122982   5.216   0.602   3.175
 7361SOL    HW222983   5.263   0.604   3.332
 7362SOL     OW22984   3.595   4.673   6.217
 7362SOL    HW122985   3.692   4.673   6.193
 7362SOL    HW222986   3.585   4.658   6.315
 7363SOL     OW22987   3.823   0.015   1.369
 7363SOL    HW122988   3.891   0.012   1.443
 7363SOL    HW222989   3.866   7.001   1.284
 7364SOL     OW22990   5.323   6.961   1.540
 7364SOL    HW122991   5.416   6.997   1.551
 7364SOL    HW222992   5.288   6.983   1.449
 7365SOL     OW22993   5.950   4.607   2.083
 7365SOL    HW122994   5.939   4.704   2.107
 7365SOL    HW222995   5.885   4.583   2.011
 7366SOL     OW22996   2.207   1.016   4.312
 7366SOL    HW122997   2.113   1.047   4.302
 7366SOL    HW222998   2.260   1.045   4.232
 7367SOL     OW22999   4.575   0.224   6.630
 7367SOL    HW123000   4.494   0.264   6.587
 7367SOL    HW223001   4.582   0.256   6.724
 7368SOL     OW23002   4.098   3.431   3.429
 7368SOL    HW123003   4.090   3.525   3.461
 7368SOL    HW223004   4.117   3.430   3.331
 7369SOL     OW23005   5.589   2.633   1.204
 7369SOL    HW123006   5.639   2.577   1.270
 7369SOL    HW223007   5.523   2.575   1.155
 7370SOL     OW23008   2.082   1.810   4.332
 7370SOL    HW123009   2.048   1.854   4.249
 7370SOL    HW223010   2.181   1.823   4.338
 7371SOL     OW23011   3.758   0.695   3.592
 7371SOL    HW123012   3.794   0.788   3.584
 7371SOL    HW223013   3.832   0.633   3.617
 7372SOL     OW23014   5.075   0.910   5.183
 7372SOL    HW123015   5.030   0.871   5.263
 7372SOL    HW223016   5.172   0.886   5.184
 7373SOL     OW23017   5.630   3.103   4.571
 7373SOL    HW123018   5.550   3.088   4.628
 7373SOL    HW223019   5.700   3.035   4.592
 7374SOL     OW23020   6.597   1.829   6.003
 7374SOL    HW123021   6.678   1.773   6.018
 7374SOL    HW223022   6.625   1.919   5.968
 7375SOL     OW23023   2.133   3.289   2.405
 7375SOL    HW123024   2.134   3.205   2.459
 7375SOL    HW223025   2.097   3.270   2.314
 7376SOL     OW23026   0.288   3.793   6.926
 7376SOL    HW123027   0.225   3.773   6.852
 7376SOL    HW223028   0.350   3.867   6.897
 7377SOL     OW23029   3.159   6.254   0.704
 7377SOL    HW123030   3.156   6.178   0.638
 7377SOL    HW223031   3.182   6.218   0.795
 7378SOL     OW23032   1.456   6.304   3.777
 7378SOL    HW123033   1.532   6.241   3.765
 7378SOL    HW223034   1.466   6.382   3.714
 7379SOL     OW23035   3.969   0.939   0.953
 7379SOL    HW123036   3.871   0.930   0.966
 7379SOL    HW223037   4.012   0.849   0.957
 7380SOL     OW23038   5.269   3.388   2.226
 7380SOL    HW123039   5.197   3.450   2.195
 7380SOL    HW223040   5.243   3.293   2.206
 7381SOL     OW23041   4.212   1.053   0.872
 7381SOL    HW123042   4.285   0.988   0.849
 7381SOL    HW223043   4.142   1.007   0.927
 7382SOL     OW23044   6.795   1.362   6.524
 7382SOL    HW123045   6.848   1.336   6.605
 7382SOL    HW223046   6.829   1.450   6.489
 7383SOL     OW23047   2.209   6.804   0.400
 7383SOL    HW123048   2.231   6.820   0.497
 7383SOL    HW223049   2.121   6.845   0.378
 7384SOL     OW23050   0.386   0.299   0.714
 7384SOL    HW123051   0.368   0.341   0.626
 7384SOL    HW223052   0.422   0.368   0.778
 7385SOL     OW23053   5.547   3.962   2.867
 7385SOL    HW123054   5.538   3.880   2.923
 7385SOL    HW223055   5.493   3.953   2.784
 7386SOL     OW23056   5.975   3.833   0.654
 7386SOL    HW123057   5.887   3.817   0.611
 7386SOL    HW223058   5.988   3.768   0.729
 7387SOL     OW23059   6.300   5.440   5.446
 7387SOL    HW123060   6.398   5.450   5.462
 7387SOL    HW223061   6.282   5.351   5.406
 7388SOL     OW23062   1.850   5.547   2.413
 7388SOL    HW123063   1.783   5.617   2.387
 7388SOL    HW223064   1.834   5.520   2.508
 7389SOL     OW23065   5.626   3.008   0.541
 7389SOL    HW123066   5.592   2.988   0.449
 7389SOL    HW223067   5.723   3.031   0.536
 7390SOL     OW23068   1.969   1.974   2.907
 7390SOL    HW123069   2.036   1.900   2.896
 7390SOL    HW223070   1.988   2.046   2.841
 7391SOL     OW23071   3.789   3.390   3.764
 7391SOL    HW123072   3.879   3.379   3.720
 7391SOL    HW223073   3.747   3.475   3.732
 7392SOL     OW23074   3.161   6.021   0.147
 7392SOL    HW123075   3.112   6.060   0.069
 7392SOL    HW223076   3.119   6.053   0.232
 7393SOL     OW23077   5.351   5.254   4.209
 7393SOL    HW123078   5.393   5.320   4.146
 7393SOL    HW223079   5.335   5.168   4.160
 7394SOL     OW23080   2.044   1.776   5.976
 7394SOL    HW123081   2.131   1.781   5.926
 7394SOL    HW223082   2.045   1.840   6.053
 7395SOL     OW23083   2.938   5.446   0.727
 7395SOL    HW123084   2.915   5.490   0.641
 7395SOL    HW223085   2.860   5.393   0.760
 7396SOL     OW23086   2.527   5.156   1.985
 7396SOL    HW123087   2.501   5.250   2.008
 7396SOL    HW223088   2.562   5.111   2.067
 7397SOL     OW23089   5.477   4.550   3.849
 7397SOL    HW123090   5.393   4.545   3.903
 7397SOL    HW223091   5.551   4.503   3.897
 7398SOL     OW23092   2.354   4.388   2.587
 7398SOL    HW123093   2.262   4.420   2.562
 7398SOL    HW223094   2.370   4.298   2.547
 7399SOL     OW23095   5.055   2.225   5.131
 7399SOL    HW123096   5.038   2.323   5.119
 7399SOL    HW223097   5.081   2.207   5.226
 7400SOL     OW23098   5.444   2.945   5.826
 7400SOL    HW123099   5.405   2.956   5.735
 7400SOL    HW223100   5.512   3.017   5.843
 7401SOL     OW23101   1.538   2.739   3.957
 7401SOL    HW123102   1.442   2.765   3.947
 7401SOL    HW223103   1.570   2.766   4.048
 7402SOL     OW23104   3.380   6.164   4.851
 7402SOL    HW123105   3.410   6.200   4.762
 7402SOL    HW223106   3.409   6.226   4.924
 7403SOL     OW23107   1.864   3.814   4.235
 7403SOL    HW123108   1.835   3.734   4.182
 7403SOL    HW223109   1.809   3.819   4.318
 7404SOL     OW23110   3.244   3.735   1.013
 7404SOL    HW123111   3.248   3.656   0.951
 7404SOL    HW223112   3.157   3.783   0.999
 7405SOL     OW23113   3.828   6.430   4.715
 7405SOL    HW123114   3.746   6.477   4.683
 7405SOL    HW223115   3.898   6.497   4.740
 7406SOL     OW23116   0.813   1.290   4.542
 7406SOL    HW123117   0.864   1.323   4.621
 7406SOL    HW223118   0.870   1.298   4.460
 7407SOL     OW23119   0.733   5.703   5.448
 7407SOL    HW123120   0.709   5.788   5.493
 7407SOL    HW223121   0.698   5.703   5.354
 7408SOL     OW23122   3.540   4.645   5.319
 7408SOL    HW123123   3.518   4.660   5.415
 7408SOL    HW223124   3.569   4.732   5.278
 7409SOL     OW23125   6.130   3.597   0.394
 7409SOL    HW123126   6.230   3.603   0.386
 7409SOL    HW223127   6.097   3.667   0.456
 7410SOL     OW23128   0.053   0.424   1.296
 7410SOL    HW123129   6.993   0.382   1.248
 7410SOL    HW223130   0.138   0.394   1.253
 7411SOL     OW23131   1.610   1.971   5.084
 7411SOL    HW123132   1.690   1.912   5.090
 7411SOL    HW223133   1.614   2.040   5.156
 7412SOL     OW23134   4.465   6.561   6.701
 7412SOL    HW123135   4.550   6.531   6.744
 7412SOL    HW223136   4.390   6.502   6.731
 7413SOL     OW23137   4.036   0.101   3.143
 7413SOL    HW123138   3.959   0.119   3.081
 7413SOL    HW223139   4.005   0.040   3.216
 7414SOL     OW23140   3.236   1.604   4.355
 7414SOL    HW123141   3.151   1.592   4.305
 7414SOL    HW223142   3.221   1.584   4.452
 7415SOL     OW23143   3.769   6.559   6.714
 7415SOL    HW123144   3.689   6.613   6.737
 7415SOL    HW223145   3.779   6.484   6.780
 7416SOL     OW23146   0.766   0.867   1.886
 7416SOL    HW123147   0.711   0.886   1.805
 7416SOL    HW223148   0.744   0.932   1.958
 7417SOL     OW23149   0.464   1.043   3.556
 7417SOL    HW123150   0.402   0.976   3.595
 7417SOL    HW223151   0.426   1.135   3.568
 7418SOL     OW23152   1.932   4.015   6.163
 7418SOL    HW123153   1.846   3.964   6.155
 7418SOL    HW223154   1.968   4.033   6.072
 7419SOL     OW23155   6.887   3.687   3.895
 7419SOL    HW123156   6.811   3.642   3.847
 7419SOL    HW223157   6.922   3.762   3.840
 7420SOL     OW23158   6.623   0.057   1.488
 7420SOL    HW123159   6.609   6.977   1.479
 7420SOL    HW223160   6.547   0.106   1.445
 7421SOL     OW23161   4.942   4.108   1.373
 7421SOL    HW123162   5.028   4.111   1.424
 7421SOL    HW223163   4.876   4.169   1.417
 7422SOL     OW23164   5.458   1.858   2.925
 7422SOL    HW123165   5.451   1.761   2.902
 7422SOL    HW223166   5.526   1.901   2.866
 7423SOL     OW23167   5.339   1.632   6.172
 7423SOL    HW123168   5.389   1.640   6.258
 7423SOL    HW223169   5.330   1.535   6.148
 7424SOL     OW23170   0.787   2.003   3.935
 7424SOL    HW123171   0.833   2.004   4.024
 7424SOL    HW223172   0.854   2.019   3.863
 7425SOL     OW23173   5.866   0.674   0.541
 7425SOL    HW123174   5.785   0.640   0.493
 7425SOL    HW223175   5.868   0.774   0.537
 7426SOL     OW23176   3.961   3.849   6.040
 7426SOL    HW123177   3.963   3.753   6.011
 7426SOL    HW223178   4.055   3.884   6.046
 7427SOL     OW23179   2.996   1.232   3.620
 7427SOL    HW123180   2.949   1.282   3.692
 7427SOL    HW223181   3.074   1.183   3.658
 7428SOL     OW23182   4.171   6.083   5.307
 7428SOL    HW123183   4.189   5.992   5.345
 7428SOL    HW223184   4.087   6.119   5.348
 7429SOL     OW23185   1.797   6.836   2.569
 7429SOL    HW123186   1.755   6.922   2.540
 7429SOL    HW223187   1.870   6.811   2.505
 7430SOL     OW23188   6.627   5.418   2.605
 7430SOL    HW123189   6.634   5.350   2.532
 7430SOL    HW223190   6.643   5.374   2.694
 7431SOL     OW23191   1.476   1.414   3.685
 7431SOL    HW123192   1.388   1.406   3.639
 7431SOL    HW223193   1.518   1.323   3.692
 7432SOL     OW23194   2.529   0.694   3.154
 7432SOL    HW123195   2.619   0.704   3.112
 7432SOL    HW223196   2.538   0.648   3.242
 7433SOL     OW23197   2.789   0.057   6.295
 7433SOL    HW123198   2.784   0.052   6.196
 7433SOL    HW223199   2.733   7.002   6.335
 7434SOL     OW23200   4.200   6.447   5.153
 7434SOL    HW123201   4.252   6.362   5.154
 7434SOL    HW223202   4.102   6.427   5.146
 7435SOL     OW23203   4.915   4.692   3.160
 7435SOL    HW123204   4.865   4.778   3.152
 7435SOL    HW223205   4.981   4.698   3.234
 7436SOL     OW23206   5.366   2.695   6.194
 7436SOL    HW123207   5.356   2.790   6.222
 7436SOL    HW223208   5.434   2.688   6.122
 7437SOL     OW23209   3.619   0.013   0.943
 7437SOL    HW123210   3.528   6.990   0.942
 7437SOL    HW223211   3.687   6.961   0.923
 7438SOL     OW23212   2.181   0.914   0.043
 7438SOL    HW123213   2.122   0.983   0.084
 7438SOL    HW223214   2.129   0.830   0.029
 7439SOL     OW23215   1.167   4.631   6.445
 7439SOL    HW123216   1.259   4.653   6.477
 7439SOL    HW223217   1.119   4.579   6.516
 7440SOL     OW23218   5.479   3.492   4.413
 7440SOL    HW123219   5.481   3.559   4.338
 7440SOL    HW223220   5.555   3.428   4.403
 7441SOL     OW23221   6.009   5.812   1.320
 7441SOL    HW123222   6.107   5.817   1.300
 7441SOL    HW223223   5.966   5.901   1.305
 7442SOL     OW23224   5.540   0.906   5.608
 7442SOL    HW123225   5.634   0.938   5.619
 7442SOL    HW223226   5.477   0.982   5.624
 7443SOL     OW23227   0.257   1.022   1.776
 7443SOL    HW123228   0.268   1.095   1.843
 7443SOL    HW223229   0.217   0.941   1.820
 7444SOL     OW23230   1.479   6.102   6.659
 7444SOL    HW123231   1.379   6.108   6.666
 7444SOL    HW223232   1.509   6.010   6.686
 7445SOL     OW23233   4.605   6.322   1.728
 7445SOL    HW123234   4.574   6.227   1.732
 7445SOL    HW223235   4.630   6.352   1.820
 7446SOL     OW23236   5.395   3.788   0.356
 7446SOL    HW123237   5.365   3.750   0.443
 7446SOL    HW223238   5.315   3.813   0.301
 7447SOL     OW23239   0.462   4.430   0.897
 7447SOL    HW123240   0.507   4.490   0.831
 7447SOL    HW223241   0.469   4.470   0.988
 7448SOL     OW23242   4.631   4.985   6.744
 7448SOL    HW123243   4.604   5.081   6.732
 7448SOL    HW223244   4.614   4.935   6.659
 7449SOL     OW23245   0.625   4.704   6.265
 7449SOL    HW123246   0.530   4.730   6.251
 7449SOL    HW223247   0.630   4.608   6.293
 7450SOL     OW23248   5.510   2.014   5.315
 7450SOL    HW123249   5.596   2.054   5.283
 7450SOL    HW223250   5.490   1.932   5.262
 7451SOL     OW23251   5.125   4.699   3.326
 7451SOL    HW123252   5.154   4.770   3.263
 7451SOL    HW223253   5.170   4.613   3.303
 7452SOL     OW23254   6.146   5.124   5.500
 7452SOL    HW123255   6.108   5.033   5.511
 7452SOL    HW223256   6.160   5.143   5.402
 7453SOL     OW23257   3.842   6.217   6.143
 7453SOL    HW123258   3.751   6.240   6.109
 7453SOL    HW223259   3.834   6.151   6.218
 7454SOL     OW23260   4.330   2.122   0.602
 7454SOL    HW123261   4.375   2.053   0.660
 7454SOL    HW223262   4.264   2.077   0.543
 7455SOL     OW23263   6.953   2.364   2.933
 7455SOL    HW123264   6.983   2.348   3.027
 7455SOL    HW223265   0.003   2.421   2.886
 7456SOL     OW23266   2.816   2.435   5.780
 7456SOL    HW123267   2.832   2.531   5.804
 7456SOL    HW223268   2.901   2.393   5.751
 7457SOL     OW23269   2.441   0.531   2.885
 7457SOL    HW123270   2.431   0.553   2.982
 7457SOL    HW223271   2.409   0.607   2.829
 7458SOL     OW23272   1.793   5.215   5.398
 7458SOL    HW123273   1.698   5.183   5.400
 7458SOL    HW223274   1.855   5.137   5.403
 7459SOL     OW23275   5.943   0.751   2.812
 7459SOL    HW123276   5.904   0.676   2.867
 7459SOL    HW223277   5.874   0.822   2.800
 7460SOL     OW23278   1.985   6.539   0.893
 7460SOL    HW123279   2.033   6.452   0.884
 7460SOL    HW223280   2.032   6.596   0.961
 7461SOL     OW23281   1.914   4.686   6.145
 7461SOL    HW123282   1.935   4.763   6.084
 7461SOL    HW223283   1.998   4.654   6.189
 7462SOL     OW23284   1.315   5.218   0.027
 7462SOL    HW123285   1.383   5.144   0.024
 7462SOL    HW223286   1.305   5.250   0.121
 7463SOL     OW23287   3.555   5.283   1.242
 7463SOL    HW123288   3.591   5.372   1.270
 7463SOL    HW223289   3.459   5.275   1.270
 7464SOL     OW23290   6.585   6.021   5.354
 7464SOL    HW123291   6.517   6.089   5.325
 7464SOL    HW223292   6.665   6.067   5.392
 7465SOL     OW23293   1.666   4.915   0.036
 7465SOL    HW123294   1.609   4.921   6.973
 7465SOL    HW223295   1.617   4.952   0.115
 7466SOL     OW23296   0.623   0.299   5.158
 7466SOL    HW123297   0.694   0.364   5.129
 7466SOL    HW223298   0.659   0.206   5.152
 7467SOL     OW23299   0.253   2.857   5.900
 7467SOL    HW123300   0.218   2.908   5.979
 7467SOL    HW223301   0.347   2.829   5.917
 7468SOL     OW23302   6.371   4.115   5.840
 7468SOL    HW123303   6.272   4.127   5.850
 7468SOL    HW223304   6.412   4.200   5.806
 7469SOL     OW23305   6.729   2.361   0.996
 7469SOL    HW123306   6.713   2.336   1.092
 7469SOL    HW223307   6.803   2.428   0.991
 7470SOL     OW23308   5.837   2.760   3.826
 7470SOL    HW123309   5.887   2.699   3.887
 7470SOL    HW223310   5.902   2.812   3.770
 7471SOL     OW23311   4.455   6.157   6.152
 7471SOL    HW123312   4.536   6.183   6.205
 7471SOL    HW223313   4.483   6.119   6.064
 7472SOL     OW23314   6.058   6.407   5.379
 7472SOL    HW123315   6.090   6.443   5.467
 7472SOL    HW223316   5.967   6.445   5.359
 7473SOL     OW23317   4.119   5.876   4.119
 7473SOL    HW123318   4.170   5.948   4.073
 7473SOL    HW223319   4.165   5.853   4.206
 7474SOL     OW23320   5.912   1.969   6.179
 7474SOL    HW123321   5.853   1.935   6.252
 7474SOL    HW223322   5.913   2.069   6.180
 7475SOL     OW23323   4.805   2.489   0.619
 7475SOL    HW123324   4.887   2.535   0.586
 7475SOL    HW223325   4.808   2.484   0.719
 7476SOL     OW23326   2.060   0.192   2.810
 7476SOL    HW123327   2.057   0.100   2.850
 7476SOL    HW223328   2.048   0.185   2.711
 7477SOL     OW23329   0.749   3.926   4.735
 7477SOL    HW123330   0.709   4.009   4.697
 7477SOL    HW223331   0.848   3.927   4.722
 7478SOL     OW23332   0.660   0.657   5.511
 7478SOL    HW123333   0.727   0.698   5.573
 7478SOL    HW223334   0.677   0.559   5.504
 7479SOL     OW23335   5.731   3.022   6.867
 7479SOL    HW123336   5.823   3.011   6.829
 7479SOL    HW223337   5.719   3.117   6.898
 7480SOL     OW23338   3.477   4.922   2.371
 7480SOL    HW123339   3.556   4.983   2.372
 7480SOL    HW223340   3.476   4.870   2.286
 7481SOL     OW23341   0.583   3.624   6.485
 7481SOL    HW123342   0.627   3.608   6.397
 7481SOL    HW223343   0.631   3.573   6.557
 7482SOL     OW23344   4.599   2.461   2.727
 7482SOL    HW123345   4.639   2.391   2.787
 7482SOL    HW223346   4.616   2.551   2.766
 7483SOL     OW23347   5.200   2.147   5.687
 7483SOL    HW123348   5.198   2.077   5.616
 7483SOL    HW223349   5.246   2.229   5.652
 7484SOL     OW23350   3.043   6.671   4.114
 7484SOL    HW123351   3.042   6.653   4.015
 7484SOL    HW223352   3.080   6.592   4.162
 7485SOL     OW23353   3.470   0.039   5.086
 7485SOL    HW123354   3.441   0.133   5.107
 7485SOL    HW223355   3.509   7.016   5.169
 7486SOL     OW23356   2.421   6.350   1.507
 7486SOL    HW123357   2.398   6.259   1.471
 7486SOL    HW223358   2.469   6.340   1.594
 7487SOL     OW23359   4.331   6.610   4.579
 7487SOL    HW123360   4.392   6.664   4.637
 7487SOL    HW223361   4.384   6.546   4.523
 7488SOL     OW23362   0.725   5.844   4.045
 7488SOL    HW123363   0.626   5.836   4.060
 7488SOL    HW223364   0.770   5.762   4.078
 7489SOL     OW23365   5.649   3.514   6.782
 7489SOL    HW123366   5.637   3.443   6.712
 7489SOL    HW223367   5.655   3.471   6.872
 7490SOL     OW23368   1.104   2.615   2.410
 7490SOL    HW123369   1.039   2.603   2.486
 7490SOL    HW223370   1.058   2.594   2.324
 7491SOL     OW23371   4.327   3.102   0.313
 7491SOL    HW123372   4.408   3.152   0.342
 7491SOL    HW223373   4.245   3.154   0.336
 7492SOL     OW23374   1.642   7.011   4.151
 7492SOL    HW123375   1.714   0.062   4.159
 7492SOL    HW223376   1.631   6.964   4.239
 7493SOL     OW23377   6.852   4.788   5.132
 7493SOL    HW123378   6.801   4.870   5.159
 7493SOL    HW223379   6.790   4.722   5.090
 7494SOL     OW23380   6.631   1.272   2.290
 7494SOL    HW123381   6.686   1.240   2.367
 7494SOL    HW223382   6.580   1.195   2.251
 7495SOL     OW23383   1.275   3.836   5.382
 7495SOL    HW123384   1.304   3.899   5.455
 7495SOL    HW223385   1.250   3.748   5.422
 7496SOL     OW23386   5.804   4.347   2.698
 7496SOL    HW123387   5.898   4.326   2.669
 7496SOL    HW223388   5.746   4.267   2.681
 7497SOL     OW23389   0.396   6.340   0.540
 7497SOL    HW123390   0.318   6.317   0.598
 7497SOL    HW223391   0.365   6.356   0.446
 7498SOL     OW23392   2.765   6.959   2.797
 7498SOL    HW123393   2.796   6.881   2.850
 7498SOL    HW223394   2.840   6.995   2.742
 7499SOL     OW23395   3.703   2.097   3.955
 7499SOL    HW123396   3.605   2.114   3.945
 7499SOL    HW223397   3.717   2.001   3.980
 7500SOL     OW23398   3.614   0.251   3.237
 7500SOL    HW123399   3.588   0.154   3.246
 7500SOL    HW223400   3.630   0.272   3.141
 7501SOL     OW23401   6.112   2.256   5.148
 7501SOL    HW123402   6.044   2.232   5.218
 7501SOL    HW223403   6.196   2.206   5.165
 7502SOL     OW23404   4.331   0.745   4.627
 7502SOL    HW123405   4.394   0.819   4.648
 7502SOL    HW223406   4.360   0.662   4.674
 7503SOL     OW23407   1.970   5.840   1.585
 7503SOL    HW123408   1.991   5.824   1.488
 7503SOL    HW223409   2.004   5.930   1.611
 7504SOL     OW23410   6.340   6.466   4.319
 7504SOL    HW123411   6.283   6.437   4.396
 7504SOL    HW223412   6.423   6.508   4.354
 7505SOL     OW23413   0.159   6.035   4.918
 7505SOL    HW123414   0.129   6.001   5.007
 7505SOL    HW223415   0.198   5.960   4.864
 7506SOL     OW23416   3.498   1.558   3.379
 7506SOL    HW123417   3.511   1.531   3.283
 7506SOL    HW223418   3.532   1.651   3.392
 7507SOL     OW23419   6.443   4.146   5.276
 7507SOL    HW123420   6.526   4.202   5.276
 7507SOL    HW223421   6.467   4.050   5.293
 7508SOL     OW23422   2.578   5.517   0.057
 7508SOL    HW123423   2.618   5.608   0.065
 7508SOL    HW223424   2.645   5.449   0.086
 7509SOL     OW23425   6.317   4.937   1.522
 7509SOL    HW123426   6.346   5.022   1.565
 7509SOL    HW223427   6.313   4.949   1.423
 7510SOL     OW23428   3.848   3.785   3.601
 7510SOL    HW123429   3.809   3.693   3.606
 7510SOL    HW223430   3.928   3.791   3.660
 7511SOL     OW23431   4.272   6.494   4.184
 7511SOL    HW123432   4.278   6.587   4.221
 7511SOL    HW223433   4.306   6.493   4.090
 7512SOL     OW23434   3.876   0.401   6.633
 7512SOL    HW123435   3.919   0.346   6.561
 7512SOL    HW223436   3.916   0.378   6.721
 7513SOL     OW23437   1.313   2.183   2.451
 7513SOL    HW123438   1.371   2.254   2.492
 7513SOL    HW223439   1.259   2.223   2.377
 7514SOL     OW23440   1.296   4.840   1.472
 7514SOL    HW123441   1.321   4.821   1.567
 7514SOL    HW223442   1.367   4.803   1.411
 7515SOL     OW23443   0.234   5.565   4.827
 7515SOL    HW123444   0.160   5.558   4.760
 7515SOL    HW223445   0.232   5.485   4.887
 7516SOL     OW23446   1.450   6.169   5.011
 7516SOL    HW123447   1.465   6.079   5.052
 7516SOL    HW223448   1.413   6.231   5.081
 7517SOL     OW23449   0.384   1.375   6.245
 7517SOL    HW123450   0.394   1.343   6.151
 7517SOL    HW223451   0.409   1.302   6.309
 7518SOL     OW23452   4.807   2.597   3.183
 7518SOL    HW123453   4.729   2.587   3.244
 7518SOL    HW223454   4.865   2.515   3.191
 7519SOL     OW23455   3.458   6.215   4.080
 7519SOL    HW123456   3.504   6.128   4.070
 7519SOL    HW223457   3.519   6.289   4.053
 7520SOL     OW23458   1.759   1.901   0.484
 7520SOL    HW123459   1.698   1.860   0.417
 7520SOL    HW223460   1.711   1.972   0.535
 7521SOL     OW23461   3.271   1.509   5.599
 7521SOL    HW123462   3.225   1.490   5.686
 7521SOL    HW223463   3.210   1.563   5.540
 7522SOL     OW23464   2.091   6.710   3.224
 7522SOL    HW123465   2.064   6.645   3.294
 7522SOL    HW223466   2.012   6.765   3.197
 7523SOL     OW23467   5.702   1.563   0.707
 7523SOL    HW123468   5.608   1.596   0.704
 7523SOL    HW223469   5.756   1.612   0.638
 7524SOL     OW23470   0.309   2.950   4.407
 7524SOL    HW123471   0.339   3.022   4.345
 7524SOL    HW223472   0.315   2.982   4.501
 7525SOL     OW23473   4.258   5.361   6.436
 7525SOL    HW123474   4.291   5.374   6.342
 7525SOL    HW223475   4.251   5.450   6.481
 7526SOL     OW23476   2.486   3.384   1.662
 7526SOL    HW123477   2.487   3.478   1.628
 7526SOL    HW223478   2.428   3.378   1.743
 7527SOL     OW23479   3.987   4.797   3.467
 7527SOL    HW123480   4.072   4.745   3.471
 7527SOL    HW223481   3.910   4.736   3.489
 7528SOL     OW23482   5.849   3.215   6.413
 7528SOL    HW123483   5.907   3.134   6.414
 7528SOL    HW223484   5.765   3.194   6.363
 7529SOL     OW23485   6.194   2.794   4.294
 7529SOL    HW123486   6.117   2.771   4.353
 7529SOL    HW223487   6.163   2.805   4.200
 7530SOL     OW23488   0.360   2.048   1.803
 7530SOL    HW123489   0.332   2.003   1.719
 7530SOL    HW223490   0.448   2.012   1.833
 7531SOL     OW23491   4.203   2.276   3.451
 7531SOL    HW123492   4.176   2.283   3.547
 7531SOL    HW223493   4.132   2.228   3.399
 7532SOL     OW23494   4.294   5.176   6.613
 7532SOL    HW123495   4.229   5.100   6.615
 7532SOL    HW223496   4.282   5.228   6.529
 7533SOL     OW23497   4.319   4.440   1.490
 7533SOL    HW123498   4.360   4.368   1.546
 7533SOL    HW223499   4.258   4.495   1.547
 7534SOL     OW23500   4.228   0.342   4.617
 7534SOL    HW123501   4.282   0.413   4.661
 7534SOL    HW223502   4.206   0.271   4.684
 7535SOL     OW23503   0.604   6.160   3.878
 7535SOL    HW123504   0.630   6.256   3.883
 7535SOL    HW223505   0.620   6.116   3.966
 7536SOL     OW23506   4.979   6.235   4.801
 7536SOL    HW123507   4.983   6.251   4.702
 7536SOL    HW223508   5.070   6.209   4.834
 7537SOL     OW23509   2.508   6.466   3.175
 7537SOL    HW123510   2.498   6.564   3.195
 7537SOL    HW223511   2.516   6.452   3.076
 7538SOL     OW23512   0.542   4.054   0.501
 7538SOL    HW123513   0.458   4.058   0.555
 7538SOL    HW223514   0.586   4.144   0.501
 7539SOL     OW23515   0.037   6.891   3.791
 7539SOL    HW123516   6.964   6.875   3.830
 7539SOL    HW223517   0.029   6.958   3.717
 7540SOL     OW23518   6.336   5.447   2.732
 7540SOL    HW123519   6.310   5.365   2.683
 7540SOL    HW223520   6.412   5.492   2.685
 7541SOL     OW23521   1.608   4.686   6.762
 7541SOL    HW123522   1.588   4.681   6.860
 7541SOL    HW223523   1.609   4.782   6.733
 7542SOL     OW23524   6.149   6.002   5.058
 7542SOL    HW123525   6.151   6.095   5.093
 7542SOL    HW223526   6.229   5.952   5.090
 7543SOL     OW23527   2.490   0.762   6.767
 7543SOL    HW123528   2.463   0.858   6.768
 7543SOL    HW223529   2.497   0.729   6.862
 7544SOL     OW23530   6.972   2.136   4.212
 7544SOL    HW123531   0.049   2.163   4.228
 7544SOL    HW223532   6.928   2.118   4.300
 7545SOL     OW23533   0.781   5.188   6.358
 7545SOL    HW123534   0.736   5.245   6.289
 7545SOL    HW223535   0.790   5.095   6.323
 7546SOL     OW23536   2.487   2.838   1.734
 7546SOL    HW123537   2.571   2.791   1.709
 7546SOL    HW223538   2.499   2.936   1.724
 7547SOL     OW23539   4.606   0.372   1.002
 7547SOL    HW123540   4.674   0.444   0.988
 7547SOL    HW223541   4.606   0.344   1.098
 7548SOL     OW23542   3.418   2.463   6.244
 7548SOL    HW123543   3.478   2.457   6.324
 7548SOL    HW223544   3.426   2.554   6.203
 7549SOL     OW23545   5.296   2.246   4.428
 7549SOL    HW123546   5.310   2.330   4.377
 7549SOL    HW223547   5.241   2.182   4.373
 7550SOL     OW23548   2.462   4.633   4.393
 7550SOL    HW123549   2.416   4.676   4.471
 7550SOL    HW223550   2.557   4.666   4.389
 7551SOL     OW23551   6.076   3.015   6.139
 7551SOL    HW123552   5.977   3.020   6.153
 7551SOL    HW223553   6.115   2.949   6.204
 7552SOL     OW23554   2.685   6.537   5.104
 7552SOL    HW123555   2.726   6.464   5.049
 7552SOL    HW223556   2.704   6.522   5.201
 7553SOL     OW23557   5.713   6.248   5.847
 7553SOL    HW123558   5.781   6.225   5.916
 7553SOL    HW223559   5.628   6.276   5.892
 7554SOL     OW23560   4.799   0.924   0.984
 7554SOL    HW123561   4.712   0.877   0.995
 7554SOL    HW223562   4.787   1.006   0.929
 7555SOL     OW23563   3.796   4.941   4.974
 7555SOL    HW123564   3.841   4.913   4.889
 7555SOL    HW223565   3.699   4.958   4.957
 7556SOL     OW23566   0.595   6.582   0.944
 7556SOL    HW123567   0.658   6.504   0.939
 7556SOL    HW223568   0.502   6.551   0.926
 7557SOL     OW23569   4.834   0.443   0.501
 7557SOL    HW123570   4.828   0.397   0.590
 7557SOL    HW223571   4.844   0.374   0.429
 7558SOL     OW23572   0.967   1.696   4.303
 7558SOL    HW123573   1.060   1.727   4.321
 7558SOL    HW223574   0.936   1.733   4.215
 7559SOL     OW23575   3.318   1.483   4.866
 7559SOL    HW123576   3.333   1.545   4.943
 7559SOL    HW223577   3.263   1.406   4.896
 7560SOL     OW23578   0.664   1.352   5.584
 7560SOL    HW123579   0.721   1.373   5.664
 7560SOL    HW223580   0.684   1.416   5.510
 7561SOL     OW23581   5.950   2.263   5.387
 7561SOL    HW123582   5.872   2.327   5.386
 7561SOL    HW223583   5.934   2.194   5.457
 7562SOL     OW23584   1.693   5.476   3.831
 7562SOL    HW123585   1.752   5.398   3.853
 7562SOL    HW223586   1.673   5.476   3.733
 7563SOL     OW23587   3.398   5.549   2.395
 7563SOL    HW123588   3.326   5.489   2.429
 7563SOL    HW223589   3.443   5.594   2.472
 7564SOL     OW23590   3.764   1.838   5.421
 7564SOL    HW123591   3.715   1.886   5.347
 7564SOL    HW223592   3.710   1.843   5.505
 7565SOL     OW23593   6.286   4.157   6.231
 7565SOL    HW123594   6.280   4.062   6.260
 7565SOL    HW223595   6.381   4.180   6.209
 7566SOL     OW23596   4.575   4.638   1.711
 7566SOL    HW123597   4.656   4.680   1.753
 7566SOL    HW223598   4.545   4.693   1.634
 7567SOL     OW23599   1.545   0.485   4.601
 7567SOL    HW123600   1.570   0.562   4.543
 7567SOL    HW223601   1.548   0.401   4.548
 7568SOL     OW23602   6.059   5.688   2.024
 7568SOL    HW123603   6.048   5.786   2.038
 7568SOL    HW223604   6.007   5.638   2.094
 7569SOL     OW23605   4.448   4.403   0.444
 7569SOL    HW123606   4.505   4.355   0.510
 7569SOL    HW223607   4.361   4.356   0.434
 7570SOL     OW23608   0.139   2.455   2.782
 7570SOL    HW123609   0.222   2.420   2.826
 7570SOL    HW223610   0.135   2.421   2.688
 7571SOL     OW23611   4.917   2.495   2.934
 7571SOL    HW123612   4.848   2.446   2.881
 7571SOL    HW223613   4.874   2.537   3.014
 7572SOL     OW23614   4.279   0.087   2.989
 7572SOL    HW123615   4.258   0.056   2.896
 7572SOL    HW223616   4.193   0.102   3.039
 7573SOL     OW23617   4.770   6.726   6.228
 7573SOL    HW123618   4.737   6.744   6.135
 7573SOL    HW223619   4.865   6.757   6.236
 7574SOL     OW23620   0.976   2.058   3.729
 7574SOL    HW123621   1.071   2.070   3.756
 7574SOL    HW223622   0.971   2.001   3.647
 7575SOL     OW23623   0.181   6.800   1.586
 7575SOL    HW123624   0.112   6.860   1.545
 7575SOL    HW223625   0.223   6.744   1.515
 7576SOL     OW23626   5.410   3.134   0.636
 7576SOL    HW123627   5.493   3.084   0.611
 7576SOL    HW223628   5.333   3.098   0.584
 7577SOL     OW23629   1.173   6.741   0.881
 7577SOL    HW123630   1.205   6.832   0.910
 7577SOL    HW223631   1.073   6.738   0.887
 7578SOL     OW23632   6.353   5.959   3.587
 7578SOL    HW123633   6.344   6.039   3.647
 7578SOL    HW223634   6.367   5.990   3.493
 7579SOL     OW23635   0.352   1.134   0.196
 7579SOL    HW123636   0.276   1.071   0.179
 7579SOL    HW223637   0.415   1.094   0.263
 7580SOL     OW23638   2.281   4.770   3.476
 7580SOL    HW123639   2.320   4.851   3.431
 7580SOL    HW223640   2.296   4.690   3.418
 7581SOL     OW23641   6.820   0.790   2.751
 7581SOL    HW123642   6.919   0.800   2.740
 7581SOL    HW223643   6.777   0.880   2.749
 7582SOL     OW23644   2.528   1.273   6.000
 7582SOL    HW123645   2.570   1.295   5.911
 7582SOL    HW223646   2.576   1.196   6.041
 7583SOL     OW23647   5.400   2.895   2.066
 7583SOL    HW123648   5.466   2.944   2.008
 7583SOL    HW223649   5.414   2.921   2.161
 7584SOL     OW23650   0.360   0.796   3.686
 7584SOL    HW123651   0.287   0.741   3.725
 7584SOL    HW223652   0.415   0.739   3.624
 7585SOL     OW23653   1.607   1.069   6.809
 7585SOL    HW123654   1.666   1.113   6.741
 7585SOL    HW223655   1.537   1.015   6.762
 7586SOL     OW23656   1.165   1.195   2.146
 7586SOL    HW123657   1.097   1.124   2.125
 7586SOL    HW223658   1.118   1.275   2.183
 7587SOL     OW23659   4.126   0.349   0.960
 7587SOL    HW123660   4.204   0.412   0.960
 7587SOL    HW223661   4.132   0.289   0.880
 7588SOL     OW23662   1.933   2.366   4.615
 7588SOL    HW123663   1.969   2.424   4.543
 7588SOL    HW223664   1.862   2.415   4.665
 7589SOL     OW23665   0.414   0.723   2.884
 7589SOL    HW123666   0.368   0.714   2.796
 7589SOL    HW223667   0.402   0.638   2.936
 7590SOL     OW23668   6.741   0.987   6.732
 7590SOL    HW123669   6.839   0.976   6.716
 7590SOL    HW223670   6.722   1.079   6.764
 7591SOL     OW23671   3.849   3.042   4.914
 7591SOL    HW123672   3.850   3.002   4.823
 7591SOL    HW223673   3.918   3.114   4.921
 7592SOL     OW23674   0.204   6.784   5.213
 7592SOL    HW123675   0.261   6.866   5.211
 7592SOL    HW223676   0.131   6.795   5.280
 7593SOL     OW23677   0.968   1.526   6.118
 7593SOL    HW123678   0.992   1.433   6.091
 7593SOL    HW223679   0.921   1.572   6.042
 7594SOL     OW23680   0.123   4.848   6.993
 7594SOL    HW123681   0.098   4.872   6.899
 7594SOL    HW223682   0.041   4.824   0.027
 7595SOL     OW23683   0.601   2.717   6.381
 7595SOL    HW123684   0.574   2.621   6.370
 7595SOL    HW223685   0.620   2.735   6.478
 7596SOL     OW23686   3.422   0.684   5.289
 7596SOL    HW123687   3.482   0.609   5.316
 7596SOL    HW223688   3.388   0.668   5.197
 7597SOL     OW23689   2.065   4.247   2.161
 7597SOL    HW123690   2.095   4.238   2.067
 7597SOL    HW223691   2.108   4.176   2.217
 7598SOL     OW23692   6.603   1.138   3.299
 7598SOL    HW123693   6.505   1.130   3.318
 7598SOL    HW223694   6.651   1.058   3.336
 7599SOL     OW23695   3.836   3.292   0.181
 7599SOL    HW123696   3.832   3.284   0.281
 7599SOL    HW223697   3.929   3.314   0.153
 7600SOL     OW23698   1.142   6.584   4.359
 7600SOL    HW123699   1.166   6.646   4.283
 7600SOL    HW223700   1.225   6.542   4.394
 7601SOL     OW23701   3.481   6.527   2.046
 7601SOL    HW123702   3.547   6.538   2.121
 7601SOL    HW223703   3.456   6.431   2.037
 7602SOL     OW23704   0.003   1.532   1.016
 7602SOL    HW123705   6.963   1.575   0.946
 7602SOL    HW223706   0.052   1.455   0.975
 7603SOL     OW23707   3.886   0.143   5.852
 7603SOL    HW123708   3.796   0.177   5.825
 7603SOL    HW223709   3.875   0.074   5.924
 7604SOL     OW23710   0.627   2.231   4.995
 7604SOL    HW123711   0.607   2.133   4.984
 7604SOL    HW223712   0.541   2.282   4.997
 7605SOL     OW23713   2.243   6.907   0.677
 7605SOL    HW123714   2.330   6.900   0.726
 7605SOL    HW223715   2.189   6.982   0.714
 7606SOL     OW23716   6.762   1.576   2.954
 7606SOL    HW123717   6.788   1.672   2.951
 7606SOL    HW223718   6.666   1.566   2.929
 7607SOL     OW23719   2.618   6.128   6.019
 7607SOL    HW123720   2.704   6.101   5.976
 7607SOL    HW223721   2.587   6.215   5.981
 7608SOL     OW23722   5.734   2.755   6.115
 7608SOL    HW123723   5.700   2.718   6.201
 7608SOL    HW223724   5.670   2.733   6.041
 7609SOL     OW23725   0.900   1.617   4.743
 7609SOL    HW123726   0.852   1.656   4.665
 7609SOL    HW223727   0.947   1.690   4.793
 7610SOL     OW23728   4.191   5.066   4.770
 7610SOL    HW123729   4.103   5.102   4.800
 7610SOL    HW223730   4.196   5.069   4.670
 7611SOL     OW23731   4.798   3.542   0.204
 7611SOL    HW123732   4.895   3.558   0.223
 7611SOL    HW223733   4.775   3.580   0.115
 7612SOL     OW23734   3.831   1.444   3.173
 7612SOL    HW123735   3.854   1.366   3.233
 7612SOL    HW223736   3.732   1.446   3.159
 7613SOL     OW23737   0.672   1.361   1.502
 7613SOL    HW123738   0.727   1.434   1.543
 7613SOL    HW223739   0.731   1.305   1.444
 7614SOL     OW23740   4.783   4.053   0.492
 7614SOL    HW123741   4.806   4.141   0.451
 7614SOL    HW223742   4.772   3.984   0.420
 7615SOL     OW23743   5.775   3.295   5.026
 7615SOL    HW123744   5.869   3.296   5.062
 7615SOL    HW223745   5.768   3.358   4.949
 7616SOL     OW23746   6.144   0.103   3.239
 7616SOL    HW123747   6.244   0.116   3.243
 7616SOL    HW223748   6.109   0.143   3.155
 7617SOL     OW23749   5.849   4.584   3.835
 7617SOL    HW123750   5.813   4.591   3.742
 7617SOL    HW223751   5.790   4.634   3.898
 7618SOL     OW23752   2.603   2.317   0.464
 7618SOL    HW123753   2.559   2.406   0.450
 7618SOL    HW223754   2.585   2.285   0.556
 7619SOL     OW23755   0.850   1.780   4.537
 7619SOL    HW123756   0.827   1.736   4.450
 7619SOL    HW223757   0.901   1.864   4.519
 7620SOL     OW23758   3.855   4.717   1.553
 7620SOL    HW123759   3.860   4.637   1.494
 7620SOL    HW223760   3.812   4.692   1.639
 7621SOL     OW23761   6.391   4.541   0.049
 7621SOL    HW123762   6.408   4.522   0.146
 7621SOL    HW223763   6.315   4.486   0.016
 7622SOL     OW23764   3.096   3.567   1.310
 7622SOL    HW123765   3.125   3.563   1.215
 7622SOL    HW223766   3.087   3.663   1.338
 7623SOL     OW23767   4.792   4.416   0.967
 7623SOL    HW123768   4.830   4.370   1.047
 7623SOL    HW223769   4.692   4.419   0.974
 7624SOL     OW23770   0.833   2.927   2.584
 7624SOL    HW123771   0.861   2.832   2.565
 7624SOL    HW223772   0.848   2.947   2.681
 7625SOL     OW23773   5.473   0.828   1.141
 7625SOL    HW123774   5.561   0.796   1.106
 7625SOL    HW223775   5.441   0.904   1.085
 7626SOL     OW23776   4.259   0.961   5.806
 7626SOL    HW123777   4.318   0.906   5.864
 7626SOL    HW223778   4.309   1.041   5.774
 7627SOL     OW23779   4.479   2.108   6.888
 7627SOL    HW123780   4.463   2.059   6.973
 7627SOL    HW223781   4.578   2.111   6.870
 7628SOL     OW23782   3.443   2.640   0.466
 7628SOL    HW123783   3.535   2.661   0.433
 7628SOL    HW223784   3.397   2.581   0.400
 7629SOL     OW23785   6.312   2.843   3.631
 7629SOL    HW123786   6.329   2.914   3.700
 7629SOL    HW223787   6.396   2.824   3.581
 7630SOL     OW23788   0.826   6.427   5.058
 7630SOL    HW123789   0.838   6.374   4.974
 7630SOL    HW223790   0.755   6.496   5.044
 7631SOL     OW23791   1.036   0.659   6.015
 7631SOL    HW123792   0.964   0.603   6.056
 7631SOL    HW223793   1.098   0.601   5.963
 7632SOL     OW23794   4.686   5.858   0.572
 7632SOL    HW123795   4.644   5.913   0.644
 7632SOL    HW223796   4.714   5.916   0.497
 7633SOL     OW23797   6.502   0.868   1.150
 7633SOL    HW123798   6.469   0.935   1.216
 7633SOL    HW223799   6.426   0.813   1.117
 7634SOL     OW23800   6.986   2.428   0.399
 7634SOL    HW123801   0.015   2.353   0.445
 7634SOL    HW223802   6.943   2.487   0.467
 7635SOL     OW23803   2.487   3.858   5.695
 7635SOL    HW123804   2.528   3.774   5.733
 7635SOL    HW223805   2.392   3.865   5.726
 7636SOL     OW23806   0.012   4.227   4.484
 7636SOL    HW123807   6.983   4.140   4.501
 7636SOL    HW223808   0.082   4.214   4.413
 7637SOL     OW23809   1.129   6.303   4.523
 7637SOL    HW123810   1.168   6.376   4.580
 7637SOL    HW223811   1.062   6.252   4.575
 7638SOL     OW23812   0.338   6.218   1.311
 7638SOL    HW123813   0.434   6.244   1.303
 7638SOL    HW223814   0.289   6.288   1.362
 7639SOL     OW23815   1.244   0.574   6.956
 7639SOL    HW123816   1.212   0.564   0.032
 7639SOL    HW223817   1.248   0.484   6.912
 7640SOL     OW23818   3.048   1.151   0.632
 7640SOL    HW123819   3.039   1.154   0.731
 7640SOL    HW223820   3.072   1.058   0.603
 7641SOL     OW23821   0.716   4.391   3.447
 7641SOL    HW123822   0.726   4.303   3.494
 7641SOL    HW223823   0.754   4.383   3.354
 7642SOL     OW23824   5.931   1.107   3.239
 7642SOL    HW123825   5.867   1.047   3.286
 7642SOL    HW223826   5.922   1.200   3.273
 7643SOL     OW23827   5.284   3.638   3.323
 7643SOL    HW123828   5.337   3.649   3.406
 7643SOL    HW223829   5.307   3.551   3.280
 7644SOL     OW23830   5.632   4.045   1.023
 7644SOL    HW123831   5.675   4.020   0.937
 7644SOL    HW223832   5.618   3.963   1.079
 7645SOL     OW23833   3.491   4.503   5.982
 7645SOL    HW123834   3.529   4.414   6.005
 7645SOL    HW223835   3.520   4.571   6.049
 7646SOL     OW23836   6.661   1.953   1.107
 7646SOL    HW123837   6.588   1.899   1.064
 7646SOL    HW223838   6.637   2.049   1.104
 7647SOL     OW23839   6.646   2.363   5.211
 7647SOL    HW123840   6.638   2.438   5.145
 7647SOL    HW223841   6.645   2.276   5.162
 7648SOL     OW23842   3.174   1.550   1.795
 7648SOL    HW123843   3.112   1.493   1.849
 7648SOL    HW223844   3.186   1.638   1.841
 7649SOL     OW23845   4.318   1.221   5.643
 7649SOL    HW123846   4.335   1.261   5.733
 7649SOL    HW223847   4.250   1.275   5.594
 7650SOL     OW23848   3.740   2.385   0.525
 7650SOL    HW123849   3.805   2.325   0.572
 7650SOL    HW223850   3.747   2.478   0.561
 7651SOL     OW23851   3.192   4.731   5.928
 7651SOL    HW123852   3.261   4.763   5.863
 7651SOL    HW223853   3.111   4.789   5.922
 7652SOL     OW23854   0.737   0.939   3.992
 7652SOL    HW123855   0.742   1.021   3.935
 7652SOL    HW223856   0.678   0.871   3.949
 7653SOL     OW23857   1.279   1.408   6.213
 7653SOL    HW123858   1.282   1.507   6.200
 7653SOL    HW223859   1.229   1.387   6.297
 7654SOL     OW23860   5.524   1.946   6.466
 7654SOL    HW123861   5.427   1.956   6.442
 7654SOL    HW223862   5.578   2.013   6.415
 7655SOL     OW23863   3.076   1.463   3.100
 7655SOL    HW123864   3.075   1.365   3.082
 7655SOL    HW223865   2.985   1.491   3.132
 7656SOL     OW23866   6.690   2.958   6.637
 7656SOL    HW123867   6.743   3.043   6.629
 7656SOL    HW223868   6.730   2.889   6.576
 7657SOL     OW23869   0.824   4.254   4.448
 7657SOL    HW123870   0.834   4.316   4.370
 7657SOL    HW223871   0.895   4.183   4.445
 7658SOL     OW23872   2.485   1.136   1.070
 7658SOL    HW123873   2.569   1.175   1.031
 7658SOL    HW223874   2.474   1.042   1.036
 7659SOL     OW23875   4.788   3.818   5.698
 7659SOL    HW123876   4.704   3.870   5.710
 7659SOL    HW223877   4.805   3.804   5.600
 7660SOL     OW23878   6.747   5.509   4.768
 7660SOL    HW123879   6.682   5.436   4.746
 7660SOL    HW223880   6.791   5.541   4.684
 7661SOL     OW23881   4.462   1.987   5.678
 7661SOL    HW123882   4.407   1.966   5.597
 7661SOL    HW223883   4.537   2.048   5.652
 7662SOL     OW23884   5.955   0.117   1.160
 7662SOL    HW123885   5.883   0.062   1.119
 7662SOL    HW223886   5.963   0.204   1.110
 7663SOL     OW23887   0.484   5.787   5.792
 7663SOL    HW123888   0.420   5.781   5.715
 7663SOL    HW223889   0.564   5.841   5.764
 7664SOL     OW23890   3.954   2.141   2.034
 7664SOL    HW123891   3.863   2.175   2.010
 7664SOL    HW223892   3.987   2.188   2.116
 7665SOL     OW23893   4.163   0.503   5.869
 7665SOL    HW123894   4.213   0.455   5.798
 7665SOL    HW223895   4.114   0.436   5.926
 7666SOL     OW23896   5.317   4.714   3.543
 7666SOL    HW123897   5.250   4.745   3.476
 7666SOL    HW223898   5.289   4.626   3.581
 7667SOL     OW23899   3.988   5.868   1.768
 7667SOL    HW123900   3.902   5.869   1.718
 7667SOL    HW223901   4.006   5.776   1.801
 7668SOL     OW23902   2.250   5.806   0.629
 7668SOL    HW123903   2.289   5.867   0.699
 7668SOL    HW223904   2.278   5.712   0.648
 7669SOL     OW23905   2.103   1.224   5.782
 7669SOL    HW123906   2.033   1.188   5.844
 7669SOL    HW223907   2.178   1.263   5.835
 7670SOL     OW23908   1.058   6.617   0.611
 7670SOL    HW123909   1.066   6.570   0.699
 7670SOL    HW223910   1.027   6.552   0.541
 7671SOL     OW23911   3.520   0.254   1.060
 7671SOL    HW123912   3.541   0.180   0.997
 7671SOL    HW223913   3.564   0.237   1.148
 7672SOL     OW23914   4.745   4.937   2.913
 7672SOL    HW123915   4.831   4.907   2.873
 7672SOL    HW223916   4.673   4.871   2.892
 7673SOL     OW23917   1.762   6.188   4.260
 7673SOL    HW123918   1.740   6.265   4.200
 7673SOL    HW223919   1.692   6.179   4.331
 7674SOL     OW23920   4.778   6.078   4.474
 7674SOL    HW123921   4.842   6.149   4.503
 7674SOL    HW223922   4.685   6.117   4.471
 7675SOL     OW23923   5.033   6.478   3.457
 7675SOL    HW123924   5.017   6.526   3.543
 7675SOL    HW223925   5.122   6.433   3.460
 7676SOL     OW23926   3.519   2.976   5.622
 7676SOL    HW123927   3.456   2.989   5.699
 7676SOL    HW223928   3.470   2.931   5.547
 7677SOL     OW23929   6.323   4.646   0.549
 7677SOL    HW123930   6.320   4.746   0.559
 7677SOL    HW223931   6.281   4.603   0.628
 7678SOL     OW23932   1.584   0.926   4.752
 7678SOL    HW123933   1.535   0.853   4.703
 7678SOL    HW223934   1.548   0.933   4.845
 7679SOL     OW23935   3.320   5.658   5.375
 7679SOL    HW123936   3.225   5.671   5.403
 7679SOL    HW223937   3.347   5.732   5.314
 7680SOL     OW23938   2.089   0.194   4.940
 7680SOL    HW123939   2.043   0.283   4.946
 7680SOL    HW223940   2.188   0.207   4.952
 7681SOL     OW23941   2.670   3.766   6.528
 7681SOL    HW123942   2.628   3.677   6.515
 7681SOL    HW223943   2.664   3.792   6.625
 7682SOL     OW23944   2.895   1.606   2.754
 7682SOL    HW123945   2.844   1.665   2.692
 7682SOL    HW223946   2.969   1.561   2.704
 7683SOL     OW23947   0.489   5.668   4.325
 7683SOL    HW123948   0.580   5.629   4.308
 7683SOL    HW223949   0.474   5.744   4.262
 7684SOL     OW23950   4.447   2.960   1.219
 7684SOL    HW123951   4.382   3.027   1.183
 7684SOL    HW223952   4.397   2.884   1.261
 7685SOL     OW23953   2.423   0.544   0.231
 7685SOL    HW123954   2.505   0.588   0.193
 7685SOL    HW223955   2.435   0.445   0.229
 7686SOL     OW23956   6.047   6.884   4.693
 7686SOL    HW123957   6.010   6.793   4.712
 7686SOL    HW223958   6.075   6.927   4.779
 7687SOL     OW23959   5.870   4.563   5.683
 7687SOL    HW123960   5.803   4.507   5.732
 7687SOL    HW223961   5.902   4.513   5.602
 7688SOL     OW23962   0.476   4.224   6.144
 7688SOL    HW123963   0.516   4.136   6.170
 7688SOL    HW223964   0.382   4.228   6.180
 7689SOL     OW23965   4.654   0.405   1.281
 7689SOL    HW123966   4.665   0.501   1.254
 7689SOL    HW223967   4.565   0.392   1.324
 7690SOL     OW23968   5.797   5.432   1.479
 7690SOL    HW123969   5.800   5.344   1.431
 7690SOL    HW223970   5.886   5.450   1.521
 7691SOL     OW23971   4.741   4.170   3.302
 7691SOL    HW123972   4.793   4.085   3.288
 7691SOL    HW223973   4.723   4.182   3.400
 7692SOL     OW23974   2.586   0.162   2.894
 7692SOL    HW123975   2.642   0.085   2.865
 7692SOL    HW223976   2.644   0.233   2.934
 7693SOL     OW23977   2.056   1.204   1.250
 7693SOL    HW123978   1.964   1.189   1.286
 7693SOL    HW223979   2.051   1.268   1.173
 7694SOL     OW23980   5.219   1.513   5.557
 7694SOL    HW123981   5.175   1.526   5.646
 7694SOL    HW223982   5.228   1.416   5.538
 7695SOL     OW23983   4.640   0.085   3.839
 7695SOL    HW123984   4.567   0.018   3.825
 7695SOL    HW223985   4.704   0.052   3.908
 7696SOL     OW23986   1.694   2.908   5.824
 7696SOL    HW123987   1.786   2.946   5.817
 7696SOL    HW223988   1.627   2.982   5.824
 7697SOL     OW23989   4.912   0.062   3.168
 7697SOL    HW123990   4.986   0.117   3.129
 7697SOL    HW223991   4.849   0.035   3.095
 7698SOL     OW23992   6.324   2.829   0.896
 7698SOL    HW123993   6.404   2.801   0.843
 7698SOL    HW223994   6.348   2.902   0.959
 7699SOL     OW23995   4.782   5.839   6.193
 7699SOL    HW123996   4.730   5.894   6.258
 7699SOL    HW223997   4.803   5.751   6.233
 7700SOL     OW23998   5.115   6.672   2.842
 7700SOL    HW123999   5.059   6.596   2.810
 7700SOL    HW224000   5.165   6.645   2.924
 7701SOL     OW24001   1.346   2.465   6.437
 7701SOL    HW124002   1.343   2.533   6.510
 7701SOL    HW224003   1.412   2.393   6.461
 7702SOL     OW24004   4.462   6.978   4.460
 7702SOL    HW124005   4.459   6.902   4.395
 7702SOL    HW224006   4.499   0.041   4.415
 7703SOL     OW24007   6.437   0.122   5.254
 7703SOL    HW124008   6.347   0.148   5.220
 7703SOL    HW224009   6.501   0.119   5.177
 7704SOL     OW24010   0.190   1.326   5.071
 7704SOL    HW124011   0.131   1.268   5.016
 7704SOL    HW224012   0.248   1.269   5.130
 7705SOL     OW24013   0.953   5.402   6.396
 7705SOL    HW124014   0.939   5.472   6.466
 7705SOL    HW224015   0.885   5.330   6.406
 7706SOL     OW24016   3.231   2.878   2.120
 7706SOL    HW124017   3.199   2.857   2.028
 7706SOL    HW224018   3.191   2.813   2.185
 7707SOL     OW24019   7.003   4.061   6.556
 7707SOL    HW124020   6.954   4.084   6.472
 7707SOL    HW224021   6.938   4.054   6.632
 7708SOL     OW24022   2.269   0.245   4.566
 7708SOL    HW124023   2.346   0.249   4.630
 7708SOL    HW224024   2.303   0.245   4.472
 7709SOL     OW24025   6.963   4.720   1.544
 7709SOL    HW124026   6.971   4.767   1.456
 7709SOL    HW224027   0.014   4.647   1.548
 7710SOL     OW24028   6.977   2.984   1.249
 7710SOL    HW124029   6.941   2.911   1.192
 7710SOL    HW224030   6.947   3.072   1.214
 7711SOL     OW24031   0.094   4.678   4.814
 7711SOL    HW124032   0.034   4.614   4.766
 7711SOL    HW224033   0.160   4.716   4.749
 7712SOL     OW24034   0.205   5.122   5.576
 7712SOL    HW124035   0.187   5.116   5.478
 7712SOL    HW224036   0.257   5.041   5.605
 7713SOL     OW24037   1.492   4.349   6.863
 7713SOL    HW124038   1.576   4.326   6.912
 7713SOL    HW224039   1.475   4.448   6.870
 7714SOL     OW24040   6.451   1.464   4.889
 7714SOL    HW124041   6.351   1.466   4.889
 7714SOL    HW224042   6.483   1.418   4.807
 7715SOL     OW24043   3.430   3.128   5.273
 7715SOL    HW124044   3.398   3.046   5.321
 7715SOL    HW224045   3.513   3.106   5.222
 7716SOL     OW24046   1.400   6.480   6.262
 7716SOL    HW124047   1.429   6.384   6.257
 7716SOL    HW224048   1.324   6.488   6.327
 7717SOL     OW24049   7.001   2.129   6.574
 7717SOL    HW124050   0.076   2.131   6.609
 7717SOL    HW224051   7.001   2.158   6.478
 7718SOL     OW24052   0.969   3.367   3.194
 7718SOL    HW124053   0.943   3.436   3.262
 7718SOL    HW224054   1.054   3.322   3.223
 7719SOL     OW24055   2.044   4.735   4.773
 7719SOL    HW124056   2.035   4.799   4.697
 7719SOL    HW224057   2.138   4.738   4.808
 7720SOL     OW24058   4.493   0.943   7.016
 7720SOL    HW124059   4.584   0.981   6.999
 7720SOL    HW224060   4.470   0.954   0.095
 7721SOL     OW24061   0.335   0.646   2.601
 7721SOL    HW124062   0.326   0.722   2.537
 7721SOL    HW224063   0.245   0.619   2.635
 7722SOL     OW24064   0.745   6.110   4.105
 7722SOL    HW124065   0.737   6.014   4.134
 7722SOL    HW224066   0.841   6.130   4.085
 7723SOL     OW24067   4.791   4.247   0.321
 7723SOL    HW124068   4.874   4.262   0.268
 7723SOL    HW224069   4.711   4.272   0.265
 7724SOL     OW24070   2.035   3.594   1.364
 7724SOL    HW124071   1.952   3.631   1.404
 7724SOL    HW224072   2.089   3.548   1.436
 7725SOL     OW24073   5.507   2.818   3.329
 7725SOL    HW124074   5.464   2.740   3.373
 7725SOL    HW224075   5.451   2.848   3.252
 7726SOL     OW24076   0.980   3.518   5.872
 7726SOL    HW124077   1.060   3.572   5.846
 7726SOL    HW224078   0.911   3.523   5.800
 7727SOL     OW24079   4.161   0.924   2.142
 7727SOL    HW124080   4.219   0.991   2.188
 7727SOL    HW224081   4.198   0.902   2.052
 7728SOL     OW24082   1.686   3.543   4.774
 7728SOL    HW124083   1.786   3.544   4.782
 7728SOL    HW224084   1.651   3.457   4.812
 7729SOL     OW24085   0.039   1.795   3.568
 7729SOL    HW124086   0.055   1.744   3.484
 7729SOL    HW224087   6.965   1.775   3.601
 7730SOL     OW24088   6.256   4.376   4.814
 7730SOL    HW124089   6.278   4.306   4.881
 7730SOL    HW224090   6.256   4.466   4.858
 7731SOL     OW24091   6.987   6.642   6.458
 7731SOL    HW124092   6.969   6.556   6.410
 7731SOL    HW224093   0.064   6.670   6.441
 7732SOL     OW24094   3.487   6.677   6.665
 7732SOL    HW124095   3.510   6.716   6.754
 7732SOL    HW224096   3.431   6.742   6.613
 7733SOL     OW24097   6.339   5.487   1.525
 7733SOL    HW124098   6.394   5.487   1.608
 7733SOL    HW224099   6.384   5.543   1.455
 7734SOL     OW24100   3.558   3.585   5.105
 7734SOL    HW124101   3.523   3.521   5.173
 7734SOL    HW224102   3.556   3.678   5.143
 7735SOL     OW24103   6.944   6.117   0.804
 7735SOL    HW124104   6.995   6.038   0.768
 7735SOL    HW224105   6.934   6.107   0.903
 7736SOL     OW24106   1.723   2.934   6.994
 7736SOL    HW124107   1.643   2.947   6.935
 7736SOL    HW224108   1.806   2.930   6.938
 7737SOL     OW24109   4.503   5.320   0.716
 7737SOL    HW124110   4.415   5.288   0.749
 7737SOL    HW224111   4.528   5.269   0.633
 7738SOL     OW24112   2.478   0.514   5.414
 7738SOL    HW124113   2.505   0.566   5.333
 7738SOL    HW224114   2.484   0.416   5.395
 7739SOL     OW24115   1.644   2.060   0.695
 7739SOL    HW124116   1.731   2.026   0.731
 7739SOL    HW224117   1.576   2.060   0.767
 7740SOL     OW24118   1.989   0.434   5.030
 7740SOL    HW124119   2.000   0.467   5.123
 7740SOL    HW224120   2.048   0.486   4.968
 7741SOL     OW24121   1.788   4.486   6.296
 7741SOL    HW124122   1.838   4.521   6.216
 7741SOL    HW224123   1.813   4.390   6.311
 7742SOL     OW24124   4.588   1.937   4.265
 7742SOL    HW124125   4.575   2.035   4.280
 7742SOL    HW224126   4.649   1.901   4.335
 7743SOL     OW24127   4.972   1.854   6.038
 7743SOL    HW124128   4.943   1.940   5.996
 7743SOL    HW224129   5.070   1.843   6.029
 7744SOL     OW24130   0.660   6.514   4.682
 7744SOL    HW124131   0.577   6.518   4.738
 7744SOL    HW224132   0.702   6.605   4.679
 7745SOL     OW24133   3.015   6.725   0.285
 7745SOL    HW124134   2.952   6.764   0.352
 7745SOL    HW224135   3.025   6.789   0.208
 7746SOL     OW24136   1.300   5.916   0.867
 7746SOL    HW124137   1.232   5.850   0.837
 7746SOL    HW224138   1.381   5.867   0.902
 7747SOL     OW24139   1.227   5.967   0.469
 7747SOL    HW124140   1.269   5.994   0.382
 7747SOL    HW224141   1.176   5.882   0.457
 7748SOL     OW24142   4.712   2.090   6.409
 7748SOL    HW124143   4.808   2.076   6.385
 7748SOL    HW224144   4.655   2.074   6.328
 7749SOL     OW24145   3.454   3.895   4.416
 7749SOL    HW124146   3.441   3.987   4.451
 7749SOL    HW224147   3.445   3.829   4.491
 7750SOL     OW24148   5.598   4.024   5.127
 7750SOL    HW124149   5.689   3.990   5.102
 7750SOL    HW224150   5.554   4.063   5.047
 7751SOL     OW24151   6.723   0.838   5.252
 7751SOL    HW124152   6.734   0.790   5.165
 7751SOL    HW224153   6.784   0.917   5.255
 7752SOL     OW24154   5.986   5.342   5.141
 7752SOL    HW124155   6.009   5.268   5.203
 7752SOL    HW224156   5.895   5.377   5.163
 7753SOL     OW24157   2.958   1.101   4.679
 7753SOL    HW124158   3.033   1.078   4.617
 7753SOL    HW224159   2.950   1.029   4.748
 7754SOL     OW24160   6.537   0.695   1.738
 7754SOL    HW124161   6.483   0.631   1.683
 7754SOL    HW224162   6.581   0.646   1.813
 7755SOL     OW24163   1.334   5.849   5.382
 7755SOL    HW124164   1.403   5.873   5.450
 7755SOL    HW224165   1.251   5.817   5.428
 7756SOL     OW24166   3.349   5.692   2.174
 7756SOL    HW124167   3.389   5.649   2.093
 7756SOL    HW224168   3.347   5.627   2.250
 7757SOL     OW24169   4.695   6.427   5.920
 7757SOL    HW124170   4.740   6.390   5.839
 7757SOL    HW224171   4.761   6.435   5.995
 7758SOL     OW24172   2.449   2.042   5.362
 7758SOL    HW124173   2.542   2.042   5.325
 7758SOL    HW224174   2.435   2.124   5.417
 7759SOL     OW24175   1.946   0.951   5.397
 7759SOL    HW124176   1.967   0.906   5.310
 7759SOL    HW224177   1.851   0.982   5.397
 7760SOL     OW24178   4.679   2.687   2.234
 7760SOL    HW124179   4.724   2.733   2.157
 7760SOL    HW224180   4.597   2.640   2.201
 7761SOL     OW24181   3.822   0.020   6.548
 7761SOL    HW124182   3.746   0.002   6.485
 7761SOL    HW224183   3.857   6.951   6.582
 7762SOL     OW24184   2.892   1.673   0.940
 7762SOL    HW124185   2.794   1.657   0.932
 7762SOL    HW224186   2.941   1.587   0.922
 7763SOL     OW24187   1.860   1.807   0.893
 7763SOL    HW124188   1.909   1.836   0.976
 7763SOL    HW224189   1.894   1.860   0.815
 7764SOL     OW24190   3.111   3.077   2.970
 7764SOL    HW124191   3.169   3.083   2.888
 7764SOL    HW224192   3.045   3.151   2.969
 7765SOL     OW24193   6.867   2.300   2.349
 7765SOL    HW124194   6.862   2.364   2.425
 7765SOL    HW224195   6.860   2.351   2.262
 7766SOL     OW24196   6.616   2.900   7.000
 7766SOL    HW124197   6.544   2.967   6.984
 7766SOL    HW224198   6.701   2.931   6.959
 7767SOL     OW24199   5.272   4.437   5.139
 7767SOL    HW124200   5.178   4.416   5.116
 7767SOL    HW224201   5.327   4.441   5.056
 7768SOL     OW24202   3.328   5.215   2.428
 7768SOL    HW124203   3.277   5.177   2.351
 7768SOL    HW224204   3.419   5.241   2.397
 7769SOL     OW24205   5.917   1.968   1.568
 7769SOL    HW124206   5.947   1.890   1.623
 7769SOL    HW224207   5.834   2.006   1.607
 7770SOL     OW24208   3.656   5.564   1.305
 7770SOL    HW124209   3.661   5.593   1.209
 7770SOL    HW224210   3.726   5.611   1.358
 7771SOL     OW24211   2.486   1.499   5.479
 7771SOL    HW124212   2.564   1.470   5.423
 7771SOL    HW224213   2.411   1.530   5.420
 7772SOL     OW24214   5.436   1.342   4.663
 7772SOL    HW124215   5.515   1.399   4.683
 7772SOL    HW224216   5.354   1.399   4.660
 7773SOL     OW24217   3.899   4.558   5.454
 7773SOL    HW124218   3.817   4.514   5.491
 7773SOL    HW224219   3.975   4.494   5.455
 7774SOL     OW24220   4.543   1.511   6.129
 7774SOL    HW124221   4.545   1.611   6.119
 7774SOL    HW224222   4.450   1.478   6.117
 7775SOL     OW24223   2.964   0.035   2.646
 7775SOL    HW124224   2.975   0.009   2.550
 7775SOL    HW224225   2.922   0.126   2.652
 7776SOL     OW24226   3.920   3.485   6.907
 7776SOL    HW124227   3.862   3.556   6.947
 7776SOL    HW224228   3.864   3.407   6.880
 7777SOL     OW24229   1.553   1.264   7.011
 7777SOL    HW124230   1.570   1.196   6.940
 7777SOL    HW224231   1.455   1.277   0.005
 7778SOL     OW24232   5.662   0.833   0.314
 7778SOL    HW124233   5.742   0.817   0.256
 7778SOL    HW224234   5.681   0.909   0.376
 7779SOL     OW24235   3.818   3.256   6.225
 7779SOL    HW124236   3.848   3.330   6.165
 7779SOL    HW224237   3.719   3.246   6.218
 7780SOL     OW24238   1.402   0.067   4.635
 7780SOL    HW124239   1.460   7.011   4.602
 7780SOL    HW224240   1.326   0.029   4.687
 7781SOL     OW24241   1.545   4.934   4.765
 7781SOL    HW124242   1.508   4.894   4.849
 7781SOL    HW224243   1.552   5.034   4.776
 7782SOL     OW24244   3.118   4.036   6.474
 7782SOL    HW124245   3.054   4.100   6.433
 7782SOL    HW224246   3.080   3.944   6.472
 7783SOL     OW24247   2.879   5.273   6.535
 7783SOL    HW124248   2.884   5.334   6.456
 7783SOL    HW224249   2.905   5.322   6.618
 7784SOL     OW24250   0.724   2.604   0.091
 7784SOL    HW124251   0.758   2.608   0.185
 7784SOL    HW224252   0.627   2.577   0.092
 7785SOL     OW24253   2.593   5.903   4.337
 7785SOL    HW124254   2.514   5.957   4.368
 7785SOL    HW224255   2.576   5.806   4.354
 7786SOL     OW24256   3.161   4.107   4.781
 7786SOL    HW124257   3.126   4.047   4.709
 7786SOL    HW224258   3.249   4.146   4.753
 7787SOL     OW24259   2.710   2.513   5.178
 7787SOL    HW124260   2.639   2.583   5.182
 7787SOL    HW224261   2.790   2.544   5.229
 7788SOL     OW24262   0.631   1.413   6.887
 7788SOL    HW124263   0.621   1.314   6.878
 7788SOL    HW224264   0.649   1.453   6.797
 7789SOL     OW24265   2.361   0.329   0.949
 7789SOL    HW124266   2.427   0.404   0.958
 7789SOL    HW224267   2.268   0.364   0.965
 7790SOL     OW24268   5.871   3.468   2.347
 7790SOL    HW124269   5.850   3.547   2.405
 7790SOL    HW224270   5.822   3.477   2.260
 7791SOL     OW24271   1.413   5.224   5.046
 7791SOL    HW124272   1.393   5.187   4.956
 7791SOL    HW224273   1.478   5.300   5.038
 7792SOL     OW24274   2.564   5.308   6.333
 7792SOL    HW124275   2.481   5.287   6.282
 7792SOL    HW224276   2.541   5.348   6.421
 7793SOL     OW24277   0.951   0.854   6.299
 7793SOL    HW124278   0.922   0.758   6.300
 7793SOL    HW224279   1.008   0.872   6.379
 7794SOL     OW24280   5.261   5.639   3.883
 7794SOL    HW124281   5.299   5.577   3.952
 7794SOL    HW224282   5.268   5.597   3.793
 7795SOL     OW24283   2.505   4.501   5.602
 7795SOL    HW124284   2.593   4.528   5.563
 7795SOL    HW224285   2.463   4.580   5.647
 7796SOL     OW24286   4.090   3.341   3.937
 7796SOL    HW124287   4.103   3.336   3.838
 7796SOL    HW224288   4.114   3.433   3.969
 7797SOL     OW24289   0.747   0.288   2.566
 7797SOL    HW124290   0.746   0.340   2.652
 7797SOL    HW224291   0.779   0.346   2.492
 7798SOL     OW24292   4.164   5.314   0.130
 7798SOL    HW124293   4.228   5.278   0.062
 7798SOL    HW224294   4.208   5.316   0.220
 7799SOL     OW24295   0.423   5.136   1.264
 7799SOL    HW124296   0.511   5.098   1.236
 7799SOL    HW224297   0.396   5.209   1.201
 7800SOL     OW24298   0.724   5.733   2.160
 7800SOL    HW124299   0.625   5.744   2.160
 7800SOL    HW224300   0.764   5.794   2.091
 7801SOL     OW24301   3.725   1.987   6.524
 7801SOL    HW124302   3.818   2.001   6.491
 7801SOL    HW224303   3.699   2.063   6.584
 7802SOL     OW24304   5.326   2.076   1.290
 7802SOL    HW124305   5.418   2.097   1.254
 7802SOL    HW224306   5.263   2.148   1.263
 7803SOL     OW24307   4.213   4.173   5.561
 7803SOL    HW124308   4.126   4.222   5.572
 7803SOL    HW224309   4.251   4.192   5.471
 7804SOL     OW24310   4.767   1.629   6.487
 7804SOL    HW124311   4.816   1.645   6.402
 7804SOL    HW224312   4.697   1.699   6.499
 7805SOL     OW24313   4.875   3.723   1.698
 7805SOL    HW124314   4.851   3.638   1.746
 7805SOL    HW224315   4.848   3.716   1.602
 7806SOL     OW24316   5.157   2.838   6.670
 7806SOL    HW124317   5.059   2.850   6.682
 7806SOL    HW224318   5.199   2.926   6.647
 7807SOL     OW24319   0.390   4.293   6.601
 7807SOL    HW124320   0.428   4.209   6.640
 7807SOL    HW224321   0.458   4.366   6.606
 7808SOL     OW24322   0.688   1.570   5.146
 7808SOL    HW124323   0.747   1.501   5.105
 7808SOL    HW224324   0.674   1.645   5.080
 7809SOL     OW24325   2.448   5.327   5.025
 7809SOL    HW124326   2.511   5.286   5.091
 7809SOL    HW224327   2.423   5.419   5.056
 7810SOL     OW24328   2.819   1.082   6.740
 7810SOL    HW124329   2.801   1.085   6.838
 7810SOL    HW224330   2.877   1.003   6.719
 7811SOL     OW24331   6.824   4.238   3.915
 7811SOL    HW124332   6.743   4.268   3.865
 7811SOL    HW224333   6.801   4.227   4.012
 7812SOL     OW24334   1.276   2.000   3.648
 7812SOL    HW124335   1.361   1.960   3.612
 7812SOL    HW224336   1.239   2.066   3.582
 7813SOL     OW24337   6.353   3.122   0.704
 7813SOL    HW124338   6.370   3.163   0.793
 7813SOL    HW224339   6.298   3.039   0.715
 7814SOL     OW24340   0.580   3.608   3.319
 7814SOL    HW124341   0.492   3.598   3.365
 7814SOL    HW224342   0.650   3.634   3.385
 7815SOL     OW24343   6.663   1.521   6.248
 7815SOL    HW124344   6.605   1.564   6.316
 7815SOL    HW224345   6.685   1.587   6.175
 7816SOL     OW24346   1.016   3.988   4.815
 7816SOL    HW124347   1.076   3.910   4.797
 7816SOL    HW224348   1.035   4.024   4.907
 7817SOL     OW24349   5.520   3.525   4.691
 7817SOL    HW124350   5.504   3.535   4.593
 7817SOL    HW224351   5.469   3.447   4.725
 7818SOL     OW24352   5.156   5.238   2.365
 7818SOL    HW124353   5.223   5.311   2.358
 7818SOL    HW224354   5.098   5.254   2.445
 7819SOL     OW24355   6.658   1.459   1.514
 7819SOL    HW124356   6.579   1.455   1.576
 7819SOL    HW224357   6.651   1.541   1.457
 7820SOL     OW24358   1.965   0.449   6.314
 7820SOL    HW124359   2.051   0.414   6.351
 7820SOL    HW224360   1.890   0.387   6.337
 7821SOL     OW24361   3.165   5.334   1.619
 7821SOL    HW124362   3.219   5.282   1.686
 7821SOL    HW224363   3.072   5.345   1.653
 7822SOL     OW24364   1.521   5.835   4.813
 7822SOL    HW124365   1.598   5.874   4.863
 7822SOL    HW224366   1.489   5.752   4.860
 7823SOL     OW24367   1.503   4.650   4.845
 7823SOL    HW124368   1.490   4.552   4.860
 7823SOL    HW224369   1.595   4.667   4.810
 7824SOL     OW24370   0.593   2.990   5.596
 7824SOL    HW124371   0.646   2.923   5.543
 7824SOL    HW224372   0.581   2.956   5.689
 7825SOL     OW24373   2.785   1.363   6.712
 7825SOL    HW124374   2.772   1.408   6.624
 7825SOL    HW224375   2.776   1.264   6.701
 7826SOL     OW24376   0.773   3.116   6.504
 7826SOL    HW124377   0.772   3.041   6.439
 7826SOL    HW224378   0.867   3.133   6.535
 7827SOL     OW24379   6.417   5.676   4.594
 7827SOL    HW124380   6.435   5.658   4.691
 7827SOL    HW224381   6.493   5.728   4.555
 7828SOL     OW24382   0.602   5.069   0.120
 7828SOL    HW124383   0.509   5.033   0.116
 7828SOL    HW224384   0.661   5.003   0.166
 7829SOL     OW24385   3.778   3.288   0.450
 7829SOL    HW124386   3.682   3.285   0.478
 7829SOL    HW224387   3.836   3.293   0.532
 7830SOL     OW24388   2.595   5.228   4.147
 7830SOL    HW124389   2.620   5.169   4.070
 7830SOL    HW224390   2.502   5.208   4.175
 7831SOL     OW24391   1.969   1.047   0.178
 7831SOL    HW124392   1.908   1.125   0.190
 7831SOL    HW224393   1.919   0.971   0.137
 7832SOL     OW24394   6.375   0.638   4.757
 7832SOL    HW124395   6.404   0.712   4.818
 7832SOL    HW224396   6.441   0.628   4.683
 7833SOL     OW24397   1.451   0.533   3.517
 7833SOL    HW124398   1.424   0.459   3.456
 7833SOL    HW224399   1.457   0.500   3.611
 7834SOL     OW24400   6.639   3.265   4.987
 7834SOL    HW124401   6.555   3.212   4.986
 7834SOL    HW224402   6.618   3.361   5.009
 7835SOL     OW24403   3.919   2.587   5.320
 7835SOL    HW124404   4.006   2.560   5.279
 7835SOL    HW224405   3.918   2.686   5.333
 7836SOL     OW24406   3.316   3.804   4.222
 7836SOL    HW124407   3.376   3.832   4.297
 7836SOL    HW224408   3.225   3.843   4.236
 7837SOL     OW24409   6.971   6.056   0.113
 7837SOL    HW124410   6.930   5.990   0.177
 7837SOL    HW224411   6.985   6.011   0.025
 7838SOL     OW24412   4.794   5.572   2.179
 7838SOL    HW124413   4.747   5.506   2.120
 7838SOL    HW224414   4.778   5.665   2.146
 7839SOL     OW24415   5.695   3.327   4.450
 7839SOL    HW124416   5.731   3.384   4.524
 7839SOL    HW224417   5.680   3.234   4.485
 7840SOL     OW24418   1.854   2.914   4.295
 7840SOL    HW124419   1.943   2.913   4.340
 7840SOL    HW224420   1.815   3.006   4.299
 7841SOL     OW24421   4.026   2.010   6.051
 7841SOL    HW124422   3.959   1.941   6.024
 7841SOL    HW224423   4.107   2.001   5.992
 7842SOL     OW24424   1.479   0.405   2.005
 7842SOL    HW124425   1.436   0.327   1.959
 7842SOL    HW224426   1.426   0.488   1.987
 7843SOL     OW24427   6.878   6.253   3.396
 7843SOL    HW124428   6.872   6.331   3.333
 7843SOL    HW224429   6.972   6.221   3.401
 7844SOL     OW24430   3.766   1.228   2.614
 7844SOL    HW124431   3.797   1.311   2.569
 7844SOL    HW224432   3.781   1.236   2.713
 7845SOL     OW24433   6.837   3.355   0.713
 7845SOL    HW124434   6.843   3.369   0.812
 7845SOL    HW224435   6.744   3.376   0.682
 7846SOL     OW24436   1.420   1.469   0.811
 7846SOL    HW124437   1.361   1.403   0.858
 7846SOL    HW224438   1.373   1.505   0.730
 7847SOL     OW24439   5.428   3.777   5.557
 7847SOL    HW124440   5.381   3.850   5.607
 7847SOL    HW224441   5.509   3.749   5.608
 7848SOL     OW24442   3.384   4.123   1.125
 7848SOL    HW124443   3.460   4.059   1.116
 7848SOL    HW224444   3.400   4.203   1.066
 7849SOL     OW24445   4.847   4.603   0.214
 7849SOL    HW124446   4.748   4.593   0.227
 7849SOL    HW224447   4.865   4.679   0.151
 7850SOL     OW24448   7.001   1.259   3.475
 7850SOL    HW124449   0.070   1.289   3.435
 7850SOL    HW224450   6.934   1.243   3.402
 7851SOL     OW24451   0.319   4.763   1.530
 7851SOL    HW124452   0.318   4.725   1.438
 7851SOL    HW224453   0.381   4.711   1.588
 7852SOL     OW24454   1.209   2.995   6.601
 7852SOL    HW124455   1.294   3.016   6.650
 7852SOL    HW224456   1.159   2.925   6.650
 7853SOL     OW24457   3.957   2.896   1.870
 7853SOL    HW124458   3.990   2.933   1.784
 7853SOL    HW224459   4.020   2.920   1.944
 7854SOL     OW24460   4.734   1.785   6.811
 7854SOL    HW124461   4.692   1.859   6.759
 7854SOL    HW224462   4.727   1.699   6.760
 7855SOL     OW24463   5.131   0.371   4.711
 7855SOL    HW124464   5.178   0.443   4.659
 7855SOL    HW224465   5.042   0.353   4.669
 7856SOL     OW24466   2.200   6.420   4.560
 7856SOL    HW124467   2.162   6.512   4.569
 7856SOL    HW224468   2.126   6.357   4.534
 7857SOL     OW24469   6.007   4.855   1.424
 7857SOL    HW124470   6.089   4.869   1.370
 7857SOL    HW224471   5.972   4.763   1.410
 7858SOL     OW24472   0.576   4.447   6.337
 7858SOL    HW124473   0.504   4.410   6.395
 7858SOL    HW224474   0.651   4.381   6.331
 7859SOL     OW24475   5.470   2.695   0.410
 7859SOL    HW124476   5.427   2.682   0.499
 7859SOL    HW224477   5.422   2.766   0.359
 7860SOL     OW24478   3.001   1.054   4.351
 7860SOL    HW124479   3.086   1.075   4.302
 7860SOL    HW224480   2.924   1.099   4.305
 7861SOL     OW24481   2.470   6.506   0.593
 7861SOL    HW124482   2.410   6.554   0.529
 7861SOL    HW224483   2.555   6.558   0.603
 7862SOL     OW24484   2.136   6.194   0.099
 7862SOL    HW124485   2.152   6.185   0.197
 7862SOL    HW224486   2.038   6.178   0.081
 7863SOL     OW24487   0.131   4.030   3.508
 7863SOL    HW124488   0.132   3.942   3.555
 7863SOL    HW224489   0.103   4.101   3.573
 7864SOL     OW24490   1.990   6.183   5.405
 7864SOL    HW124491   1.978   6.104   5.344
 7864SOL    HW224492   2.013   6.263   5.350
 7865SOL     OW24493   5.547   4.868   3.245
 7865SOL    HW124494   5.563   4.887   3.341
 7865SOL    HW224495   5.583   4.778   3.222
 7866SOL     OW24496   6.919   6.968   5.984
 7866SOL    HW124497   6.866   7.014   5.913
 7866SOL    HW224498   6.994   6.917   5.942
 7867SOL     OW24499   5.020   5.459   3.662
 7867SOL    HW124500   4.958   5.408   3.603
 7867SOL    HW224501   4.984   5.552   3.675
 7868SOL     OW24502   3.112   6.318   1.866
 7868SOL    HW124503   3.049   6.262   1.813
 7868SOL    HW224504   3.092   6.415   1.849
 7869SOL     OW24505   5.795   4.665   6.050
 7869SOL    HW124506   5.724   4.732   6.030
 7869SOL    HW224507   5.753   4.578   6.074
 7870SOL     OW24508   5.445   5.817   4.239
 7870SOL    HW124509   5.448   5.791   4.335
 7870SOL    HW224510   5.421   5.913   4.231
 7871SOL     OW24511   5.507   1.554   1.649
 7871SOL    HW124512   5.536   1.614   1.574
 7871SOL    HW224513   5.468   1.609   1.722
 7872SOL     OW24514   1.618   5.796   2.768
 7872SOL    HW124515   1.697   5.823   2.823
 7872SOL    HW224516   1.591   5.703   2.792
 7873SOL     OW24517   5.942   1.708   0.178
 7873SOL    HW124518   5.963   1.706   0.275
 7873SOL    HW224519   5.858   1.658   0.160
 7874SOL     OW24520   5.831   2.508   0.519
 7874SOL    HW124521   5.810   2.439   0.588
 7874SOL    HW224522   5.776   2.490   0.437
 7875SOL     OW24523   6.181   4.564   6.702
 7875SOL    HW124524   6.091   4.602   6.722
 7875SOL    HW224525   6.189   4.549   6.603
 7876SOL     OW24526   0.988   0.048   3.288
 7876SOL    HW124527   0.977   7.005   3.366
 7876SOL    HW224528   0.971   0.142   3.317
 7877SOL     OW24529   6.829   2.680   2.809
 7877SOL    HW124530   6.881   2.668   2.894
 7877SOL    HW224531   6.852   2.768   2.768
 7878SOL     OW24532   4.311   4.728   2.902
 7878SOL    HW124533   4.294   4.701   2.807
 7878SOL    HW224534   4.224   4.744   2.948
 7879SOL     OW24535   3.096   4.931   2.664
 7879SOL    HW124536   3.029   4.968   2.729
 7879SOL    HW224537   3.126   4.841   2.695
 7880SOL     OW24538   1.347   4.364   2.120
 7880SOL    HW124539   1.312   4.415   2.198
 7880SOL    HW224540   1.433   4.405   2.089
 7881SOL     OW24541   4.773   4.362   4.332
 7881SOL    HW124542   4.871   4.378   4.329
 7881SOL    HW224543   4.755   4.271   4.370
 7882SOL     OW24544   1.223   3.305   0.494
 7882SOL    HW124545   1.200   3.401   0.512
 7882SOL    HW224546   1.141   3.257   0.462
 7883SOL     OW24547   0.924   0.304   5.344
 7883SOL    HW124548   1.021   0.294   5.320
 7883SOL    HW224549   0.878   0.359   5.275
 7884SOL     OW24550   0.777   2.824   4.575
 7884SOL    HW124551   0.756   2.727   4.564
 7884SOL    HW224552   0.790   2.865   4.485
 7885SOL     OW24553   6.714   5.819   6.259
 7885SOL    HW124554   6.793   5.809   6.319
 7885SOL    HW224555   6.744   5.823   6.164
 7886SOL     OW24556   5.022   4.821   0.388
 7886SOL    HW124557   4.973   4.816   0.301
 7886SOL    HW224558   4.958   4.847   0.461
 7887SOL     OW24559   4.495   2.381   6.374
 7887SOL    HW124560   4.588   2.398   6.407
 7887SOL    HW224561   4.442   2.335   6.445
 7888SOL     OW24562   4.996   0.629   5.109
 7888SOL    HW124563   5.025   0.691   5.036
 7888SOL    HW224564   4.898   0.640   5.125
 7889SOL     OW24565   1.082   5.531   2.496
 7889SOL    HW124566   1.131   5.447   2.519
 7889SOL    HW224567   1.109   5.562   2.405
 7890SOL     OW24568   1.764   3.242   2.795
 7890SOL    HW124569   1.718   3.154   2.809
 7890SOL    HW224570   1.784   3.254   2.698
 7891SOL     OW24571   1.407   4.886   2.996
 7891SOL    HW124572   1.380   4.981   3.011
 7891SOL    HW224573   1.340   4.825   3.038
 7892SOL     OW24574   2.105   2.877   5.665
 7892SOL    HW124575   2.054   2.794   5.684
 7892SOL    HW224576   2.185   2.856   5.609
 7893SOL     OW24577   6.128   6.586   1.512
 7893SOL    HW124578   6.129   6.572   1.413
 7893SOL    HW224579   6.072   6.516   1.555
 7894SOL     OW24580   2.978   0.280   2.036
 7894SOL    HW124581   3.010   0.186   2.026
 7894SOL    HW224582   2.879   0.283   2.019
 7895SOL     OW24583   6.811   1.611   3.394
 7895SOL    HW124584   6.759   1.530   3.368
 7895SOL    HW224585   6.751   1.675   3.442
 7896SOL     OW24586   4.238   1.924   5.537
 7896SOL    HW124587   4.213   1.873   5.455
 7896SOL    HW224588   4.207   2.018   5.529
 7897SOL     OW24589   2.787   3.166   6.333
 7897SOL    HW124590   2.763   3.182   6.428
 7897SOL    HW224591   2.735   3.228   6.275
 7898SOL     OW24592   4.574   2.333   3.752
 7898SOL    HW124593   4.658   2.279   3.755
 7898SOL    HW224594   4.547   2.348   3.656
 7899SOL     OW24595   5.178   0.862   2.946
 7899SOL    HW124596   5.091   0.856   2.995
 7899SOL    HW224597   5.232   0.779   2.964
 7900SOL     OW24598   1.823   5.474   0.730
 7900SOL    HW124599   1.885   5.542   0.690
 7900SOL    HW224600   1.836   5.386   0.685
 7901SOL     OW24601   6.198   5.815   0.249
 7901SOL    HW124602   6.168   5.723   0.222
 7901SOL    HW224603   6.162   5.882   0.184
 7902SOL     OW24604   5.331   4.589   6.578
 7902SOL    HW124605   5.345   4.684   6.606
 7902SOL    HW224606   5.313   4.533   6.659
 7903SOL     OW24607   0.287   2.421   6.936
 7903SOL    HW124608   0.317   2.418   6.841
 7903SOL    HW224609   0.217   2.351   6.951
 7904SOL     OW24610   6.349   0.838   2.985
 7904SOL    HW124611   6.332   0.934   3.007
 7904SOL    HW224612   6.434   0.809   3.029
 7905SOL     OW24613   3.658   1.643   0.814
 7905SOL    HW124614   3.679   1.740   0.805
 7905SOL    HW224615   3.627   1.607   0.726
 7906SOL     OW24616   6.623   5.446   0.112
 7906SOL    HW124617   6.705   5.495   0.141
 7906SOL    HW224618   6.634   5.416   0.017
 7907SOL     OW24619   6.309   2.990   2.495
 7907SOL    HW124620   6.406   3.011   2.491
 7907SOL    HW224621   6.268   3.001   2.404
 7908SOL     OW24622   5.836   2.047   3.102
 7908SOL    HW124623   5.815   1.949   3.105
 7908SOL    HW224624   5.904   2.069   3.172
 7909SOL     OW24625   4.440   5.017   5.396
 7909SOL    HW124626   4.356   5.058   5.432
 7909SOL    HW224627   4.459   5.054   5.305
 7910SOL     OW24628   5.759   3.839   5.815
 7910SOL    HW124629   5.730   3.904   5.745
 7910SOL    HW224630   5.858   3.830   5.814
 7911SOL     OW24631   6.363   5.070   6.820
 7911SOL    HW124632   6.393   5.068   6.915
 7911SOL    HW224633   6.442   5.078   6.760
 7912SOL     OW24634   6.858   5.292   5.685
 7912SOL    HW124635   6.855   5.222   5.614
 7912SOL    HW224636   6.778   5.282   5.745
 7913SOL     OW24637   0.742   5.864   6.480
 7913SOL    HW124638   0.810   5.876   6.551
 7913SOL    HW224639   0.742   5.945   6.420
 7914SOL     OW24640   0.185   3.372   2.696
 7914SOL    HW124641   0.254   3.356   2.767
 7914SOL    HW224642   0.095   3.378   2.738
 7915SOL     OW24643   4.549   1.608   2.238
 7915SOL    HW124644   4.456   1.608   2.200
 7915SOL    HW224645   4.616   1.613   2.164
 7916SOL     OW24646   4.768   3.410   5.328
 7916SOL    HW124647   4.773   3.492   5.272
 7916SOL    HW224648   4.677   3.370   5.322
 7917SOL     OW24649   3.733   4.121   3.956
 7917SOL    HW124650   3.667   4.084   4.021
 7917SOL    HW224651   3.769   4.046   3.900
 7918SOL     OW24652   6.131   2.258   2.035
 7918SOL    HW124653   6.189   2.177   2.027
 7918SOL    HW224654   6.109   2.274   2.132
 7919SOL     OW24655   5.823   4.708   1.736
 7919SOL    HW124656   5.743   4.767   1.722
 7919SOL    HW224657   5.905   4.765   1.743
 7920SOL     OW24658   1.097   5.515   1.441
 7920SOL    HW124659   1.046   5.462   1.509
 7920SOL    HW224660   1.150   5.454   1.383
 7921SOL     OW24661   3.387   6.265   1.937
 7921SOL    HW124662   3.429   6.228   1.854
 7921SOL    HW224663   3.288   6.268   1.926
 7922SOL     OW24664   0.417   5.016   6.812
 7922SOL    HW124665   0.437   4.990   6.907
 7922SOL    HW224666   0.318   5.032   6.803
 7923SOL     OW24667   0.969   1.561   3.082
 7923SOL    HW124668   0.970   1.468   3.120
 7923SOL    HW224669   1.055   1.578   3.034
 7924SOL     OW24670   2.347   0.632   3.868
 7924SOL    HW124671   2.298   0.662   3.950
 7924SOL    HW224672   2.434   0.591   3.895
 7925SOL     OW24673   0.016   0.302   6.668
 7925SOL    HW124674   0.044   0.206   6.678
 7925SOL    HW224675   6.935   0.308   6.661
 7926SOL     OW24676   3.078   0.489   2.239
 7926SOL    HW124677   3.059   0.414   2.177
 7926SOL    HW224678   3.159   0.539   2.208
 7927SOL     OW24679   4.373   4.886   4.197
 7927SOL    HW124680   4.379   4.979   4.232
 7927SOL    HW224681   4.278   4.864   4.175
 7928SOL     OW24682   1.314   5.021   0.629
 7928SOL    HW124683   1.363   4.977   0.704
 7928SOL    HW224684   1.346   5.115   0.619
 7929SOL     OW24685   3.859   3.991   4.405
 7929SOL    HW124686   3.938   3.939   4.437
 7929SOL    HW224687   3.871   4.014   4.308
 7930SOL     OW24688   5.238   6.044   4.674
 7930SOL    HW124689   5.188   6.079   4.753
 7930SOL    HW224690   5.183   6.055   4.592
 7931SOL     OW24691   1.560   3.311   0.694
 7931SOL    HW124692   1.478   3.317   0.751
 7931SOL    HW224693   1.549   3.368   0.613
 7932SOL     OW24694   3.116   6.911   1.053
 7932SOL    HW124695   3.100   6.971   0.975
 7932SOL    HW224696   3.214   6.905   1.070
 7933SOL     OW24697   1.410   0.410   6.607
 7933SOL    HW124698   1.480   0.350   6.569
 7933SOL    HW224699   1.453   0.495   6.639
 7934SOL     OW24700   4.001   3.324   5.825
 7934SOL    HW124701   3.978   3.239   5.873
 7934SOL    HW224702   4.063   3.303   5.749
 7935SOL     OW24703   4.128   6.358   1.565
 7935SOL    HW124704   4.214   6.405   1.585
 7935SOL    HW224705   4.133   6.264   1.599
 7936SOL     OW24706   4.385   5.491   2.980
 7936SOL    HW124707   4.451   5.547   3.030
 7936SOL    HW224708   4.357   5.414   3.037
 7937SOL     OW24709   6.313   6.770   5.431
 7937SOL    HW124710   6.370   6.694   5.460
 7937SOL    HW224711   6.346   6.805   5.344
 7938SOL     OW24712   5.879   4.275   4.811
 7938SOL    HW124713   5.978   4.275   4.793
 7938SOL    HW224714   5.832   4.328   4.740
 7939SOL     OW24715   0.946   0.201   4.470
 7939SOL    HW124716   1.032   0.153   4.458
 7939SOL    HW224717   0.872   0.149   4.427
 7940SOL     OW24718   1.687   5.481   0.958
 7940SOL    HW124719   1.722   5.504   0.867
 7940SOL    HW224720   1.756   5.506   1.027
 7941SOL     OW24721   0.588   0.147   0.473
 7941SOL    HW124722   0.532   0.229   0.469
 7941SOL    HW224723   0.528   0.066   0.473
 7942SOL     OW24724   1.423   1.307   1.334
 7942SOL    HW124725   1.327   1.333   1.345
 7942SOL    HW224726   1.450   1.245   1.408
 7943SOL     OW24727   5.810   2.428   0.822
 7943SOL    HW124728   5.853   2.405   0.909
 7943SOL    HW224729   5.716   2.457   0.838
 7944SOL     OW24730   0.434   4.298   2.274
 7944SOL    HW124731   0.491   4.250   2.208
 7944SOL    HW224732   0.372   4.359   2.225
 7945SOL     OW24733   5.268   6.368   1.715
 7945SOL    HW124734   5.245   6.453   1.763
 7945SOL    HW224735   5.334   6.316   1.769
 7946SOL     OW24736   1.490   1.876   5.677
 7946SOL    HW124737   1.436   1.825   5.610
 7946SOL    HW224738   1.509   1.818   5.756
 7947SOL     OW24739   3.916   4.558   5.934
 7947SOL    HW124740   4.011   4.583   5.952
 7947SOL    HW224741   3.903   4.460   5.948
 7948SOL     OW24742   0.765   5.351   6.977
 7948SOL    HW124743   0.711   5.379   0.038
 7948SOL    HW224744   0.728   5.265   6.940
 7949SOL     OW24745   6.446   4.523   4.139
 7949SOL    HW124746   6.453   4.523   4.040
 7949SOL    HW224747   6.531   4.559   4.179
 7950SOL     OW24748   3.039   5.315   4.511
 7950SOL    HW124749   3.074   5.408   4.517
 7950SOL    HW224750   3.087   5.265   4.439
 7951SOL     OW24751   3.228   3.136   0.915
 7951SOL    HW124752   3.138   3.178   0.902
 7951SOL    HW224753   3.237   3.106   1.009
 7952SOL     OW24754   5.232   4.249   0.229
 7952SOL    HW124755   5.208   4.181   0.299
 7952SOL    HW224756   5.149   4.285   0.187
 7953SOL     OW24757   2.185   2.769   2.851
 7953SOL    HW124758   2.101   2.804   2.809
 7953SOL    HW224759   2.246   2.846   2.873
 7954SOL     OW24760   4.726   5.193   5.386
 7954SOL    HW124761   4.758   5.281   5.350
 7954SOL    HW224762   4.665   5.151   5.319
 7955SOL     OW24763   1.355   6.714   6.122
 7955SOL    HW124764   1.355   6.757   6.213
 7955SOL    HW224765   1.403   6.626   6.127
 7956SOL     OW24766   6.165   0.015   4.106
 7956SOL    HW124767   6.242   6.982   4.143
 7956SOL    HW224768   6.133   6.991   4.021
 7957SOL     OW24769   0.862   2.566   1.269
 7957SOL    HW124770   0.790   2.632   1.290
 7957SOL    HW224771   0.937   2.577   1.334
 7958SOL     OW24772   2.043   5.460   2.860
 7958SOL    HW124773   2.009   5.475   2.767
 7958SOL    HW224774   2.030   5.365   2.886
 7959SOL     OW24775   5.270   5.161   1.027
 7959SOL    HW124776   5.246   5.258   1.017
 7959SOL    HW224777   5.324   5.149   1.110
 7960SOL     OW24778   2.567   1.909   1.091
 7960SOL    HW124779   2.513   1.961   1.158
 7960SOL    HW224780   2.562   1.812   1.113
 7961SOL     OW24781   1.931   5.282   6.448
 7961SOL    HW124782   1.892   5.191   6.439
 7961SOL    HW224783   2.016   5.288   6.396
 7962SOL     OW24784   1.024   7.001   2.259
 7962SOL    HW124785   0.995   6.906   2.265
 7962SOL    HW224786   0.964   0.033   2.197
 7963SOL     OW24787   1.054   0.170   4.851
 7963SOL    HW124788   0.992   0.221   4.792
 7963SOL    HW224789   1.096   0.096   4.800
 7964SOL     OW24790   6.048   5.737   3.092
 7964SOL    HW124791   6.070   5.828   3.056
 7964SOL    HW224792   5.953   5.736   3.123
 7965SOL     OW24793   5.560   1.841   0.900
 7965SOL    HW124794   5.519   1.773   0.839
 7965SOL    HW224795   5.519   1.835   0.990
 7966SOL     OW24796   0.171   5.835   3.615
 7966SOL    HW124797   0.250   5.831   3.554
 7966SOL    HW224798   0.089   5.806   3.566
 7967SOL     OW24799   3.039   6.238   2.447
 7967SOL    HW124800   3.042   6.142   2.474
 7967SOL    HW224801   3.027   6.295   2.529
 7968SOL     OW24802   1.641   1.038   1.621
 7968SOL    HW124803   1.550   1.038   1.579
 7968SOL    HW224804   1.632   1.064   1.718
 7969SOL     OW24805   3.472   1.850   3.282
 7969SOL    HW124806   3.378   1.840   3.248
 7969SOL    HW224807   3.471   1.903   3.367
 7970SOL     OW24808   0.295   5.193   3.388
 7970SOL    HW124809   0.230   5.124   3.359
 7970SOL    HW224810   0.287   5.273   3.329
 7971SOL     OW24811   2.540   1.466   2.111
 7971SOL    HW124812   2.611   1.520   2.066
 7971SOL    HW224813   2.480   1.425   2.043
 7972SOL     OW24814   0.797   4.867   2.153
 7972SOL    HW124815   0.759   4.908   2.235
 7972SOL    HW224816   0.745   4.898   2.073
 7973SOL     OW24817   4.761   2.200   2.425
 7973SOL    HW124818   4.790   2.198   2.521
 7973SOL    HW224819   4.725   2.291   2.403
 7974SOL     OW24820   5.618   6.798   4.265
 7974SOL    HW124821   5.648   6.750   4.348
 7974SOL    HW224822   5.621   6.735   4.187
 7975SOL     OW24823   2.262   1.257   3.413
 7975SOL    HW124824   2.298   1.181   3.359
 7975SOL    HW224825   2.185   1.225   3.468
 7976SOL     OW24826   0.402   5.999   6.338
 7976SOL    HW124827   0.496   6.028   6.317
 7976SOL    HW224828   0.367   5.942   6.264
 7977SOL     OW24829   5.244   6.293   1.437
 7977SOL    HW124830   5.202   6.204   1.452
 7977SOL    HW224831   5.238   6.347   1.521
 7978SOL     OW24832   3.900   2.497   6.158
 7978SOL    HW124833   3.971   2.524   6.224
 7978SOL    HW224834   3.910   2.552   6.075
 7979SOL     OW24835   4.516   0.305   4.099
 7979SOL    HW124836   4.485   0.389   4.143
 7979SOL    HW224837   4.439   0.260   4.056
 7980SOL     OW24838   2.477   0.319   2.017
 7980SOL    HW124839   2.563   0.272   2.035
 7980SOL    HW224840   2.485   0.376   1.935
 7981SOL     OW24841   1.229   5.710   2.786
 7981SOL    HW124842   1.189   5.802   2.791
 7981SOL    HW224843   1.304   5.710   2.720
 7982SOL     OW24844   7.014   3.145   0.659
 7982SOL    HW124845   6.968   3.221   0.704
 7982SOL    HW224846   6.946   3.079   0.627
 7983SOL     OW24847   5.011   2.362   2.140
 7983SOL    HW124848   4.985   2.432   2.206
 7983SOL    HW224849   5.108   2.340   2.152
 7984SOL     OW24850   0.702   0.554   0.519
 7984SOL    HW124851   0.756   0.470   0.526
 7984SOL    HW224852   0.608   0.536   0.549
 7985SOL     OW24853   0.473   1.289   1.052
 7985SOL    HW124854   0.449   1.199   1.017
 7985SOL    HW224855   0.470   1.357   0.978
 7986SOL     OW24856   3.732   2.186   0.833
 7986SOL    HW124857   3.634   2.206   0.831
 7986SOL    HW224858   3.768   2.186   0.739
 7987SOL     OW24859   0.234   3.109   5.136
 7987SOL    HW124860   0.190   3.195   5.161
 7987SOL    HW224861   0.217   3.040   5.207
 7988SOL     OW24862   2.711   1.524   5.724
 7988SOL    HW124863   2.637   1.591   5.721
 7988SOL    HW224864   2.674   1.433   5.706
 7989SOL     OW24865   3.311   3.375   5.617
 7989SOL    HW124866   3.411   3.384   5.622
 7989SOL    HW224867   3.280   3.316   5.692
 7990SOL     OW24868   2.293   2.356   4.946
 7990SOL    HW124869   2.329   2.339   4.854
 7990SOL    HW224870   2.209   2.409   4.940
 7991SOL     OW24871   0.237   3.592   5.329
 7991SOL    HW124872   0.319   3.638   5.364
 7991SOL    HW224873   0.226   3.504   5.374
 7992SOL     OW24874   2.484   0.689   0.476
 7992SOL    HW124875   2.445   0.632   0.549
 7992SOL    HW224876   2.457   0.652   0.387
 7993SOL     OW24877   1.993   7.000   6.877
 7993SOL    HW124878   1.935   6.919   6.872
 7993SOL    HW224879   2.068   6.984   6.942
 7994SOL     OW24880   5.746   0.640   3.755
 7994SOL    HW124881   5.668   0.579   3.770
 7994SOL    HW224882   5.724   0.731   3.789
 7995SOL     OW24883   4.053   4.857   2.980
 7995SOL    HW124884   4.051   4.843   2.881
 7995SOL    HW224885   4.007   4.943   3.002
 7996SOL     OW24886   3.815   0.818   4.807
 7996SOL    HW124887   3.869   0.742   4.771
 7996SOL    HW224888   3.862   0.857   4.887
 7997SOL     OW24889   5.871   2.782   2.206
 7997SOL    HW124890   5.819   2.752   2.126
 7997SOL    HW224891   5.927   2.706   2.239
 7998SOL     OW24892   6.398   5.321   6.659
 7998SOL    HW124893   6.320   5.262   6.682
 7998SOL    HW224894   6.365   5.413   6.640
 7999SOL     OW24895   1.658   0.715   5.696
 7999SOL    HW124896   1.656   0.722   5.796
 7999SOL    HW224897   1.619   0.797   5.656
 8000SOL     OW24898   6.173   6.886   5.721
 8000SOL    HW124899   6.268   6.915   5.732
 8000SOL    HW224900   6.144   6.902   5.626
 8001SOL     OW24901   2.248   0.132   1.322
 8001SOL    HW124902   2.338   0.100   1.294
 8001SOL    HW224903   2.219   0.084   1.405
 8002SOL     OW24904   5.680   2.925   5.379
 8002SOL    HW124905   5.737   2.976   5.444
 8002SOL    HW224906   5.660   2.983   5.300
 8003SOL     OW24907   4.029   5.277   3.210
 8003SOL    HW124908   4.125   5.256   3.193
 8003SOL    HW224909   4.012   5.278   3.308
 8004SOL     OW24910   1.845   3.795   2.612
 8004SOL    HW124911   1.830   3.843   2.698
 8004SOL    HW224912   1.899   3.713   2.628
 8005SOL     OW24913   2.844   1.003   1.893
 8005SOL    HW124914   2.931   0.974   1.854
 8005SOL    HW224915   2.857   1.032   1.987
 8006SOL     OW24916   3.306   6.480   0.745
 8006SOL    HW124917   3.250   6.402   0.716
 8006SOL    HW224918   3.357   6.455   0.827
 8007SOL     OW24919   0.393   0.811   4.708
 8007SOL    HW124920   0.393   0.884   4.640
 8007SOL    HW224921   0.364   0.725   4.666
 8008SOL     OW24922   6.277   5.912   0.491
 8008SOL    HW124923   6.232   5.871   0.412
 8008SOL    HW224924   6.329   5.993   0.462
 8009SOL     OW24925   6.779   6.798   3.593
 8009SOL    HW124926   6.863   6.796   3.539
 8009SOL    HW224927   6.707   6.750   3.543
 8010SOL     OW24928   2.623   2.529   6.544
 8010SOL    HW124929   2.661   2.436   6.546
 8010SOL    HW224930   2.556   2.539   6.617
 8011SOL     OW24931   2.489   1.993   0.831
 8011SOL    HW124932   2.497   1.949   0.920
 8011SOL    HW224933   2.487   2.093   0.844
 8012SOL     OW24934   3.038   6.700   3.164
 8012SOL    HW124935   3.092   6.671   3.084
 8012SOL    HW224936   3.091   6.686   3.247
 8013SOL     OW24937   6.225   4.633   4.957
 8013SOL    HW124938   6.299   4.657   5.020
 8013SOL    HW224939   6.137   4.655   5.000
 8014SOL     OW24940   2.179   0.350   0.080
 8014SOL    HW124941   2.177   0.429   0.140
 8014SOL    HW224942   2.096   0.296   0.092
 8015SOL     OW24943   1.810   2.136   6.752
 8015SOL    HW124944   1.761   2.218   6.781
 8015SOL    HW224945   1.901   2.161   6.719
 8016SOL     OW24946   3.617   6.447   1.494
 8016SOL    HW124947   3.544   6.407   1.439
 8016SOL    HW224948   3.580   6.519   1.551
 8017SOL     OW24949   5.847   4.227   4.280
 8017SOL    HW124950   5.758   4.181   4.274
 8017SOL    HW224951   5.920   4.158   4.286
 8018SOL     OW24952   5.555   2.479   4.747
 8018SOL    HW124953   5.498   2.439   4.820
 8018SOL    HW224954   5.640   2.427   4.740
 8019SOL     OW24955   2.520   5.285   1.143
 8019SOL    HW124956   2.556   5.291   1.236
 8019SOL    HW224957   2.595   5.295   1.078
 8020SOL     OW24958   6.245   6.192   6.451
 8020SOL    HW124959   6.336   6.150   6.445
 8020SOL    HW224960   6.253   6.291   6.436
 8021SOL     OW24961   0.666   1.095   0.863
 8021SOL    HW124962   0.752   1.080   0.815
 8021SOL    HW224963   0.594   1.042   0.821
 8022SOL     OW24964   4.146   6.251   3.137
 8022SOL    HW124965   4.161   6.324   3.204
 8022SOL    HW224966   4.226   6.243   3.078
 8023SOL     OW24967   6.266   6.406   3.311
 8023SOL    HW124968   6.344   6.368   3.359
 8023SOL    HW224969   6.276   6.505   3.303
 8024SOL     OW24970   4.901   5.359   4.735
 8024SOL    HW124971   4.879   5.307   4.653
 8024SOL    HW224972   4.889   5.301   4.816
 8025SOL     OW24973   3.788   5.898   0.403
 8025SOL    HW124974   3.795   5.867   0.497
 8025SOL    HW224975   3.742   5.828   0.348
 8026SOL     OW24976   1.540   2.396   0.688
 8026SOL    HW124977   1.458   2.387   0.631
 8026SOL    HW224978   1.621   2.380   0.632
 8027SOL     OW24979   5.263   2.726   5.337
 8027SOL    HW124980   5.244   2.628   5.341
 8027SOL    HW224981   5.361   2.742   5.346
 8028SOL     OW24982   5.591   4.843   0.061
 8028SOL    HW124983   5.639   4.870   6.996
 8028SOL    HW224984   5.647   4.778   0.112
 8029SOL     OW24985   3.102   4.784   0.790
 8029SOL    HW124986   3.201   4.793   0.802
 8029SOL    HW224987   3.066   4.720   0.857
 8030SOL     OW24988   5.955   3.914   6.957
 8030SOL    HW124989   6.020   3.843   6.928
 8030SOL    HW224990   5.898   3.879   0.013
 8031SOL     OW24991   3.768   5.889   1.588
 8031SOL    HW124992   3.761   5.987   1.569
 8031SOL    HW224993   3.807   5.842   1.509
 8032SOL     OW24994   5.365   4.578   6.091
 8032SOL    HW124995   5.397   4.524   6.012
 8032SOL    HW224996   5.435   4.577   6.162
 8033SOL     OW24997   6.047   2.685   0.221
 8033SOL    HW124998   5.961   2.730   0.197
 8033SOL    HW224999   6.098   2.664   0.138
 8034SOL     OW25000   6.009   1.515   5.419
 8034SOL    HW125001   6.095   1.540   5.465
 8034SOL    HW225002   5.933   1.527   5.483
 8035SOL     OW25003   5.575   6.667   0.231
 8035SOL    HW125004   5.584   6.630   0.138
 8035SOL    HW225005   5.656   6.721   0.253
 8036SOL     OW25006   1.841   3.940   1.603
 8036SOL    HW125007   1.815   3.917   1.697
 8036SOL    HW225008   1.895   4.024   1.602
 8037SOL     OW25009   2.006   2.861   1.322
 8037SOL    HW125010   1.956   2.837   1.239
 8037SOL    HW225011   2.088   2.804   1.329
 8038SOL     OW25012   6.835   2.001   4.409
 8038SOL    HW125013   6.799   1.937   4.342
 8038SOL    HW225014   6.841   1.955   4.498
 8039SOL     OW25015   2.294   6.545   4.247
 8039SOL    HW125016   2.251   6.463   4.284
 8039SOL    HW225017   2.352   6.587   4.317
 8040SOL     OW25018   0.146   5.355   0.770
 8040SOL    HW125019   0.052   5.374   0.744
 8040SOL    HW225020   0.147   5.293   0.848
 8041SOL     OW25021   4.242   1.541   0.651
 8041SOL    HW125022   4.188   1.619   0.679
 8041SOL    HW225023   4.199   1.457   0.684
 8042SOL     OW25024   2.695   3.306   1.119
 8042SOL    HW125025   2.610   3.294   1.170
 8042SOL    HW225026   2.773   3.306   1.182
 8043SOL     OW25027   2.405   6.994   1.703
 8043SOL    HW125028   2.378   0.063   1.745
 8043SOL    HW225029   2.496   7.003   1.662
 8044SOL     OW25030   3.244   4.025   1.941
 8044SOL    HW125031   3.168   3.960   1.941
 8044SOL    HW225032   3.299   4.012   2.023
 8045SOL     OW25033   6.524   2.980   3.231
 8045SOL    HW125034   6.544   2.950   3.138
 8045SOL    HW225035   6.596   2.950   3.293
 8046SOL     OW25036   6.889   4.882   5.997
 8046SOL    HW125037   6.945   4.857   6.075
 8046SOL    HW225038   6.823   4.952   6.023
 8047SOL     OW25039   3.669   6.014   3.813
 8047SOL    HW125040   3.621   6.098   3.784
 8047SOL    HW225041   3.635   5.986   3.903
 8048SOL     OW25042   6.641   0.289   5.821
 8048SOL    HW125043   6.688   0.368   5.781
 8048SOL    HW225044   6.690   0.206   5.796
 8049SOL     OW25045   1.555   5.231   0.428
 8049SOL    HW125046   1.599   5.321   0.430
 8049SOL    HW225047   1.618   5.164   0.467
 8050SOL     OW25048   1.241   2.812   1.293
 8050SOL    HW125049   1.178   2.744   1.329
 8050SOL    HW225050   1.308   2.837   1.363
 8051SOL     OW25051   4.189   1.298   3.320
 8051SOL    HW125052   4.221   1.357   3.246
 8051SOL    HW225053   4.156   1.212   3.282
 8052SOL     OW25054   3.306   2.063   2.968
 8052SOL    HW125055   3.311   1.970   2.932
 8052SOL    HW225056   3.378   2.119   2.927
 8053SOL     OW25057   3.827   3.337   2.157
 8053SOL    HW125058   3.838   3.428   2.117
 8053SOL    HW225059   3.870   3.334   2.247
 8054SOL     OW25060   4.073   6.395   4.881
 8054SOL    HW125061   4.106   6.399   4.786
 8054SOL    HW225062   4.113   6.316   4.927
 8055SOL     OW25063   1.579   6.683   5.343
 8055SOL    HW125064   1.613   6.711   5.253
 8055SOL    HW225065   1.519   6.754   5.379
 8056SOL     OW25066   4.369   1.786   2.792
 8056SOL    HW125067   4.393   1.690   2.806
 8056SOL    HW225068   4.305   1.816   2.863
 8057SOL     OW25069   3.686   6.415   4.094
 8057SOL    HW125070   3.754   6.342   4.085
 8057SOL    HW225071   3.698   6.461   4.181
 8058SOL     OW25072   1.872   0.759   3.080
 8058SOL    HW125073   1.799   0.704   3.038
 8058SOL    HW225074   1.950   0.764   3.018
 8059SOL     OW25075   2.673   1.665   3.987
 8059SOL    HW125076   2.731   1.662   3.905
 8059SOL    HW225077   2.582   1.697   3.961
 8060SOL     OW25078   0.551   1.618   4.779
 8060SOL    HW125079   0.588   1.530   4.751
 8060SOL    HW225080   0.534   1.675   4.698
 8061SOL     OW25081   0.176   5.642   1.516
 8061SOL    HW125082   0.129   5.559   1.544
 8061SOL    HW225083   0.181   5.706   1.593
 8062SOL     OW25084   2.191   3.856   2.760
 8062SOL    HW125085   2.142   3.830   2.843
 8062SOL    HW225086   2.270   3.796   2.747
 8063SOL     OW25087   3.077   3.201   6.832
 8063SOL    HW125088   2.992   3.254   6.830
 8063SOL    HW225089   3.075   3.139   6.910
 8064SOL     OW25090   6.526   3.469   0.147
 8064SOL    HW125091   6.604   3.406   0.144
 8064SOL    HW225092   6.450   3.430   0.096
 8065SOL     OW25093   4.497   7.005   6.279
 8065SOL    HW125094   4.596   7.014   6.292
 8065SOL    HW225095   4.476   6.911   6.249
 8066SOL     OW25096   2.102   0.428   1.799
 8066SOL    HW125097   2.061   0.502   1.745
 8066SOL    HW225098   2.037   0.399   1.870
 8067SOL     OW25099   5.135   2.473   1.778
 8067SOL    HW125100   5.065   2.405   1.802
 8067SOL    HW225101   5.091   2.562   1.764
 8068SOL     OW25102   0.854   4.395   4.229
 8068SOL    HW125103   0.935   4.421   4.176
 8068SOL    HW225104   0.780   4.459   4.212
 8069SOL     OW25105   2.055   6.258   1.985
 8069SOL    HW125106   2.121   6.299   1.922
 8069SOL    HW225107   1.981   6.323   2.002
 8070SOL     OW25108   3.814   0.301   1.960
 8070SOL    HW125109   3.831   0.219   1.906
 8070SOL    HW225110   3.809   0.277   2.057
 8071SOL     OW25111   3.985   6.198   0.173
 8071SOL    HW125112   4.005   6.283   0.224
 8071SOL    HW225113   4.071   6.155   0.147
 8072SOL     OW25114   5.314   0.571   1.551
 8072SOL    HW125115   5.230   0.618   1.579
 8072SOL    HW225116   5.308   0.475   1.575
 8073SOL     OW25117   4.246   6.231   5.590
 8073SOL    HW125118   4.147   6.237   5.577
 8073SOL    HW225119   4.289   6.316   5.560
 8074SOL     OW25120   3.289   3.654   6.847
 8074SOL    HW125121   3.198   3.695   6.856
 8074SOL    HW225122   3.332   3.685   6.762
 8075SOL     OW25123   5.777   1.774   2.693
 8075SOL    HW125124   5.832   1.729   2.623
 8075SOL    HW225125   5.808   1.746   2.784
 8076SOL     OW25126   5.614   3.036   6.523
 8076SOL    HW125127   5.656   2.959   6.572
 8076SOL    HW225128   5.515   3.025   6.522
 8077SOL     OW25129   1.275   0.910   0.503
 8077SOL    HW125130   1.190   0.887   0.455
 8077SOL    HW225131   1.257   0.981   0.571
 8078SOL     OW25132   6.125   3.317   0.237
 8078SOL    HW125133   6.165   3.405   0.263
 8078SOL    HW225134   6.106   3.264   0.320
 8079SOL     OW25135   6.732   1.675   1.933
 8079SOL    HW125136   6.832   1.681   1.929
 8079SOL    HW225137   6.703   1.667   2.028
 8080SOL     OW25138   3.743   5.173   0.428
 8080SOL    HW125139   3.653   5.174   0.385
 8080SOL    HW225140   3.768   5.266   0.457
 8081SOL     OW25141   5.769   0.607   5.571
 8081SOL    HW125142   5.713   0.688   5.554
 8081SOL    HW225143   5.776   0.553   5.487
 8082SOL     OW25144   6.475   3.000   4.183
 8082SOL    HW125145   6.503   2.961   4.270
 8082SOL    HW225146   6.502   3.097   4.179
 8083SOL     OW25147   4.675   2.723   4.183
 8083SOL    HW125148   4.675   2.731   4.083
 8083SOL    HW225149   4.597   2.669   4.213
 8084SOL     OW25150   6.481   0.225   1.339
 8084SOL    HW125151   6.388   0.191   1.327
 8084SOL    HW225152   6.531   0.217   1.253
 8085SOL     OW25153   6.078   2.156   1.301
 8085SOL    HW125154   6.115   2.086   1.362
 8085SOL    HW225155   5.985   2.178   1.329
 8086SOL     OW25156   3.327   6.708   5.372
 8086SOL    HW125157   3.272   6.703   5.455
 8086SOL    HW225158   3.351   6.804   5.354
 8087SOL     OW25159   3.077   3.123   1.434
 8087SOL    HW125160   3.118   3.047   1.485
 8087SOL    HW225161   3.135   3.204   1.440
 8088SOL     OW25162   4.436   1.048   2.607
 8088SOL    HW125163   4.336   1.055   2.610
 8088SOL    HW225164   4.464   0.957   2.638
 8089SOL     OW25165   6.062   2.912   0.666
 8089SOL    HW125166   6.031   2.868   0.582
 8089SOL    HW225167   6.022   2.866   0.745
 8090SOL     OW25168   4.803   2.481   5.126
 8090SOL    HW125169   4.746   2.417   5.177
 8090SOL    HW225170   4.762   2.499   5.036
 8091SOL     OW25171   3.138   5.197   5.930
 8091SOL    HW125172   3.161   5.106   5.965
 8091SOL    HW225173   3.186   5.212   5.843
 8092SOL     OW25174   0.649   1.917   4.339
 8092SOL    HW125175   0.573   1.982   4.336
 8092SOL    HW225176   0.624   1.834   4.289
 8093SOL     OW25177   5.700   6.001   1.324
 8093SOL    HW125178   5.610   6.022   1.285
 8093SOL    HW225179   5.693   5.919   1.382
 8094SOL     OW25180   1.117   3.639   4.460
 8094SOL    HW125181   1.213   3.620   4.437
 8094SOL    HW225182   1.114   3.716   4.525
 8095SOL     OW25183   5.935   3.955   4.339
 8095SOL    HW125184   5.994   3.900   4.398
 8095SOL    HW225185   5.845   3.965   4.382
 8096SOL     OW25186   3.832   6.319   1.615
 8096SOL    HW125187   3.915   6.365   1.582
 8096SOL    HW225188   3.753   6.377   1.599
 8097SOL     OW25189   4.762   1.106   4.820
 8097SOL    HW125190   4.816   1.080   4.740
 8097SOL    HW225191   4.758   1.206   4.826
 8098SOL     OW25192   2.685   6.869   3.682
 8098SOL    HW125193   2.637   6.880   3.595
 8098SOL    HW225194   2.783   6.879   3.667
 8099SOL     OW25195   5.420   6.498   5.273
 8099SOL    HW125196   5.363   6.506   5.355
 8099SOL    HW225197   5.361   6.483   5.194
 8100SOL     OW25198   0.900   6.823   0.989
 8100SOL    HW125199   0.922   6.914   1.024
 8100SOL    HW225200   0.813   6.826   0.940
 8101SOL     OW25201   1.318   5.710   3.047
 8101SOL    HW125202   1.314   5.713   2.948
 8101SOL    HW225203   1.387   5.774   3.080
 8102SOL     OW25204   0.082   6.398   6.145
 8102SOL    HW125205   0.098   6.304   6.177
 8102SOL    HW225206   0.122   6.462   6.210
 8103SOL     OW25207   2.681   1.878   2.210
 8103SOL    HW125208   2.684   1.905   2.113
 8103SOL    HW225209   2.634   1.948   2.263
 8104SOL     OW25210   2.168   6.571   5.914
 8104SOL    HW125211   2.244   6.633   5.895
 8104SOL    HW225212   2.196   6.504   5.983
 8105SOL     OW25213   1.470   2.396   2.523
 8105SOL    HW125214   1.568   2.402   2.542
 8105SOL    HW225215   1.425   2.479   2.556
 8106SOL     OW25216   0.574   3.643   4.409
 8106SOL    HW125217   0.583   3.672   4.504
 8106SOL    HW225218   0.661   3.604   4.378
 8107SOL     OW25219   2.086   6.032   5.996
 8107SOL    HW125220   2.048   5.972   5.925
 8107SOL    HW225221   2.179   6.001   6.019
 8108SOL     OW25222   1.754   3.153   4.430
 8108SOL    HW125223   1.845   3.195   4.437
 8108SOL    HW225224   1.735   3.103   4.515
 8109SOL     OW25225   1.058   4.977   5.395
 8109SOL    HW125226   1.143   5.010   5.354
 8109SOL    HW225227   1.078   4.899   5.455
 8110SOL     OW25228   1.762   4.443   0.917
 8110SOL    HW125229   1.746   4.444   1.016
 8110SOL    HW225230   1.740   4.353   0.880
 8111SOL     OW25231   2.620   5.635   4.394
 8111SOL    HW125232   2.667   5.574   4.329
 8111SOL    HW225233   2.556   5.582   4.449
 8112SOL     OW25234   3.336   0.964   4.548
 8112SOL    HW125235   3.431   0.982   4.523
 8112SOL    HW225236   3.310   0.872   4.520
 8113SOL     OW25237   3.564   3.145   6.197
 8113SOL    HW125238   3.594   3.049   6.202
 8113SOL    HW225239   3.472   3.153   6.235
 8114SOL     OW25240   2.839   3.958   1.143
 8114SOL    HW125241   2.855   3.863   1.170
 8114SOL    HW225242   2.920   3.993   1.096
 8115SOL     OW25243   3.827   2.008   1.334
 8115SOL    HW125244   3.860   1.916   1.313
 8115SOL    HW225245   3.887   2.051   1.402
 8116SOL     OW25246   5.955   1.005   5.412
 8116SOL    HW125247   5.950   1.104   5.396
 8116SOL    HW225248   5.909   0.983   5.498
 8117SOL     OW25249   2.317   1.852   5.923
 8117SOL    HW125250   2.390   1.795   5.885
 8117SOL    HW225251   2.292   1.923   5.857
 8118SOL     OW25252   1.362   2.804   4.762
 8118SOL    HW125253   1.263   2.800   4.751
 8118SOL    HW225254   1.406   2.788   4.673
 8119SOL     OW25255   1.167   5.825   2.055
 8119SOL    HW125256   1.150   5.923   2.061
 8119SOL    HW225257   1.254   5.809   2.008
 8120SOL     OW25258   4.048   4.268   1.455
 8120SOL    HW125259   3.990   4.282   1.536
 8120SOL    HW225260   4.135   4.227   1.483
 8121SOL     OW25261   6.548   6.890   2.922
 8121SOL    HW125262   6.529   6.804   2.874
 8121SOL    HW225263   6.566   6.962   2.855
 8122SOL     OW25264   0.603   6.364   1.319
 8122SOL    HW125265   0.599   6.436   1.250
 8122SOL    HW225266   0.597   6.405   1.410
 8123SOL     OW25267   0.398   5.588   0.197
 8123SOL    HW125268   0.407   5.522   0.122
 8123SOL    HW225269   0.483   5.592   0.249
 8124SOL     OW25270   0.582   6.181   2.373
 8124SOL    HW125271   0.584   6.240   2.292
 8124SOL    HW225272   0.604   6.235   2.454
 8125SOL     OW25273   5.694   5.592   2.834
 8125SOL    HW125274   5.746   5.513   2.867
 8125SOL    HW225275   5.694   5.594   2.735
 8126SOL     OW25276   6.183   4.497   2.166
 8126SOL    HW125277   6.159   4.460   2.256
 8126SOL    HW225278   6.105   4.548   2.128
 8127SOL     OW25279   3.249   4.517   1.133
 8127SOL    HW125280   3.181   4.514   1.060
 8127SOL    HW225281   3.252   4.609   1.172
 8128SOL     OW25282   3.678   2.663   5.422
 8128SOL    HW125283   3.765   2.628   5.385
 8128SOL    HW225284   3.612   2.674   5.348
 8129SOL     OW25285   5.154   6.677   0.348
 8129SOL    HW125286   5.125   6.653   0.255
 8129SOL    HW225287   5.075   6.711   0.399
 8130SOL     OW25288   1.055   0.111   0.726
 8130SOL    HW125289   0.971   0.133   0.776
 8130SOL    HW225290   1.052   0.150   0.635
 8131SOL     OW25291   0.834   1.237   0.059
 8131SOL    HW125292   0.879   1.272   0.141
 8131SOL    HW225293   0.737   1.225   0.077
 8132SOL     OW25294   6.296   5.046   2.914
 8132SOL    HW125295   6.278   5.121   2.978
 8132SOL    HW225296   6.358   5.078   2.842
 8133SOL     OW25297   0.731   5.843   1.884
 8133SOL    HW125298   0.740   5.942   1.874
 8133SOL    HW225299   0.820   5.799   1.872
 8134SOL     OW25300   2.159   2.593   1.625
 8134SOL    HW125301   2.078   2.576   1.568
 8134SOL    HW225302   2.226   2.645   1.572
 8135SOL     OW25303   3.794   5.871   2.445
 8135SOL    HW125304   3.830   5.956   2.407
 8135SOL    HW225305   3.722   5.892   2.511
 8136SOL     OW25306   3.545   6.185   0.908
 8136SOL    HW125307   3.610   6.240   0.856
 8136SOL    HW225308   3.469   6.158   0.848
 8137SOL     OW25309   2.845   3.840   5.573
 8137SOL    HW125310   2.789   3.900   5.629
 8137SOL    HW225311   2.825   3.745   5.595
 8138SOL     OW25312   4.844   0.990   3.718
 8138SOL    HW125313   4.909   0.978   3.794
 8138SOL    HW225314   4.791   0.906   3.706
 8139SOL     OW25315   1.804   2.462   4.110
 8139SOL    HW125316   1.717   2.427   4.073
 8139SOL    HW225317   1.836   2.401   4.182
 8140SOL     OW25318   4.279   0.111   1.064
 8140SOL    HW125319   4.204   0.157   1.110
 8140SOL    HW225320   4.357   0.103   1.126
 8141SOL     OW25321   5.817   1.088   5.099
 8141SOL    HW125322   5.808   1.143   5.017
 8141SOL    HW225323   5.793   1.143   5.179
 8142SOL     OW25324   2.500   5.417   1.629
 8142SOL    HW125325   2.406   5.386   1.614
 8142SOL    HW225326   2.511   5.510   1.594
 8143SOL     OW25327   6.082   5.229   0.904
 8143SOL    HW125328   6.061   5.308   0.847
 8143SOL    HW225329   6.122   5.157   0.847
 8144SOL     OW25330   6.994   5.094   0.207
 8144SOL    HW125331   6.911   5.085   0.153
 8144SOL    HW225332   6.998   5.186   0.247
 8145SOL     OW25333   5.446   5.559   6.849
 8145SOL    HW125334   5.476   5.525   6.938
 8145SOL    HW225335   5.353   5.527   6.831
 8146SOL     OW25336   6.333   0.288   4.634
 8146SOL    HW125337   6.291   0.374   4.608
 8146SOL    HW225338   6.396   0.258   4.562
 8147SOL     OW25339   1.991   0.859   6.466
 8147SOL    HW125340   1.990   0.787   6.536
 8147SOL    HW225341   2.062   0.839   6.399
 8148SOL     OW25342   4.804   4.871   0.592
 8148SOL    HW125343   4.864   4.898   0.668
 8148SOL    HW225344   4.730   4.814   0.627
 8149SOL     OW25345   0.611   6.983   4.941
 8149SOL    HW125346   0.656   0.020   5.010
 8149SOL    HW225347   0.666   6.901   4.923
 8150SOL     OW25348   0.303   4.121   0.663
 8150SOL    HW125349   0.325   4.125   0.761
 8150SOL    HW225350   0.281   4.213   0.630
 8151SOL     OW25351   6.407   6.218   2.907
 8151SOL    HW125352   6.394   6.298   2.966
 8151SOL    HW225353   6.318   6.180   2.883
 8152SOL     OW25354   4.873   1.420   3.237
 8152SOL    HW125355   4.932   1.500   3.250
 8152SOL    HW225356   4.839   1.418   3.143
 8153SOL     OW25357   0.438   1.276   1.896
 8153SOL    HW125358   0.347   1.269   1.937
 8153SOL    HW225359   0.500   1.320   1.961
 8154SOL     OW25360   2.076   0.459   2.820
 8154SOL    HW125361   2.049   0.363   2.816
 8154SOL    HW225362   2.102   0.483   2.914
 8155SOL     OW25363   1.804   5.017   3.516
 8155SOL    HW125364   1.824   4.924   3.548
 8155SOL    HW225365   1.810   5.020   3.417
 8156SOL     OW25366   0.671   4.427   1.235
 8156SOL    HW125367   0.751   4.450   1.291
 8156SOL    HW225368   0.640   4.335   1.259
 8157SOL     OW25369   6.629   4.062   4.961
 8157SOL    HW125370   6.683   4.106   5.033
 8157SOL    HW225371   6.606   4.129   4.890
 8158SOL     OW25372   6.111   5.829   6.704
 8158SOL    HW125373   6.125   5.792   6.796
 8158SOL    HW225374   6.087   5.926   6.710
 8159SOL     OW25375   3.109   6.909   5.120
 8159SOL    HW125376   3.137   6.913   5.024
 8159SOL    HW225377   3.088   6.814   5.145
 8160SOL     OW25378   5.856   1.176   1.940
 8160SOL    HW125379   5.896   1.085   1.938
 8160SOL    HW225380   5.756   1.170   1.936
 8161SOL     OW25381   5.675   3.755   1.694
 8161SOL    HW125382   5.692   3.697   1.614
 8161SOL    HW225383   5.634   3.700   1.767
 8162SOL     OW25384   0.210   5.384   5.690
 8162SOL    HW125385   0.194   5.298   5.641
 8162SOL    HW225386   0.176   5.460   5.635
 8163SOL     OW25387   4.261   4.567   5.396
 8163SOL    HW125388   4.187   4.551   5.462
 8163SOL    HW225389   4.250   4.505   5.318
 8164SOL     OW25390   5.637   1.552   1.184
 8164SOL    HW125391   5.684   1.607   1.253
 8164SOL    HW225392   5.705   1.509   1.124
 8165SOL     OW25393   0.190   0.939   0.285
 8165SOL    HW125394   0.119   0.984   0.230
 8165SOL    HW225395   0.197   0.985   0.373
 8166SOL     OW25396   1.391   1.761   5.176
 8166SOL    HW125397   1.460   1.695   5.144
 8166SOL    HW225398   1.310   1.755   5.118
 8167SOL     OW25399   1.759   3.328   4.193
 8167SOL    HW125400   1.812   3.302   4.274
 8167SOL    HW225401   1.710   3.247   4.159
 8168SOL     OW25402   1.679   0.696   2.562
 8168SOL    HW125403   1.757   0.668   2.506
 8168SOL    HW225404   1.610   0.740   2.504
 8169SOL     OW25405   5.204   2.949   0.456
 8169SOL    HW125406   5.281   2.960   0.393
 8169SOL    HW225407   5.225   2.878   0.523
 8170SOL     OW25408   6.742   4.854   2.200
 8170SOL    HW125409   6.778   4.941   2.235
 8170SOL    HW225410   6.758   4.783   2.268
 8171SOL     OW25411   2.439   1.159   0.518
 8171SOL    HW125412   2.517   1.132   0.573
 8171SOL    HW225413   2.409   1.251   0.545
 8172SOL     OW25414   0.991   2.487   0.463
 8172SOL    HW125415   1.024   2.457   0.373
 8172SOL    HW225416   1.043   2.567   0.492
 8173SOL     OW25417   5.830   1.081   1.476
 8173SOL    HW125418   5.812   1.174   1.509
 8173SOL    HW225419   5.746   1.042   1.438
 8174SOL     OW25420   2.894   5.801   3.235
 8174SOL    HW125421   2.917   5.717   3.187
 8174SOL    HW225422   2.879   5.875   3.169
 8175SOL     OW25423   0.309   1.509   5.641
 8175SOL    HW125424   0.359   1.589   5.674
 8175SOL    HW225425   0.338   1.428   5.691
 8176SOL     OW25426   2.352   4.473   0.302
 8176SOL    HW125427   2.418   4.400   0.318
 8176SOL    HW225428   2.264   4.447   0.343
 8177SOL     OW25429   3.186   0.948   3.794
 8177SOL    HW125430   3.093   0.912   3.797
 8177SOL    HW225431   3.214   0.958   3.699
 8178SOL     OW25432   3.055   6.703   1.847
 8178SOL    HW125433   3.147   6.735   1.825
 8178SOL    HW225434   3.061   6.629   1.915
 8179SOL     OW25435   5.548   0.906   3.232
 8179SOL    HW125436   5.481   0.841   3.268
 8179SOL    HW225437   5.628   0.907   3.292
 8180SOL     OW25438   5.018   6.064   0.032
 8180SOL    HW125439   5.083   5.989   0.018
 8180SOL    HW225440   4.982   6.061   0.125
 8181SOL     OW25441   0.198   0.214   6.976
 8181SOL    HW125442   0.180   0.307   6.945
 8181SOL    HW225443   0.142   0.195   0.039
 8182SOL     OW25444   2.991   3.639   4.499
 8182SOL    HW125445   3.038   3.564   4.546
 8182SOL    HW225446   2.936   3.603   4.425
 8183SOL     OW25447   0.008   0.365   5.407
 8183SOL    HW125448   0.004   0.464   5.397
 8183SOL    HW225449   0.022   0.323   5.318
 8184SOL     OW25450   0.745   5.839   6.875
 8184SOL    HW125451   0.770   5.935   6.866
 8184SOL    HW225452   0.669   5.818   6.813
 8185SOL     OW25453   0.802   6.298   6.124
 8185SOL    HW125454   0.892   6.341   6.115
 8185SOL    HW225455   0.788   6.234   6.049
 8186SOL     OW25456   1.736   5.481   6.323
 8186SOL    HW125457   1.762   5.424   6.246
 8186SOL    HW225458   1.749   5.577   6.300
 8187SOL     OW25459   0.719   0.876   5.759
 8187SOL    HW125460   0.727   0.967   5.720
 8187SOL    HW225461   0.803   0.853   5.809
 8188SOL     OW25462   1.927   2.964   2.971
 8188SOL    HW125463   1.895   2.996   3.060
 8188SOL    HW225464   2.023   2.990   2.959
 8189SOL     OW25465   5.351   5.295   3.514
 8189SOL    HW125466   5.440   5.262   3.484
 8189SOL    HW225467   5.288   5.218   3.524
 8190SOL     OW25468   0.123   4.226   2.598
 8190SOL    HW125469   0.175   4.221   2.684
 8190SOL    HW225470   0.131   4.139   2.549
 8191SOL     OW25471   4.016   5.586   0.769
 8191SOL    HW125472   4.081   5.546   0.704
 8191SOL    HW225473   3.955   5.515   0.803
 8192SOL     OW25474   0.400   6.115   3.721
 8192SOL    HW125475   0.468   6.130   3.793
 8192SOL    HW225476   0.310   6.102   3.762
 8193SOL     OW25477   0.667   4.911   4.555
 8193SOL    HW125478   0.729   4.910   4.477
 8193SOL    HW225479   0.573   4.924   4.524
 8194SOL     OW25480   4.619   6.705   2.102
 8194SOL    HW125481   4.604   6.701   2.003
 8194SOL    HW225482   4.537   6.738   2.147
 8195SOL     OW25483   6.274   6.451   3.031
 8195SOL    HW125484   6.260   6.543   2.995
 8195SOL    HW225485   6.220   6.440   3.115
 8196SOL     OW25486   4.957   1.055   1.201
 8196SOL    HW125487   4.903   0.983   1.156
 8196SOL    HW225488   4.924   1.145   1.173
 8197SOL     OW25489   3.843   1.493   2.565
 8197SOL    HW125490   3.920   1.549   2.594
 8197SOL    HW225491   3.768   1.504   2.630
 8198SOL     OW25492   1.587   6.759   1.848
 8198SOL    HW125493   1.586   6.711   1.935
 8198SOL    HW225494   1.592   6.857   1.864
 8199SOL     OW25495   5.559   2.941   0.082
 8199SOL    HW125496   5.610   2.975   0.003
 8199SOL    HW225497   5.525   2.849   0.062
 8200SOL     OW25498   4.579   3.390   0.599
 8200SOL    HW125499   4.580   3.327   0.676
 8200SOL    HW225500   4.628   3.473   0.623
 8201SOL     OW25501   5.678   0.100   4.986
 8201SOL    HW125502   5.634   0.011   4.991
 8201SOL    HW225503   5.706   0.119   4.892
 8202SOL     OW25504   0.932   6.740   2.195
 8202SOL    HW125505   1.027   6.712   2.178
 8202SOL    HW225506   0.871   6.664   2.174
 8203SOL     OW25507   1.488   3.119   1.721
 8203SOL    HW125508   1.537   3.151   1.802
 8203SOL    HW225509   1.554   3.093   1.650
 8204SOL     OW25510   3.129   2.775   1.482
 8204SOL    HW125511   3.198   2.846   1.472
 8204SOL    HW225512   3.168   2.687   1.457
 8205SOL     OW25513   0.999   3.392   0.288
 8205SOL    HW125514   1.046   3.453   0.352
 8205SOL    HW225515   1.065   3.330   0.246
 8206SOL     OW25516   3.384   0.450   0.582
 8206SOL    HW125517   3.391   0.442   0.682
 8206SOL    HW225518   3.412   0.542   0.554
 8207SOL     OW25519   4.165   3.565   4.884
 8207SOL    HW125520   4.091   3.593   4.823
 8207SOL    HW225521   4.211   3.485   4.845
 8208SOL     OW25522   2.405   0.932   0.378
 8208SOL    HW125523   2.411   1.022   0.421
 8208SOL    HW225524   2.435   0.861   0.442
 8209SOL     OW25525   6.129   1.752   4.810
 8209SOL    HW125526   6.041   1.739   4.766
 8209SOL    HW225527   6.186   1.811   4.753
 8210SOL     OW25528   2.047   2.246   6.646
 8210SOL    HW125529   1.986   2.303   6.591
 8210SOL    HW225530   2.141   2.276   6.633
 8211SOL     OW25531   3.365   4.595   1.411
 8211SOL    HW125532   3.315   4.549   1.485
 8211SOL    HW225533   3.453   4.549   1.396
 8212SOL     OW25534   1.714   2.919   3.809
 8212SOL    HW125535   1.663   2.966   3.737
 8212SOL    HW225536   1.652   2.861   3.861
 8213SOL     OW25537   6.775   5.267   1.252
 8213SOL    HW125538   6.802   5.220   1.167
 8213SOL    HW225539   6.778   5.202   1.328
 8214SOL     OW25540   5.749   4.039   3.770
 8214SOL    HW125541   5.739   4.094   3.853
 8214SOL    HW225542   5.844   4.010   3.759
 8215SOL     OW25543   3.711   5.464   3.621
 8215SOL    HW125544   3.666   5.427   3.540
 8215SOL    HW225545   3.658   5.439   3.702
 8216SOL     OW25546   5.659   3.562   3.867
 8216SOL    HW125547   5.730   3.588   3.933
 8216SOL    HW225548   5.581   3.624   3.876
 8217SOL     OW25549   2.246   6.439   0.011
 8217SOL    HW125550   2.197   6.352   0.020
 8217SOL    HW225551   2.344   6.423   0.011
 8218SOL     OW25552   6.686   2.264   6.812
 8218SOL    HW125553   6.637   2.278   6.727
 8218SOL    HW225554   6.776   2.307   6.807
 8219SOL     OW25555   6.120   2.004   6.890
 8219SOL    HW125556   6.065   1.983   6.971
 8219SOL    HW225557   6.085   1.954   6.811
 8220SOL     OW25558   3.941   3.460   2.427
 8220SOL    HW125559   3.951   3.374   2.478
 8220SOL    HW225560   3.991   3.532   2.474
 8221SOL     OW25561   5.252   6.198   3.550
 8221SOL    HW125562   5.246   6.259   3.471
 8221SOL    HW225563   5.243   6.103   3.520
 8222SOL     OW25564   5.780   1.872   1.341
 8222SOL    HW125565   5.835   1.827   1.271
 8222SOL    HW225566   5.840   1.908   1.412
 8223SOL     OW25567   0.420   5.056   5.819
 8223SOL    HW125568   0.427   5.004   5.904
 8223SOL    HW225569   0.326   5.088   5.806
 8224SOL     OW25570   1.178   3.048   4.097
 8224SOL    HW125571   1.199   2.998   4.181
 8224SOL    HW225572   1.254   3.110   4.076
 8225SOL     OW25573   4.964   1.425   0.444
 8225SOL    HW125574   5.009   1.482   0.376
 8225SOL    HW225575   5.027   1.406   0.519
 8226SOL     OW25576   5.042   0.769   1.010
 8226SOL    HW125577   5.096   0.742   0.930
 8226SOL    HW225578   4.970   0.833   0.981
 8227SOL     OW25579   6.523   3.395   3.520
 8227SOL    HW125580   6.589   3.468   3.537
 8227SOL    HW225581   6.472   3.414   3.437
 8228SOL     OW25582   6.597   2.619   5.452
 8228SOL    HW125583   6.506   2.660   5.445
 8228SOL    HW225584   6.589   2.519   5.444
 8229SOL     OW25585   3.491   5.117   0.280
 8229SOL    HW125586   3.444   5.142   0.195
 8229SOL    HW225587   3.440   5.044   0.326
 8230SOL     OW25588   5.129   0.127   3.976
 8230SOL    HW125589   5.096   0.193   4.043
 8230SOL    HW225590   5.133   0.171   3.886
 8231SOL     OW25591   4.811   6.140   0.873
 8231SOL    HW125592   4.762   6.184   0.949
 8231SOL    HW225593   4.745   6.093   0.814
 8232SOL     OW25594   2.887   2.649   6.041
 8232SOL    HW125595   2.859   2.667   6.135
 8232SOL    HW225596   2.956   2.576   6.040
 8233SOL     OW25597   0.260   5.140   0.160
 8233SOL    HW125598   0.285   5.162   0.254
 8233SOL    HW225599   0.188   5.071   0.160
 8234SOL     OW25600   3.630   2.147   6.738
 8234SOL    HW125601   3.542   2.105   6.760
 8234SOL    HW225602   3.699   2.114   6.802
 8235SOL     OW25603   4.644   3.127   1.105
 8235SOL    HW125604   4.716   3.063   1.079
 8235SOL    HW225605   4.564   3.076   1.137
 8236SOL     OW25606   6.270   3.411   0.656
 8236SOL    HW125607   6.269   3.464   0.571
 8236SOL    HW225608   6.254   3.315   0.636
 8237SOL     OW25609   4.435   6.044   5.565
 8237SOL    HW125610   4.368   6.117   5.580
 8237SOL    HW225611   4.453   6.036   5.467
 8238SOL     OW25612   1.979   1.895   6.571
 8238SOL    HW125613   2.003   1.801   6.593
 8238SOL    HW225614   1.893   1.897   6.520
 8239SOL     OW25615   0.274   2.161   6.143
 8239SOL    HW125616   0.219   2.201   6.216
 8239SOL    HW225617   0.242   2.068   6.124
 8240SOL     OW25618   4.052   3.779   3.806
 8240SOL    HW125619   4.126   3.784   3.739
 8240SOL    HW225620   4.085   3.738   3.890
 8241SOL     OW25621   3.804   6.688   0.392
 8241SOL    HW125622   3.895   6.719   0.417
 8241SOL    HW225623   3.794   6.591   0.413
 8242SOL     OW25624   0.903   4.194   5.634
 8242SOL    HW125625   0.891   4.124   5.703
 8242SOL    HW225626   0.844   4.272   5.655
 8243SOL     OW25627   0.547   3.706   5.019
 8243SOL    HW125628   0.538   3.747   4.928
 8243SOL    HW225629   0.456   3.699   5.060
 8244SOL     OW25630   0.297   6.799   4.195
 8244SOL    HW125631   0.312   6.718   4.137
 8244SOL    HW225632   0.246   6.772   4.277
 8245SOL     OW25633   3.595   2.856   0.729
 8245SOL    HW125634   3.529   2.781   0.730
 8245SOL    HW225635   3.548   2.943   0.734
 8246SOL     OW25636   5.206   3.567   5.871
 8246SOL    HW125637   5.215   3.554   5.772
 8246SOL    HW225638   5.121   3.525   5.903
 8247SOL     OW25639   0.946   0.233   1.334
 8247SOL    HW125640   0.932   0.149   1.281
 8247SOL    HW225641   0.993   0.300   1.277
 8248SOL     OW25642   6.238   4.209   3.480
 8248SOL    HW125643   6.308   4.154   3.435
 8248SOL    HW225644   6.256   4.306   3.464
 8249SOL     OW25645   2.113   5.004   3.901
 8249SOL    HW125646   2.087   4.913   3.931
 8249SOL    HW225647   2.053   5.033   3.826
 8250SOL     OW25648   4.076   3.685   2.535
 8250SOL    HW125649   4.029   3.716   2.617
 8250SOL    HW225650   4.172   3.665   2.556
 8251SOL     OW25651   5.682   1.925   4.444
 8251SOL    HW125652   5.734   1.982   4.381
 8251SOL    HW225653   5.615   1.871   4.392
 8252SOL     OW25654   1.625   3.032   5.074
 8252SOL    HW125655   1.724   3.021   5.085
 8252SOL    HW225656   1.599   3.124   5.102
 8253SOL     OW25657   3.149   3.261   5.342
 8253SOL    HW125658   3.084   3.332   5.315
 8253SOL    HW225659   3.227   3.303   5.389
 8254SOL     OW25660   3.884   5.672   3.619
 8254SOL    HW125661   3.820   5.596   3.612
 8254SOL    HW225662   3.889   5.702   3.714
 8255SOL     OW25663   4.689   5.195   3.692
 8255SOL    HW125664   4.622   5.267   3.709
 8255SOL    HW225665   4.745   5.220   3.613
 8256SOL     OW25666   6.814   1.421   4.291
 8256SOL    HW125667   6.888   1.361   4.262
 8256SOL    HW225668   6.825   1.511   4.249
 8257SOL     OW25669   6.593   4.310   3.780
 8257SOL    HW125670   6.562   4.389   3.727
 8257SOL    HW225671   6.520   4.282   3.843
 8258SOL     OW25672   4.252   1.530   0.074
 8258SOL    HW125673   4.203   1.443   0.075
 8258SOL    HW225674   4.338   1.521   0.123
 8259SOL     OW25675   3.863   1.890   1.988
 8259SOL    HW125676   3.888   1.874   1.892
 8259SOL    HW225677   3.883   1.985   2.012
 8260SOL     OW25678   2.276   5.940   0.405
 8260SOL    HW125679   2.263   6.040   0.406
 8260SOL    HW225680   2.247   5.902   0.492
 8261SOL     OW25681   5.426   1.423   1.936
 8261SOL    HW125682   5.421   1.517   1.903
 8261SOL    HW225683   5.521   1.402   1.960
 8262SOL     OW25684   0.931   2.215   1.307
 8262SOL    HW125685   0.979   2.163   1.378
 8262SOL    HW225686   0.851   2.261   1.347
 8263SOL     OW25687   6.605   1.592   0.964
 8263SOL    HW125688   6.574   1.686   0.952
 8263SOL    HW225689   6.704   1.587   0.954
 8264SOL     OW25690   1.899   5.076   3.227
 8264SOL    HW125691   1.985   5.029   3.206
 8264SOL    HW225692   1.822   5.021   3.193
 8265SOL     OW25693   1.698   0.530   1.919
 8265SOL    HW125694   1.698   0.549   1.821
 8265SOL    HW225695   1.616   0.477   1.942
 8266SOL     OW25696   3.086   7.016   2.932
 8266SOL    HW125697   3.023   0.000   3.010
 8266SOL    HW225698   3.035   0.014   2.848
 8267SOL     OW25699   0.743   3.345   1.225
 8267SOL    HW125700   0.814   3.416   1.225
 8267SOL    HW225701   0.717   3.324   1.319
 8268SOL     OW25702   2.735   6.895   5.384
 8268SOL    HW125703   2.785   6.982   5.388
 8268SOL    HW225704   2.799   6.819   5.395
 8269SOL     OW25705   5.447   1.779   1.154
 8269SOL    HW125706   5.466   1.692   1.109
 8269SOL    HW225707   5.353   1.779   1.188
 8270SOL     OW25708   3.785   6.332   3.476
 8270SOL    HW125709   3.813   6.250   3.427
 8270SOL    HW225710   3.703   6.313   3.530
 8271SOL     OW25711   6.815   1.749   2.537
 8271SOL    HW125712   6.793   1.846   2.548
 8271SOL    HW225713   6.887   1.723   2.602
 8272SOL     OW25714   3.454   1.278   3.151
 8272SOL    HW125715   3.487   1.284   3.245
 8272SOL    HW225716   3.398   1.196   3.141
 8273SOL     OW25717   2.354   6.316   0.772
 8273SOL    HW125718   2.357   6.389   0.839
 8273SOL    HW225719   2.405   6.343   0.690
 8274SOL     OW25720   5.261   5.156   2.990
 8274SOL    HW125721   5.227   5.147   2.896
 8274SOL    HW225722   5.348   5.107   2.998
 8275SOL     OW25723   4.937   2.077   5.681
 8275SOL    HW125724   4.912   1.990   5.639
 8275SOL    HW225725   5.025   2.108   5.645
 8276SOL     OW25726   0.714   1.737   3.504
 8276SOL    HW125727   0.682   1.644   3.523
 8276SOL    HW225728   0.762   1.739   3.416
 8277SOL     OW25729   6.620   0.144   6.572
 8277SOL    HW125730   6.649   0.056   6.610
 8277SOL    HW225731   6.520   0.146   6.565
 8278SOL     OW25732   2.287   2.389   0.573
 8278SOL    HW125733   2.212   2.336   0.533
 8278SOL    HW225734   2.327   2.448   0.503
 8279SOL     OW25735   6.926   6.257   3.988
 8279SOL    HW125736   6.964   6.167   4.008
 8279SOL    HW225737   6.829   6.249   3.967
 8280SOL     OW25738   3.190   2.715   5.775
 8280SOL    HW125739   3.204   2.637   5.837
 8280SOL    HW225740   3.092   2.727   5.759
 8281SOL     OW25741   7.016   5.954   1.812
 8281SOL    HW125742   0.098   5.946   1.819
 8281SOL    HW225743   6.974   5.865   1.828
 8282SOL     OW25744   5.159   2.171   5.368
 8282SOL    HW125745   5.234   2.236   5.355
 8282SOL    HW225746   5.196   2.079   5.373
 8283SOL     OW25747   1.740   4.341   5.733
 8283SOL    HW125748   1.697   4.254   5.710
 8283SOL    HW225749   1.815   4.359   5.669
 8284SOL     OW25750   7.014   4.585   2.147
 8284SOL    HW125751   6.981   4.516   2.211
 8284SOL    HW225752   0.058   4.647   2.194
 8285SOL     OW25753   3.489   3.395   5.281
 8285SOL    HW125754   3.475   3.297   5.268
 8285SOL    HW225755   3.437   3.426   5.361
 8286SOL     OW25756   6.393   2.071   5.902
 8286SOL    HW125757   6.306   2.052   5.948
 8286SOL    HW225758   6.393   2.164   5.866
 8287SOL     OW25759   2.066   5.451   4.741
 8287SOL    HW125760   2.133   5.419   4.809
 8287SOL    HW225761   1.977   5.408   4.760
 8288SOL     OW25762   2.509   2.538   3.416
 8288SOL    HW125763   2.438   2.553   3.347
 8288SOL    HW225764   2.486   2.589   3.499
 8289SOL     OW25765   0.670   6.226   0.023
 8289SOL    HW125766   0.706   6.219   6.948
 8289SOL    HW225767   0.729   6.174   0.085
 8290SOL     OW25768   6.774   2.561   0.671
 8290SOL    HW125769   6.810   2.516   0.753
 8290SOL    HW225770   6.704   2.504   0.630
 8291SOL     OW25771   4.527   0.316   6.936
 8291SOL    HW125772   4.457   0.247   6.924
 8291SOL    HW225773   4.493   0.388   6.997
 8292SOL     OW25774   3.137   6.547   6.863
 8292SOL    HW125775   3.224   6.497   6.859
 8292SOL    HW225776   3.072   6.497   6.920
 8293SOL     OW25777   5.411   5.813   6.070
 8293SOL    HW125778   5.314   5.828   6.090
 8293SOL    HW225779   5.434   5.717   6.088
 8294SOL     OW25780   5.515   2.425   0.087
 8294SOL    HW125781   5.601   2.383   0.115
 8294SOL    HW225782   5.480   2.379   0.006
 8295SOL     OW25783   4.741   4.149   0.932
 8295SOL    HW125784   4.834   4.151   0.895
 8295SOL    HW225785   4.688   4.078   0.886
 8296SOL     OW25786   1.868   5.397   6.780
 8296SOL    HW125787   1.938   5.326   6.772
 8296SOL    HW225788   1.906   5.476   6.828
 8297SOL     OW25789   0.236   2.682   2.933
 8297SOL    HW125790   0.296   2.746   2.886
 8297SOL    HW225791   0.193   2.621   2.867
 8298SOL     OW25792   4.881   0.542   1.599
 8298SOL    HW125793   4.891   0.629   1.551
 8298SOL    HW225794   4.871   0.468   1.532
 8299SOL     OW25795   6.076   2.259   1.654
 8299SOL    HW125796   6.015   2.258   1.733
 8299SOL    HW225797   6.021   2.259   1.570
 8300SOL     OW25798   0.399   4.941   3.741
 8300SOL    HW125799   0.416   4.845   3.718
 8300SOL    HW225800   0.458   4.967   3.818
 8301SOL     OW25801   3.534   2.843   0.005
 8301SOL    HW125802   3.489   2.911   6.965
 8301SOL    HW225803   3.493   2.753   7.006
 8302SOL     OW25804   5.973   6.477   6.411
 8302SOL    HW125805   5.907   6.444   6.343
 8302SOL    HW225806   5.971   6.577   6.414
 8303SOL     OW25807   0.308   6.986   4.934
 8303SOL    HW125808   0.255   6.903   4.950
 8303SOL    HW225809   0.405   6.968   4.952
 8304SOL     OW25810   0.868   3.567   6.861
 8304SOL    HW125811   0.904   3.636   6.798
 8304SOL    HW225812   0.793   3.517   6.817
 8305SOL     OW25813   3.568   5.382   3.228
 8305SOL    HW125814   3.605   5.355   3.317
 8305SOL    HW225815   3.611   5.467   3.199
 8306SOL     OW25816   0.946   3.141   4.245
 8306SOL    HW125817   0.999   3.103   4.169
 8306SOL    HW225818   1.000   3.211   4.292
 8307SOL     OW25819   4.354   5.781   1.047
 8307SOL    HW125820   4.432   5.834   1.079
 8307SOL    HW225821   4.357   5.689   1.086
 8308SOL     OW25822   3.656   6.523   2.263
 8308SOL    HW125823   3.752   6.504   2.243
 8308SOL    HW225824   3.650   6.575   2.349
 8309SOL     OW25825   5.733   5.788   1.515
 8309SOL    HW125826   5.698   5.795   1.609
 8309SOL    HW225827   5.829   5.762   1.518
 8310SOL     OW25828   0.027   4.716   0.516
 8310SOL    HW125829   6.993   4.644   0.562
 8310SOL    HW225830   0.070   4.775   0.584
 8311SOL     OW25831   6.588   0.844   6.910
 8311SOL    HW125832   6.565   0.915   6.977
 8311SOL    HW225833   6.651   0.882   6.842
 8312SOL     OW25834   5.532   6.664   1.609
 8312SOL    HW125835   5.493   6.602   1.541
 8312SOL    HW225836   5.593   6.729   1.563
 8313SOL     OW25837   3.474   1.399   2.305
 8313SOL    HW125838   3.468   1.361   2.397
 8313SOL    HW225839   3.553   1.361   2.258
 8314SOL     OW25840   6.628   0.432   2.587
 8314SOL    HW125841   6.574   0.414   2.669
 8314SOL    HW225842   6.597   0.517   2.544
 8315SOL     OW25843   4.955   3.884   0.008
 8315SOL    HW125844   4.904   3.932   0.079
 8315SOL    HW225845   4.985   3.949   6.957
 8316SOL     OW25846   1.579   3.661   6.957
 8316SOL    HW125847   1.494   3.629   7.000
 8316SOL    HW225848   1.564   3.674   6.859
 8317SOL     OW25849   2.296   4.488   1.664
 8317SOL    HW125850   2.281   4.586   1.657
 8317SOL    HW225851   2.392   4.467   1.644
 8318SOL     OW25852   3.873   1.540   5.025
 8318SOL    HW125853   3.960   1.570   5.064
 8318SOL    HW225854   3.844   1.455   5.068
 8319SOL     OW25855   3.621   1.401   5.387
 8319SOL    HW125856   3.552   1.348   5.338
 8319SOL    HW225857   3.587   1.493   5.406
 8320SOL     OW25858   3.113   4.402   1.370
 8320SOL    HW125859   3.032   4.352   1.339
 8320SOL    HW225860   3.163   4.436   1.291
 8321SOL     OW25861   0.737   0.379   1.445
 8321SOL    HW125862   0.733   0.379   1.545
 8321SOL    HW225863   0.816   0.325   1.415
 8322SOL     OW25864   6.600   6.758   7.002
 8322SOL    HW125865   6.690   6.796   0.005
 8322SOL    HW225866   6.609   6.660   6.983
 8323SOL     OW25867   1.112   1.755   2.184
 8323SOL    HW125868   1.013   1.749   2.195
 8323SOL    HW225869   1.133   1.790   2.092
 8324SOL     OW25870   6.288   0.859   2.236
 8324SOL    HW125871   6.351   0.782   2.243
 8324SOL    HW225872   6.244   0.859   2.146
 8325SOL     OW25873   3.459   2.956   4.038
 8325SOL    HW125874   3.535   2.926   3.981
 8325SOL    HW225875   3.386   2.993   3.981
 8326SOL     OW25876   3.985   3.038   5.876
 8326SOL    HW125877   3.889   3.012   5.871
 8326SOL    HW225878   4.036   2.992   5.803
 8327SOL     OW25879   5.246   2.240   5.935
 8327SOL    HW125880   5.311   2.316   5.934
 8327SOL    HW225881   5.213   2.223   5.842
 8328SOL     OW25882   2.072   2.104   5.959
 8328SOL    HW125883   2.037   2.029   6.016
 8328SOL    HW225884   2.010   2.182   5.965
 8329SOL     OW25885   0.143   3.021   5.501
 8329SOL    HW125886   0.234   3.059   5.517
 8329SOL    HW225887   0.077   3.066   5.560
 8330SOL     OW25888   2.140   6.646   0.622
 8330SOL    HW125889   2.171   6.717   0.684
 8330SOL    HW225890   2.050   6.670   0.586
 8331SOL     OW25891   2.620   6.696   0.903
 8331SOL    HW125892   2.676   6.737   0.974
 8331SOL    HW225893   2.679   6.660   0.830
 8332SOL     OW25894   4.979   4.919   2.401
 8332SOL    HW125895   5.075   4.924   2.376
 8332SOL    HW225896   4.923   4.924   2.318
 8333SOL     OW25897   0.688   5.790   0.143
 8333SOL    HW125898   0.706   5.808   0.046
 8333SOL    HW225899   0.590   5.803   0.161
 8334SOL     OW25900   5.863   2.088   3.571
 8334SOL    HW125901   5.911   2.045   3.648
 8334SOL    HW225902   5.858   2.187   3.586
 8335SOL     OW25903   6.218   6.704   5.943
 8335SOL    HW125904   6.206   6.783   5.883
 8335SOL    HW225905   6.140   6.642   5.931
 8336SOL     OW25906   0.574   1.871   1.784
 8336SOL    HW125907   0.521   1.787   1.771
 8336SOL    HW225908   0.630   1.888   1.703
 8337SOL     OW25909   0.528   6.306   2.803
 8337SOL    HW125910   0.532   6.405   2.790
 8337SOL    HW225911   0.554   6.283   2.897
 8338SOL     OW25912   1.600   4.638   1.729
 8338SOL    HW125913   1.699   4.637   1.743
 8338SOL    HW225914   1.578   4.590   1.644
 8339SOL     OW25915   5.267   1.538   2.743
 8339SOL    HW125916   5.347   1.574   2.791
 8339SOL    HW225917   5.249   1.596   2.663
 8340SOL     OW25918   5.007   3.951   0.876
 8340SOL    HW125919   5.098   3.921   0.850
 8340SOL    HW225920   4.988   4.040   0.835
 8341SOL     OW25921   2.630   6.214   1.192
 8341SOL    HW125922   2.667   6.257   1.274
 8341SOL    HW225923   2.533   6.195   1.204
 8342SOL     OW25924   4.109   0.700   0.973
 8342SOL    HW125925   4.077   0.673   0.882
 8342SOL    HW225926   4.185   0.640   1.001
 8343SOL     OW25927   1.443   5.368   6.008
 8343SOL    HW125928   1.445   5.268   6.010
 8343SOL    HW225929   1.510   5.401   5.941
 8344SOL     OW25930   4.455   6.049   5.823
 8344SOL    HW125931   4.447   6.023   5.726
 8344SOL    HW225932   4.498   5.974   5.873
 8345SOL     OW25933   6.188   1.278   2.768
 8345SOL    HW125934   6.235   1.225   2.839
 8345SOL    HW225935   6.129   1.217   2.715
 8346SOL     OW25936   3.028   5.364   1.144
 8346SOL    HW125937   3.014   5.401   1.236
 8346SOL    HW225938   3.095   5.420   1.095
 8347SOL     OW25939   3.570   6.606   5.453
 8347SOL    HW125940   3.594   6.635   5.545
 8347SOL    HW225941   3.481   6.642   5.428
 8348SOL     OW25942   1.020   0.623   0.297
 8348SOL    HW125943   0.921   0.630   0.283
 8348SOL    HW225944   1.058   0.715   0.309
 8349SOL     OW25945   5.468   4.393   1.675
 8349SOL    HW125946   5.456   4.339   1.591
 8349SOL    HW225947   5.470   4.332   1.754
 8350SOL     OW25948   6.542   1.104   4.997
 8350SOL    HW125949   6.487   1.098   5.081
 8350SOL    HW225950   6.604   1.183   5.004
 8351SOL     OW25951   3.551   6.260   3.626
 8351SOL    HW125952   3.488   6.305   3.690
 8351SOL    HW225953   3.513   6.172   3.598
 8352SOL     OW25954   6.830   6.480   2.180
 8352SOL    HW125955   6.851   6.578   2.185
 8352SOL    HW225956   6.738   6.464   2.215
 8353SOL     OW25957   0.253   3.152   2.385
 8353SOL    HW125958   0.316   3.203   2.443
 8353SOL    HW225959   0.283   3.057   2.378
 8354SOL     OW25960   2.402   1.230   6.911
 8354SOL    HW125961   2.455   1.159   6.864
 8354SOL    HW225962   2.454   1.264   6.989
 8355SOL     OW25963   3.392   0.460   0.225
 8355SOL    HW125964   3.413   0.462   0.127
 8355SOL    HW225965   3.423   0.373   0.263
 8356SOL     OW25966   2.285   5.947   0.020
 8356SOL    HW125967   2.366   5.937   0.078
 8356SOL    HW225968   2.243   6.036   0.037
 8357SOL     OW25969   4.862   6.044   5.052
 8357SOL    HW125970   4.913   6.096   4.984
 8357SOL    HW225971   4.809   6.107   5.109
 8358SOL     OW25972   1.690   2.928   5.470
 8358SOL    HW125973   1.671   2.858   5.401
 8358SOL    HW225974   1.760   2.895   5.533
 8359SOL     OW25975   4.589   5.403   4.366
 8359SOL    HW125976   4.676   5.354   4.362
 8359SOL    HW225977   4.595   5.486   4.310
 8360SOL     OW25978   5.434   0.230   2.970
 8360SOL    HW125979   5.463   0.296   2.900
 8360SOL    HW225980   5.436   0.275   3.059
 8361SOL     OW25981   2.033   0.230   2.543
 8361SOL    HW125982   2.021   0.180   2.457
 8361SOL    HW225983   2.053   0.326   2.523
 8362SOL     OW25984   2.924   2.061   0.496
 8362SOL    HW125985   2.839   2.058   0.548
 8362SOL    HW225986   3.001   2.075   0.559
 8363SOL     OW25987   6.919   3.212   0.349
 8363SOL    HW125988   6.825   3.244   0.343
 8363SOL    HW225989   6.961   3.248   0.432
 8364SOL     OW25990   6.720   3.883   3.470
 8364SOL    HW125991   6.636   3.830   3.459
 8364SOL    HW225992   6.701   3.962   3.529
 8365SOL     OW25993   1.973   3.311   6.272
 8365SOL    HW125994   2.051   3.264   6.314
 8365SOL    HW225995   2.006   3.376   6.203
 8366SOL     OW25996   3.222   6.593   2.954
 8366SOL    HW125997   3.242   6.496   2.971
 8366SOL    HW225998   3.242   6.615   2.859
 8367SOL     OW25999   5.731   6.532   3.907
 8367SOL    HW126000   5.706   6.457   3.845
 8367SOL    HW226001   5.651   6.558   3.961
 8368SOL     OW26002   2.895   5.165   6.034
 8368SOL    HW126003   2.916   5.101   6.108
 8368SOL    HW226004   2.979   5.202   5.997
 8369SOL     OW26005   1.845   1.612   0.585
 8369SOL    HW126006   1.907   1.637   0.511
 8369SOL    HW226007   1.832   1.691   0.645
 8370SOL     OW26008   1.171   1.689   6.233
 8370SOL    HW126009   1.222   1.698   6.148
 8370SOL    HW226010   1.098   1.622   6.221
 8371SOL     OW26011   1.406   2.966   0.846
 8371SOL    HW126012   1.366   2.923   0.927
 8371SOL    HW226013   1.360   3.053   0.828
 8372SOL     OW26014   0.033   0.828   3.108
 8372SOL    HW126015   6.982   0.832   3.036
 8372SOL    HW226016   0.058   0.920   3.136
 8373SOL     OW26017   1.858   5.875   5.345
 8373SOL    HW126018   1.919   5.920   5.280
 8373SOL    HW226019   1.785   5.829   5.296
 8374SOL     OW26020   6.797   0.092   6.975
 8374SOL    HW126021   6.830   0.104   6.882
 8374SOL    HW226022   6.701   0.118   6.981
 8375SOL     OW26023   3.563   6.844   6.035
 8375SOL    HW126024   3.643   6.785   6.041
 8375SOL    HW226025   3.575   6.923   6.094
 8376SOL     OW26026   3.271   0.709   4.464
 8376SOL    HW126027   3.175   0.738   4.461
 8376SOL    HW226028   3.276   0.613   4.491
 8377SOL     OW26029   5.856   4.531   1.467
 8377SOL    HW126030   5.922   4.561   1.536
 8377SOL    HW226031   5.856   4.431   1.462
 8378SOL     OW26032   4.823   3.011   2.851
 8378SOL    HW126033   4.836   3.022   2.950
 8378SOL    HW226034   4.885   2.941   2.817
 8379SOL     OW26035   6.245   2.724   2.538
 8379SOL    HW126036   6.267   2.821   2.534
 8379SOL    HW226037   6.147   2.713   2.558
 8380SOL     OW26038   4.507   1.909   3.012
 8380SOL    HW126039   4.455   1.848   3.072
 8380SOL    HW226040   4.466   1.909   2.921
 8381SOL     OW26041   1.748   5.487   4.832
 8381SOL    HW126042   1.771   5.574   4.876
 8381SOL    HW226043   1.755   5.414   4.899
 8382SOL     OW26044   1.181   3.086   2.280
 8382SOL    HW126045   1.249   3.152   2.313
 8382SOL    HW226046   1.214   2.993   2.296
 8383SOL     OW26047   2.818   2.306   6.511
 8383SOL    HW126048   2.742   2.282   6.452
 8383SOL    HW226049   2.902   2.263   6.478
 8384SOL     OW26050   0.386   6.865   1.777
 8384SOL    HW126051   0.476   6.862   1.735
 8384SOL    HW226052   0.316   6.846   1.708
 8385SOL     OW26053   4.747   2.386   2.037
 8385SOL    HW126054   4.839   2.393   2.076
 8385SOL    HW226055   4.747   2.318   1.965
 8386SOL     OW26056   1.082   3.940   2.732
 8386SOL    HW126057   0.999   3.973   2.776
 8386SOL    HW226058   1.162   3.967   2.786
 8387SOL     OW26059   0.518   2.492   1.308
 8387SOL    HW126060   0.575   2.450   1.237
 8387SOL    HW226061   0.474   2.574   1.271
 8388SOL     OW26062   1.900   0.710   2.035
 8388SOL    HW126063   1.838   0.768   2.089
 8388SOL    HW226064   1.846   0.651   1.976
 8389SOL     OW26065   5.453   2.621   2.079
 8389SOL    HW126066   5.422   2.716   2.069
 8389SOL    HW226067   5.453   2.576   1.989
 8390SOL     OW26068   5.376   1.736   5.506
 8390SOL    HW126069   5.321   1.653   5.517
 8390SOL    HW226070   5.473   1.711   5.505
 8391SOL     OW26071   6.087   0.406   0.935
 8391SOL    HW126072   6.179   0.402   0.974
 8391SOL    HW226073   6.068   0.321   0.887
 8392SOL     OW26074   5.425   3.046   4.730
 8392SOL    HW126075   5.429   3.024   4.827
 8392SOL    HW226076   5.331   3.035   4.697
 8393SOL     OW26077   5.221   6.996   1.252
 8393SOL    HW126078   5.232   7.016   1.154
 8393SOL    HW226079   5.124   6.992   1.274
 8394SOL     OW26080   6.128   3.547   1.623
 8394SOL    HW126081   6.196   3.510   1.561
 8394SOL    HW226082   6.128   3.647   1.617
 8395SOL     OW26083   1.800   1.004   4.567
 8395SOL    HW126084   1.738   0.976   4.640
 8395SOL    HW226085   1.891   1.022   4.606
 8396SOL     OW26086   4.460   5.774   4.286
 8396SOL    HW126087   4.520   5.756   4.364
 8396SOL    HW226088   4.461   5.696   4.224
 8397SOL     OW26089   6.303   1.132   2.955
 8397SOL    HW126090   6.394   1.158   2.987
 8397SOL    HW226091   6.253   1.089   3.031
 8398SOL     OW26092   4.833   2.055   5.930
 8398SOL    HW126093   4.734   2.072   5.938
 8398SOL    HW226094   4.863   2.078   5.837
 8399SOL     OW26095   6.820   4.982   0.747
 8399SOL    HW126096   6.782   4.985   0.654
 8399SOL    HW226097   6.789   5.061   0.798
 8400SOL     OW26098   1.552   2.219   4.715
 8400SOL    HW126099   1.620   2.155   4.679
 8400SOL    HW226100   1.486   2.169   4.771
 8401SOL     OW26101   3.236   0.676   5.886
 8401SOL    HW126102   3.268   0.660   5.792
 8401SOL    HW226103   3.165   0.747   5.884
 8402SOL     OW26104   4.000   0.334   5.997
 8402SOL    HW126105   3.963   0.249   5.961
 8402SOL    HW226106   3.953   0.358   6.082
 8403SOL     OW26107   5.914   4.842   4.231
 8403SOL    HW126108   5.853   4.826   4.154
 8403SOL    HW226109   5.969   4.760   4.247
 8404SOL     OW26110   1.728   1.867   6.493
 8404SOL    HW126111   1.653   1.811   6.456
 8404SOL    HW226112   1.725   1.866   6.593
 8405SOL     OW26113   3.777   0.907   5.452
 8405SOL    HW126114   3.695   0.964   5.463
 8405SOL    HW226115   3.815   0.920   5.361
 8406SOL     OW26116   5.006   0.497   6.177
 8406SOL    HW126117   4.990   0.545   6.091
 8406SOL    HW226118   4.954   0.540   6.250
 8407SOL     OW26119   3.438   6.697   3.879
 8407SOL    HW126120   3.424   6.728   3.973
 8407SOL    HW226121   3.513   6.748   3.838
 8408SOL     OW26122   4.215   1.241   1.551
 8408SOL    HW126123   4.262   1.328   1.538
 8408SOL    HW226124   4.117   1.258   1.562
 8409SOL     OW26125   4.447   2.415   1.853
 8409SOL    HW126126   4.435   2.483   1.781
 8409SOL    HW226127   4.457   2.461   1.941
 8410SOL     OW26128   6.709   1.918   1.590
 8410SOL    HW126129   6.748   1.977   1.661
 8410SOL    HW226130   6.640   1.858   1.631
 8411SOL     OW26131   1.777   5.474   0.424
 8411SOL    HW126132   1.818   5.481   0.514
 8411SOL    HW226133   1.807   5.551   0.368
 8412SOL     OW26134   2.700   2.848   6.019
 8412SOL    HW126135   2.616   2.804   5.988
 8412SOL    HW226136   2.777   2.787   6.003
 8413SOL     OW26137   4.328   5.679   4.724
 8413SOL    HW126138   4.427   5.678   4.706
 8413SOL    HW226139   4.281   5.623   4.656
 8414SOL     OW26140   0.768   0.840   1.550
 8414SOL    HW126141   0.688   0.861   1.606
 8414SOL    HW226142   0.834   0.790   1.605
 8415SOL     OW26143   2.157   0.933   5.059
 8415SOL    HW126144   2.181   1.022   5.098
 8415SOL    HW226145   2.194   0.926   4.966
 8416SOL     OW26146   6.605   1.585   5.069
 8416SOL    HW126147   6.542   1.544   5.003
 8416SOL    HW226148   6.576   1.561   5.162
 8417SOL     OW26149   1.620   4.290   5.317
 8417SOL    HW126150   1.531   4.335   5.316
 8417SOL    HW226151   1.686   4.344   5.266
 8418SOL     OW26152   0.814   6.113   2.270
 8418SOL    HW126153   0.723   6.138   2.304
 8418SOL    HW226154   0.835   6.019   2.299
 8419SOL     OW26155   4.724   1.596   3.816
 8419SOL    HW126156   4.777   1.612   3.900
 8419SOL    HW226157   4.778   1.624   3.737
 8420SOL     OW26158   2.704   0.445   2.862
 8420SOL    HW126159   2.605   0.460   2.868
 8420SOL    HW226160   2.739   0.415   2.951
 8421SOL     OW26161   4.681   6.197   6.278
 8421SOL    HW126162   4.681   6.098   6.288
 8421SOL    HW226163   4.750   6.224   6.212
 8422SOL     OW26164   4.643   2.651   2.936
 8422SOL    HW126165   4.684   2.718   2.874
 8422SOL    HW226166   4.687   2.658   3.026
 8423SOL     OW26167   6.721   4.990   6.408
 8423SOL    HW126168   6.694   4.902   6.447
 8423SOL    HW226169   6.639   5.043   6.387
 8424SOL     OW26170   2.152   6.981   3.621
 8424SOL    HW126171   2.127   6.998   3.526
 8424SOL    HW226172   2.172   0.050   3.666
 8425SOL     OW26173   4.074   3.387   3.119
 8425SOL    HW126174   4.032   3.470   3.084
 8425SOL    HW226175   4.120   3.338   3.044
 8426SOL     OW26176   3.692   2.933   1.852
 8426SOL    HW126177   3.617   2.947   1.918
 8426SOL    HW226178   3.779   2.934   1.901
 8427SOL     OW26179   3.504   3.733   3.809
 8427SOL    HW126180   3.569   3.796   3.852
 8427SOL    HW226181   3.450   3.687   3.879
 8428SOL     OW26182   6.700   6.911   0.546
 8428SOL    HW126183   6.659   6.983   0.490
 8428SOL    HW226184   6.721   6.832   0.489
 8429SOL     OW26185   2.523   5.549   6.018
 8429SOL    HW126186   2.615   5.511   6.017
 8429SOL    HW226187   2.475   5.520   6.100
 8430SOL     OW26188   4.212   6.649   5.349
 8430SOL    HW126189   4.144   6.590   5.391
 8430SOL    HW226190   4.176   6.685   5.263
 8431SOL     OW26191   3.461   3.839   6.180
 8431SOL    HW126192   3.522   3.917   6.198
 8431SOL    HW226193   3.509   3.754   6.200
 8432SOL     OW26194   6.308   5.148   6.065
 8432SOL    HW126195   6.213   5.136   6.036
 8432SOL    HW226196   6.311   5.195   6.153
 8433SOL     OW26197   5.579   2.749   0.736
 8433SOL    HW126198   5.602   2.771   0.830
 8433SOL    HW226199   5.635   2.805   0.674
 8434SOL     OW26200   2.637   6.214   5.467
 8434SOL    HW126201   2.628   6.142   5.398
 8434SOL    HW226202   2.627   6.175   5.558
 8435SOL     OW26203   4.797   1.034   3.057
 8435SOL    HW126204   4.802   1.044   2.958
 8435SOL    HW226205   4.883   0.995   3.091
 8436SOL     OW26206   2.483   5.945   2.429
 8436SOL    HW126207   2.452   5.950   2.523
 8436SOL    HW226208   2.577   5.910   2.426
 8437SOL     OW26209   2.026   3.899   2.085
 8437SOL    HW126210   2.070   3.820   2.128
 8437SOL    HW226211   2.095   3.952   2.036
 8438SOL     OW26212   1.089   4.293   2.237
 8438SOL    HW126213   1.174   4.276   2.188
 8438SOL    HW226214   1.084   4.389   2.264
 8439SOL     OW26215   5.813   5.342   3.616
 8439SOL    HW126216   5.754   5.341   3.697
 8439SOL    HW226217   5.820   5.435   3.581
 8440SOL     OW26218   1.834   1.299   2.690
 8440SOL    HW126219   1.890   1.347   2.623
 8440SOL    HW226220   1.883   1.293   2.777
 8441SOL     OW26221   6.063   1.277   4.243
 8441SOL    HW126222   6.086   1.228   4.327
 8441SOL    HW226223   6.067   1.376   4.260
 8442SOL     OW26224   3.568   1.481   6.036
 8442SOL    HW126225   3.576   1.532   5.951
 8442SOL    HW226226   3.486   1.424   6.033
 8443SOL     OW26227   0.857   3.694   3.113
 8443SOL    HW126228   0.844   3.621   3.046
 8443SOL    HW226229   0.777   3.754   3.113
 8444SOL     OW26230   4.943   5.062   4.366
 8444SOL    HW126231   4.856   5.078   4.412
 8444SOL    HW226232   4.986   5.150   4.346
 8445SOL     OW26233   4.094   5.745   6.748
 8445SOL    HW126234   4.153   5.672   6.784
 8445SOL    HW226235   4.145   5.830   6.744
 8446SOL     OW26236   6.827   6.025   4.835
 8446SOL    HW126237   6.871   5.995   4.750
 8446SOL    HW226238   6.873   5.984   4.913
 8447SOL     OW26239   3.947   2.183   3.162
 8447SOL    HW126240   3.892   2.244   3.219
 8447SOL    HW226241   3.958   2.095   3.207
 8448SOL     OW26242   4.126   6.436   3.359
 8448SOL    HW126243   4.033   6.407   3.380
 8448SOL    HW226244   4.181   6.436   3.442
 8449SOL     OW26245   2.280   2.593   3.240
 8449SOL    HW126246   2.272   2.511   3.182
 8449SOL    HW226247   2.194   2.644   3.236
 8450SOL     OW26248   6.997   0.872   6.973
 8450SOL    HW126249   6.910   0.848   7.015
 8450SOL    HW226250   0.020   0.948   0.005
 8451SOL     OW26251   4.548   2.596   0.981
 8451SOL    HW126252   4.584   2.686   0.955
 8451SOL    HW226253   4.460   2.581   0.937
 8452SOL     OW26254   5.546   2.007   5.616
 8452SOL    HW126255   5.524   2.006   5.519
 8452SOL    HW226256   5.616   1.938   5.635
 8453SOL     OW26257   1.135   6.153   0.947
 8453SOL    HW126258   1.187   6.078   0.906
 8453SOL    HW226259   1.183   6.239   0.934
 8454SOL     OW26260   6.744   3.959   0.039
 8454SOL    HW126261   6.655   3.924   0.012
 8454SOL    HW226262   6.795   3.989   6.976
 8455SOL     OW26263   6.996   0.766   3.372
 8455SOL    HW126264   7.012   0.799   3.279
 8455SOL    HW226265   0.063   0.729   3.410
 8456SOL     OW26266   5.704   0.853   3.903
 8456SOL    HW126267   5.709   0.952   3.892
 8456SOL    HW226268   5.696   0.830   4.000
 8457SOL     OW26269   6.323   6.713   4.764
 8457SOL    HW126270   6.344   6.758   4.677
 8457SOL    HW226271   6.312   6.615   4.749
 8458SOL     OW26272   0.465   6.541   6.820
 8458SOL    HW126273   0.411   6.585   6.749
 8458SOL    HW226274   0.407   6.522   6.900
 8459SOL     OW26275   1.646   5.992   3.323
 8459SOL    HW126276   1.735   5.952   3.344
 8459SOL    HW226277   1.655   6.092   3.318
 8460SOL     OW26278   3.546   4.006   4.117
 8460SOL    HW126279   3.541   3.934   4.187
 8460SOL    HW226280   3.479   4.077   4.138
 8461SOL     OW26281   6.514   3.777   3.731
 8461SOL    HW126282   6.444   3.809   3.667
 8461SOL    HW226283   6.571   3.708   3.686
 8462SOL     OW26284   2.052   2.768   2.257
 8462SOL    HW126285   2.136   2.727   2.223
 8462SOL    HW226286   2.054   2.867   2.240
 8463SOL     OW26287   5.289   1.323   2.150
 8463SOL    HW126288   5.328   1.352   2.063
 8463SOL    HW226289   5.336   1.369   2.225
 8464SOL     OW26290   6.219   2.325   4.658
 8464SOL    HW126291   6.178   2.253   4.602
 8464SOL    HW226292   6.204   2.414   4.615
 8465SOL     OW26293   1.805   2.472   0.349
 8465SOL    HW126294   1.736   2.455   0.278
 8465SOL    HW226295   1.810   2.393   0.410
 8466SOL     OW26296   0.647   6.594   3.648
 8466SOL    HW126297   0.666   6.639   3.561
 8466SOL    HW226298   0.678   6.653   3.723
 8467SOL     OW26299   2.690   5.293   0.532
 8467SOL    HW126300   2.717   5.231   0.605
 8467SOL    HW226301   2.591   5.286   0.517
 8468SOL     OW26302   4.469   1.551   0.206
 8468SOL    HW126303   4.471   1.579   0.302
 8468SOL    HW226304   4.489   1.629   0.148
 8469SOL     OW26305   3.652   2.413   6.755
 8469SOL    HW126306   3.637   2.314   6.751
 8469SOL    HW226307   3.750   2.431   6.761
 8470SOL     OW26308   2.530   2.258   6.393
 8470SOL    HW126309   2.468   2.336   6.401
 8470SOL    HW226310   2.567   2.256   6.300
 8471SOL     OW26311   3.847   0.939   3.704
 8471SOL    HW126312   3.941   0.912   3.721
 8471SOL    HW226313   3.795   0.934   3.790
 8472SOL     OW26314   1.218   6.470   3.440
 8472SOL    HW126315   1.155   6.547   3.435
 8472SOL    HW226316   1.283   6.485   3.515
 8473SOL     OW26317   6.740   5.720   6.882
 8473SOL    HW126318   6.743   5.752   6.976
 8473SOL    HW226319   6.791   5.634   6.874
 8474SOL     OW26320   3.751   3.935   1.342
 8474SOL    HW126321   3.755   3.875   1.262
 8474SOL    HW226322   3.799   4.020   1.322
 8475SOL     OW26323   4.651   1.074   3.288
 8475SOL    HW126324   4.715   1.040   3.357
 8475SOL    HW226325   4.701   1.108   3.209
 8476SOL     OW26326   4.414   0.272   2.563
 8476SOL    HW126327   4.414   0.370   2.542
 8476SOL    HW226328   4.348   0.254   2.636
 8477SOL     OW26329   2.935   1.311   1.622
 8477SOL    HW126330   3.007   1.252   1.658
 8477SOL    HW226331   2.920   1.290   1.525
 8478SOL     OW26332   1.608   0.462   5.725
 8478SOL    HW126333   1.631   0.558   5.711
 8478SOL    HW226334   1.596   0.418   5.636
 8479SOL     OW26335   5.121   0.796   1.667
 8479SOL    HW126336   5.168   0.848   1.596
 8479SOL    HW226337   5.024   0.822   1.669
 8480SOL     OW26338   1.821   1.117   1.422
 8480SOL    HW126339   1.786   1.103   1.330
 8480SOL    HW226340   1.776   1.053   1.485
 8481SOL     OW26341   4.071   0.346   4.038
 8481SOL    HW126342   4.079   0.446   4.046
 8481SOL    HW226343   3.985   0.317   4.081
 8482SOL     OW26344   1.046   0.501   2.148
 8482SOL    HW126345   0.986   0.558   2.092
 8482SOL    HW226346   1.080   0.424   2.094
 8483SOL     OW26347   4.118   6.097   1.619
 8483SOL    HW126348   4.083   6.079   1.711
 8483SOL    HW226349   4.178   6.022   1.591
 8484SOL     OW26350   0.825   4.821   4.783
 8484SOL    HW126351   0.765   4.744   4.808
 8484SOL    HW226352   0.784   4.872   4.708
 8485SOL     OW26353   2.711   3.609   6.085
 8485SOL    HW126354   2.643   3.681   6.094
 8485SOL    HW226355   2.799   3.641   6.119
 8486SOL     OW26356   4.555   0.964   2.354
 8486SOL    HW126357   4.539   0.878   2.306
 8486SOL    HW226358   4.470   0.996   2.395
 8487SOL     OW26359   4.230   6.840   1.085
 8487SOL    HW126360   4.259   6.932   1.111
 8487SOL    HW226361   4.288   6.806   1.012
 8488SOL     OW26362   4.995   2.834   4.766
 8488SOL    HW126363   4.995   2.812   4.669
 8488SOL    HW226364   5.031   2.926   4.780
 8489SOL     OW26365   4.138   5.031   2.586
 8489SOL    HW126366   4.075   4.963   2.624
 8489SOL    HW226367   4.185   5.078   2.660
 8490SOL     OW26368   3.884   5.402   2.772
 8490SOL    HW126369   3.846   5.486   2.734
 8490SOL    HW226370   3.825   5.324   2.748
 8491SOL     OW26371   1.970   1.115   2.460
 8491SOL    HW126372   2.001   1.187   2.522
 8491SOL    HW226373   2.049   1.077   2.412
 8492SOL     OW26374   5.573   3.375   5.208
 8492SOL    HW126375   5.499   3.439   5.188
 8492SOL    HW226376   5.628   3.362   5.125
 8493SOL     OW26377   3.864   2.121   1.067
 8493SOL    HW126378   3.795   2.133   0.995
 8493SOL    HW226379   3.824   2.065   1.141
 8494SOL     OW26380   3.405   5.372   6.842
 8494SOL    HW126381   3.426   5.295   6.782
 8494SOL    HW226382   3.383   5.452   6.787
 8495SOL     OW26383   0.344   2.466   0.963
 8495SOL    HW126384   0.361   2.493   0.868
 8495SOL    HW226385   0.406   2.517   1.023
 8496SOL     OW26386   0.086   2.933   3.030
 8496SOL    HW126387   0.105   2.836   3.038
 8496SOL    HW226388   0.029   2.949   2.950
 8497SOL     OW26389   6.409   5.525   2.991
 8497SOL    HW126390   6.360   5.575   3.062
 8497SOL    HW226391   6.360   5.530   2.905
 8498SOL     OW26392   0.159   0.620   0.625
 8498SOL    HW126393   0.119   0.570   0.702
 8498SOL    HW226394   0.100   0.611   0.545
 8499SOL     OW26395   3.669   4.011   6.283
 8499SOL    HW126396   3.704   3.958   6.360
 8499SOL    HW226397   3.628   4.096   6.316
 8500SOL     OW26398   3.026   0.925   6.275
 8500SOL    HW126399   2.963   0.931   6.352
 8500SOL    HW226400   3.004   0.994   6.207
 8501SOL     OW26401   1.850   4.100   6.636
 8501SOL    HW126402   1.781   4.028   6.638
 8501SOL    HW226403   1.912   4.086   6.559
 8502SOL     OW26404   0.087   0.535   2.364
 8502SOL    HW126405   0.128   0.625   2.351
 8502SOL    HW226406   0.010   0.542   2.428
 8503SOL     OW26407   2.397   5.731   2.814
 8503SOL    HW126408   2.481   5.755   2.863
 8503SOL    HW226409   2.346   5.663   2.865
 8504SOL     OW26410   1.267   5.957   3.699
 8504SOL    HW126411   1.313   5.914   3.622
 8504SOL    HW226412   1.303   5.920   3.785
 8505SOL     OW26413   4.903   3.070   3.507
 8505SOL    HW126414   4.942   3.147   3.558
 8505SOL    HW226415   4.968   3.041   3.436
 8506SOL     OW26416   1.165   6.580   0.254
 8506SOL    HW126417   1.126   6.529   0.330
 8506SOL    HW226418   1.114   6.666   0.242
 8507SOL     OW26419   1.462   0.891   5.112
 8507SOL    HW126420   1.508   0.980   5.120
 8507SOL    HW226421   1.525   0.823   5.076
 8508SOL     OW26422   1.185   2.243   6.268
 8508SOL    HW126423   1.271   2.246   6.318
 8508SOL    HW226424   1.117   2.298   6.316
 8509SOL     OW26425   6.409   1.934   4.597
 8509SOL    HW126426   6.430   1.985   4.514
 8509SOL    HW226427   6.348   1.988   4.655
 8510SOL     OW26428   5.329   0.484   2.732
 8510SOL    HW126429   5.421   0.470   2.769
 8510SOL    HW226430   5.331   0.474   2.632
 8511SOL     OW26431   6.985   4.774   1.790
 8511SOL    HW126432   6.961   4.681   1.819
 8511SOL    HW226433   6.979   4.780   1.691
 8512SOL     OW26434   4.934   1.788   0.257
 8512SOL    HW126435   4.985   1.703   0.243
 8512SOL    HW226436   4.976   1.861   0.204
 8513SOL     OW26437   7.011   4.054   1.131
 8513SOL    HW126438   6.988   4.003   1.049
 8513SOL    HW226439   0.083   4.025   1.164
 8514SOL     OW26440   2.552   2.434   5.629
 8514SOL    HW126441   2.456   2.422   5.654
 8514SOL    HW226442   2.610   2.380   5.690
 8515SOL     OW26443   1.088   0.460   0.907
 8515SOL    HW126444   1.099   0.450   0.808
 8515SOL    HW226445   0.991   0.472   0.929
 8516SOL     OW26446   5.694   2.337   3.347
 8516SOL    HW126447   5.665   2.270   3.278
 8516SOL    HW226448   5.680   2.429   3.312
 8517SOL     OW26449   2.036   2.194   5.114
 8517SOL    HW126450   1.981   2.268   5.152
 8517SOL    HW226451   2.129   2.200   5.150
 8518SOL     OW26452   5.326   4.918   0.049
 8518SOL    HW126453   5.280   4.832   0.026
 8518SOL    HW226454   5.425   4.904   0.051
 8519SOL     OW26455   1.421   3.629   0.794
 8519SOL    HW126456   1.377   3.691   0.858
 8519SOL    HW226457   1.499   3.585   0.839
 8520SOL     OW26458   4.241   3.931   6.080
 8520SOL    HW126459   4.211   4.002   6.017
 8520SOL    HW226460   4.296   3.972   6.153
 8521SOL     OW26461   2.274   6.357   5.728
 8521SOL    HW126462   2.236   6.406   5.807
 8521SOL    HW226463   2.222   6.273   5.712
 8522SOL     OW26464   1.355   6.640   0.477
 8522SOL    HW126465   1.375   6.683   0.389
 8522SOL    HW226466   1.257   6.644   0.494
 8523SOL     OW26467   2.774   1.094   7.010
 8523SOL    HW126468   2.834   1.021   0.025
 8523SOL    HW226469   2.701   1.110   0.058
 8524SOL     OW26470   2.140   5.717   4.664
 8524SOL    HW126471   2.125   5.619   4.671
 8524SOL    HW226472   2.238   5.736   4.662
 8525SOL     OW26473   6.664   4.751   1.338
 8525SOL    HW126474   6.589   4.784   1.394
 8525SOL    HW226475   6.666   4.651   1.339
 8526SOL     OW26476   1.494   6.180   0.335
 8526SOL    HW126477   1.537   6.100   0.378
 8526SOL    HW226478   1.492   6.255   0.400
 8527SOL     OW26479   3.264   1.030   5.672
 8527SOL    HW126480   3.321   0.952   5.648
 8527SOL    HW226481   3.245   1.084   5.590
 8528SOL     OW26482   4.946   2.005   0.521
 8528SOL    HW126483   5.045   1.997   0.509
 8528SOL    HW226484   4.905   1.914   0.519
 8529SOL     OW26485   1.193   6.172   6.471
 8529SOL    HW126486   1.097   6.195   6.487
 8529SOL    HW226487   1.248   6.256   6.475
 8530SOL     OW26488   3.163   4.082   4.422
 8530SOL    HW126489   3.189   4.165   4.471
 8530SOL    HW226490   3.108   4.024   4.482
 8531SOL     OW26491   6.788   5.518   3.884
 8531SOL    HW126492   6.743   5.597   3.926
 8531SOL    HW226493   6.754   5.434   3.927
 8532SOL     OW26494   2.499   5.365   4.763
 8532SOL    HW126495   2.487   5.346   4.860
 8532SOL    HW226496   2.570   5.434   4.751
 8533SOL     OW26497   2.022   5.990   5.157
 8533SOL    HW126498   2.056   5.903   5.192
 8533SOL    HW226499   2.089   6.028   5.093
 8534SOL     OW26500   3.299   2.069   4.174
 8534SOL    HW126501   3.362   2.040   4.247
 8534SOL    HW226502   3.240   2.142   4.208
 8535SOL     OW26503   6.212   0.406   3.016
 8535SOL    HW126504   6.229   0.454   3.102
 8535SOL    HW226505   6.202   0.473   2.942
 8536SOL     OW26506   0.401   1.068   4.608
 8536SOL    HW126507   0.495   1.087   4.580
 8536SOL    HW226508   0.343   1.061   4.527
 8537SOL     OW26509   6.802   1.017   2.971
 8537SOL    HW126510   6.839   1.104   3.003
 8537SOL    HW226511   6.768   1.027   2.878
 8538SOL     OW26512   1.764   2.415   6.909
 8538SOL    HW126513   1.731   2.467   6.988
 8538SOL    HW226514   1.686   2.387   6.853
 8539SOL     OW26515   6.320   2.641   3.048
 8539SOL    HW126516   6.233   2.656   3.096
 8539SOL    HW226517   6.302   2.599   2.959
 8540SOL     OW26518   4.010   0.025   0.632
 8540SOL    HW126519   4.107   0.039   0.608
 8540SOL    HW226520   4.001   0.019   0.731
 8541SOL     OW26521   2.004   2.651   4.413
 8541SOL    HW126522   1.930   2.691   4.466
 8541SOL    HW226523   2.075   2.720   4.397
 8542SOL     OW26524   3.815   4.428   0.324
 8542SOL    HW126525   3.715   4.435   0.332
 8542SOL    HW226526   3.847   4.354   0.382
 8543SOL     OW26527   2.226   2.390   6.302
 8543SOL    HW126528   2.214   2.299   6.340
 8543SOL    HW226529   2.140   2.420   6.259
 8544SOL     OW26530   6.866   2.976   3.296
 8544SOL    HW126531   6.937   2.970   3.226
 8544SOL    HW226532   6.897   3.034   3.371
 8545SOL     OW26533   4.925   6.671   4.719
 8545SOL    HW126534   5.014   6.647   4.681
 8545SOL    HW226535   4.926   6.765   4.752
 8546SOL     OW26536   4.163   1.842   5.277
 8546SOL    HW126537   4.110   1.769   5.320
 8546SOL    HW226538   4.102   1.902   5.227
 8547SOL     OW26539   0.898   4.175   3.273
 8547SOL    HW126540   0.878   4.193   3.177
 8547SOL    HW226541   0.978   4.227   3.301
 8548SOL     OW26542   5.945   1.636   5.796
 8548SOL    HW126543   5.911   1.595   5.711
 8548SOL    HW226544   5.922   1.576   5.873
 8549SOL     OW26545   5.897   3.403   4.812
 8549SOL    HW126546   5.844   3.449   4.740
 8549SOL    HW226547   5.984   3.450   4.824
 8550SOL     OW26548   1.085   4.111   6.399
 8550SOL    HW126549   1.153   4.125   6.471
 8550SOL    HW226550   1.069   4.197   6.351
 8551SOL     OW26551   3.538   4.012   0.270
 8551SOL    HW126552   3.493   3.934   0.314
 8551SOL    HW226553   3.505   4.097   0.312
 8552SOL     OW26554   2.783   6.534   3.945
 8552SOL    HW126555   2.780   6.552   3.847
 8552SOL    HW226556   2.690   6.530   3.981
 8553SOL     OW26557   5.793   6.202   0.458
 8553SOL    HW126558   5.830   6.294   0.445
 8553SOL    HW226559   5.859   6.134   0.427
 8554SOL     OW26560   6.162   4.118   0.082
 8554SOL    HW126561   6.116   4.039   0.041
 8554SOL    HW226562   6.138   4.201   0.032
 8555SOL     OW26563   1.238   6.910   4.196
 8555SOL    HW126564   1.198   6.949   4.113
 8555SOL    HW226565   1.292   6.830   4.173
 8556SOL     OW26566   6.282   0.339   3.574
 8556SOL    HW126567   6.248   0.428   3.542
 8556SOL    HW226568   6.377   0.349   3.604
 8557SOL     OW26569   0.197   0.672   1.335
 8557SOL    HW126570   0.178   0.767   1.313
 8557SOL    HW226571   0.143   0.612   1.277
 8558SOL     OW26572   1.298   5.143   2.056
 8558SOL    HW126573   1.358   5.205   2.005
 8558SOL    HW226574   1.248   5.086   1.991
 8559SOL     OW26575   0.679   0.852   6.267
 8559SOL    HW126576   0.777   0.857   6.288
 8559SOL    HW226577   0.657   0.921   6.197
 8560SOL     OW26578   6.123   2.235   0.158
 8560SOL    HW126579   6.038   2.186   0.180
 8560SOL    HW226580   6.142   2.302   0.230
 8561SOL     OW26581   4.663   6.482   4.152
 8561SOL    HW126582   4.616   6.549   4.209
 8561SOL    HW226583   4.616   6.394   4.157
 8562SOL     OW26584   3.748   6.818   4.530
 8562SOL    HW126585   3.751   6.802   4.628
 8562SOL    HW226586   3.732   6.915   4.513
 8563SOL     OW26587   2.827   2.948   5.775
 8563SOL    HW126588   2.879   3.028   5.744
 8563SOL    HW226589   2.830   2.943   5.875
 8564SOL     OW26590   0.710   0.230   4.076
 8564SOL    HW126591   0.656   0.182   4.145
 8564SOL    HW226592   0.795   0.180   4.060
 8565SOL     OW26593   3.878   0.095   1.763
 8565SOL    HW126594   3.927   0.035   1.827
 8565SOL    HW226595   3.904   0.072   1.669
 8566SOL     OW26596   2.169   3.174   3.536
 8566SOL    HW126597   2.160   3.217   3.626
 8566SOL    HW226598   2.225   3.092   3.544
 8567SOL     OW26599   5.354   6.958   0.978
 8567SOL    HW126600   5.422   6.931   1.047
 8567SOL    HW226601   5.312   6.875   0.939
 8568SOL     OW26602   5.432   1.030   0.216
 8568SOL    HW126603   5.336   1.046   0.197
 8568SOL    HW226604   5.446   1.021   0.315
 8569SOL     OW26605   4.381   1.520   4.513
 8569SOL    HW126606   4.304   1.459   4.493
 8569SOL    HW226607   4.402   1.575   4.433
 8570SOL     OW26608   0.579   4.007   0.013
 8570SOL    HW126609   0.508   4.045   0.072
 8570SOL    HW226610   0.618   3.925   0.056
 8571SOL     OW26611   6.984   4.272   5.341
 8571SOL    HW126612   6.980   4.222   5.428
 8571SOL    HW226613   7.000   4.369   5.359
 8572SOL     OW26614   2.953   4.938   5.481
 8572SOL    HW126615   2.897   4.871   5.433
 8572SOL    HW226616   2.915   5.030   5.467
 8573SOL     OW26617   3.683   5.712   4.939
 8573SOL    HW126618   3.674   5.681   4.844
 8573SOL    HW226619   3.772   5.685   4.974
 8574SOL     OW26620   0.255   3.905   4.934
 8574SOL    HW126621   0.268   3.839   5.008
 8574SOL    HW226622   0.283   3.995   4.964
 8575SOL     OW26623   3.447   3.422   6.865
 8575SOL    HW126624   3.393   3.505   6.852
 8575SOL    HW226625   3.498   3.429   6.951
 8576SOL     OW26626   1.666   0.101   1.457
 8576SOL    HW126627   1.586   0.047   1.483
 8576SOL    HW226628   1.640   0.197   1.448
 8577SOL     OW26629   6.436   5.896   3.070
 8577SOL    HW126630   6.528   5.906   3.033
 8577SOL    HW226631   6.415   5.800   3.084
 8578SOL     OW26632   4.223   7.017   3.535
 8578SOL    HW126633   4.294   0.068   3.544
 8578SOL    HW226634   4.134   0.044   3.526
 8579SOL     OW26635   0.697   5.884   3.082
 8579SOL    HW126636   0.787   5.924   3.067
 8579SOL    HW226637   0.652   5.929   3.159
 8580SOL     OW26638   2.492   4.429   6.679
 8580SOL    HW126639   2.577   4.426   6.628
 8580SOL    HW226640   2.509   4.408   6.775
 8581SOL     OW26641   2.663   2.432   1.099
 8581SOL    HW126642   2.616   2.465   1.017
 8581SOL    HW226643   2.742   2.376   1.072
 8582SOL     OW26644   4.375   4.212   1.139
 8582SOL    HW126645   4.342   4.146   1.072
 8582SOL    HW226646   4.344   4.185   1.230
 8583SOL     OW26647   5.765   0.104   6.372
 8583SOL    HW126648   5.774   0.133   6.277
 8583SOL    HW226649   5.700   0.164   6.420
 8584SOL     OW26650   6.886   5.247   6.701
 8584SOL    HW126651   6.930   5.245   6.612
 8584SOL    HW226652   6.789   5.271   6.690
 8585SOL     OW26653   0.329   1.459   0.407
 8585SOL    HW126654   0.426   1.473   0.388
 8585SOL    HW226655   0.285   1.421   0.326
 8586SOL     OW26656   4.389   5.668   3.773
 8586SOL    HW126657   4.313   5.707   3.824
 8586SOL    HW226658   4.419   5.733   3.702
 8587SOL     OW26659   6.811   1.402   1.169
 8587SOL    HW126660   6.889   1.437   1.116
 8587SOL    HW226661   6.790   1.467   1.242
 8588SOL     OW26662   4.753   2.060   0.071
 8588SOL    HW126663   4.796   2.150   0.057
 8588SOL    HW226664   4.692   2.065   0.150
 8589SOL     OW26665   3.183   1.871   4.772
 8589SOL    HW126666   3.131   1.953   4.796
 8589SOL    HW226667   3.207   1.822   4.855
 8590SOL     OW26668   6.377   4.690   5.599
 8590SOL    HW126669   6.340   4.776   5.634
 8590SOL    HW226670   6.328   4.613   5.640
 8591SOL     OW26671   1.156   3.249   6.877
 8591SOL    HW126672   1.239   3.202   6.849
 8591SOL    HW226673   1.076   3.195   6.849
 8592SOL     OW26674   6.027   5.587   6.620
 8592SOL    HW126675   5.928   5.578   6.613
 8592SOL    HW226676   6.051   5.682   6.639
 8593SOL     OW26677   1.074   0.261   2.606
 8593SOL    HW126678   0.994   0.294   2.658
 8593SOL    HW226679   1.056   0.271   2.508
 8594SOL     OW26680   3.667   3.516   4.387
 8594SOL    HW126681   3.688   3.613   4.373
 8594SOL    HW226682   3.571   3.499   4.363
 8595SOL     OW26683   1.624   2.149   2.096
 8595SOL    HW126684   1.638   2.225   2.034
 8595SOL    HW226685   1.712   2.107   2.118
 8596SOL     OW26686   6.408   4.937   2.302
 8596SOL    HW126687   6.459   4.857   2.332
 8596SOL    HW226688   6.347   4.912   2.227
 8597SOL     OW26689   1.383   1.132   0.808
 8597SOL    HW126690   1.392   1.032   0.812
 8597SOL    HW226691   1.335   1.157   0.723
 8598SOL     OW26692   5.368   4.693   0.330
 8598SOL    HW126693   5.375   4.642   0.245
 8598SOL    HW226694   5.411   4.782   0.319
 8599SOL     OW26695   1.324   3.388   2.590
 8599SOL    HW126696   1.273   3.440   2.522
 8599SOL    HW226697   1.422   3.393   2.568
 8600SOL     OW26698   6.292   3.958   6.673
 8600SOL    HW126699   6.355   3.953   6.596
 8600SOL    HW226700   6.340   3.993   6.753
 8601SOL     OW26701   6.830   6.926   3.971
 8601SOL    HW126702   6.848   6.921   4.069
 8601SOL    HW226703   6.770   6.851   3.943
 8602SOL     OW26704   3.350   6.735   2.181
 8602SOL    HW126705   3.404   6.690   2.110
 8602SOL    HW226706   3.319   6.824   2.149
 8603SOL     OW26707   4.367   3.537   0.940
 8603SOL    HW126708   4.330   3.449   0.909
 8603SOL    HW226709   4.405   3.587   0.862
 8604SOL     OW26710   5.616   2.527   2.670
 8604SOL    HW126711   5.536   2.468   2.682
 8604SOL    HW226712   5.671   2.494   2.593
 8605SOL     OW26713   2.633   6.558   1.800
 8605SOL    HW126714   2.594   6.575   1.890
 8605SOL    HW226715   2.660   6.645   1.758
 8606SOL     OW26716   4.017   4.796   5.767
 8606SOL    HW126717   3.956   4.791   5.688
 8606SOL    HW226718   4.101   4.745   5.748
 8607SOL     OW26719   4.024   6.020   2.031
 8607SOL    HW126720   4.019   5.969   1.946
 8607SOL    HW226721   4.029   5.956   2.108
 8608SOL     OW26722   4.554   6.269   2.574
 8608SOL    HW126723   4.551   6.201   2.501
 8608SOL    HW226724   4.556   6.361   2.535
 8609SOL     OW26725   3.817   0.672   5.347
 8609SOL    HW126726   3.893   0.615   5.376
 8609SOL    HW226727   3.810   0.752   5.407
 8610SOL     OW26728   6.566   6.730   4.285
 8610SOL    HW126729   6.640   6.662   4.285
 8610SOL    HW226730   6.560   6.772   4.376
 8611SOL     OW26731   1.440   1.944   3.383
 8611SOL    HW126732   1.376   1.878   3.345
 8611SOL    HW226733   1.529   1.901   3.396
 8612SOL     OW26734   4.545   3.107   5.382
 8612SOL    HW126735   4.575   3.035   5.444
 8612SOL    HW226736   4.591   3.096   5.294
 8613SOL     OW26737   1.305   1.173   0.303
 8613SOL    HW126738   1.261   1.119   0.231
 8613SOL    HW226739   1.331   1.262   0.267
 8614SOL     OW26740   0.847   1.703   3.270
 8614SOL    HW126741   0.883   1.657   3.189
 8614SOL    HW226742   0.899   1.786   3.287
 8615SOL     OW26743   4.524   2.818   5.311
 8615SOL    HW126744   4.426   2.809   5.295
 8615SOL    HW226745   4.574   2.786   5.230
 8616SOL     OW26746   1.588   3.371   6.896
 8616SOL    HW126747   1.607   3.313   6.976
 8616SOL    HW226748   1.612   3.465   6.917
 8617SOL     OW26749   5.871   2.992   1.029
 8617SOL    HW126750   5.867   3.030   0.936
 8617SOL    HW226751   5.822   3.052   1.092
 8618SOL     OW26752   4.747   0.490   4.186
 8618SOL    HW126753   4.780   0.545   4.110
 8618SOL    HW226754   4.655   0.519   4.211
 8619SOL     OW26755   4.720   5.704   0.951
 8619SOL    HW126756   4.663   5.658   0.882
 8619SOL    HW226757   4.663   5.734   1.027
 8620SOL     OW26758   5.997   6.671   3.187
 8620SOL    HW126759   6.089   6.671   3.226
 8620SOL    HW226760   5.965   6.765   3.176
 8621SOL     OW26761   5.614   0.920   2.950
 8621SOL    HW126762   5.580   0.944   3.040
 8621SOL    HW226763   5.706   0.958   2.938
 8622SOL     OW26764   5.096   5.362   6.909
 8622SOL    HW126765   5.142   5.429   6.968
 8622SOL    HW226766   5.099   5.272   6.951
 8623SOL     OW26767   6.555   3.301   2.611
 8623SOL    HW126768   6.579   3.235   2.539
 8623SOL    HW226769   6.495   3.371   2.574
 8624SOL     OW26770   0.498   5.315   3.612
 8624SOL    HW126771   0.400   5.314   3.594
 8624SOL    HW226772   0.548   5.289   3.530
 8625SOL     OW26773   3.895   0.790   5.100
 8625SOL    HW126774   3.977   0.746   5.063
 8625SOL    HW226775   3.862   0.738   5.179
 8626SOL     OW26776   3.093   3.843   3.139
 8626SOL    HW126777   3.130   3.763   3.187
 8626SOL    HW226778   3.029   3.891   3.199
 8627SOL     OW26779   2.086   0.355   6.688
 8627SOL    HW126780   2.005   0.362   6.746
 8627SOL    HW226781   2.136   0.442   6.688
 8628SOL     OW26782   5.879   1.505   0.401
 8628SOL    HW126783   5.965   1.488   0.449
 8628SOL    HW226784   5.803   1.481   0.461
 8629SOL     OW26785   1.167   4.847   4.233
 8629SOL    HW126786   1.110   4.832   4.152
 8629SOL    HW226787   1.262   4.822   4.213
 8630SOL     OW26788   5.493   4.194   4.157
 8630SOL    HW126789   5.519   4.173   4.251
 8630SOL    HW226790   5.437   4.119   4.120
 8631SOL     OW26791   3.601   6.005   4.525
 8631SOL    HW126792   3.657   5.944   4.468
 8631SOL    HW226793   3.661   6.056   4.587
 8632SOL     OW26794   4.810   0.460   3.646
 8632SOL    HW126795   4.756   0.404   3.583
 8632SOL    HW226796   4.767   0.458   3.737
 8633SOL     OW26797   5.934   0.788   4.152
 8633SOL    HW126798   5.838   0.801   4.178
 8633SOL    HW226799   5.951   0.691   4.135
 8634SOL     OW26800   6.607   5.142   1.917
 8634SOL    HW126801   6.680   5.086   1.956
 8634SOL    HW226802   6.548   5.175   1.990
 8635SOL     OW26803   6.275   4.180   5.023
 8635SOL    HW126804   6.307   4.164   5.116
 8635SOL    HW226805   6.320   4.116   4.961
 8636SOL     OW26806   5.655   5.764   0.403
 8636SOL    HW126807   5.559   5.735   0.404
 8636SOL    HW226808   5.703   5.722   0.480
 8637SOL     OW26809   1.964   0.737   1.411
 8637SOL    HW126810   2.044   0.779   1.453
 8637SOL    HW226811   1.960   0.640   1.436
 8638SOL     OW26812   3.987   5.053   0.776
 8638SOL    HW126813   3.924   5.025   0.849
 8638SOL    HW226814   3.944   5.036   0.687
 8639SOL     OW26815   6.804   3.147   2.688
 8639SOL    HW126816   6.732   3.078   2.688
 8639SOL    HW226817   6.763   3.238   2.687
 8640SOL     OW26818   5.010   6.115   1.082
 8640SOL    HW126819   5.057   6.029   1.064
 8640SOL    HW226820   4.931   6.124   1.021
 8641SOL     OW26821   5.642   4.607   3.119
 8641SOL    HW126822   5.617   4.559   3.203
 8641SOL    HW226823   5.740   4.627   3.119
 8642SOL     OW26824   4.701   1.386   1.530
 8642SOL    HW126825   4.667   1.480   1.537
 8642SOL    HW226826   4.799   1.387   1.513
 8643SOL     OW26827   4.875   0.854   6.001
 8643SOL    HW126828   4.940   0.907   6.056
 8643SOL    HW226829   4.782   0.881   6.025
 8644SOL     OW26830   6.416   3.382   5.178
 8644SOL    HW126831   6.497   3.377   5.237
 8644SOL    HW226832   6.406   3.475   5.144
 8645SOL     OW26833   6.077   4.845   1.722
 8645SOL    HW126834   6.161   4.826   1.773
 8645SOL    HW226835   6.099   4.862   1.626
 8646SOL     OW26836   5.389   0.981   0.503
 8646SOL    HW126837   5.442   0.991   0.587
 8646SOL    HW226838   5.371   0.884   0.487
 8647SOL     OW26839   4.295   5.005   1.286
 8647SOL    HW126840   4.237   5.048   1.217
 8647SOL    HW226841   4.391   5.023   1.265
 8648SOL     OW26842   5.343   1.805   4.451
 8648SOL    HW126843   5.416   1.788   4.386
 8648SOL    HW226844   5.364   1.887   4.504
 8649SOL     OW26845   6.986   4.611   5.546
 8649SOL    HW126846   0.006   4.616   5.454
 8649SOL    HW226847   6.982   4.702   5.586
 8650SOL     OW26848   1.567   4.683   2.314
 8650SOL    HW126849   1.638   4.614   2.314
 8650SOL    HW226850   1.569   4.733   2.227
 8651SOL     OW26851   3.317   1.661   1.136
 8651SOL    HW126852   3.388   1.593   1.156
 8651SOL    HW226853   3.351   1.752   1.159
 8652SOL     OW26854   1.471   3.499   3.792
 8652SOL    HW126855   1.504   3.567   3.727
 8652SOL    HW226856   1.400   3.444   3.749
 8653SOL     OW26857   6.476   3.379   6.767
 8653SOL    HW126858   6.504   3.346   6.677
 8653SOL    HW226859   6.555   3.422   6.812
 8654SOL     OW26860   0.582   0.026   2.894
 8654SOL    HW126861   0.634   0.011   2.811
 8654SOL    HW226862   0.602   0.118   2.930
 8655SOL     OW26863   6.050   5.911   4.305
 8655SOL    HW126864   5.998   5.885   4.224
 8655SOL    HW226865   6.080   6.007   4.296
 8656SOL     OW26866   5.764   2.402   1.211
 8656SOL    HW126867   5.841   2.419   1.150
 8656SOL    HW226868   5.698   2.342   1.166
 8657SOL     OW26869   3.268   4.073   0.092
 8657SOL    HW126870   3.291   3.982   0.126
 8657SOL    HW226871   3.349   4.114   0.051
 8658SOL     OW26872   6.761   5.163   0.530
 8658SOL    HW126873   6.787   5.069   0.506
 8658SOL    HW226874   6.719   5.207   0.450
 8659SOL     OW26875   5.523   0.365   4.513
 8659SOL    HW126876   5.512   0.319   4.425
 8659SOL    HW226877   5.494   0.304   4.586
 8660SOL     OW26878   5.717   4.744   1.408
 8660SOL    HW126879   5.652   4.765   1.481
 8660SOL    HW226880   5.768   4.662   1.432
 8661SOL     OW26881   6.550   3.625   1.404
 8661SOL    HW126882   6.596   3.627   1.493
 8661SOL    HW226883   6.588   3.698   1.346
 8662SOL     OW26884   0.421   6.965   0.752
 8662SOL    HW126885   0.398   0.041   0.774
 8662SOL    HW226886   0.425   6.953   0.653
 8663SOL     OW26887   2.467   5.616   0.403
 8663SOL    HW126888   2.464   5.533   0.348
 8663SOL    HW226889   2.404   5.609   0.479
 8664SOL     OW26890   4.533   5.585   0.806
 8664SOL    HW126891   4.464   5.578   0.877
 8664SOL    HW226892   4.532   5.502   0.750
 8665SOL     OW26893   5.230   5.396   5.363
 8665SOL    HW126894   5.240   5.418   5.266
 8665SOL    HW226895   5.285   5.314   5.384
 8666SOL     OW26896   5.159   3.065   4.663
 8666SOL    HW126897   5.101   3.141   4.695
 8666SOL    HW226898   5.132   3.040   4.570
 8667SOL     OW26899   4.490   1.801   3.496
 8667SOL    HW126900   4.442   1.797   3.584
 8667SOL    HW226901   4.541   1.717   3.483
 8668SOL     OW26902   3.806   2.107   4.275
 8668SOL    HW126903   3.765   2.105   4.184
 8668SOL    HW226904   3.818   2.013   4.307
 8669SOL     OW26905   4.139   0.864   6.320
 8669SOL    HW126906   4.173   0.779   6.359
 8669SOL    HW226907   4.209   0.903   6.259
 8670SOL     OW26908   3.408   4.904   4.154
 8670SOL    HW126909   3.325   4.941   4.112
 8670SOL    HW226910   3.481   4.899   4.086
 8671SOL     OW26911   5.617   6.546   2.959
 8671SOL    HW126912   5.540   6.592   3.004
 8671SOL    HW226913   5.690   6.529   3.026
 8672SOL     OW26914   3.309   4.919   4.666
 8672SOL    HW126915   3.214   4.909   4.697
 8672SOL    HW226916   3.315   4.894   4.569
 8673SOL     OW26917   5.741   2.185   0.707
 8673SOL    HW126918   5.754   2.272   0.756
 8673SOL    HW226919   5.754   2.109   0.771
 8674SOL     OW26920   0.753   0.019   2.680
 8674SOL    HW126921   0.841   0.029   2.728
 8674SOL    HW226922   0.732   0.103   2.630
 8675SOL     OW26923   2.043   1.360   2.502
 8675SOL    HW126924   1.991   1.410   2.432
 8675SOL    HW226925   2.104   1.422   2.549
 8676SOL     OW26926   4.448   0.439   3.254
 8676SOL    HW126927   4.476   0.398   3.167
 8676SOL    HW226928   4.394   0.373   3.305
 8677SOL     OW26929   2.482   4.260   5.724
 8677SOL    HW126930   2.554   4.195   5.702
 8677SOL    HW226931   2.502   4.348   5.681
 8678SOL     OW26932   1.324   6.840   6.390
 8678SOL    HW126933   1.290   6.815   6.480
 8678SOL    HW226934   1.419   6.873   6.398
 8679SOL     OW26935   0.222   2.346   4.558
 8679SOL    HW126936   0.200   2.327   4.462
 8679SOL    HW226937   0.277   2.271   4.594
 8680SOL     OW26938   1.417   3.202   0.308
 8680SOL    HW126939   1.344   3.221   0.374
 8680SOL    HW226940   1.505   3.226   0.348
 8681SOL     OW26941   3.597   4.038   0.930
 8681SOL    HW126942   3.686   4.082   0.937
 8681SOL    HW226943   3.603   3.945   0.966
 8682SOL     OW26944   2.084   6.024   2.604
 8682SOL    HW126945   2.057   6.060   2.515
 8682SOL    HW226946   2.062   6.090   2.675
 8683SOL     OW26947   6.615   3.208   0.029
 8683SOL    HW126948   6.679   3.164   0.092
 8683SOL    HW226949   6.526   3.163   0.035
 8684SOL     OW26950   6.718   3.039   4.009
 8684SOL    HW126951   6.788   3.038   4.080
 8684SOL    HW226952   6.633   3.000   4.044
 8685SOL     OW26953   1.251   2.402   5.281
 8685SOL    HW126954   1.288   2.328   5.337
 8685SOL    HW226955   1.303   2.486   5.297
 8686SOL     OW26956   6.804   2.644   3.649
 8686SOL    HW126957   6.801   2.694   3.735
 8686SOL    HW226958   6.781   2.548   3.665
 8687SOL     OW26959   3.800   0.026   3.662
 8687SOL    HW126960   3.861   0.094   3.621
 8687SOL    HW226961   3.810   6.957   3.614
 8688SOL     OW26962   2.161   0.502   2.122
 8688SOL    HW126963   2.199   0.587   2.087
 8688SOL    HW226964   2.215   0.425   2.088
 8689SOL     OW26965   4.599   6.067   0.747
 8689SOL    HW126966   4.565   6.101   0.659
 8689SOL    HW226967   4.525   6.018   0.793
 8690SOL     OW26968   0.288   1.445   2.633
 8690SOL    HW126969   0.223   1.427   2.707
 8690SOL    HW226970   0.241   1.494   2.559
 8691SOL     OW26971   5.190   2.299   0.648
 8691SOL    HW126972   5.187   2.256   0.558
 8691SOL    HW226973   5.109   2.356   0.660
 8692SOL     OW26974   2.211   1.376   4.204
 8692SOL    HW126975   2.165   1.386   4.116
 8692SOL    HW226976   2.177   1.446   4.267
 8693SOL     OW26977   5.286   2.449   0.844
 8693SOL    HW126978   5.285   2.398   0.758
 8693SOL    HW226979   5.192   2.460   0.878
 8694SOL     OW26980   4.865   6.861   5.614
 8694SOL    HW126981   4.815   6.839   5.531
 8694SOL    HW226982   4.891   6.777   5.662
 8695SOL     OW26983   4.016   4.361   5.644
 8695SOL    HW126984   3.930   4.411   5.638
 8695SOL    HW226985   4.025   4.321   5.736
 8696SOL     OW26986   2.352   5.189   1.627
 8696SOL    HW126987   2.338   5.146   1.717
 8696SOL    HW226988   2.267   5.186   1.576
 8697SOL     OW26989   6.177   4.704   1.081
 8697SOL    HW126990   6.186   4.784   1.142
 8697SOL    HW226991   6.222   4.626   1.124
 8698SOL     OW26992   5.188   5.610   4.370
 8698SOL    HW126993   5.142   5.571   4.449
 8698SOL    HW226994   5.276   5.649   4.398
 8699SOL     OW26995   1.148   1.751   5.036
 8699SOL    HW126996   1.065   1.803   5.018
 8699SOL    HW226997   1.187   1.719   4.950
 8700SOL     OW26998   2.943   1.432   5.650
 8700SOL    HW126999   2.851   1.472   5.652
 8700SOL    HW227000   2.997   1.469   5.725
 8701SOL     OW27001   0.928   1.917   5.009
 8701SOL    HW127002   0.879   1.921   4.923
 8701SOL    HW227003   0.870   1.952   5.083
 8702SOL     OW27004   4.588   6.134   0.113
 8702SOL    HW127005   4.583   6.036   0.129
 8702SOL    HW227006   4.655   6.153   0.041
 8703SOL     OW27007   2.619   5.495   0.833
 8703SOL    HW127008   2.662   5.552   0.763
 8703SOL    HW227009   2.624   5.542   0.921
 8704SOL     OW27010   0.421   4.029   1.741
 8704SOL    HW127011   0.508   4.077   1.729
 8704SOL    HW227012   0.346   4.092   1.721
 8705SOL     OW27013   4.988   0.107   5.659
 8705SOL    HW127014   4.950   0.016   5.644
 8705SOL    HW227015   4.916   0.167   5.694
 8706SOL     OW27016   5.266   1.876   0.598
 8706SOL    HW127017   5.305   1.941   0.662
 8706SOL    HW227018   5.261   1.918   0.507
 8707SOL     OW27019   5.042   2.723   5.726
 8707SOL    HW127020   5.073   2.634   5.759
 8707SOL    HW227021   5.120   2.776   5.693
 8708SOL     OW27022   4.103   1.506   1.191
 8708SOL    HW127023   4.056   1.418   1.185
 8708SOL    HW227024   4.166   1.505   1.269
 8709SOL     OW27025   6.939   4.256   0.790
 8709SOL    HW127026   6.960   4.168   0.745
 8709SOL    HW227027   6.971   4.252   0.885
 8710SOL     OW27028   1.745   3.488   3.474
 8710SOL    HW127029   1.772   3.521   3.383
 8710SOL    HW227030   1.711   3.394   3.467
 8711SOL     OW27031   0.181   1.094   3.860
 8711SOL    HW127032   0.255   1.162   3.856
 8711SOL    HW227033   0.219   1.005   3.883
 8712SOL     OW27034   3.239   1.821   5.675
 8712SOL    HW127035   3.272   1.877   5.599
 8712SOL    HW227036   3.161   1.766   5.645
 8713SOL     OW27037   0.215   4.631   3.488
 8713SOL    HW127038   0.178   4.540   3.471
 8713SOL    HW227039   0.271   4.660   3.411
 8714SOL     OW27040   1.264   1.367   4.772
 8714SOL    HW127041   1.314   1.368   4.685
 8714SOL    HW227042   1.264   1.275   4.809
 8715SOL     OW27043   6.220   1.989   1.466
 8715SOL    HW127044   6.173   1.920   1.521
 8715SOL    HW227045   6.248   2.065   1.525
 8716SOL     OW27046   1.343   2.159   1.148
 8716SOL    HW127047   1.377   2.252   1.152
 8716SOL    HW227048   1.297   2.143   1.061
 8717SOL     OW27049   3.366   3.476   1.116
 8717SOL    HW127050   3.405   3.397   1.163
 8717SOL    HW227051   3.388   3.559   1.166
 8718SOL     OW27052   6.046   3.333   5.169
 8718SOL    HW127053   6.146   3.326   5.173
 8718SOL    HW227054   6.005   3.245   5.191
 8719SOL     OW27055   6.879   0.420   6.157
 8719SOL    HW127056   6.930   0.505   6.172
 8719SOL    HW227057   6.934   0.343   6.188
 8720SOL     OW27058   4.977   3.717   6.312
 8720SOL    HW127059   4.907   3.787   6.326
 8720SOL    HW227060   5.033   3.741   6.233
 8721SOL     OW27061   0.083   2.509   4.023
 8721SOL    HW127062   0.151   2.581   4.011
 8721SOL    HW227063   0.037   2.520   4.111
 8722SOL     OW27064   3.780   2.419   0.261
 8722SOL    HW127065   3.755   2.424   0.358
 8722SOL    HW227066   3.700   2.392   0.207
 8723SOL     OW27067   6.771   4.472   1.066
 8723SOL    HW127068   6.750   4.533   0.990
 8723SOL    HW227069   6.715   4.497   1.145
 8724SOL     OW27070   5.047   6.807   6.321
 8724SOL    HW127071   5.114   6.826   6.393
 8724SOL    HW227072   5.069   6.861   6.240
 8725SOL     OW27073   2.915   5.690   0.565
 8725SOL    HW127074   2.968   5.750   0.625
 8725SOL    HW227075   2.955   5.690   0.473
 8726SOL     OW27076   5.662   0.433   1.381
 8726SOL    HW127077   5.616   0.520   1.363
 8726SOL    HW227078   5.759   0.442   1.358
 8727SOL     OW27079   6.299   6.061   1.178
 8727SOL    HW127080   6.361   6.119   1.125
 8727SOL    HW227081   6.300   6.089   1.274
 8728SOL     OW27082   2.644   7.011   4.961
 8728SOL    HW127083   2.680   0.085   4.947
 8728SOL    HW227084   2.545   7.015   4.970
 8729SOL     OW27085   5.377   6.068   4.334
 8729SOL    HW127086   5.406   6.111   4.249
 8729SOL    HW227087   5.448   6.080   4.404
 8730SOL     OW27088   0.261   5.878   1.782
 8730SOL    HW127089   0.314   5.816   1.839
 8730SOL    HW227090   0.320   5.915   1.710
 8731SOL     OW27091   0.729   1.593   2.665
 8731SOL    HW127092   0.783   1.664   2.711
 8731SOL    HW227093   0.723   1.614   2.568
 8732SOL     OW27094   5.354   4.250   1.446
 8732SOL    HW127095   5.378   4.154   1.434
 8732SOL    HW227096   5.262   4.258   1.484
 8733SOL     OW27097   0.821   6.283   1.661
 8733SOL    HW127098   0.818   6.241   1.571
 8733SOL    HW227099   0.795   6.379   1.655
 8734SOL     OW27100   6.481   5.592   1.290
 8734SOL    HW127101   6.564   5.644   1.269
 8734SOL    HW227102   6.507   5.504   1.331
 8735SOL     OW27103   6.681   2.034   6.928
 8735SOL    HW127104   6.672   2.117   6.873
 8735SOL    HW227105   6.590   2.000   6.951
 8736SOL     OW27106   0.597   4.771   6.533
 8736SOL    HW127107   0.616   4.735   6.441
 8736SOL    HW227108   0.549   4.703   6.587
 8737SOL     OW27109   3.871   5.671   6.231
 8737SOL    HW127110   3.843   5.692   6.138
 8737SOL    HW227111   3.823   5.732   6.295
 8738SOL     OW27112   0.983   3.811   4.178
 8738SOL    HW127113   0.940   3.899   4.158
 8738SOL    HW227114   0.912   3.742   4.195
 8739SOL     OW27115   0.581   3.091   5.250
 8739SOL    HW127116   0.530   3.110   5.334
 8739SOL    HW227117   0.524   3.115   5.171
 8740SOL     OW27118   2.185   6.360   1.209
 8740SOL    HW127119   2.098   6.340   1.253
 8740SOL    HW227120   2.224   6.444   1.249
 8741SOL     OW27121   1.287   3.469   2.871
 8741SOL    HW127122   1.296   3.447   2.774
 8741SOL    HW227123   1.241   3.557   2.881
 8742SOL     OW27124   4.851   6.904   2.106
 8742SOL    HW127125   4.811   6.973   2.167
 8742SOL    HW227126   4.778   6.848   2.068
 8743SOL     OW27127   2.308   4.712   2.880
 8743SOL    HW127128   2.228   4.666   2.917
 8743SOL    HW227129   2.283   4.759   2.795
 8744SOL     OW27130   3.013   2.369   6.058
 8744SOL    HW127131   2.978   2.279   6.036
 8744SOL    HW227132   3.069   2.403   5.983
 8745SOL     OW27133   6.426   2.468   6.096
 8745SOL    HW127134   6.478   2.445   6.014
 8745SOL    HW227135   6.435   2.566   6.115
 8746SOL     OW27136   5.328   4.367   5.407
 8746SOL    HW127137   5.391   4.290   5.398
 8746SOL    HW227138   5.290   4.390   5.317
 8747SOL     OW27139   1.908   2.230   4.279
 8747SOL    HW127140   1.978   2.187   4.337
 8747SOL    HW227141   1.946   2.248   4.189
 8748SOL     OW27142   2.386   0.165   0.017
 8748SOL    HW127143   2.360   0.075   0.053
 8748SOL    HW227144   2.319   0.233   0.046
 8749SOL     OW27145   4.123   0.672   3.615
 8749SOL    HW127146   4.088   0.604   3.679
 8749SOL    HW227147   4.167   0.746   3.667
 8750SOL     OW27148   2.273   1.340   5.132
 8750SOL    HW127149   2.284   1.426   5.183
 8750SOL    HW227150   2.266   1.264   5.196
 8751SOL     OW27151   2.042   6.923   2.886
 8751SOL    HW127152   2.128   6.936   2.936
 8751SOL    HW227153   2.043   6.833   2.842
 8752SOL     OW27154   1.492   2.316   6.123
 8752SOL    HW127155   1.415   2.373   6.093
 8752SOL    HW227156   1.556   2.305   6.047
 8753SOL     OW27157   5.151   1.110   4.819
 8753SOL    HW127158   5.250   1.099   4.821
 8753SOL    HW227159   5.123   1.140   4.727
 8754SOL     OW27160   1.343   1.777   5.449
 8754SOL    HW127161   1.356   1.806   5.354
 8754SOL    HW227162   1.314   1.681   5.450
 8755SOL     OW27163   1.985   1.952   1.099
 8755SOL    HW127164   1.942   2.012   1.167
 8755SOL    HW227165   2.031   2.008   1.030
 8756SOL     OW27166   1.957   3.329   4.410
 8756SOL    HW127167   1.888   3.358   4.476
 8756SOL    HW227168   2.001   3.409   4.371
 8757SOL     OW27169   5.184   6.150   5.219
 8757SOL    HW127170   5.113   6.124   5.285
 8757SOL    HW227171   5.175   6.247   5.196
 8758SOL     OW27172   5.963   6.366   1.595
 8758SOL    HW127173   5.877   6.316   1.584
 8758SOL    HW227174   6.029   6.336   1.527
 8759SOL     OW27175   5.257   1.024   6.065
 8759SOL    HW127176   5.318   1.063   6.134
 8759SOL    HW227177   5.163   1.053   6.083
 8760SOL     OW27178   1.737   2.058   4.040
 8760SOL    HW127179   1.782   2.112   4.112
 8760SOL    HW227180   1.782   1.969   4.032
 8761SOL     OW27181   4.474   6.927   0.059
 8761SOL    HW127182   4.425   6.917   0.146
 8761SOL    HW227183   4.569   6.949   0.077
 8762SOL     OW27184   0.841   4.051   1.158
 8762SOL    HW127185   0.755   4.036   1.109
 8762SOL    HW227186   0.895   4.121   1.112
 8763SOL     OW27187   0.482   6.323   6.162
 8763SOL    HW127188   0.579   6.310   6.141
 8763SOL    HW227189   0.441   6.384   6.094
 8764SOL     OW27190   3.528   1.671   5.326
 8764SOL    HW127191   3.626   1.659   5.343
 8764SOL    HW227192   3.513   1.760   5.283
 8765SOL     OW27193   6.971   0.395   4.128
 8765SOL    HW127194   6.942   0.348   4.045
 8765SOL    HW227195   7.004   0.328   4.195
 8766SOL     OW27196   2.186   4.553   2.193
 8766SOL    HW127197   2.214   4.528   2.101
 8766SOL    HW227198   2.160   4.471   2.244
 8767SOL     OW27199   4.357   1.213   4.199
 8767SOL    HW127200   4.276   1.225   4.257
 8767SOL    HW227201   4.335   1.243   4.106
 8768SOL     OW27202   1.183   3.270   0.148
 8768SOL    HW127203   1.280   3.260   0.173
 8768SOL    HW227204   1.174   3.267   0.049
 8769SOL     OW27205   1.857   0.191   5.575
 8769SOL    HW127206   1.915   0.246   5.636
 8769SOL    HW227207   1.890   0.096   5.574
 8770SOL     OW27208   5.696   2.180   2.114
 8770SOL    HW127209   5.791   2.151   2.129
 8770SOL    HW227210   5.636   2.132   2.179
 8771SOL     OW27211   1.175   1.915   6.374
 8771SOL    HW127212   1.166   1.821   6.342
 8771SOL    HW227213   1.263   1.953   6.344
 8772SOL     OW27214   5.158   0.673   6.985
 8772SOL    HW127215   5.160   0.745   6.915
 8772SOL    HW227216   5.240   0.679   0.023
 8773SOL     OW27217   2.916   2.245   3.436
 8773SOL    HW127218   2.848   2.308   3.473
 8773SOL    HW227219   2.874   2.155   3.420
 8774SOL     OW27220   0.903   0.722   7.008
 8774SOL    HW127221   0.853   0.731   0.077
 8774SOL    HW227222   0.952   0.807   6.989
 8775SOL     OW27223   6.587   6.939   3.414
 8775SOL    HW127224   6.595   6.842   3.392
 8775SOL    HW227225   6.492   6.960   3.437
 8776SOL     OW27226   3.394   3.302   4.902
 8776SOL    HW127227   3.391   3.272   4.997
 8776SOL    HW227228   3.320   3.257   4.851
 8777SOL     OW27229   6.774   6.013   1.411
 8777SOL    HW127230   6.703   5.960   1.458
 8777SOL    HW227231   6.862   5.995   1.454
 8778SOL     OW27232   0.477   2.254   3.185
 8778SOL    HW127233   0.422   2.303   3.253
 8778SOL    HW227234   0.442   2.274   3.094
 8779SOL     OW27235   1.407   4.265   0.659
 8779SOL    HW127236   1.433   4.170   0.674
 8779SOL    HW227237   1.308   4.275   0.668
 8780SOL     OW27238   1.453   5.448   4.013
 8780SOL    HW127239   1.485   5.505   4.089
 8780SOL    HW227240   1.527   5.439   3.946
 8781SOL     OW27241   0.312   2.250   2.055
 8781SOL    HW127242   0.290   2.175   2.116
 8781SOL    HW227243   0.301   2.221   1.960
 8782SOL     OW27244   4.539   1.766   2.580
 8782SOL    HW127245   4.590   1.681   2.595
 8782SOL    HW227246   4.486   1.788   2.661
 8783SOL     OW27247   5.635   3.415   5.479
 8783SOL    HW127248   5.593   3.387   5.393
 8783SOL    HW227249   5.574   3.390   5.555
 8784SOL     OW27250   5.409   4.444   4.897
 8784SOL    HW127251   5.468   4.516   4.861
 8784SOL    HW227252   5.317   4.455   4.860
 8785SOL     OW27253   5.972   4.496   6.234
 8785SOL    HW127254   5.901   4.565   6.220
 8785SOL    HW227255   6.033   4.526   6.308
 8786SOL     OW27256   2.033   6.655   0.091
 8786SOL    HW127257   2.090   6.574   0.073
 8786SOL    HW227258   2.078   6.713   0.158
 8787SOL     OW27259   0.408   3.301   0.531
 8787SOL    HW127260   0.370   3.280   0.622
 8787SOL    HW227261   0.336   3.339   0.473
 8788SOL     OW27262   0.987   1.884   5.505
 8788SOL    HW127263   1.077   1.849   5.477
 8788SOL    HW227264   0.947   1.936   5.429
 8789SOL     OW27265   0.121   6.839   6.296
 8789SOL    HW127266   0.176   6.907   6.343
 8789SOL    HW227267   0.027   6.843   6.330
 8790SOL     OW27268   5.620   1.818   0.464
 8790SOL    HW127269   5.713   1.799   0.496
 8790SOL    HW227270   5.590   1.906   0.501
 8791SOL     OW27271   4.806   6.468   5.484
 8791SOL    HW127272   4.708   6.483   5.498
 8791SOL    HW227273   4.834   6.511   5.399
 8792SOL     OW27274   5.107   0.039   2.815
 8792SOL    HW127275   5.196   7.016   2.795
 8792SOL    HW227276   5.106   0.070   2.911
 8793SOL     OW27277   0.841   5.611   4.155
 8793SOL    HW127278   0.819   5.623   4.252
 8793SOL    HW227279   0.907   5.537   4.144
 8794SOL     OW27280   2.519   6.797   2.567
 8794SOL    HW127281   2.582   6.743   2.623
 8794SOL    HW227282   2.434   6.745   2.553
 8795SOL     OW27283   2.100   6.127   5.668
 8795SOL    HW127284   2.091   6.030   5.691
 8795SOL    HW227285   2.065   6.142   5.575
 8796SOL     OW27286   5.279   2.079   5.027
 8796SOL    HW127287   5.197   2.116   5.069
 8796SOL    HW227288   5.326   2.019   5.092
 8797SOL     OW27289   0.629   6.374   6.634
 8797SOL    HW127290   0.577   6.429   6.699
 8797SOL    HW227291   0.709   6.426   6.603
 8798SOL     OW27292   4.795   3.722   5.427
 8798SOL    HW127293   4.791   3.793   5.356
 8798SOL    HW227294   4.727   3.652   5.406
 8799SOL     OW27295   3.338   5.766   2.887
 8799SOL    HW127296   3.382   5.697   2.945
 8799SOL    HW227297   3.397   5.847   2.881
 8800SOL     OW27298   4.361   4.748   6.873
 8800SOL    HW127299   4.295   4.730   6.946
 8800SOL    HW227300   4.339   4.693   6.793
 8801SOL     OW27301   2.675   0.288   4.993
 8801SOL    HW127302   2.732   0.342   4.932
 8801SOL    HW227303   2.717   0.287   5.084
 8802SOL     OW27304   2.809   0.195   2.340
 8802SOL    HW127305   2.742   0.269   2.339
 8802SOL    HW227306   2.796   0.139   2.421
 8803SOL     OW27307   3.948   5.985   0.946
 8803SOL    HW127308   3.996   5.902   0.919
 8803SOL    HW227309   3.986   6.063   0.895
 8804SOL     OW27310   4.354   0.500   1.005
 8804SOL    HW127311   4.437   0.458   0.968
 8804SOL    HW227312   4.369   0.525   1.101
 8805SOL     OW27313   0.500   0.348   2.773
 8805SOL    HW127314   0.560   0.331   2.851
 8805SOL    HW227315   0.405   0.344   2.802
 8806SOL     OW27316   2.138   4.693   6.752
 8806SOL    HW127317   2.223   4.699   6.700
 8806SOL    HW227318   2.093   4.605   6.732
 8807SOL     OW27319   1.411   5.835   6.203
 8807SOL    HW127320   1.393   5.741   6.232
 8807SOL    HW227321   1.333   5.893   6.227
 8808SOL     OW27322   6.278   0.980   0.935
 8808SOL    HW127323   6.226   0.972   1.020
 8808SOL    HW227324   6.336   1.062   0.939
 8809SOL     OW27325   5.854   3.926   1.378
 8809SOL    HW127326   5.832   3.949   1.473
 8809SOL    HW227327   5.951   3.903   1.370
 8810SOL     OW27328   4.842   1.776   4.126
 8810SOL    HW127329   4.751   1.740   4.145
 8810SOL    HW227330   4.851   1.866   4.170
 8811SOL     OW27331   0.996   1.578   3.460
 8811SOL    HW127332   0.952   1.635   3.391
 8811SOL    HW227333   0.956   1.487   3.459
 8812SOL     OW27334   2.184   0.563   1.062
 8812SOL    HW127335   2.213   0.653   1.091
 8812SOL    HW227336   2.133   0.519   1.136
 8813SOL     OW27337   1.626   4.862   1.071
 8813SOL    HW127338   1.648   4.798   0.997
 8813SOL    HW227339   1.528   4.879   1.072
 8814SOL     OW27340   5.507   0.630   6.583
 8814SOL    HW127341   5.521   0.715   6.636
 8814SOL    HW227342   5.441   0.572   6.631
 8815SOL     OW27343   0.587   5.955   2.575
 8815SOL    HW127344   0.658   5.994   2.633
 8815SOL    HW227345   0.565   6.019   2.501
 8816SOL     OW27346   0.923   5.855   1.186
 8816SOL    HW127347   0.924   5.764   1.145
 8816SOL    HW227348   0.842   5.905   1.155
 8817SOL     OW27349   2.500   4.764   5.367
 8817SOL    HW127350   2.574   4.792   5.429
 8817SOL    HW227351   2.518   4.671   5.335
 8818SOL     OW27352   6.999   5.180   3.940
 8818SOL    HW127353   0.034   5.210   3.861
 8818SOL    HW227354   6.901   5.198   3.924
 8819SOL     OW27355   5.135   6.990   4.447
 8819SOL    HW127356   5.201   0.019   4.505
 8819SOL    HW227357   5.044   6.993   4.491
 8820SOL     OW27358   1.485   2.444   4.057
 8820SOL    HW127359   1.423   2.522   4.069
 8820SOL    HW227360   1.442   2.375   3.999
 8821SOL     OW27361   1.929   1.128   5.986
 8821SOL    HW127362   1.830   1.127   5.970
 8821SOL    HW227363   1.947   1.121   6.084
 8822SOL     OW27364   0.260   2.557   3.176
 8822SOL    HW127365   0.255   2.598   3.085
 8822SOL    HW227366   0.332   2.603   3.229
 8823SOL     OW27367   2.333   5.843   1.709
 8823SOL    HW127368   2.253   5.839   1.768
 8823SOL    HW227369   2.407   5.891   1.757
 8824SOL     OW27370   3.895   4.094   0.812
 8824SOL    HW127371   3.910   4.037   0.731
 8824SOL    HW227372   3.920   4.043   0.894
 8825SOL     OW27373   1.002   1.565   1.268
 8825SOL    HW127374   1.098   1.561   1.296
 8825SOL    HW227375   0.982   1.487   1.208
 8826SOL     OW27376   5.804   1.481   6.871
 8826SOL    HW127377   5.832   1.460   6.964
 8826SOL    HW227378   5.835   1.408   6.809
 8827SOL     OW27379   1.243   1.431   3.525
 8827SOL    HW127380   1.212   1.367   3.595
 8827SOL    HW227381   1.164   1.480   3.488
 8828SOL     OW27382   2.119   6.416   2.660
 8828SOL    HW127383   2.060   6.343   2.695
 8828SOL    HW227384   2.214   6.385   2.660
 8829SOL     OW27385   0.106   1.812   0.168
 8829SOL    HW127386   0.103   1.759   0.083
 8829SOL    HW227387   0.201   1.835   0.190
 8830SOL     OW27388   0.604   2.099   0.410
 8830SOL    HW127389   0.572   2.054   0.494
 8830SOL    HW227390   0.704   2.100   0.409
 8831SOL     OW27391   6.688   0.593   2.884
 8831SOL    HW127392   6.679   0.647   2.967
 8831SOL    HW227393   6.723   0.651   2.810
 8832SOL     OW27394   0.192   1.259   2.293
 8832SOL    HW127395   0.097   1.259   2.261
 8832SOL    HW227396   0.211   1.345   2.340
 8833SOL     OW27397   2.287   4.754   3.752
 8833SOL    HW127398   2.239   4.684   3.806
 8833SOL    HW227399   2.252   4.754   3.659
 8834SOL     OW27400   5.624   3.962   4.615
 8834SOL    HW127401   5.536   3.970   4.663
 8834SOL    HW227402   5.699   3.975   4.681
 8835SOL     OW27403   0.220   6.684   6.697
 8835SOL    HW127404   0.256   6.621   6.628
 8835SOL    HW227405   0.139   6.643   6.740
 8836SOL     OW27406   4.987   2.135   0.815
 8836SOL    HW127407   4.899   2.094   0.841
 8836SOL    HW227408   5.000   2.127   0.716
 8837SOL     OW27409   0.353   1.043   1.524
 8837SOL    HW127410   0.398   1.130   1.505
 8837SOL    HW227411   0.329   1.038   1.620
 8838SOL     OW27412   2.289   5.488   3.866
 8838SOL    HW127413   2.323   5.563   3.809
 8838SOL    HW227414   2.270   5.523   3.958
 8839SOL     OW27415   6.414   6.485   3.695
 8839SOL    HW127416   6.511   6.460   3.688
 8839SOL    HW227417   6.406   6.575   3.738
 8840SOL     OW27418   5.247   1.869   2.031
 8840SOL    HW127419   5.326   1.891   2.088
 8840SOL    HW227420   5.178   1.823   2.088
 8841SOL     OW27421   1.637   0.675   4.405
 8841SOL    HW127422   1.683   0.693   4.318
 8841SOL    HW227423   1.549   0.722   4.407
 8842SOL     OW27424   2.132   3.029   2.205
 8842SOL    HW127425   2.176   3.011   2.293
 8842SOL    HW227426   2.132   3.127   2.187
 8843SOL     OW27427   0.344   3.110   4.650
 8843SOL    HW127428   0.265   3.095   4.709
 8843SOL    HW227429   0.426   3.073   4.694
 8844SOL     OW27430   6.729   1.772   6.494
 8844SOL    HW127431   6.652   1.727   6.540
 8844SOL    HW227432   6.780   1.827   6.560
 8845SOL     OW27433   5.527   4.585   6.932
 8845SOL    HW127434   5.533   4.685   6.929
 8845SOL    HW227435   5.470   4.557   7.009
 8846SOL     OW27436   1.756   4.629   3.437
 8846SOL    HW127437   1.831   4.687   3.404
 8846SOL    HW227438   1.669   4.677   3.425
 8847SOL     OW27439   2.816   0.885   2.588
 8847SOL    HW127440   2.798   0.808   2.649
 8847SOL    HW227441   2.731   0.911   2.541
 8848SOL     OW27442   1.597   0.224   2.782
 8848SOL    HW127443   1.530   0.204   2.711
 8848SOL    HW227444   1.593   0.153   2.853
 8849SOL     OW27445   2.837   6.870   1.111
 8849SOL    HW127446   2.929   6.848   1.079
 8849SOL    HW227447   2.821   6.968   1.104
 8850SOL     OW27448   3.121   2.765   0.254
 8850SOL    HW127449   3.178   2.846   0.260
 8850SOL    HW227450   3.165   2.698   0.194
 8851SOL     OW27451   1.431   3.431   3.100
 8851SOL    HW127452   1.506   3.366   3.098
 8851SOL    HW227453   1.374   3.419   3.019
 8852SOL     OW27454   0.847   1.979   5.938
 8852SOL    HW127455   0.939   1.982   5.977
 8852SOL    HW227456   0.816   2.073   5.920
 8853SOL     OW27457   5.302   1.150   1.244
 8853SOL    HW127458   5.261   1.218   1.183
 8853SOL    HW227459   5.401   1.146   1.228
 8854SOL     OW27460   1.016   2.421   4.898
 8854SOL    HW127461   1.090   2.414   4.831
 8854SOL    HW227462   1.053   2.451   4.986
 8855SOL     OW27463   5.728   5.480   0.927
 8855SOL    HW127464   5.729   5.402   0.990
 8855SOL    HW227465   5.643   5.481   0.876
 8856SOL     OW27466   6.781   0.054   5.775
 8856SOL    HW127467   6.750   0.011   5.690
 8856SOL    HW227468   6.861   0.112   5.756
 8857SOL     OW27469   6.406   1.717   6.202
 8857SOL    HW127470   6.479   1.739   6.137
 8857SOL    HW227471   6.384   1.620   6.197
 8858SOL     OW27472   5.638   5.921   4.429
 8858SOL    HW127473   5.700   5.842   4.431
 8858SOL    HW227474   5.585   5.923   4.514
 8859SOL     OW27475   0.660   6.398   3.443
 8859SOL    HW127476   0.732   6.333   3.466
 8859SOL    HW227477   0.617   6.431   3.527
 8860SOL     OW27478   0.305   4.254   2.789
 8860SOL    HW127479   0.286   4.279   2.884
 8860SOL    HW227480   0.388   4.197   2.786
 8861SOL     OW27481   4.286   3.016   0.788
 8861SOL    HW127482   4.305   2.940   0.850
 8861SOL    HW227483   4.356   3.019   0.717
 8862SOL     OW27484   4.739   4.602   5.047
 8862SOL    HW127485   4.677   4.525   5.060
 8862SOL    HW227486   4.799   4.609   5.126
 8863SOL     OW27487   2.142   3.944   3.486
 8863SOL    HW127488   2.207   3.961   3.412
 8863SOL    HW227489   2.071   3.882   3.454
 8864SOL     OW27490   6.152   1.901   5.447
 8864SOL    HW127491   6.179   1.810   5.478
 8864SOL    HW227492   6.163   1.907   5.348
 8865SOL     OW27493   2.605   1.423   0.550
 8865SOL    HW127494   2.525   1.446   0.604
 8865SOL    HW227495   2.658   1.506   0.529
 8866SOL     OW27496   6.097   6.715   2.236
 8866SOL    HW127497   6.003   6.745   2.220
 8866SOL    HW227498   6.108   6.621   2.201
 8867SOL     OW27499   6.388   3.748   3.078
 8867SOL    HW127500   6.418   3.658   3.110
 8867SOL    HW227501   6.468   3.805   3.061
 8868SOL     OW27502   6.736   2.954   3.562
 8868SOL    HW127503   6.778   2.949   3.471
 8868SOL    HW227504   6.644   2.915   3.558
 8869SOL     OW27505   3.833   6.805   3.470
 8869SOL    HW127506   3.774   6.737   3.427
 8869SOL    HW227507   3.887   6.762   3.542
 8870SOL     OW27508   1.278   0.548   2.823
 8870SOL    HW127509   1.230   0.626   2.781
 8870SOL    HW227510   1.372   0.545   2.789
 8871SOL     OW27511   6.920   0.556   2.591
 8871SOL    HW127512   6.872   0.480   2.634
 8871SOL    HW227513   6.861   0.637   2.589
 8872SOL     OW27514   6.417   4.507   3.613
 8872SOL    HW127515   6.379   4.502   3.705
 8872SOL    HW227516   6.342   4.510   3.546
 8873SOL     OW27517   1.977   1.604   2.807
 8873SOL    HW127518   1.950   1.509   2.823
 8873SOL    HW227519   1.895   1.659   2.790
 8874SOL     OW27520   3.369   6.173   1.195
 8874SOL    HW127521   3.336   6.086   1.231
 8874SOL    HW227522   3.304   6.246   1.219
 8875SOL     OW27523   6.723   3.240   4.493
 8875SOL    HW127524   6.759   3.300   4.421
 8875SOL    HW227525   6.698   3.295   4.573
 8876SOL     OW27526   4.394   0.310   6.468
 8876SOL    HW127527   4.305   0.333   6.429
 8876SOL    HW227528   4.462   0.376   6.436
 8877SOL     OW27529   0.988   4.256   1.093
 8877SOL    HW127530   0.972   4.354   1.106
 8877SOL    HW227531   1.083   4.241   1.069
 8878SOL     OW27532   4.342   4.034   0.935
 8878SOL    HW127533   4.300   3.943   0.928
 8878SOL    HW227534   4.330   4.083   0.849
 8879SOL     OW27535   6.634   4.724   2.991
 8879SOL    HW127536   6.687   4.651   3.034
 8879SOL    HW227537   6.670   4.743   2.900
 8880SOL     OW27538   4.361   1.128   3.723
 8880SOL    HW127539   4.397   1.221   3.715
 8880SOL    HW227540   4.367   1.083   3.634
 8881SOL     OW27541   3.736   4.948   4.272
 8881SOL    HW127542   3.692   4.859   4.283
 8881SOL    HW227543   3.834   4.940   4.291
 8882SOL     OW27544   4.414   0.830   0.754
 8882SOL    HW127545   4.335   0.804   0.699
 8882SOL    HW227546   4.457   0.912   0.715
 8883SOL     OW27547   6.882   6.429   4.935
 8883SOL    HW127548   6.979   6.412   4.918
 8883SOL    HW227549   6.827   6.370   4.877
 8884SOL     OW27550   4.983   3.657   5.242
 8884SOL    HW127551   4.922   3.624   5.169
 8884SOL    HW227552   4.931   3.667   5.327
 8885SOL     OW27553   5.934   6.068   0.844
 8885SOL    HW127554   5.851   6.014   0.862
 8885SOL    HW227555   5.981   6.030   0.765
 8886SOL     OW27556   4.254   5.632   6.497
 8886SOL    HW127557   4.176   5.650   6.557
 8886SOL    HW227558   4.238   5.673   6.408
 8887SOL     OW27559   4.879   0.357   1.821
 8887SOL    HW127560   4.827   0.421   1.878
 8887SOL    HW227561   4.940   0.409   1.761
 8888SOL     OW27562   3.167   2.132   2.710
 8888SOL    HW127563   3.132   2.118   2.802
 8888SOL    HW227564   3.260   2.168   2.715
 8889SOL     OW27565   1.478   5.349   6.283
 8889SOL    HW127566   1.557   5.410   6.289
 8889SOL    HW227567   1.442   5.351   6.190
 8890SOL     OW27568   0.873   6.057   0.138
 8890SOL    HW127569   0.873   5.957   0.150
 8890SOL    HW227570   0.961   6.086   0.102
 8891SOL     OW27571   6.541   3.986   6.000
 8891SOL    HW127572   6.484   4.029   5.930
 8891SOL    HW227573   6.601   3.919   5.957
 8892SOL     OW27574   3.250   5.482   4.711
 8892SOL    HW127575   3.195   5.439   4.783
 8892SOL    HW227576   3.336   5.431   4.701
 8893SOL     OW27577   0.828   5.134   5.279
 8893SOL    HW127578   0.767   5.153   5.355
 8893SOL    HW227579   0.902   5.074   5.309
 8894SOL     OW27580   4.582   2.038   0.750
 8894SOL    HW127581   4.651   1.987   0.697
 8894SOL    HW227582   4.608   2.135   0.754
 8895SOL     OW27583   6.847   3.708   0.573
 8895SOL    HW127584   6.902   3.625   0.583
 8895SOL    HW227585   6.902   3.779   0.530
 8896SOL     OW27586   0.432   2.127   4.307
 8896SOL    HW127587   0.431   2.117   4.207
 8896SOL    HW227588   0.341   2.105   4.343
 8897SOL     OW27589   1.783   4.671   4.089
 8897SOL    HW127590   1.734   4.588   4.113
 8897SOL    HW227591   1.767   4.741   4.158
 8898SOL     OW27592   4.737   4.184   2.689
 8898SOL    HW127593   4.710   4.204   2.595
 8898SOL    HW227594   4.681   4.238   2.752
 8899SOL     OW27595   1.192   3.723   3.671
 8899SOL    HW127596   1.120   3.793   3.672
 8899SOL    HW227597   1.282   3.767   3.673
 8900SOL     OW27598   4.748   2.361   4.250
 8900SOL    HW127599   4.774   2.284   4.192
 8900SOL    HW227600   4.662   2.400   4.218
 8901SOL     OW27601   1.340   3.982   4.548
 8901SOL    HW127602   1.295   4.057   4.597
 8901SOL    HW227603   1.332   3.996   4.450
 8902SOL     OW27604   0.366   4.475   0.402
 8902SOL    HW127605   0.275   4.485   0.360
 8902SOL    HW227606   0.356   4.450   0.498
 8903SOL     OW27607   1.016   6.938   5.230
 8903SOL    HW127608   1.042   6.926   5.326
 8903SOL    HW227609   1.090   6.982   5.180
 8904SOL     OW27610   0.156   1.004   3.273
 8904SOL    HW127611   0.144   0.962   3.363
 8904SOL    HW227612   0.235   0.963   3.227
 8905SOL     OW27613   1.004   3.516   2.514
 8905SOL    HW127614   1.037   3.486   2.425
 8905SOL    HW227615   1.077   3.565   2.562
 8906SOL     OW27616   6.130   6.832   6.852
 8906SOL    HW127617   6.227   6.855   6.858
 8906SOL    HW227618   6.086   6.849   6.940
 8907SOL     OW27619   2.720   3.623   5.328
 8907SOL    HW127620   2.638   3.679   5.323
 8907SOL    HW227621   2.776   3.638   5.246
 8908SOL     OW27622   1.294   4.787   6.984
 8908SOL    HW127623   1.283   4.817   6.889
 8908SOL    HW227624   1.217   4.821   0.021
 8909SOL     OW27625   1.902   6.768   1.556
 8909SOL    HW127626   1.910   6.867   1.572
 8909SOL    HW227627   1.858   6.753   1.467
 8910SOL     OW27628   1.667   0.240   3.772
 8910SOL    HW127629   1.640   0.146   3.791
 8910SOL    HW227630   1.645   0.262   3.676
 8911SOL     OW27631   4.150   2.273   4.756
 8911SOL    HW127632   4.115   2.194   4.808
 8911SOL    HW227633   4.173   2.347   4.819
 8912SOL     OW27634   3.688   3.788   4.365
 8912SOL    HW127635   3.759   3.853   4.393
 8912SOL    HW227636   3.601   3.814   4.406
 8913SOL     OW27637   5.334   6.169   0.077
 8913SOL    HW127638   5.273   6.244   0.101
 8913SOL    HW227639   5.327   6.149   6.997
 8914SOL     OW27640   4.842   5.194   6.545
 8914SOL    HW127641   4.882   5.134   6.475
 8914SOL    HW227642   4.745   5.174   6.555
 8915SOL     OW27643   1.388   0.973   3.048
 8915SOL    HW127644   1.330   1.016   2.978
 8915SOL    HW227645   1.333   0.957   3.131
 8916SOL     OW27646   4.991   1.180   0.860
 8916SOL    HW127647   4.997   1.201   0.958
 8916SOL    HW227648   5.027   1.257   0.807
 8917SOL     OW27649   5.798   2.011   0.942
 8917SOL    HW127650   5.860   1.984   1.016
 8917SOL    HW227651   5.719   1.951   0.941
 8918SOL     OW27652   0.418   3.712   2.941
 8918SOL    HW127653   0.337   3.670   2.981
 8918SOL    HW227654   0.407   3.718   2.842
 8919SOL     OW27655   6.335   3.490   1.435
 8919SOL    HW127656   6.419   3.545   1.437
 8919SOL    HW227657   6.357   3.399   1.399
 8920SOL     OW27658   6.477   1.382   0.293
 8920SOL    HW127659   6.476   1.282   0.289
 8920SOL    HW227660   6.539   1.411   0.366
 8921SOL     OW27661   2.035   3.116   2.594
 8921SOL    HW127662   2.033   3.017   2.607
 8921SOL    HW227663   2.089   3.159   2.666
 8922SOL     OW27664   4.396   6.011   4.157
 8922SOL    HW127665   4.440   5.927   4.190
 8922SOL    HW227666   4.319   6.034   4.217
 8923SOL     OW27667   2.104   1.536   4.385
 8923SOL    HW127668   2.010   1.510   4.407
 8923SOL    HW227669   2.106   1.628   4.347
 8924SOL     OW27670   6.336   5.055   4.848
 8924SOL    HW127671   6.335   5.138   4.792
 8924SOL    HW227672   6.252   5.003   4.832
 8925SOL     OW27673   0.989   6.066   2.595
 8925SOL    HW127674   0.952   6.158   2.585
 8925SOL    HW227675   0.922   6.000   2.562
 8926SOL     OW27676   5.487   1.682   6.429
 8926SOL    HW127677   5.514   1.779   6.433
 8926SOL    HW227678   5.451   1.654   6.518
 8927SOL     OW27679   1.536   0.963   5.639
 8927SOL    HW127680   1.480   1.037   5.599
 8927SOL    HW227681   1.502   0.941   5.730
 8928SOL     OW27682   1.233   6.223   5.248
 8928SOL    HW127683   1.252   6.241   5.345
 8928SOL    HW227684   1.182   6.137   5.240
 8929SOL     OW27685   0.308   1.947   4.689
 8929SOL    HW127686   0.269   1.888   4.760
 8929SOL    HW227687   0.235   1.978   4.628
 8930SOL     OW27688   1.946   4.473   3.653
 8930SOL    HW127689   1.875   4.517   3.597
 8930SOL    HW227690   1.903   4.407   3.715
 8931SOL     OW27691   4.120   2.877   0.607
 8931SOL    HW127692   4.166   2.943   0.666
 8931SOL    HW227693   4.188   2.818   0.564
 8932SOL     OW27694   0.597   3.303   3.437
 8932SOL    HW127695   0.659   3.380   3.449
 8932SOL    HW227696   0.599   3.272   3.342
 8933SOL     OW27697   3.724   2.072   5.258
 8933SOL    HW127698   3.756   2.166   5.249
 8933SOL    HW227699   3.793   2.009   5.222
 8934SOL     OW27700   2.936   5.563   3.101
 8934SOL    HW127701   3.021   5.533   3.058
 8934SOL    HW227702   2.865   5.572   3.032
 8935SOL     OW27703   0.188   4.376   1.178
 8935SOL    HW127704   0.156   4.411   1.267
 8935SOL    HW227705   0.109   4.359   1.119
 8936SOL     OW27706   2.879   2.208   1.067
 8936SOL    HW127707   2.975   2.189   1.085
 8936SOL    HW227708   2.852   2.161   0.983
 8937SOL     OW27709   0.330   6.120   5.855
 8937SOL    HW127710   0.286   6.110   5.766
 8937SOL    HW227711   0.356   6.216   5.869
 8938SOL     OW27712   5.471   5.720   1.395
 8938SOL    HW127713   5.549   5.736   1.456
 8938SOL    HW227714   5.504   5.678   1.310
 8939SOL     OW27715   4.569   2.056   5.059
 8939SOL    HW127716   4.523   2.016   4.979
 8939SOL    HW227717   4.504   2.111   5.111
 8940SOL     OW27718   5.872   0.514   2.937
 8940SOL    HW127719   5.860   0.447   3.011
 8940SOL    HW227720   5.867   0.467   2.849
 8941SOL     OW27721   4.995   2.043   6.387
 8941SOL    HW127722   5.035   1.957   6.419
 8941SOL    HW227723   5.043   2.074   6.305
 8942SOL     OW27724   0.500   2.509   5.434
 8942SOL    HW127725   0.414   2.460   5.452
 8942SOL    HW227726   0.479   2.600   5.397
 8943SOL     OW27727   5.351   4.056   0.981
 8943SOL    HW127728   5.435   4.099   1.014
 8943SOL    HW227729   5.282   4.057   1.054
 8944SOL     OW27730   4.355   5.467   1.015
 8944SOL    HW127731   4.380   5.417   1.099
 8944SOL    HW227732   4.258   5.491   1.018
 8945SOL     OW27733   1.720   0.771   4.151
 8945SOL    HW127734   1.738   0.673   4.156
 8945SOL    HW227735   1.657   0.790   4.075
 8946SOL     OW27736   3.818   1.818   4.218
 8946SOL    HW127737   3.753   1.753   4.259
 8946SOL    HW227738   3.803   1.822   4.119
 8947SOL     OW27739   4.088   3.713   5.134
 8947SOL    HW127740   4.125   3.657   5.060
 8947SOL    HW227741   4.143   3.699   5.217
 8948SOL     OW27742   6.300   5.262   3.059
 8948SOL    HW127743   6.313   5.354   3.022
 8948SOL    HW227744   6.335   5.259   3.153
 8949SOL     OW27745   1.990   6.080   0.453
 8949SOL    HW127746   2.071   6.135   0.433
 8949SOL    HW227747   1.969   6.087   0.551
 8950SOL     OW27748   4.755   2.495   4.871
 8950SOL    HW127749   4.719   2.520   4.781
 8950SOL    HW227750   4.854   2.480   4.864
 8951SOL     OW27751   2.220   2.522   5.618
 8951SOL    HW127752   2.228   2.456   5.694
 8951SOL    HW227753   2.151   2.590   5.640
 8952SOL     OW27754   6.466   0.457   2.835
 8952SOL    HW127755   6.377   0.502   2.845
 8952SOL    HW227756   6.538   0.519   2.865
 8953SOL     OW27757   1.596   3.688   6.664
 8953SOL    HW127758   1.500   3.683   6.639
 8953SOL    HW227759   1.645   3.609   6.625
 8954SOL     OW27760   2.018   5.877   5.774
 8954SOL    HW127761   2.059   5.803   5.720
 8954SOL    HW227762   1.919   5.866   5.776
 8955SOL     OW27763   6.186   3.895   3.198
 8955SOL    HW127764   6.255   3.833   3.161
 8955SOL    HW227765   6.096   3.853   3.192
 8956SOL     OW27766   1.133   0.906   5.947
 8956SOL    HW127767   1.092   0.818   5.968
 8956SOL    HW227768   1.174   0.903   5.856
 8957SOL     OW27769   3.084   4.824   2.182
 8957SOL    HW127770   3.138   4.741   2.191
 8957SOL    HW227771   2.987   4.803   2.193
 8958SOL     OW27772   2.105   0.007   4.153
 8958SOL    HW127773   2.172   0.073   4.118
 8958SOL    HW227774   2.109   6.942   4.098
 8959SOL     OW27775   2.141   4.148   1.190
 8959SOL    HW127776   2.052   4.167   1.232
 8959SOL    HW227777   2.128   4.098   1.105
 8960SOL     OW27778   3.761   6.112   1.437
 8960SOL    HW127779   3.792   6.186   1.496
 8960SOL    HW227780   3.721   6.151   1.353
 8961SOL     OW27781   1.089   1.739   3.715
 8961SOL    HW127782   1.098   1.673   3.641
 8961SOL    HW227783   1.139   1.823   3.692
 8962SOL     OW27784   5.120   0.120   3.514
 8962SOL    HW127785   5.162   0.158   3.432
 8962SOL    HW227786   5.021   0.109   3.499
 8963SOL     OW27787   6.687   0.766   4.109
 8963SOL    HW127788   6.726   0.710   4.182
 8963SOL    HW227789   6.743   0.848   4.096
 8964SOL     OW27790   6.014   5.135   2.773
 8964SOL    HW127791   6.083   5.200   2.806
 8964SOL    HW227792   6.056   5.046   2.759
 8965SOL     OW27793   1.297   5.030   1.792
 8965SOL    HW127794   1.313   4.932   1.782
 8965SOL    HW227795   1.375   5.081   1.754
 8966SOL     OW27796   2.768   2.767   5.381
 8966SOL    HW127797   2.749   2.858   5.344
 8966SOL    HW227798   2.841   2.724   5.328
 8967SOL     OW27799   3.955   0.634   0.457
 8967SOL    HW127800   4.031   0.627   0.393
 8967SOL    HW227801   3.871   0.601   0.413
 8968SOL     OW27802   5.268   4.941   2.362
 8968SOL    HW127803   5.262   5.041   2.366
 8968SOL    HW227804   5.363   4.914   2.350
 8969SOL     OW27805   6.384   0.876   4.391
 8969SOL    HW127806   6.292   0.854   4.359
 8969SOL    HW227807   6.421   0.799   4.443
 8970SOL     OW27808   3.654   2.339   1.441
 8970SOL    HW127809   3.625   2.365   1.534
 8970SOL    HW227810   3.626   2.245   1.422
 8971SOL     OW27811   3.779   5.616   2.605
 8971SOL    HW127812   3.775   5.696   2.545
 8971SOL    HW227813   3.807   5.645   2.697
 8972SOL     OW27814   5.506   0.417   4.840
 8972SOL    HW127815   5.605   0.404   4.827
 8972SOL    HW227816   5.458   0.337   4.807
 8973SOL     OW27817   1.675   5.336   6.952
 8973SOL    HW127818   1.677   5.399   0.011
 8973SOL    HW227819   1.749   5.360   6.888
 8974SOL     OW27820   0.392   3.223   4.360
 8974SOL    HW127821   0.387   3.238   4.459
 8974SOL    HW227822   0.487   3.229   4.330
 8975SOL     OW27823   2.844   0.070   0.503
 8975SOL    HW127824   2.803   0.021   0.427
 8975SOL    HW227825   2.934   0.104   0.476
 8976SOL     OW27826   0.309   5.538   4.485
 8976SOL    HW127827   0.295   5.459   4.426
 8976SOL    HW227828   0.359   5.609   4.435
 8977SOL     OW27829   5.868   1.564   6.041
 8977SOL    HW127830   5.783   1.616   6.049
 8977SOL    HW227831   5.945   1.620   6.072
 8978SOL     OW27832   5.605   6.342   0.933
 8978SOL    HW127833   5.573   6.252   0.962
 8978SOL    HW227834   5.628   6.340   0.835
 8979SOL     OW27835   1.824   4.527   4.396
 8979SOL    HW127836   1.894   4.532   4.325
 8979SOL    HW227837   1.869   4.519   4.485
 8980SOL     OW27838   3.588   2.925   4.603
 8980SOL    HW127839   3.684   2.932   4.630
 8980SOL    HW227840   3.581   2.926   4.503
 8981SOL     OW27841   3.370   1.967   5.485
 8981SOL    HW127842   3.406   1.988   5.393
 8981SOL    HW227843   3.442   1.925   5.540
 8982SOL     OW27844   2.969   4.580   0.958
 8982SOL    HW127845   2.957   4.646   1.032
 8982SOL    HW227846   2.880   4.554   0.921
 8983SOL     OW27847   4.972   5.098   0.535
 8983SOL    HW127848   5.006   5.040   0.460
 8983SOL    HW227849   4.937   5.183   0.497
 8984SOL     OW27850   1.916   5.919   3.250
 8984SOL    HW127851   1.986   5.982   3.216
 8984SOL    HW227852   1.961   5.837   3.286
 8985SOL     OW27853   3.322   3.128   6.332
 8985SOL    HW127854   3.234   3.173   6.350
 8985SOL    HW227855   3.315   3.031   6.358
 8986SOL     OW27856   3.477   6.011   2.821
 8986SOL    HW127857   3.540   6.082   2.852
 8986SOL    HW227858   3.507   5.976   2.733
 8987SOL     OW27859   5.068   6.550   2.383
 8987SOL    HW127860   5.137   6.622   2.379
 8987SOL    HW227861   4.979   6.589   2.360
 8988SOL     OW27862   0.472   5.598   4.683
 8988SOL    HW127863   0.419   5.618   4.765
 8988SOL    HW227864   0.411   5.569   4.610
 8989SOL     OW27865   3.328   2.880   6.440
 8989SOL    HW127866   3.252   2.820   6.467
 8989SOL    HW227867   3.414   2.839   6.469
 8990SOL     OW27868   0.314   6.112   4.105
 8990SOL    HW127869   0.291   6.170   4.027
 8990SOL    HW227870   0.364   6.165   4.173
 8991SOL     OW27871   0.977   2.255   5.180
 8991SOL    HW127872   1.047   2.274   5.250
 8991SOL    HW227873   1.021   2.220   5.098
 8992SOL     OW27874   5.783   2.019   6.666
 8992SOL    HW127875   5.843   1.959   6.717
 8992SOL    HW227876   5.713   2.056   6.727
 8993SOL     OW27877   4.594   2.407   0.078
 8993SOL    HW127878   4.576   2.444   0.170
 8993SOL    HW227879   4.508   2.379   0.037
 8994SOL     OW27880   1.714   5.128   4.103
 8994SOL    HW127881   1.755   5.194   4.040
 8994SOL    HW227882   1.690   5.174   4.189
 8995SOL     OW27883   6.869   1.636   0.838
 8995SOL    HW127884   6.861   1.561   0.773
 8995SOL    HW227885   6.908   1.716   0.793
 8996SOL     OW27886   5.175   4.739   5.973
 8996SOL    HW127887   5.231   4.679   6.030
 8996SOL    HW227888   5.130   4.686   5.901
 8997SOL     OW27889   5.376   0.628   4.685
 8997SOL    HW127890   5.441   0.703   4.697
 8997SOL    HW227891   5.415   0.543   4.720
 8998SOL     OW27892   6.373   3.434   4.313
 8998SOL    HW127893   6.354   3.453   4.409
 8998SOL    HW227894   6.296   3.386   4.272
 8999SOL     OW27895   4.248   6.340   6.193
 8999SOL    HW127896   4.250   6.374   6.287
 8999SOL    HW227897   4.324   6.276   6.179
 9000SOL     OW27898   1.755   3.716   1.464
 9000SOL    HW127899   1.744   3.640   1.528
 9000SOL    HW227900   1.799   3.793   1.510
 9001SOL     OW27901   0.907   5.327   2.507
 9001SOL    HW127902   0.846   5.347   2.583
 9001SOL    HW227903   0.956   5.410   2.481
 9002SOL     OW27904   0.952   4.019   0.168
 9002SOL    HW127905   0.914   4.057   0.253
 9002SOL    HW227906   0.932   3.921   0.163
 9003SOL     OW27907   5.646   0.910   1.340
 9003SOL    HW127908   5.567   0.870   1.293
 9003SOL    HW227909   5.727   0.855   1.320
 9004SOL     OW27910   4.425   4.982   0.679
 9004SOL    HW127911   4.422   4.909   0.611
 9004SOL    HW227912   4.433   4.942   0.770
 9005SOL     OW27913   5.568   1.471   5.183
 9005SOL    HW127914   5.574   1.416   5.266
 9005SOL    HW227915   5.485   1.447   5.133
 9006SOL     OW27916   3.491   5.623   0.870
 9006SOL    HW127917   3.486   5.523   0.866
 9006SOL    HW227918   3.429   5.663   0.803
 9007SOL     OW27919   2.421   1.434   2.964
 9007SOL    HW127920   2.501   1.456   2.910
 9007SOL    HW227921   2.420   1.336   2.984
 9008SOL     OW27922   0.270   5.383   2.857
 9008SOL    HW127923   0.207   5.454   2.825
 9008SOL    HW227924   0.311   5.411   2.943
 9009SOL     OW27925   4.364   5.963   0.842
 9009SOL    HW127926   4.295   5.950   0.771
 9009SOL    HW227927   4.368   5.881   0.900
 9010SOL     OW27928   1.736   6.424   4.105
 9010SOL    HW127929   1.746   6.507   4.159
 9010SOL    HW227930   1.827   6.391   4.078
 9011SOL     OW27931   2.999   1.367   2.223
 9011SOL    HW127932   2.919   1.388   2.280
 9011SOL    HW227933   3.064   1.443   2.227
 9012SOL     OW27934   1.776   6.024   6.354
 9012SOL    HW127935   1.754   6.056   6.446
 9012SOL    HW227936   1.870   6.051   6.332
 9013SOL     OW27937   1.428   6.760   4.050
 9013SOL    HW127938   1.516   6.743   4.094
 9013SOL    HW227939   1.443   6.811   3.964
 9014SOL     OW27940   5.792   2.744   3.014
 9014SOL    HW127941   5.791   2.843   3.002
 9014SOL    HW227942   5.699   2.708   3.003
 9015SOL     OW27943   5.243   1.725   0.031
 9015SOL    HW127944   5.154   1.752   7.013
 9015SOL    HW227945   5.315   1.769   6.996
 9016SOL     OW27946   5.582   5.435   6.367
 9016SOL    HW127947   5.560   5.495   6.444
 9016SOL    HW227948   5.659   5.473   6.316
 9017SOL     OW27949   3.524   0.770   4.167
 9017SOL    HW127950   3.536   0.846   4.104
 9017SOL    HW227951   3.502   0.687   4.116
 9018SOL     OW27952   4.352   3.781   6.438
 9018SOL    HW127953   4.364   3.872   6.398
 9018SOL    HW227954   4.293   3.726   6.378
 9019SOL     OW27955   0.478   3.476   3.709
 9019SOL    HW127956   0.469   3.468   3.808
 9019SOL    HW227957   0.395   3.440   3.665
 9020SOL     OW27958   6.257   6.478   2.065
 9020SOL    HW127959   6.228   6.478   1.969
 9020SOL    HW227960   6.355   6.496   2.070
 9021SOL     OW27961   0.167   0.541   4.061
 9021SOL    HW127962   0.222   0.464   4.031
 9021SOL    HW227963   0.083   0.507   4.105
 9022SOL     OW27964   4.377   2.685   6.211
 9022SOL    HW127965   4.303   2.631   6.250
 9022SOL    HW227966   4.339   2.766   6.165
 9023SOL     OW27967   5.259   3.845   0.826
 9023SOL    HW127968   5.316   3.918   0.865
 9023SOL    HW227969   5.236   3.779   0.898
 9024SOL     OW27970   1.853   5.038   6.402
 9024SOL    HW127971   1.770   5.009   6.354
 9024SOL    HW227972   1.897   4.958   6.443
 9025SOL     OW27973   0.944   5.498   0.830
 9025SOL    HW127974   0.858   5.470   0.788
 9025SOL    HW227975   1.018   5.440   0.796
 9026SOL     OW27976   4.187   1.433   0.407
 9026SOL    HW127977   4.153   1.499   0.340
 9026SOL    HW227978   4.217   1.482   0.489
 9027SOL     OW27979   0.088   3.651   3.356
 9027SOL    HW127980   0.179   3.660   3.397
 9027SOL    HW227981   0.082   3.566   3.305
 9028SOL     OW27982   3.344   4.230   5.650
 9028SOL    HW127983   3.374   4.157   5.711
 9028SOL    HW227984   3.394   4.223   5.564
 9029SOL     OW27985   4.242   6.716   4.979
 9029SOL    HW127986   4.168   6.747   5.038
 9029SOL    HW227987   4.241   6.616   4.975
 9030SOL     OW27988   2.307   1.827   3.058
 9030SOL    HW127989   2.275   1.921   3.059
 9030SOL    HW227990   2.338   1.803   2.966
 9031SOL     OW27991   4.340   0.164   4.923
 9031SOL    HW127992   4.368   0.110   4.844
 9031SOL    HW227993   4.390   0.251   4.923
 9032SOL     OW27994   4.664   3.910   1.690
 9032SOL    HW127995   4.741   3.847   1.681
 9032SOL    HW227996   4.690   3.986   1.749
 9033SOL     OW27997   1.115   5.960   3.309
 9033SOL    HW127998   1.154   6.051   3.291
 9033SOL    HW227999   1.173   5.911   3.373
 9034SOL     OW28000   3.961   6.309   4.378
 9034SOL    HW128001   3.963   6.343   4.284
 9034SOL    HW228002   3.878   6.343   4.423
 9035SOL     OW28003   1.093   5.051   0.117
 9035SOL    HW128004   1.031   5.065   0.040
 9035SOL    HW228005   1.181   5.093   0.098
 9036SOL     OW28006   1.570   3.388   5.838
 9036SOL    HW128007   1.583   3.465   5.901
 9036SOL    HW228008   1.588   3.418   5.745
 9037SOL     OW28009   0.890   1.763   2.843
 9037SOL    HW128010   0.829   1.706   2.899
 9037SOL    HW228011   0.923   1.840   2.897
 9038SOL     OW28012   4.302   3.518   5.161
 9038SOL    HW128013   4.326   3.511   5.064
 9038SOL    HW228014   4.229   3.454   5.182
 9039SOL     OW28015   3.917   5.509   0.412
 9039SOL    HW128016   3.914   5.501   0.512
 9039SOL    HW228017   4.006   5.545   0.384
 9040SOL     OW28018   2.246   1.611   0.911
 9040SOL    HW128019   2.318   1.546   0.936
 9040SOL    HW228020   2.220   1.664   0.991
 9041SOL     OW28021   0.312   1.965   1.557
 9041SOL    HW128022   0.252   1.895   1.519
 9041SOL    HW228023   0.406   1.949   1.527
 9042SOL     OW28024   3.807   5.898   6.561
 9042SOL    HW128025   3.786   5.809   6.600
 9042SOL    HW228026   3.725   5.935   6.516
 9043SOL     OW28027   3.167   1.660   0.273
 9043SOL    HW128028   3.203   1.710   0.194
 9043SOL    HW228029   3.104   1.719   0.324
 9044SOL     OW28030   0.427   0.612   6.663
 9044SOL    HW128031   0.378   0.644   6.582
 9044SOL    HW228032   0.432   0.512   6.662
 9045SOL     OW28033   4.143   1.383   3.573
 9045SOL    HW128034   4.238   1.411   3.588
 9045SOL    HW228035   4.133   1.348   3.480
 9046SOL     OW28036   3.415   3.776   2.920
 9046SOL    HW128037   3.435   3.698   2.979
 9046SOL    HW228038   3.385   3.853   2.976
 9047SOL     OW28039   1.216   3.674   6.127
 9047SOL    HW128040   1.278   3.638   6.057
 9047SOL    HW228041   1.240   3.769   6.146
 9048SOL     OW28042   6.328   1.951   6.283
 9048SOL    HW128043   6.396   1.979   6.351
 9048SOL    HW228044   6.357   1.866   6.240
 9049SOL     OW28045   3.168   6.415   6.584
 9049SOL    HW128046   3.157   6.505   6.543
 9049SOL    HW228047   3.226   6.421   6.665
 9050SOL     OW28048   0.187   5.122   0.456
 9050SOL    HW128049   0.173   5.035   0.408
 9050SOL    HW228050   0.217   5.104   0.549
 9051SOL     OW28051   2.490   1.361   1.269
 9051SOL    HW128052   2.477   1.279   1.213
 9051SOL    HW228053   2.403   1.408   1.282
 9052SOL     OW28054   1.393   2.929   5.183
 9052SOL    HW128055   1.446   2.970   5.257
 9052SOL    HW228056   1.441   2.943   5.096
 9053SOL     OW28057   2.062   1.302   0.526
 9053SOL    HW128058   2.007   1.368   0.577
 9053SOL    HW228059   2.005   1.224   0.501
 9054SOL     OW28060   2.234   5.792   3.529
 9054SOL    HW128061   2.209   5.887   3.509
 9054SOL    HW228062   2.330   5.778   3.507
 9055SOL     OW28063   0.024   4.156   4.793
 9055SOL    HW128064   0.016   4.180   4.890
 9055SOL    HW228065   0.002   4.059   4.781
 9056SOL     OW28066   6.235   2.544   2.778
 9056SOL    HW128067   6.273   2.468   2.727
 9056SOL    HW228068   6.155   2.580   2.730
 9057SOL     OW28069   4.258   2.129   4.449
 9057SOL    HW128070   4.212   2.174   4.525
 9057SOL    HW228071   4.193   2.074   4.398
 9058SOL     OW28072   2.003   0.802   5.861
 9058SOL    HW128073   1.972   0.883   5.811
 9058SOL    HW228074   1.981   0.720   5.808
 9059SOL     OW28075   1.064   1.870   3.340
 9059SOL    HW128076   1.157   1.834   3.336
 9059SOL    HW228077   1.065   1.967   3.317
 9060SOL     OW28078   5.065   2.497   5.123
 9060SOL    HW128079   5.100   2.565   5.058
 9060SOL    HW228080   4.966   2.494   5.117
 9061SOL     OW28081   3.702   5.770   3.122
 9061SOL    HW128082   3.663   5.714   3.049
 9061SOL    HW228083   3.665   5.742   3.210
 9062SOL     OW28084   2.021   5.448   1.094
 9062SOL    HW128085   1.997   5.543   1.074
 9062SOL    HW228086   2.115   5.443   1.127
 9063SOL     OW28087   2.934   1.416   1.948
 9063SOL    HW128088   2.911   1.373   2.035
 9063SOL    HW228089   2.866   1.485   1.926
 9064SOL     OW28090   5.706   3.452   0.362
 9064SOL    HW128091   5.753   3.386   0.303
 9064SOL    HW228092   5.667   3.524   0.306
 9065SOL     OW28093   2.528   1.076   0.155
 9065SOL    HW128094   2.456   1.040   0.215
 9065SOL    HW228095   2.556   1.166   0.188
 9066SOL     OW28096   4.881   6.755   0.403
 9066SOL    HW128097   4.867   6.839   0.456
 9066SOL    HW228098   4.802   6.738   0.346
 9067SOL     OW28099   1.711   6.217   2.612
 9067SOL    HW128100   1.617   6.197   2.639
 9067SOL    HW228101   1.731   6.313   2.628
 9068SOL     OW28102   1.861   6.306   6.846
 9068SOL    HW128103   1.772   6.279   6.881
 9068SOL    HW228104   1.857   6.400   6.812
 9069SOL     OW28105   1.563   2.331   6.730
 9069SOL    HW128106   1.499   2.262   6.761
 9069SOL    HW228107   1.591   2.312   6.636
 9070SOL     OW28108   1.113   4.335   3.375
 9070SOL    HW128109   1.074   4.366   3.462
 9070SOL    HW228110   1.182   4.264   3.393
 9071SOL     OW28111   5.136   6.596   0.049
 9071SOL    HW128112   5.044   6.608   0.013
 9071SOL    HW228113   5.141   6.511   0.101
 9072SOL     OW28114   5.206   5.365   6.657
 9072SOL    HW128115   5.159   5.340   6.741
 9072SOL    HW228116   5.286   5.307   6.644
 9073SOL     OW28117   1.977   0.659   1.726
 9073SOL    HW128118   1.902   0.707   1.681
 9073SOL    HW228119   2.039   0.726   1.768
 9074SOL     OW28120   1.083   6.663   3.065
 9074SOL    HW128121   1.145   6.718   3.121
 9074SOL    HW228122   1.119   6.658   2.972
 9075SOL     OW28123   0.824   0.942   2.662
 9075SOL    HW128124   0.901   0.930   2.600
 9075SOL    HW228125   0.841   1.020   2.723
 9076SOL     OW28126   6.445   1.570   5.275
 9076SOL    HW128127   6.361   1.517   5.277
 9076SOL    HW228128   6.478   1.584   5.368
 9077SOL     OW28129   5.891   6.614   1.752
 9077SOL    HW128130   5.973   6.658   1.788
 9077SOL    HW228131   5.874   6.648   1.659
 9078SOL     OW28132   3.306   3.009   4.691
 9078SOL    HW128133   3.399   2.971   4.696
 9078SOL    HW228134   3.248   2.965   4.759
 9079SOL     OW28135   3.899   0.634   6.274
 9079SOL    HW128136   3.914   0.726   6.236
 9079SOL    HW228137   3.845   0.580   6.209
 9080SOL     OW28138   5.098   1.667   0.699
 9080SOL    HW128139   5.003   1.689   0.679
 9080SOL    HW228140   5.158   1.728   0.647
 9081SOL     OW28141   5.492   0.063   2.034
 9081SOL    HW128142   5.478   0.145   1.979
 9081SOL    HW228143   5.565   0.078   2.100
 9082SOL     OW28144   2.867   1.141   3.386
 9082SOL    HW128145   2.934   1.076   3.351
 9082SOL    HW228146   2.907   1.191   3.463
 9083SOL     OW28147   3.963   4.860   4.357
 9083SOL    HW128148   4.025   4.804   4.413
 9083SOL    HW228149   4.015   4.907   4.286
 9084SOL     OW28150   3.606   3.411   3.040
 9084SOL    HW128151   3.695   3.457   3.032
 9084SOL    HW228152   3.614   3.316   3.009
 9085SOL     OW28153   1.173   1.724   0.497
 9085SOL    HW128154   1.208   1.681   0.414
 9085SOL    HW228155   1.239   1.791   0.531
 9086SOL     OW28156   0.236   3.833   0.593
 9086SOL    HW128157   0.263   3.927   0.572
 9086SOL    HW228158   0.271   3.772   0.522
 9087SOL     OW28159   4.432   3.663   1.363
 9087SOL    HW128160   4.481   3.603   1.426
 9087SOL    HW228161   4.492   3.738   1.335
 9088SOL     OW28162   5.419   6.549   0.881
 9088SOL    HW128163   5.475   6.469   0.903
 9088SOL    HW228164   5.327   6.519   0.856
 9089SOL     OW28165   4.174   6.920   6.033
 9089SOL    HW128166   4.249   6.966   6.082
 9089SOL    HW228167   4.160   6.829   6.071
 9090SOL     OW28168   5.902   1.381   4.037
 9090SOL    HW128169   5.972   1.405   3.969
 9090SOL    HW228170   5.947   1.346   4.119
 9091SOL     OW28171   2.881   2.946   6.637
 9091SOL    HW128172   2.955   2.964   6.573
 9091SOL    HW228173   2.916   2.955   6.731
 9092SOL     OW28174   6.845   2.782   6.482
 9092SOL    HW128175   6.933   2.811   6.519
 9092SOL    HW228176   6.844   2.795   6.383
 9093SOL     OW28177   1.734   6.008   5.572
 9093SOL    HW128178   1.777   6.091   5.608
 9093SOL    HW228179   1.789   5.973   5.495
 9094SOL     OW28180   0.892   3.826   1.956
 9094SOL    HW128181   0.821   3.818   2.026
 9094SOL    HW228182   0.974   3.865   1.996
 9095SOL     OW28183   6.697   6.615   5.173
 9095SOL    HW128184   6.626   6.609   5.101
 9095SOL    HW228185   6.766   6.682   5.146
 9096SOL     OW28186   6.766   5.430   3.361
 9096SOL    HW128187   6.751   5.521   3.323
 9096SOL    HW228188   6.769   5.434   3.460
 9097SOL     OW28189   1.392   2.133   6.641
 9097SOL    HW128190   1.295   2.112   6.627
 9097SOL    HW228191   1.439   2.134   6.553
 9098SOL     OW28192   1.876   4.050   4.100
 9098SOL    HW128193   1.953   4.036   4.038
 9098SOL    HW228194   1.871   3.974   4.165
 9099SOL     OW28195   2.527   2.483   0.116
 9099SOL    HW128196   2.626   2.482   0.127
 9099SOL    HW228197   2.488   2.558   0.170
 9100SOL     OW28198   1.249   4.631   3.017
 9100SOL    HW128199   1.197   4.550   2.989
 9100SOL    HW228200   1.270   4.625   3.115
 9101SOL     OW28201   0.908   2.294   0.652
 9101SOL    HW128202   0.940   2.354   0.578
 9101SOL    HW228203   0.940   2.331   0.739
 9102SOL     OW28204   3.988   6.684   2.858
 9102SOL    HW128205   4.065   6.703   2.798
 9102SOL    HW228206   4.013   6.702   2.953
 9103SOL     OW28207   6.592   0.573   0.948
 9103SOL    HW128208   6.522   0.549   1.015
 9103SOL    HW228209   6.680   0.584   0.994
 9104SOL     OW28210   5.646   2.152   6.278
 9104SOL    HW128211   5.618   2.234   6.327
 9104SOL    HW228212   5.743   2.158   6.254
 9105SOL     OW28213   1.938   1.294   5.397
 9105SOL    HW128214   1.948   1.387   5.360
 9105SOL    HW228215   1.842   1.274   5.412
 9106SOL     OW28216   1.327   3.588   0.052
 9106SOL    HW128217   1.274   3.545   6.997
 9106SOL    HW228218   1.266   3.639   0.112
 9107SOL     OW28219   2.822   1.303   0.683
 9107SOL    HW128220   2.891   1.340   0.622
 9107SOL    HW228221   2.733   1.345   0.663
 9108SOL     OW28222   5.776   5.476   6.040
 9108SOL    HW128223   5.737   5.532   5.967
 9108SOL    HW228224   5.761   5.379   6.019
 9109SOL     OW28225   5.502   3.628   2.455
 9109SOL    HW128226   5.481   3.540   2.413
 9109SOL    HW228227   5.417   3.678   2.472
 9110SOL     OW28228   2.179   6.191   3.724
 9110SOL    HW128229   2.199   6.150   3.635
 9110SOL    HW228230   2.097   6.247   3.718
 9111SOL     OW28231   4.117   2.356   6.348
 9111SOL    HW128232   4.120   2.442   6.399
 9111SOL    HW228233   4.198   2.349   6.290
 9112SOL     OW28234   0.995   5.320   1.203
 9112SOL    HW128235   1.085   5.306   1.244
 9112SOL    HW228236   0.948   5.395   1.250
 9113SOL     OW28237   5.642   0.825   4.205
 9113SOL    HW128238   5.601   0.744   4.245
 9113SOL    HW228239   5.623   0.904   4.263
 9114SOL     OW28240   1.295   6.138   5.557
 9114SOL    HW128241   1.350   6.056   5.574
 9114SOL    HW228242   1.213   6.136   5.614
 9115SOL     OW28243   4.832   4.430   4.688
 9115SOL    HW128244   4.744   4.419   4.643
 9115SOL    HW228245   4.830   4.385   4.777
 9116SOL     OW28246   1.590   0.267   3.177
 9116SOL    HW128247   1.567   0.363   3.161
 9116SOL    HW228248   1.508   0.210   3.164
 9117SOL     OW28249   2.500   6.251   0.339
 9117SOL    HW128250   2.534   6.314   0.409
 9117SOL    HW228251   2.574   6.190   0.310
 9118SOL     OW28252   6.620   4.149   2.304
 9118SOL    HW128253   6.603   4.211   2.381
 9118SOL    HW228254   6.704   4.098   2.321
 9119SOL     OW28255   3.318   0.124   0.199
 9119SOL    HW128256   3.328   0.167   0.288
 9119SOL    HW228257   3.236   0.160   0.154
 9120SOL     OW28258   6.526   3.813   4.605
 9120SOL    HW128259   6.443   3.867   4.586
 9120SOL    HW228260   6.606   3.873   4.605
 9121SOL     OW28261   3.563   0.716   4.705
 9121SOL    HW128262   3.554   0.740   4.609
 9121SOL    HW228263   3.644   0.760   4.743
 9122SOL     OW28264   1.233   3.676   1.993
 9122SOL    HW128265   1.197   3.607   1.930
 9122SOL    HW228266   1.172   3.755   1.995
 9123SOL     OW28267   6.614   6.468   4.454
 9123SOL    HW128268   6.650   6.543   4.510
 9123SOL    HW228269   6.571   6.400   4.514
 9124SOL     OW28270   3.080   5.058   0.464
 9124SOL    HW128271   2.985   5.044   0.437
 9124SOL    HW228272   3.084   5.082   0.561
 9125SOL     OW28273   5.358   6.543   1.408
 9125SOL    HW128274   5.327   6.449   1.392
 9125SOL    HW228275   5.427   6.567   1.339
 9126SOL     OW28276   4.413   4.460   1.233
 9126SOL    HW128277   4.390   4.377   1.183
 9126SOL    HW228278   4.393   4.448   1.330
 9127SOL     OW28279   6.768   5.128   4.869
 9127SOL    HW128280   6.709   5.177   4.804
 9127SOL    HW228281   6.717   5.051   4.907
 9128SOL     OW28282   5.589   4.232   5.543
 9128SOL    HW128283   5.661   4.173   5.579
 9128SOL    HW228284   5.540   4.184   5.470
 9129SOL     OW28285   1.042   2.684   1.027
 9129SOL    HW128286   1.000   2.599   1.057
 9129SOL    HW228287   0.976   2.738   0.975
 9130SOL     OW28288   2.893   3.320   4.845
 9130SOL    HW128289   2.968   3.288   4.788
 9130SOL    HW228290   2.810   3.267   4.825
 9131SOL     OW28291   4.549   2.328   0.475
 9131SOL    HW128292   4.458   2.290   0.493
 9131SOL    HW228293   4.612   2.300   0.548
 9132SOL     OW28294   0.695   3.946   3.801
 9132SOL    HW128295   0.599   3.928   3.823
 9132SOL    HW228296   0.752   3.872   3.836
 9133SOL     OW28297   5.684   0.738   1.006
 9133SOL    HW128298   5.771   0.779   1.034
 9133SOL    HW228299   5.699   0.644   0.976
 9134SOL     OW28300   4.761   5.143   0.975
 9134SOL    HW128301   4.813   5.206   1.033
 9134SOL    HW228302   4.818   5.114   0.898
 9135SOL     OW28303   6.253   6.701   2.905
 9135SOL    HW128304   6.191   6.776   2.930
 9135SOL    HW228305   6.280   6.712   2.809
 9136SOL     OW28306   6.336   4.457   0.369
 9136SOL    HW128307   6.378   4.386   0.425
 9136SOL    HW228308   6.329   4.541   0.421
 9137SOL     OW28309   5.327   6.579   5.552
 9137SOL    HW128310   5.382   6.505   5.591
 9137SOL    HW228311   5.268   6.617   5.624
 9138SOL     OW28312   2.135   3.541   0.144
 9138SOL    HW128313   2.223   3.501   0.119
 9138SOL    HW228314   2.062   3.478   0.121
 9139SOL     OW28315   6.598   0.134   0.763
 9139SOL    HW128316   6.516   0.168   0.716
 9139SOL    HW228317   6.573   0.060   0.825
 9140SOL     OW28318   2.179   3.696   3.197
 9140SOL    HW128319   2.225   3.614   3.232
 9140SOL    HW228320   2.121   3.734   3.268
 9141SOL     OW28321   6.834   5.380   4.992
 9141SOL    HW128322   6.843   5.288   4.954
 9141SOL    HW228323   6.808   5.444   4.919
 9142SOL     OW28324   1.096   4.764   4.725
 9142SOL    HW128325   1.028   4.797   4.790
 9142SOL    HW228326   1.157   4.839   4.699
 9143SOL     OW28327   6.561   4.295   2.530
 9143SOL    HW128328   6.478   4.338   2.567
 9143SOL    HW228329   6.633   4.296   2.600
 9144SOL     OW28330   3.061   4.203   5.536
 9144SOL    HW128331   3.151   4.205   5.579
 9144SOL    HW228332   3.061   4.138   5.460
 9145SOL     OW28333   1.480   5.928   5.628
 9145SOL    HW128334   1.471   5.856   5.696
 9145SOL    HW228335   1.575   5.959   5.625
 9146SOL     OW28336   5.790   2.876   3.379
 9146SOL    HW128337   5.852   2.797   3.381
 9146SOL    HW228338   5.702   2.847   3.340
 9147SOL     OW28339   4.241   0.479   5.243
 9147SOL    HW128340   4.174   0.518   5.307
 9147SOL    HW228341   4.219   0.383   5.226
 9148SOL     OW28342   6.000   5.694   1.562
 9148SOL    HW128343   6.012   5.773   1.622
 9148SOL    HW228344   6.023   5.720   1.469
 9149SOL     OW28345   0.512   3.816   1.060
 9149SOL    HW128346   0.540   3.735   1.111
 9149SOL    HW228347   0.491   3.790   0.966
 9150SOL     OW28348   2.401   3.453   0.017
 9150SOL    HW128349   2.480   3.473   0.075
 9150SOL    HW228350   2.409   3.506   6.950
 9151SOL     OW28351   1.589   2.857   4.207
 9151SOL    HW128352   1.516   2.816   4.262
 9151SOL    HW228353   1.677   2.840   4.251
 9152SOL     OW28354   1.954   4.054   2.998
 9152SOL    HW128355   1.876   3.998   2.969
 9152SOL    HW228356   1.965   4.131   2.935
 9153SOL     OW28357   0.735   3.272   6.280
 9153SOL    HW128358   0.733   3.214   6.361
 9153SOL    HW228359   0.778   3.222   6.204
 9154SOL     OW28360   5.557   5.065   3.062
 9154SOL    HW128361   5.573   5.034   2.968
 9154SOL    HW228362   5.535   4.986   3.119
 9155SOL     OW28363   1.221   5.997   2.459
 9155SOL    HW128364   1.249   5.912   2.503
 9155SOL    HW228365   1.140   6.034   2.506
 9156SOL     OW28366   6.774   3.696   6.061
 9156SOL    HW128367   6.763   3.777   6.119
 9156SOL    HW228368   6.871   3.673   6.053
 9157SOL     OW28369   1.907   4.795   5.839
 9157SOL    HW128370   1.810   4.799   5.865
 9157SOL    HW228371   1.931   4.701   5.816
 9158SOL     OW28372   6.695   4.073   4.569
 9158SOL    HW128373   6.707   4.062   4.668
 9158SOL    HW228374   6.693   4.170   4.546
 9159SOL     OW28375   2.262   1.206   3.816
 9159SOL    HW128376   2.316   1.140   3.764
 9159SOL    HW228377   2.301   1.216   3.908
 9160SOL     OW28378   1.436   3.615   0.479
 9160SOL    HW128379   1.405   3.627   0.573
 9160SOL    HW228380   1.458   3.704   0.439
 9161SOL     OW28381   6.121   3.733   2.537
 9161SOL    HW128382   6.209   3.748   2.583
 9161SOL    HW228383   6.092   3.819   2.494
 9162SOL     OW28384   3.943   2.334   1.711
 9162SOL    HW128385   4.026   2.318   1.763
 9162SOL    HW228386   3.863   2.303   1.763
 9163SOL     OW28387   2.306   2.337   3.712
 9163SOL    HW128388   2.258   2.388   3.641
 9163SOL    HW228389   2.325   2.398   3.789
 9164SOL     OW28390   2.273   6.482   6.510
 9164SOL    HW128391   2.354   6.423   6.516
 9164SOL    HW228392   2.196   6.429   6.474
 9165SOL     OW28393   5.600   1.970   6.061
 9165SOL    HW128394   5.523   1.991   6.001
 9165SOL    HW228395   5.609   2.042   6.129
 9166SOL     OW28396   5.066   6.246   1.868
 9166SOL    HW128397   5.120   6.249   1.784
 9166SOL    HW228398   5.007   6.327   1.872
 9167SOL     OW28399   1.575   1.258   4.462
 9167SOL    HW128400   1.654   1.278   4.403
 9167SOL    HW228401   1.601   1.273   4.557
 9168SOL     OW28402   6.653   6.214   5.074
 9168SOL    HW128403   6.697   6.231   4.986
 9168SOL    HW228404   6.723   6.203   5.145
 9169SOL     OW28405   6.908   5.971   1.080
 9169SOL    HW128406   6.988   5.912   1.087
 9169SOL    HW228407   6.921   6.052   1.138
 9170SOL     OW28408   1.343   1.127   5.516
 9170SOL    HW128409   1.315   1.107   5.423
 9170SOL    HW228410   1.372   1.223   5.522
 9171SOL     OW28411   3.631   4.996   6.755
 9171SOL    HW128412   3.569   5.073   6.738
 9171SOL    HW228413   3.591   4.912   6.718
 9172SOL     OW28414   5.022   1.680   5.416
 9172SOL    HW128415   4.985   1.602   5.366
 9172SOL    HW228416   5.086   1.648   5.486
 9173SOL     OW28417   5.712   3.661   5.107
 9173SOL    HW128418   5.616   3.634   5.106
 9173SOL    HW228419   5.759   3.617   5.183
 9174SOL     OW28420   6.943   4.880   1.325
 9174SOL    HW128421   6.850   4.855   1.299
 9174SOL    HW228422   6.943   4.972   1.365
 9175SOL     OW28423   2.281   0.011   1.040
 9175SOL    HW128424   2.255   0.107   1.055
 9175SOL    HW228425   2.266   6.977   1.124
 9176SOL     OW28426   1.376   0.983   2.218
 9176SOL    HW128427   1.283   1.014   2.238
 9176SOL    HW228428   1.440   1.057   2.238
 9177SOL     OW28429   0.291   6.455   3.931
 9177SOL    HW128430   0.275   6.541   3.882
 9177SOL    HW228431   0.389   6.437   3.936
 9178SOL     OW28432   1.242   4.551   1.101
 9178SOL    HW128433   1.302   4.501   1.038
 9178SOL    HW228434   1.289   4.567   1.187
 9179SOL     OW28435   3.378   5.323   4.060
 9179SOL    HW128436   3.316   5.269   4.116
 9179SOL    HW228437   3.349   5.319   3.964
 9180SOL     OW28438   0.386   1.279   5.768
 9180SOL    HW128439   0.412   1.198   5.716
 9180SOL    HW228440   0.299   1.262   5.815
 9181SOL     OW28441   2.854   2.268   3.746
 9181SOL    HW128442   2.775   2.326   3.764
 9181SOL    HW228443   2.833   2.205   3.672
 9182SOL     OW28444   0.475   1.830   2.280
 9182SOL    HW128445   0.459   1.758   2.348
 9182SOL    HW228446   0.389   1.850   2.233
 9183SOL     OW28447   1.900   1.560   6.338
 9183SOL    HW128448   1.909   1.589   6.434
 9183SOL    HW228449   1.971   1.494   6.317
 9184SOL     OW28450   3.641   3.442   0.813
 9184SOL    HW128451   3.681   3.407   0.898
 9184SOL    HW228452   3.564   3.385   0.787
 9185SOL     OW28453   1.533   0.453   6.203
 9185SOL    HW128454   1.505   0.543   6.237
 9185SOL    HW228455   1.624   0.460   6.162
 9186SOL     OW28456   4.728   0.342   6.434
 9186SOL    HW128457   4.739   0.271   6.366
 9186SOL    HW228458   4.672   0.308   6.510
 9187SOL     OW28459   5.546   2.478   0.784
 9187SOL    HW128460   5.562   2.575   0.765
 9187SOL    HW228461   5.449   2.464   0.805
 9188SOL     OW28462   1.767   0.324   1.700
 9188SOL    HW128463   1.685   0.380   1.684
 9188SOL    HW228464   1.847   0.383   1.710
 9189SOL     OW28465   3.902   0.636   5.807
 9189SOL    HW128466   3.982   0.577   5.803
 9189SOL    HW228467   3.928   0.725   5.845
 9190SOL     OW28468   4.615   1.203   5.166
 9190SOL    HW128469   4.613   1.235   5.261
 9190SOL    HW228470   4.531   1.154   5.145
 9191SOL     OW28471   5.496   6.936   1.770
 9191SOL    HW128472   5.490   6.995   1.850
 9191SOL    HW228473   5.544   6.984   1.697
 9192SOL     OW28474   4.946   3.421   4.154
 9192SOL    HW128475   4.899   3.487   4.212
 9192SOL    HW228476   4.952   3.333   4.202
 9193SOL     OW28477   3.945   3.097   3.492
 9193SOL    HW128478   3.949   3.146   3.405
 9193SOL    HW228479   3.895   3.011   3.481
 9194SOL     OW28480   3.660   4.892   2.738
 9194SOL    HW128481   3.561   4.893   2.724
 9194SOL    HW228482   3.683   4.954   2.814
 9195SOL     OW28483   0.889   2.770   2.952
 9195SOL    HW128484   0.868   2.846   2.891
 9195SOL    HW228485   0.804   2.722   2.976
 9196SOL     OW28486   5.257   6.702   4.188
 9196SOL    HW128487   5.225   6.777   4.130
 9196SOL    HW228488   5.198   6.623   4.175
 9197SOL     OW28489   4.268   1.334   6.111
 9197SOL    HW128490   4.246   1.381   6.025
 9197SOL    HW228491   4.209   1.367   6.184
 9198SOL     OW28492   6.172   2.349   5.515
 9198SOL    HW128493   6.242   2.282   5.490
 9198SOL    HW228494   6.091   2.336   5.457
 9199SOL     OW28495   1.372   2.780   5.987
 9199SOL    HW128496   1.354   2.860   5.930
 9199SOL    HW228497   1.286   2.731   6.005
 9200SOL     OW28498   5.263   5.869   0.746
 9200SOL    HW128499   5.217   5.823   0.670
 9200SOL    HW228500   5.255   5.968   0.735
 9201SOL     OW28501   0.839   4.211   2.434
 9201SOL    HW128502   0.838   4.186   2.337
 9201SOL    HW228503   0.754   4.259   2.456
 9202SOL     OW28504   2.444   6.022   3.997
 9202SOL    HW128505   2.523   6.002   3.939
 9202SOL    HW228506   2.360   5.991   3.951
 9203SOL     OW28507   5.122   0.784   0.338
 9203SOL    HW128508   5.176   0.795   0.422
 9203SOL    HW228509   5.093   0.688   0.330
 9204SOL     OW28510   5.320   4.232   2.652
 9204SOL    HW128511   5.340   4.275   2.740
 9204SOL    HW228512   5.221   4.229   2.639
 9205SOL     OW28513   4.797   2.668   1.970
 9205SOL    HW128514   4.786   2.569   1.976
 9205SOL    HW228515   4.878   2.696   2.022
 9206SOL     OW28516   6.636   6.030   3.923
 9206SOL    HW128517   6.654   6.127   3.908
 9206SOL    HW228518   6.642   6.010   4.021
 9207SOL     OW28519   4.097   5.973   6.471
 9207SOL    HW128520   4.147   5.934   6.548
 9207SOL    HW228521   3.999   5.960   6.485
 9208SOL     OW28522   4.247   4.233   1.683
 9208SOL    HW128523   4.320   4.238   1.751
 9208SOL    HW228524   4.165   4.193   1.723
 9209SOL     OW28525   4.050   0.465   2.960
 9209SOL    HW128526   4.084   0.559   2.953
 9209SOL    HW228527   4.019   0.447   3.053
 9210SOL     OW28528   1.413   6.778   0.211
 9210SOL    HW128529   1.350   6.724   0.157
 9210SOL    HW228530   1.373   6.868   0.230
 9211SOL     OW28531   5.011   1.282   6.207
 9211SOL    HW128532   4.932   1.325   6.163
 9211SOL    HW228533   5.095   1.318   6.165
 9212SOL     OW28534   5.454   4.132   5.330
 9212SOL    HW128535   5.360   4.097   5.326
 9212SOL    HW228536   5.505   4.100   5.250
 9213SOL     OW28537   6.514   6.520   2.061
 9213SOL    HW128538   6.564   6.537   2.146
 9213SOL    HW228539   6.518   6.602   2.003
 9214SOL     OW28540   1.963   2.231   5.570
 9214SOL    HW128541   1.932   2.137   5.581
 9214SOL    HW228542   1.992   2.268   5.658
 9215SOL     OW28543   0.272   3.405   3.403
 9215SOL    HW128544   0.190   3.390   3.348
 9215SOL    HW228545   0.345   3.344   3.370
 9216SOL     OW28546   2.413   6.081   3.293
 9216SOL    HW128547   2.393   6.119   3.203
 9216SOL    HW228548   2.487   6.133   3.336
 9217SOL     OW28549   3.899   1.640   6.670
 9217SOL    HW128550   3.966   1.647   6.595
 9217SOL    HW228551   3.867   1.732   6.693
 9218SOL     OW28552   5.486   5.594   6.579
 9218SOL    HW128553   5.416   5.651   6.536
 9218SOL    HW228554   5.465   5.582   6.676
 9219SOL     OW28555   3.042   2.340   5.663
 9219SOL    HW128556   2.998   2.399   5.595
 9219SOL    HW228557   3.048   2.247   5.628
 9220SOL     OW28558   0.222   6.374   3.299
 9220SOL    HW128559   0.175   6.387   3.386
 9220SOL    HW228560   0.199   6.284   3.262
 9221SOL     OW28561   2.847   1.394   1.191
 9221SOL    HW128562   2.781   1.436   1.253
 9221SOL    HW228563   2.926   1.454   1.179
 9222SOL     OW28564   1.981   4.147   4.469
 9222SOL    HW128565   1.884   4.165   4.452
 9222SOL    HW228566   2.029   4.234   4.481
 9223SOL     OW28567   7.012   3.324   4.769
 9223SOL    HW128568   0.008   3.323   4.670
 9223SOL    HW228569   6.977   3.236   4.800
 9224SOL     OW28570   2.132   4.984   3.141
 9224SOL    HW128571   2.186   5.061   3.110
 9224SOL    HW228572   2.156   4.902   3.089
 9225SOL     OW28573   6.156   5.779   5.725
 9225SOL    HW128574   6.120   5.694   5.687
 9225SOL    HW228575   6.227   5.757   5.792
 9226SOL     OW28576   1.222   0.674   6.540
 9226SOL    HW128577   1.239   0.579   6.568
 9226SOL    HW228578   1.268   0.692   6.453
 9227SOL     OW28579   2.933   3.956   0.280
 9227SOL    HW128580   2.924   3.914   0.370
 9227SOL    HW228581   2.970   3.889   0.216
 9228SOL     OW28582   3.754   2.845   5.092
 9228SOL    HW128583   3.822   2.813   5.158
 9228SOL    HW228584   3.792   2.923   5.041
 9229SOL     OW28585   6.927   5.418   0.677
 9229SOL    HW128586   6.902   5.337   0.625
 9229SOL    HW228587   6.957   5.490   0.615
 9230SOL     OW28588   4.234   1.125   4.981
 9230SOL    HW128589   4.313   1.133   4.921
 9230SOL    HW228590   4.154   1.097   4.927
 9231SOL     OW28591   6.216   5.719   1.797
 9231SOL    HW128592   6.132   5.732   1.848
 9231SOL    HW228593   6.293   5.711   1.860
 9232SOL     OW28594   0.965   5.083   1.982
 9232SOL    HW128595   0.943   5.019   2.056
 9232SOL    HW228596   0.923   5.172   2.002
 9233SOL     OW28597   0.998   6.349   5.836
 9233SOL    HW128598   1.067   6.277   5.829
 9233SOL    HW228599   0.908   6.310   5.814
 9234SOL     OW28600   2.510   3.782   6.195
 9234SOL    HW128601   2.458   3.762   6.278
 9234SOL    HW228602   2.559   3.869   6.206
 9235SOL     OW28603   1.956   2.163   3.295
 9235SOL    HW128604   1.999   2.241   3.250
 9235SOL    HW228605   1.894   2.118   3.231
 9236SOL     OW28606   1.641   3.425   6.295
 9236SOL    HW128607   1.610   3.360   6.225
 9236SOL    HW228608   1.714   3.482   6.256
 9237SOL     OW28609   6.325   5.755   2.794
 9237SOL    HW128610   6.399   5.727   2.733
 9237SOL    HW228611   6.341   5.848   2.827
 9238SOL     OW28612   1.798   2.710   4.595
 9238SOL    HW128613   1.837   2.764   4.669
 9238SOL    HW228614   1.764   2.623   4.631
 9239SOL     OW28615   0.808   4.929   6.280
 9239SOL    HW128616   0.742   4.855   6.270
 9239SOL    HW228617   0.893   4.892   6.318
 9240SOL     OW28618   4.412   1.780   3.218
 9240SOL    HW128619   4.468   1.776   3.301
 9240SOL    HW228620   4.316   1.788   3.242
 9241SOL     OW28621   5.382   6.939   0.305
 9241SOL    HW128622   5.423   6.882   0.235
 9241SOL    HW228623   5.283   6.947   0.289
 9242SOL     OW28624   1.701   2.536   1.039
 9242SOL    HW128625   1.681   2.438   1.037
 9242SOL    HW228626   1.685   2.575   0.948
 9243SOL     OW28627   1.742   0.342   6.887
 9243SOL    HW128628   1.749   0.370   6.791
 9243SOL    HW228629   1.650   0.308   6.906
 9244SOL     OW28630   3.029   6.169   5.804
 9244SOL    HW128631   3.014   6.217   5.890
 9244SOL    HW228632   3.003   6.073   5.814
 9245SOL     OW28633   1.599   5.339   2.566
 9245SOL    HW128634   1.589   5.247   2.526
 9245SOL    HW228635   1.536   5.402   2.520
 9246SOL     OW28636   4.792   6.267   6.702
 9246SOL    HW128637   4.881   6.246   6.743
 9246SOL    HW228638   4.805   6.310   6.613
 9247SOL     OW28639   3.891   6.269   2.700
 9247SOL    HW128640   3.966   6.262   2.766
 9247SOL    HW228641   3.912   6.213   2.620
 9248SOL     OW28642   2.427   0.456   6.565
 9248SOL    HW128643   2.434   0.448   6.665
 9248SOL    HW228644   2.503   0.510   6.531
 9249SOL     OW28645   2.401   6.859   0.049
 9249SOL    HW128646   2.396   6.774   0.102
 9249SOL    HW228647   2.374   6.841   6.973
 9250SOL     OW28648   0.451   2.915   3.525
 9250SOL    HW128649   0.491   2.991   3.576
 9250SOL    HW228650   0.353   2.930   3.513
 9251SOL     OW28651   3.447   1.884   1.170
 9251SOL    HW128652   3.539   1.852   1.145
 9251SOL    HW228653   3.455   1.974   1.214
 9252SOL     OW28654   5.870   1.355   4.768
 9252SOL    HW128655   5.847   1.330   4.862
 9252SOL    HW228656   5.952   1.305   4.739
 9253SOL     OW28657   1.484   5.475   4.757
 9253SOL    HW128658   1.415   5.529   4.805
 9253SOL    HW228659   1.574   5.517   4.770
 9254SOL     OW28660   6.990   5.037   2.503
 9254SOL    HW128661   6.907   5.042   2.447
 9254SOL    HW228662   0.053   5.042   2.445
 9255SOL     OW28663   6.636   4.614   0.472
 9255SOL    HW128664   6.567   4.612   0.545
 9255SOL    HW228665   6.726   4.596   0.511
 9256SOL     OW28666   2.926   6.356   1.056
 9256SOL    HW128667   3.023   6.337   1.074
 9256SOL    HW228668   2.898   6.308   0.973
 9257SOL     OW28669   5.665   5.543   4.382
 9257SOL    HW128670   5.696   5.454   4.415
 9257SOL    HW228671   5.672   5.545   4.282
 9258SOL     OW28672   3.894   5.699   1.421
 9258SOL    HW128673   3.911   5.753   1.338
 9258SOL    HW228674   3.978   5.653   1.448
 9259SOL     OW28675   0.633   2.215   6.732
 9259SOL    HW128676   0.622   2.157   6.652
 9259SOL    HW228677   0.590   2.172   6.811
 9260SOL     OW28678   4.976   3.878   4.415
 9260SOL    HW128679   5.051   3.944   4.410
 9260SOL    HW228680   4.936   3.880   4.507
 9261SOL     OW28681   1.866   1.853   1.516
 9261SOL    HW128682   1.769   1.829   1.505
 9261SOL    HW228683   1.887   1.935   1.463
 9262SOL     OW28684   6.583   6.313   5.827
 9262SOL    HW128685   6.621   6.336   5.916
 9262SOL    HW228686   6.494   6.356   5.816
 9263SOL     OW28687   1.864   4.704   3.060
 9263SOL    HW128688   1.937   4.678   3.124
 9263SOL    HW228689   1.825   4.622   3.019
 9264SOL     OW28690   5.803   4.150   6.475
 9264SOL    HW128691   5.896   4.139   6.440
 9264SOL    HW228692   5.786   4.081   6.546
 9265SOL     OW28693   5.542   1.034   1.560
 9265SOL    HW128694   5.532   0.965   1.631
 9265SOL    HW228695   5.581   0.993   1.478
 9266SOL     OW28696   1.631   4.404   0.537
 9266SOL    HW128697   1.667   4.348   0.462
 9266SOL    HW228698   1.558   4.354   0.583
 9267SOL     OW28699   0.581   1.130   4.174
 9267SOL    HW128700   0.589   1.094   4.267
 9267SOL    HW228701   0.601   1.056   4.109
 9268SOL     OW28702   0.411   0.150   1.461
 9268SOL    HW128703   0.460   0.146   1.548
 9268SOL    HW228704   0.451   0.222   1.404
 9269SOL     OW28705   3.802   0.984   6.837
 9269SOL    HW128706   3.775   1.053   6.771
 9269SOL    HW228707   3.740   0.988   6.916
 9270SOL     OW28708   2.766   0.479   6.267
 9270SOL    HW128709   2.754   0.578   6.260
 9270SOL    HW228710   2.858   0.454   6.236
 9271SOL     OW28711   1.265   5.151   5.293
 9271SOL    HW128712   1.346   5.133   5.349
 9271SOL    HW228713   1.293   5.170   5.199
 9272SOL     OW28714   5.995   6.535   5.898
 9272SOL    HW128715   5.998   6.461   5.965
 9272SOL    HW228716   5.906   6.580   5.901
 9273SOL     OW28717   5.404   3.636   3.564
 9273SOL    HW128718   5.336   3.586   3.618
 9273SOL    HW228719   5.482   3.660   3.623
 9274SOL     OW28720   0.553   3.426   0.832
 9274SOL    HW128721   0.459   3.430   0.868
 9274SOL    HW228722   0.551   3.400   0.736
 9275SOL     OW28723   5.904   0.904   0.767
 9275SOL    HW128724   5.916   0.805   0.757
 9275SOL    HW228725   5.982   0.951   0.727
 9276SOL     OW28726   2.719   4.961   7.005
 9276SOL    HW128727   2.816   4.981   0.002
 9276SOL    HW228728   2.693   4.989   6.913
 9277SOL     OW28729   4.684   4.762   2.398
 9277SOL    HW128730   4.734   4.770   2.312
 9277SOL    HW228731   4.728   4.692   2.455
 9278SOL     OW28732   0.540   7.016   5.469
 9278SOL    HW128733   0.615   7.009   5.403
 9278SOL    HW228734   0.517   6.925   5.504
 9279SOL     OW28735   3.376   5.920   2.036
 9279SOL    HW128736   3.287   5.964   2.021
 9279SOL    HW228737   3.361   5.831   2.078
 9280SOL     OW28738   1.832   5.893   2.935
 9280SOL    HW128739   1.842   5.852   3.026
 9280SOL    HW228740   1.907   5.862   2.877
 9281SOL     OW28741   1.642   5.220   0.846
 9281SOL    HW128742   1.736   5.196   0.824
 9281SOL    HW228743   1.641   5.302   0.902
 9282SOL     OW28744   3.128   6.894   4.838
 9282SOL    HW128745   3.139   6.797   4.815
 9282SOL    HW228746   3.038   6.925   4.805
 9283SOL     OW28747   4.379   6.765   0.871
 9283SOL    HW128748   4.416   6.684   0.824
 9283SOL    HW228749   4.365   6.838   0.804
 9284SOL     OW28750   3.870   4.626   6.184
 9284SOL    HW128751   3.834   4.541   6.223
 9284SOL    HW228752   3.902   4.609   6.091
 9285SOL     OW28753   0.277   6.083   2.984
 9285SOL    HW128754   0.343   6.048   2.917
 9285SOL    HW228755   0.185   6.052   2.960
 9286SOL     OW28756   4.295   0.162   1.926
 9286SOL    HW128757   4.315   0.258   1.946
 9286SOL    HW228758   4.285   0.150   1.827
 9287SOL     OW28759   4.566   3.669   5.886
 9287SOL    HW128760   4.602   3.631   5.800
 9287SOL    HW228761   4.466   3.678   5.879
 9288SOL     OW28762   3.611   1.783   2.018
 9288SOL    HW128763   3.701   1.827   2.019
 9288SOL    HW228764   3.541   1.851   1.994
 9289SOL     OW28765   5.190   6.753   0.864
 9289SOL    HW128766   5.219   6.691   0.791
 9289SOL    HW228767   5.149   6.699   0.938
 9290SOL     OW28768   6.228   1.264   3.885
 9290SOL    HW128769   6.221   1.236   3.981
 9290SOL    HW228770   6.195   1.357   3.874
 9291SOL     OW28771   0.573   3.794   5.742
 9291SOL    HW128772   0.646   3.819   5.806
 9291SOL    HW228773   0.613   3.767   5.654
 9292SOL     OW28774   0.559   1.180   6.377
 9292SOL    HW128775   0.568   1.081   6.389
 9292SOL    HW228776   0.650   1.221   6.368
 9293SOL     OW28777   4.766   2.116   4.634
 9293SOL    HW128778   4.803   2.072   4.716
 9293SOL    HW228779   4.668   2.133   4.647
 9294SOL     OW28780   4.748   0.067   6.316
 9294SOL    HW128781   4.824   0.029   6.262
 9294SOL    HW228782   4.770   0.060   6.413
 9295SOL     OW28783   6.253   1.408   4.431
 9295SOL    HW128784   6.241   1.489   4.489
 9295SOL    HW228785   6.326   1.426   4.364
 9296SOL     OW28786   2.105   5.318   5.648
 9296SOL    HW128787   2.096   5.219   5.652
 9296SOL    HW228788   2.202   5.342   5.637
 9297SOL     OW28789   6.814   5.103   2.299
 9297SOL    HW128790   6.717   5.117   2.321
 9297SOL    HW228791   6.863   5.189   2.313
 9298SOL     OW28792   1.176   3.819   6.378
 9298SOL    HW128793   1.188   3.885   6.453
 9298SOL    HW228794   1.088   3.774   6.387
 9299SOL     OW28795   2.444   2.354   4.717
 9299SOL    HW128796   2.531   2.372   4.761
 9299SOL    HW228797   2.453   2.277   4.654
 9300SOL     OW28798   2.359   6.031   4.424
 9300SOL    HW128799   2.361   6.090   4.343
 9300SOL    HW228800   2.381   6.085   4.505
 9301SOL     OW28801   0.322   4.315   4.382
 9301SOL    HW128802   0.251   4.305   4.312
 9301SOL    HW228803   0.407   4.273   4.349
 9302SOL     OW28804   2.178   4.354   4.433
 9302SOL    HW128805   2.115   4.428   4.411
 9302SOL    HW228806   2.262   4.364   4.380
 9303SOL     OW28807   2.371   4.616   0.084
 9303SOL    HW128808   2.366   4.560   0.166
 9303SOL    HW228809   2.279   4.642   0.056
 9304SOL     OW28810   5.196   5.651   6.512
 9304SOL    HW128811   5.199   5.552   6.497
 9304SOL    HW228812   5.139   5.671   6.592
 9305SOL     OW28813   1.599   2.097   1.204
 9305SOL    HW128814   1.609   2.130   1.298
 9305SOL    HW228815   1.503   2.102   1.177
 9306SOL     OW28816   0.048   6.479   4.711
 9306SOL    HW128817   0.084   6.413   4.776
 9306SOL    HW228818   0.110   6.558   4.706
 9307SOL     OW28819   1.825   3.673   1.059
 9307SOL    HW128820   1.840   3.756   1.006
 9307SOL    HW228821   1.755   3.689   1.128
 9308SOL     OW28822   2.147   3.231   1.803
 9308SOL    HW128823   2.221   3.282   1.847
 9308SOL    HW228824   2.183   3.146   1.765
 9309SOL     OW28825   4.957   5.428   6.595
 9309SOL    HW128826   4.915   5.342   6.566
 9309SOL    HW228827   5.056   5.417   6.598
 9310SOL     OW28828   5.783   5.662   6.244
 9310SOL    HW128829   5.773   5.582   6.184
 9310SOL    HW228830   5.876   5.663   6.283
 9311SOL     OW28831   4.854   4.420   0.660
 9311SOL    HW128832   4.874   4.453   0.753
 9311SOL    HW228833   4.791   4.483   0.615
 9312SOL     OW28834   0.445   2.808   2.796
 9312SOL    HW128835   0.465   2.812   2.698
 9312SOL    HW228836   0.464   2.716   2.830
 9313SOL     OW28837   0.768   0.643   2.506
 9313SOL    HW128838   0.687   0.585   2.495
 9313SOL    HW228839   0.816   0.618   2.590
 9314SOL     OW28840   5.389   5.098   1.262
 9314SOL    HW128841   5.404   5.001   1.242
 9314SOL    HW228842   5.426   5.119   1.353
 9315SOL     OW28843   5.515   6.343   6.273
 9315SOL    HW128844   5.552   6.259   6.315
 9315SOL    HW228845   5.417   6.331   6.257
 9316SOL     OW28846   4.769   0.251   0.003
 9316SOL    HW128847   4.839   0.302   6.971
 9316SOL    HW228848   4.678   0.274   6.984
 9317SOL     OW28849   2.822   5.802   3.505
 9317SOL    HW128850   2.830   5.704   3.522
 9317SOL    HW228851   2.835   5.820   3.408
 9318SOL     OW28852   4.030   6.659   2.078
 9318SOL    HW128853   3.976   6.742   2.062
 9318SOL    HW228854   4.127   6.681   2.071
 9319SOL     OW28855   4.350   1.936   0.035
 9319SOL    HW128856   4.268   1.922   0.090
 9319SOL    HW228857   4.359   1.861   6.987
 9320SOL     OW28858   6.773   6.528   0.016
 9320SOL    HW128859   6.848   6.585   7.002
 9320SOL    HW228860   6.783   6.436   6.998
 9321SOL     OW28861   0.962   3.429   4.444
 9321SOL    HW128862   1.022   3.509   4.436
 9321SOL    HW228863   0.947   3.410   4.541
 9322SOL     OW28864   5.233   3.127   6.978
 9322SOL    HW128865   5.235   3.062   0.036
 9322SOL    HW228866   5.327   3.150   6.951
 9323SOL     OW28867   0.806   2.266   5.974
 9323SOL    HW128868   0.903   2.286   5.959
 9323SOL    HW228869   0.776   2.309   6.059
 9324SOL     OW28870   0.475   4.562   1.632
 9324SOL    HW128871   0.563   4.566   1.586
 9324SOL    HW228872   0.487   4.526   1.724
 9325SOL     OW28873   0.439   4.688   3.661
 9325SOL    HW128874   0.357   4.646   3.622
 9325SOL    HW228875   0.502   4.617   3.692
 9326SOL     OW28876   4.616   4.247   0.598
 9326SOL    HW128877   4.676   4.296   0.661
 9326SOL    HW228878   4.658   4.161   0.571
 9327SOL     OW28879   2.677   1.286   3.246
 9327SOL    HW128880   2.619   1.310   3.324
 9327SOL    HW228881   2.753   1.230   3.278
 9328SOL     OW28882   1.983   0.871   3.706
 9328SOL    HW128883   1.943   0.807   3.771
 9328SOL    HW228884   2.077   0.843   3.684
 9329SOL     OW28885   0.169   5.562   6.903
 9329SOL    HW128886   0.226   5.595   6.827
 9329SOL    HW228887   0.079   5.536   6.868
 9330SOL     OW28888   0.218   6.461   0.328
 9330SOL    HW128889   0.196   6.375   0.283
 9330SOL    HW228890   0.178   6.462   0.420
 9331SOL     OW28891   2.174   3.850   4.255
 9331SOL    HW128892   2.076   3.868   4.254
 9331SOL    HW228893   2.210   3.864   4.347
 9332SOL     OW28894   6.325   5.203   0.651
 9332SOL    HW128895   6.236   5.159   0.651
 9332SOL    HW228896   6.353   5.223   0.745
 9333SOL     OW28897   3.106   4.029   1.056
 9333SOL    HW128898   3.202   4.051   1.035
 9333SOL    HW228899   3.057   4.113   1.079
 9334SOL     OW28900   6.156   6.012   5.882
 9334SOL    HW128901   6.253   6.033   5.873
 9334SOL    HW228902   6.133   5.934   5.824
 9335SOL     OW28903   0.947   3.865   1.514
 9335SOL    HW128904   0.961   3.952   1.467
 9335SOL    HW228905   0.936   3.880   1.612
 9336SOL     OW28906   5.457   0.406   6.059
 9336SOL    HW128907   5.393   0.330   6.048
 9336SOL    HW228908   5.472   0.451   5.971
 9337SOL     OW28909   2.545   1.293   5.655
 9337SOL    HW128910   2.489   1.344   5.590
 9337SOL    HW228911   2.495   1.212   5.685
 9338SOL     OW28912   5.584   6.077   0.082
 9338SOL    HW128913   5.484   6.078   0.070
 9338SOL    HW228914   5.605   6.063   0.179
 9339SOL     OW28915   0.179   3.872   5.521
 9339SOL    HW128916   0.266   3.923   5.519
 9339SOL    HW228917   0.179   3.805   5.447
 9340SOL     OW28918   2.767   4.941   1.683
 9340SOL    HW128919   2.755   5.037   1.709
 9340SOL    HW228920   2.856   4.930   1.639
 9341SOL     OW28921   5.383   4.956   6.381
 9341SOL    HW128922   5.413   5.051   6.372
 9341SOL    HW228923   5.300   4.941   6.327
 9342SOL     OW28924   2.918   0.391   4.574
 9342SOL    HW128925   2.920   0.293   4.556
 9342SOL    HW228926   3.012   0.423   4.590
 9343SOL     OW28927   4.850   3.706   0.835
 9343SOL    HW128928   4.806   3.726   0.922
 9343SOL    HW228929   4.940   3.750   0.832
 9344SOL     OW28930   5.606   0.635   5.318
 9344SOL    HW128931   5.573   0.583   5.239
 9344SOL    HW228932   5.655   0.716   5.288
 9345SOL     OW28933   0.177   4.511   0.075
 9345SOL    HW128934   0.138   4.515   0.167
 9345SOL    HW228935   0.188   4.416   0.047
 9346SOL     OW28936   5.687   6.742   1.884
 9346SOL    HW128937   5.768   6.717   1.831
 9346SOL    HW228938   5.611   6.763   1.823
 9347SOL     OW28939   3.999   6.229   1.165
 9347SOL    HW128940   4.018   6.154   1.227
 9347SOL    HW228941   3.901   6.231   1.143
 9348SOL     OW28942   2.164   5.460   1.680
 9348SOL    HW128943   2.148   5.366   1.712
 9348SOL    HW228944   2.258   5.486   1.700
 9349SOL     OW28945   6.896   6.224   1.580
 9349SOL    HW128946   6.867   6.265   1.494
 9349SOL    HW228947   6.996   6.216   1.581
 9350SOL     OW28948   6.316   0.766   0.040
 9350SOL    HW128949   6.404   0.771   7.011
 9350SOL    HW228950   6.304   0.674   0.078
 9351SOL     OW28951   4.183   3.057   5.405
 9351SOL    HW128952   4.270   3.012   5.387
 9351SOL    HW228953   4.113   3.018   5.345
 9352SOL     OW28954   2.903   2.883   6.291
 9352SOL    HW128955   2.876   2.979   6.282
 9352SOL    HW228956   2.824   2.829   6.318
 9353SOL     OW28957   0.386   3.374   1.202
 9353SOL    HW128958   0.372   3.455   1.145
 9353SOL    HW228959   0.453   3.314   1.157
 9354SOL     OW28960   5.005   1.362   1.814
 9354SOL    HW128961   4.921   1.314   1.788
 9354SOL    HW228962   5.043   1.407   1.733
 9355SOL     OW28963   6.549   1.280   3.043
 9355SOL    HW128964   6.552   1.240   3.135
 9355SOL    HW228965   6.639   1.274   3.001
 9356SOL     OW28966   5.029   4.266   2.642
 9356SOL    HW128967   4.978   4.267   2.557
 9356SOL    HW228968   5.001   4.187   2.697
 9357SOL     OW28969   3.349   3.460   0.510
 9357SOL    HW128970   3.441   3.492   0.531
 9357SOL    HW228971   3.328   3.478   0.414
 9358SOL     OW28972   5.198   4.356   1.976
 9358SOL    HW128973   5.256   4.383   2.053
 9358SOL    HW228974   5.213   4.420   1.900
 9359SOL     OW28975   5.388   4.469   5.842
 9359SOL    HW128976   5.459   4.498   5.778
 9359SOL    HW228977   5.298   4.478   5.800
 9360SOL     OW28978   1.402   0.141   5.420
 9360SOL    HW128979   1.454   0.134   5.505
 9360SOL    HW228980   1.461   0.177   5.348
 9361SOL     OW28981   2.226   1.152   2.294
 9361SOL    HW128982   2.295   1.212   2.336
 9361SOL    HW228983   2.189   1.196   2.213
 9362SOL     OW28984   1.475   1.626   2.945
 9362SOL    HW128985   1.547   1.690   2.973
 9362SOL    HW228986   1.510   1.532   2.950
 9363SOL     OW28987   2.410   6.724   1.693
 9363SOL    HW128988   2.401   6.822   1.711
 9363SOL    HW228989   2.480   6.710   1.622
 9364SOL     OW28990   5.552   5.290   1.107
 9364SOL    HW128991   5.519   5.276   1.200
 9364SOL    HW228992   5.543   5.205   1.055
 9365SOL     OW28993   1.928   1.174   4.992
 9365SOL    HW128994   1.881   1.145   5.075
 9365SOL    HW228995   1.863   1.217   4.930
 9366SOL     OW28996   2.715   1.218   1.785
 9366SOL    HW128997   2.748   1.148   1.849
 9366SOL    HW228998   2.787   1.238   1.719
 9367SOL     OW28999   6.635   5.943   3.658
 9367SOL    HW129000   6.541   5.921   3.632
 9367SOL    HW229001   6.637   5.975   3.753
 9368SOL     OW29002   4.345   2.779   1.349
 9368SOL    HW129003   4.366   2.682   1.364
 9368SOL    HW229004   4.261   2.803   1.397
 9369SOL     OW29005   0.054   2.218   5.548
 9369SOL    HW129006   0.080   2.158   5.472
 9369SOL    HW229007   0.115   2.297   5.550
 9370SOL     OW29008   5.941   6.927   3.149
 9370SOL    HW129009   5.999   6.986   3.205
 9370SOL    HW229010   5.929   6.968   3.059
 9371SOL     OW29011   1.203   6.965   0.350
 9371SOL    HW129012   1.142   6.907   0.296
 9371SOL    HW229013   1.189   6.946   0.447
 9372SOL     OW29014   6.538   6.446   6.534
 9372SOL    HW129015   6.552   6.413   6.440
 9372SOL    HW229016   6.590   6.389   6.597
 9373SOL     OW29017   4.645   2.006   3.977
 9373SOL    HW129018   4.600   1.985   4.064
 9373SOL    HW229019   4.583   1.983   3.902
 9374SOL     OW29020   5.153   4.089   0.471
 9374SOL    HW129021   5.122   4.002   0.433
 9374SOL    HW229022   5.100   4.110   0.553
 9375SOL     OW29023   0.796   1.305   3.680
 9375SOL    HW129024   0.841   1.351   3.756
 9375SOL    HW229025   0.741   1.229   3.715
 9376SOL     OW29026   2.222   2.597   2.418
 9376SOL    HW129027   2.184   2.662   2.352
 9376SOL    HW229028   2.273   2.526   2.368
 9377SOL     OW29029   5.985   5.507   2.642
 9377SOL    HW129030   5.940   5.574   2.583
 9377SOL    HW229031   5.975   5.534   2.738
 9378SOL     OW29032   3.169   5.817   1.261
 9378SOL    HW129033   3.198   5.823   1.166
 9378SOL    HW229034   3.071   5.797   1.264
 9379SOL     OW29035   5.957   4.393   5.501
 9379SOL    HW129036   6.017   4.439   5.436
 9379SOL    HW229037   5.890   4.337   5.452
 9380SOL     OW29038   6.002   6.049   6.388
 9380SOL    HW129039   5.931   6.116   6.368
 9380SOL    HW229040   6.092   6.093   6.388
 9381SOL     OW29041   2.932   0.886   0.013
 9381SOL    HW129042   3.004   0.918   0.075
 9381SOL    HW229043   2.893   0.801   0.048
 9382SOL     OW29044   5.143   2.114   2.335
 9382SOL    HW129045   5.052   2.080   2.313
 9382SOL    HW229046   5.138   2.176   2.414
 9383SOL     OW29047   5.591   5.602   5.853
 9383SOL    HW129048   5.558   5.573   5.943
 9383SOL    HW229049   5.513   5.619   5.793
 9384SOL     OW29050   4.545   5.913   2.033
 9384SOL    HW129051   4.473   5.899   2.101
 9384SOL    HW229052   4.537   6.006   1.997
 9385SOL     OW29053   3.888   1.542   3.669
 9385SOL    HW129054   3.809   1.507   3.619
 9385SOL    HW229055   3.962   1.475   3.666
 9386SOL     OW29056   3.947   0.295   4.418
 9386SOL    HW129057   4.015   0.275   4.488
 9386SOL    HW229058   3.947   0.393   4.397
 9387SOL     OW29059   4.140   0.117   0.378
 9387SOL    HW129060   4.180   0.208   0.382
 9387SOL    HW229061   4.044   0.124   0.350
 9388SOL     OW29062   6.931   0.109   2.755
 9388SOL    HW129063   6.911   0.195   2.803
 9388SOL    HW229064   7.017   0.117   2.706
 9389SOL     OW29065   2.953   0.852   6.745
 9389SOL    HW129066   3.024   0.920   6.762
 9389SOL    HW229067   2.921   0.814   6.832
 9390SOL     OW29068   3.292   6.593   2.412
 9390SOL    HW129069   3.348   6.652   2.353
 9390SOL    HW229070   3.263   6.513   2.360
 9391SOL     OW29071   0.907   0.916   5.359
 9391SOL    HW129072   0.817   0.937   5.321
 9391SOL    HW229073   0.977   0.963   5.306
 9392SOL     OW29074   1.478   6.347   4.042
 9392SOL    HW129075   1.480   6.347   3.942
 9392SOL    HW229076   1.561   6.392   4.076
 9393SOL     OW29077   3.777   2.340   5.303
 9393SOL    HW129078   3.811   2.292   5.384
 9393SOL    HW229079   3.825   2.427   5.294
 9394SOL     OW29080   5.294   2.291   2.163
 9394SOL    HW129081   5.271   2.215   2.223
 9394SOL    HW229082   5.368   2.344   2.202
 9395SOL     OW29083   1.999   2.519   6.753
 9395SOL    HW129084   1.923   2.470   6.794
 9395SOL    HW229085   1.978   2.538   6.657
 9396SOL     OW29086   6.420   0.510   6.970
 9396SOL    HW129087   6.478   0.543   0.027
 9396SOL    HW229088   6.471   0.516   6.884
 9397SOL     OW29089   3.051   0.880   0.945
 9397SOL    HW129090   2.967   0.864   0.894
 9397SOL    HW229091   3.125   0.825   0.906
 9398SOL     OW29092   2.580   1.948   6.967
 9398SOL    HW129093   2.559   2.026   0.008
 9398SOL    HW229094   2.501   1.927   6.910
 9399SOL     OW29095   6.836   0.786   5.488
 9399SOL    HW129096   6.781   0.783   5.405
 9399SOL    HW229097   6.924   0.741   5.471
 9400SOL     OW29098   5.252   2.201   3.328
 9400SOL    HW129099   5.316   2.205   3.405
 9400SOL    HW229100   5.195   2.119   3.337
 9401SOL     OW29101   3.026   0.360   2.946
 9401SOL    HW129102   3.116   0.316   2.949
 9401SOL    HW229103   2.988   0.351   2.854
 9402SOL     OW29104   2.213   5.441   6.784
 9402SOL    HW129105   2.180   5.496   6.861
 9402SOL    HW229106   2.297   5.482   6.748
 9403SOL     OW29107   5.267   1.613   4.209
 9403SOL    HW129108   5.195   1.636   4.275
 9403SOL    HW229109   5.356   1.634   4.249
 9404SOL     OW29110   0.406   4.458   6.001
 9404SOL    HW129111   0.430   4.374   6.049
 9404SOL    HW229112   0.337   4.438   5.932
 9405SOL     OW29113   6.271   0.088   1.149
 9405SOL    HW129114   6.285   0.156   1.078
 9405SOL    HW229115   6.174   0.084   1.173
 9406SOL     OW29116   6.919   1.235   5.740
 9406SOL    HW129117   6.873   1.160   5.693
 9406SOL    HW229118   6.955   1.299   5.673
 9407SOL     OW29119   3.365   6.462   3.318
 9407SOL    HW129120   3.378   6.363   3.310
 9407SOL    HW229121   3.442   6.508   3.274
 9408SOL     OW29122   3.590   1.740   6.556
 9408SOL    HW129123   3.585   1.686   6.472
 9408SOL    HW229124   3.633   1.829   6.536
 9409SOL     OW29125   5.315   3.874   3.074
 9409SOL    HW129126   5.387   3.905   3.137
 9409SOL    HW229127   5.226   3.901   3.109
 9410SOL     OW29128   4.878   6.173   2.836
 9410SOL    HW129129   4.854   6.246   2.901
 9410SOL    HW229130   4.975   6.180   2.812
 9411SOL     OW29131   5.018   5.613   1.054
 9411SOL    HW129132   5.027   5.693   0.995
 9411SOL    HW229133   4.951   5.631   1.126
 9412SOL     OW29134   6.578   2.706   1.010
 9412SOL    HW129135   6.614   2.630   1.063
 9412SOL    HW229136   6.654   2.753   0.964
 9413SOL     OW29137   3.682   6.135   5.199
 9413SOL    HW129138   3.628   6.081   5.135
 9413SOL    HW229139   3.761   6.081   5.229
 9414SOL     OW29140   2.562   1.601   1.590
 9414SOL    HW129141   2.498   1.574   1.662
 9414SOL    HW229142   2.652   1.618   1.629
 9415SOL     OW29143   3.051   0.794   2.462
 9415SOL    HW129144   2.987   0.792   2.539
 9415SOL    HW229145   3.002   0.771   2.378
 9416SOL     OW29146   0.704   2.326   1.441
 9416SOL    HW129147   0.654   2.391   1.384
 9416SOL    HW229148   0.743   2.374   1.520
 9417SOL     OW29149   1.850   6.593   4.532
 9417SOL    HW129150   1.756   6.607   4.564
 9417SOL    HW229151   1.867   6.495   4.522
 9418SOL     OW29152   3.620   4.494   0.779
 9418SOL    HW129153   3.605   4.515   0.876
 9418SOL    HW229154   3.626   4.579   0.727
 9419SOL     OW29155   3.671   6.344   5.505
 9419SOL    HW129156   3.729   6.313   5.430
 9419SOL    HW229157   3.611   6.416   5.474
 9420SOL     OW29158   0.629   1.689   4.198
 9420SOL    HW129159   0.649   1.628   4.274
 9420SOL    HW229160   0.662   1.649   4.112
 9421SOL     OW29161   1.661   4.800   5.067
 9421SOL    HW129162   1.736   4.736   5.080
 9421SOL    HW229163   1.591   4.757   5.010
 9422SOL     OW29164   4.151   2.017   1.918
 9422SOL    HW129165   4.191   1.960   1.990
 9422SOL    HW229166   4.079   2.074   1.957
 9423SOL     OW29167   4.795   1.028   5.069
 9423SOL    HW129168   4.813   1.055   4.975
 9423SOL    HW229169   4.749   1.103   5.117
 9424SOL     OW29170   3.070   6.446   4.256
 9424SOL    HW129171   2.995   6.503   4.289
 9424SOL    HW229172   3.045   6.349   4.264
 9425SOL     OW29173   1.240   3.924   3.909
 9425SOL    HW129174   1.143   3.935   3.887
 9425SOL    HW229175   1.290   3.897   3.827
 9426SOL     OW29176   3.556   6.508   0.252
 9426SOL    HW129177   3.601   6.438   0.197
 9426SOL    HW229178   3.470   6.535   0.208
 9427SOL     OW29179   2.966   4.887   4.149
 9427SOL    HW129180   2.920   4.967   4.187
 9427SOL    HW229181   2.980   4.820   4.222
 9428SOL     OW29182   4.734   6.429   2.715
 9428SOL    HW129183   4.686   6.352   2.672
 9428SOL    HW229184   4.830   6.407   2.726
 9429SOL     OW29185   0.324   3.760   2.425
 9429SOL    HW129186   0.304   3.813   2.342
 9429SOL    HW229187   0.273   3.675   2.423
 9430SOL     OW29188   6.311   6.808   2.075
 9430SOL    HW129189   6.231   6.784   2.131
 9430SOL    HW229190   6.312   6.751   1.993
 9431SOL     OW29191   6.923   4.520   1.896
 9431SOL    HW129192   6.824   4.508   1.890
 9431SOL    HW229193   6.947   4.549   1.989
 9432SOL     OW29194   6.446   6.860   4.528
 9432SOL    HW129195   6.464   6.932   4.595
 9432SOL    HW229196   6.392   6.897   4.453
 9433SOL     OW29197   2.624   4.658   4.901
 9433SOL    HW129198   2.643   4.737   4.959
 9433SOL    HW229199   2.682   4.581   4.928
 9434SOL     OW29200   5.323   5.499   2.995
 9434SOL    HW129201   5.309   5.434   3.069
 9434SOL    HW229202   5.247   5.493   2.930
 9435SOL     OW29203   1.410   0.762   4.589
 9435SOL    HW129204   1.328   0.770   4.644
 9435SOL    HW229205   1.386   0.770   4.492
 9436SOL     OW29206   2.166   2.730   6.787
 9436SOL    HW129207   2.115   2.648   6.761
 9436SOL    HW229208   2.169   2.737   6.887
 9437SOL     OW29209   0.686   5.055   3.992
 9437SOL    HW129210   0.676   5.123   4.065
 9437SOL    HW229211   0.666   4.964   4.029
 9438SOL     OW29212   1.616   6.325   1.945
 9438SOL    HW129213   1.573   6.279   2.022
 9438SOL    HW229214   1.716   6.318   1.954
 9439SOL     OW29215   0.362   2.726   1.517
 9439SOL    HW129216   0.326   2.634   1.501
 9439SOL    HW229217   0.293   2.794   1.492
 9440SOL     OW29218   4.814   6.061   5.768
 9440SOL    HW129219   4.739   6.084   5.706
 9440SOL    HW229220   4.892   6.122   5.751
 9441SOL     OW29221   1.446   4.945   5.033
 9441SOL    HW129222   1.525   4.895   5.069
 9441SOL    HW229223   1.443   5.036   5.073
 9442SOL     OW29224   0.717   3.821   1.728
 9442SOL    HW129225   0.789   3.825   1.798
 9442SOL    HW229226   0.744   3.755   1.657
 9443SOL     OW29227   1.719   3.526   1.675
 9443SOL    HW129228   1.631   3.490   1.643
 9443SOL    HW229229   1.781   3.450   1.693
 9444SOL     OW29230   6.874   3.437   6.595
 9444SOL    HW129231   6.817   3.507   6.638
 9444SOL    HW229232   6.901   3.370   6.664
 9445SOL     OW29233   5.751   3.528   1.584
 9445SOL    HW129234   5.686   3.465   1.541
 9445SOL    HW229235   5.811   3.478   1.646
 9446SOL     OW29236   6.191   5.359   1.335
 9446SOL    HW129237   6.225   5.265   1.338
 9446SOL    HW229238   6.246   5.416   1.397
 9447SOL     OW29239   5.880   2.547   1.459
 9447SOL    HW129240   5.896   2.494   1.376
 9447SOL    HW229241   5.826   2.491   1.523
 9448SOL     OW29242   6.361   6.508   0.301
 9448SOL    HW129243   6.381   6.430   0.241
 9448SOL    HW229244   6.364   6.478   0.396
 9449SOL     OW29245   6.899   5.552   5.730
 9449SOL    HW129246   6.902   5.563   5.829
 9449SOL    HW229247   6.901   5.455   5.707
 9450SOL     OW29248   3.033   4.872   4.414
 9450SOL    HW129249   3.059   4.807   4.486
 9450SOL    HW229250   2.970   4.940   4.452
 9451SOL     OW29251   4.163   4.578   6.087
 9451SOL    HW129252   4.225   4.559   6.163
 9451SOL    HW229253   4.201   4.653   6.031
 9452SOL     OW29254   2.615   4.256   1.323
 9452SOL    HW129255   2.535   4.224   1.374
 9452SOL    HW229256   2.696   4.244   1.380
 9453SOL     OW29257   3.243   5.197   1.838
 9453SOL    HW129258   3.198   5.118   1.881
 9453SOL    HW229259   3.302   5.243   1.905
 9454SOL     OW29260   2.236   2.796   4.964
 9454SOL    HW129261   2.280   2.875   5.005
 9454SOL    HW229262   2.305   2.734   4.927
 9455SOL     OW29263   3.153   1.582   2.323
 9455SOL    HW129264   3.151   1.624   2.413
 9455SOL    HW229265   3.144   1.653   2.253
 9456SOL     OW29266   1.577   2.974   1.184
 9456SOL    HW129267   1.590   3.020   1.096
 9456SOL    HW229268   1.528   2.888   1.169
 9457SOL     OW29269   0.142   3.720   0.850
 9457SOL    HW129270   0.207   3.781   0.803
 9457SOL    HW229271   0.088   3.671   0.781
 9458SOL     OW29272   0.044   5.654   5.135
 9458SOL    HW129273   0.056   5.565   5.178
 9458SOL    HW229274   0.116   5.667   5.066
 9459SOL     OW29275   5.490   5.551   1.755
 9459SOL    HW129276   5.522   5.645   1.761
 9459SOL    HW229277   5.490   5.510   1.846
 9460SOL     OW29278   0.799   2.369   5.473
 9460SOL    HW129279   0.753   2.421   5.545
 9460SOL    HW229280   0.860   2.430   5.422
 9461SOL     OW29281   1.561   0.595   3.202
 9461SOL    HW129282   1.480   0.595   3.143
 9461SOL    HW229283   1.573   0.687   3.241
 9462SOL     OW29284   0.546   3.155   2.901
 9462SOL    HW129285   0.560   3.242   2.948
 9462SOL    HW229286   0.459   3.114   2.932
 9463SOL     OW29287   5.073   1.386   0.697
 9463SOL    HW129288   5.081   1.478   0.736
 9463SOL    HW229289   5.156   1.366   0.644
 9464SOL     OW29290   5.056   0.252   6.509
 9464SOL    HW129291   4.978   0.215   6.560
 9464SOL    HW229292   5.139   0.205   6.537
 9465SOL     OW29293   5.958   0.522   4.076
 9465SOL    HW129294   5.951   0.484   3.984
 9465SOL    HW229295   6.053   0.517   4.107
 9466SOL     OW29296   2.860   2.667   6.699
 9466SOL    HW129297   2.792   2.605   6.658
 9466SOL    HW229298   2.853   2.757   6.656
 9467SOL     OW29299   2.100   3.294   2.117
 9467SOL    HW129300   2.166   3.358   2.076
 9467SOL    HW229301   2.025   3.279   2.053
 9468SOL     OW29302   7.006   2.760   5.532
 9468SOL    HW129303   0.049   2.831   5.568
 9468SOL    HW229304   7.004   2.684   5.597
 9469SOL     OW29305   6.452   4.862   1.962
 9469SOL    HW129306   6.470   4.790   2.029
 9469SOL    HW229307   6.529   4.925   1.959
 9470SOL     OW29308   5.090   4.313   1.030
 9470SOL    HW129309   5.082   4.326   0.931
 9470SOL    HW229310   5.126   4.222   1.049
 9471SOL     OW29311   6.711   2.139   6.388
 9471SOL    HW129312   6.770   2.143   6.469
 9471SOL    HW229313   6.620   2.108   6.414
 9472SOL     OW29314   6.517   3.653   4.234
 9472SOL    HW129315   6.498   3.662   4.136
 9472SOL    HW229316   6.478   3.567   4.268
 9473SOL     OW29317   3.495   5.590   5.134
 9473SOL    HW129318   3.416   5.651   5.146
 9473SOL    HW229319   3.554   5.627   5.062
 9474SOL     OW29320   4.044   5.220   2.405
 9474SOL    HW129321   4.085   5.162   2.475
 9474SOL    HW229322   3.954   5.184   2.381
 9475SOL     OW29323   1.981   3.280   1.200
 9475SOL    HW129324   1.992   3.373   1.163
 9475SOL    HW229325   2.064   3.228   1.182
 9476SOL     OW29326   3.689   3.927   5.534
 9476SOL    HW129327   3.695   4.026   5.525
 9476SOL    HW229328   3.693   3.902   5.631
 9477SOL     OW29329   1.350   2.778   1.039
 9477SOL    HW129330   1.286   2.799   1.113
 9477SOL    HW229331   1.312   2.707   0.981
 9478SOL     OW29332   5.575   4.829   5.096
 9478SOL    HW129333   5.521   4.897   5.146
 9478SOL    HW229334   5.627   4.774   5.161
 9479SOL     OW29335   6.402   5.855   6.017
 9479SOL    HW129336   6.362   5.933   6.064
 9479SOL    HW229337   6.396   5.773   6.075
 9480SOL     OW29338   5.951   4.791   0.277
 9480SOL    HW129339   6.028   4.805   0.216
 9480SOL    HW229340   5.881   4.737   0.230
 9481SOL     OW29341   0.114   3.433   2.202
 9481SOL    HW129342   0.082   3.345   2.237
 9481SOL    HW229343   0.194   3.420   2.144
 9482SOL     OW29344   4.168   0.725   3.016
 9482SOL    HW129345   4.218   0.738   3.101
 9482SOL    HW229346   4.200   0.793   2.949
 9483SOL     OW29347   1.674   1.910   6.751
 9483SOL    HW129348   1.595   1.935   6.808
 9483SOL    HW229349   1.737   1.987   6.746
 9484SOL     OW29350   6.676   1.398   3.319
 9484SOL    HW129351   6.602   1.439   3.373
 9484SOL    HW229352   6.653   1.303   3.297
 9485SOL     OW29353   0.811   0.358   3.177
 9485SOL    HW129354   0.903   0.354   3.140
 9485SOL    HW229355   0.806   0.304   3.261
 9486SOL     OW29356   3.068   5.778   2.068
 9486SOL    HW129357   3.131   5.705   2.043
 9486SOL    HW229358   2.996   5.786   1.999
 9487SOL     OW29359   3.272   2.988   3.849
 9487SOL    HW129360   3.223   3.041   3.780
 9487SOL    HW229361   3.307   2.904   3.808
 9488SOL     OW29362   1.641   0.030   1.092
 9488SOL    HW129363   1.593   6.993   1.024
 9488SOL    HW229364   1.606   0.124   1.089
 9489SOL     OW29365   3.511   4.132   0.520
 9489SOL    HW129366   3.450   4.202   0.483
 9489SOL    HW229367   3.578   4.174   0.581
 9490SOL     OW29368   5.370   1.268   0.835
 9490SOL    HW129369   5.367   1.196   0.905
 9490SOL    HW229370   5.386   1.356   0.879
 9491SOL     OW29371   5.901   5.171   6.563
 9491SOL    HW129372   5.925   5.074   6.570
 9491SOL    HW229373   5.936   5.220   6.642
 9492SOL     OW29374   2.957   3.961   1.816
 9492SOL    HW129375   2.924   4.052   1.792
 9492SOL    HW229376   2.963   3.952   1.915
 9493SOL     OW29377   5.046   6.168   3.105
 9493SOL    HW129378   4.980   6.241   3.090
 9493SOL    HW229379   5.139   6.203   3.092
 9494SOL     OW29380   4.091   3.379   5.328
 9494SOL    HW129381   4.001   3.418   5.308
 9494SOL    HW229382   4.099   3.362   5.426
 9495SOL     OW29383   5.698   2.446   5.378
 9495SOL    HW129384   5.690   2.423   5.475
 9495SOL    HW229385   5.762   2.522   5.366
 9496SOL     OW29386   5.651   4.206   6.913
 9496SOL    HW129387   5.613   4.198   7.005
 9496SOL    HW229388   5.750   4.191   6.916
 9497SOL     OW29389   6.300   6.057   6.186
 9497SOL    HW129390   6.239   6.044   6.265
 9497SOL    HW229391   6.307   6.154   6.165
 9498SOL     OW29392   4.704   0.075   5.960
 9498SOL    HW129393   4.696   0.105   5.865
 9498SOL    HW229394   4.628   0.112   6.013
 9499SOL     OW29395   4.390   4.327   5.737
 9499SOL    HW129396   4.488   4.308   5.735
 9499SOL    HW229397   4.345   4.275   5.665
 9500SOL     OW29398   5.526   6.105   1.659
 9500SOL    HW129399   5.502   6.134   1.752
 9500SOL    HW229400   5.523   6.005   1.653
 9501SOL     OW29401   3.516   2.050   4.792
 9501SOL    HW129402   3.456   2.074   4.869
 9501SOL    HW229403   3.466   2.063   4.706
 9502SOL     OW29404   5.996   3.234   5.708
 9502SOL    HW129405   6.068   3.170   5.734
 9502SOL    HW229406   5.933   3.189   5.645
 9503SOL     OW29407   1.879   6.799   1.065
 9503SOL    HW129408   1.807   6.749   1.114
 9503SOL    HW229409   1.967   6.755   1.079
 9504SOL     OW29410   1.068   2.819   6.760
 9504SOL    HW129411   0.984   2.773   6.733
 9504SOL    HW229412   1.128   2.754   6.807
 9505SOL     OW29413   5.806   3.233   2.926
 9505SOL    HW129414   5.801   3.276   2.836
 9505SOL    HW229415   5.901   3.230   2.957
 9506SOL     OW29416   6.209   3.851   0.519
 9506SOL    HW129417   6.182   3.904   0.438
 9506SOL    HW229418   6.159   3.884   0.599
 9507SOL     OW29419   1.252   1.988   3.931
 9507SOL    HW129420   1.264   1.990   3.832
 9507SOL    HW229421   1.332   1.946   3.974
 9508SOL     OW29422   5.352   2.296   0.299
 9508SOL    HW129423   5.410   2.350   0.360
 9508SOL    HW229424   5.372   2.319   0.204
 9509SOL     OW29425   2.502   6.793   5.245
 9509SOL    HW129426   2.593   6.803   5.285
 9509SOL    HW229427   2.444   6.869   5.276
 9510SOL     OW29428   5.874   4.371   3.065
 9510SOL    HW129429   5.791   4.316   3.059
 9510SOL    HW229430   5.937   4.345   2.993
 9511SOL     OW29431   0.694   1.388   0.911
 9511SOL    HW129432   0.686   1.437   0.998
 9511SOL    HW229433   0.692   1.290   0.928
 9512SOL     OW29434   1.309   2.261   3.930
 9512SOL    HW129435   1.258   2.175   3.934
 9512SOL    HW229436   1.245   2.338   3.927
 9513SOL     OW29437   2.343   4.317   3.770
 9513SOL    HW129438   2.278   4.305   3.695
 9513SOL    HW229439   2.359   4.228   3.814
 9514SOL     OW29440   2.433   2.972   6.124
 9514SOL    HW129441   2.368   2.971   6.048
 9514SOL    HW229442   2.504   2.903   6.107
 9515SOL     OW29443   1.923   5.706   6.621
 9515SOL    HW129444   1.942   5.732   6.527
 9515SOL    HW229445   2.004   5.662   6.661
 9516SOL     OW29446   5.172   3.614   4.082
 9516SOL    HW129447   5.168   3.713   4.097
 9516SOL    HW229448   5.095   3.570   4.129
 9517SOL     OW29449   0.411   5.550   2.328
 9517SOL    HW129450   0.336   5.499   2.370
 9517SOL    HW229451   0.498   5.516   2.363
 9518SOL     OW29452   0.781   2.740   5.981
 9518SOL    HW129453   0.821   2.694   6.061
 9518SOL    HW229454   0.839   2.818   5.956
 9519SOL     OW29455   3.609   3.250   2.678
 9519SOL    HW129456   3.558   3.292   2.603
 9519SOL    HW229457   3.704   3.234   2.648
 9520SOL     OW29458   5.852   0.468   5.903
 9520SOL    HW129459   5.920   0.394   5.901
 9520SOL    HW229460   5.826   0.491   5.809
 9521SOL     OW29461   3.822   0.339   1.174
 9521SOL    HW129462   3.843   0.435   1.192
 9521SOL    HW229463   3.744   0.312   1.230
 9522SOL     OW29464   3.605   6.631   2.538
 9522SOL    HW129465   3.699   6.623   2.574
 9522SOL    HW229466   3.553   6.549   2.563
 9523SOL     OW29467   2.953   4.864   3.858
 9523SOL    HW129468   2.958   4.853   3.957
 9523SOL    HW229469   2.857   4.867   3.829
 9524SOL     OW29470   2.587   4.017   1.133
 9524SOL    HW129471   2.687   4.013   1.124
 9524SOL    HW229472   2.562   4.101   1.182
 9525SOL     OW29473   1.865   3.272   5.079
 9525SOL    HW129474   1.918   3.190   5.103
 9525SOL    HW229475   1.927   3.344   5.047
 9526SOL     OW29476   5.056   5.102   7.016
 9526SOL    HW129477   4.988   5.113   6.943
 9526SOL    HW229478   5.110   5.020   6.998
 9527SOL     OW29479   4.198   0.247   3.301
 9527SOL    HW129480   4.145   0.181   3.249
 9527SOL    HW229481   4.144   0.329   3.317
 9528SOL     OW29482   5.578   2.234   1.049
 9528SOL    HW129483   5.588   2.238   0.950
 9528SOL    HW229484   5.578   2.139   1.079
 9529SOL     OW29485   6.425   1.062   1.348
 9529SOL    HW129486   6.487   1.139   1.338
 9529SOL    HW229487   6.376   1.069   1.435
 9530SOL     OW29488   1.034   5.436   4.020
 9530SOL    HW129489   0.983   5.418   3.936
 9530SOL    HW229490   1.043   5.351   4.072
 9531SOL     OW29491   3.630   5.222   2.662
 9531SOL    HW129492   3.562   5.276   2.711
 9531SOL    HW229493   3.652   5.141   2.715
 9532SOL     OW29494   6.609   5.305   2.871
 9532SOL    HW129495   6.646   5.259   2.951
 9532SOL    HW229496   6.527   5.355   2.896
 9533SOL     OW29497   2.244   3.999   3.216
 9533SOL    HW129498   2.283   4.032   3.130
 9533SOL    HW229499   2.210   3.906   3.204
 9534SOL     OW29500   5.329   4.670   4.418
 9534SOL    HW129501   5.296   4.759   4.386
 9534SOL    HW229502   5.261   4.628   4.477
 9535SOL     OW29503   1.045   1.256   5.522
 9535SOL    HW129504   1.100   1.177   5.551
 9535SOL    HW229505   1.009   1.240   5.431
 9536SOL     OW29506   3.508   4.017   5.038
 9536SOL    HW129507   3.538   3.959   5.114
 9536SOL    HW229508   3.413   3.996   5.015
 9537SOL     OW29509   0.473   1.049   3.271
 9537SOL    HW129510   0.471   1.054   3.370
 9537SOL    HW229511   0.482   1.141   3.233
 9538SOL     OW29512   4.459   0.746   5.574
 9538SOL    HW129513   4.483   0.807   5.499
 9538SOL    HW229514   4.360   0.729   5.574
 9539SOL     OW29515   3.376   3.385   2.525
 9539SOL    HW129516   3.325   3.464   2.491
 9539SOL    HW229517   3.315   3.306   2.531
 9540SOL     OW29518   4.798   4.744   3.731
 9540SOL    HW129519   4.749   4.812   3.677
 9540SOL    HW229520   4.827   4.669   3.672
 9541SOL     OW29521   2.040   5.451   5.269
 9541SOL    HW129522   2.072   5.356   5.267
 9541SOL    HW229523   1.982   5.465   5.349
 9542SOL     OW29524   6.118   4.189   4.324
 9542SOL    HW129525   6.142   4.105   4.276
 9542SOL    HW229526   6.164   4.267   4.281
 9543SOL     OW29527   2.532   0.214   5.679
 9543SOL    HW129528   2.608   0.280   5.677
 9543SOL    HW229529   2.528   0.171   5.770
 9544SOL     OW29530   5.444   3.624   4.154
 9544SOL    HW129531   5.350   3.611   4.123
 9544SOL    HW229532   5.506   3.571   4.096
 9545SOL     OW29533   1.277   4.349   1.353
 9545SOL    HW129534   1.270   4.274   1.419
 9545SOL    HW229535   1.260   4.314   1.261
 9546SOL     OW29536   2.530   2.486   6.831
 9546SOL    HW129537   2.496   2.472   6.924
 9546SOL    HW229538   2.611   2.429   6.817
 9547SOL     OW29539   4.249   6.169   4.370
 9547SOL    HW129540   4.186   6.128   4.436
 9547SOL    HW229541   4.202   6.241   4.318
 9548SOL     OW29542   0.867   4.575   0.108
 9548SOL    HW129543   0.807   4.640   0.060
 9548SOL    HW229544   0.831   4.559   0.200
 9549SOL     OW29545   4.878   3.050   0.954
 9549SOL    HW129546   4.825   3.044   0.869
 9549SOL    HW229547   4.872   3.143   0.989
 9550SOL     OW29548   5.779   3.204   1.412
 9550SOL    HW129549   5.873   3.207   1.446
 9550SOL    HW229550   5.737   3.294   1.421
 9551SOL     OW29551   6.410   2.539   6.656
 9551SOL    HW129552   6.373   2.586   6.576
 9551SOL    HW229553   6.473   2.600   6.704
 9552SOL     OW29554   3.050   2.210   6.854
 9552SOL    HW129555   2.968   2.154   6.848
 9552SOL    HW229556   3.116   2.166   6.915
 9553SOL     OW29557   5.413   1.616   6.679
 9553SOL    HW129558   5.458   1.699   6.713
 9553SOL    HW229559   5.458   1.536   6.718
 9554SOL     OW29560   2.375   6.569   3.475
 9554SOL    HW129561   2.335   6.627   3.546
 9554SOL    HW229562   2.424   6.493   3.518
 9555SOL     OW29563   6.136   0.906   3.807
 9555SOL    HW129564   6.158   0.983   3.867
 9555SOL    HW229565   6.123   0.824   3.862
 9556SOL     OW29566   1.857   4.601   0.211
 9556SOL    HW129567   1.925   4.529   0.211
 9556SOL    HW229568   1.867   4.658   0.129
 9557SOL     OW29569   4.846   0.272   1.424
 9557SOL    HW129570   4.938   0.256   1.390
 9557SOL    HW229571   4.798   0.334   1.362
 9558SOL     OW29572   4.949   6.368   6.477
 9558SOL    HW129573   4.952   6.435   6.552
 9558SOL    HW229574   5.016   6.296   6.493
 9559SOL     OW29575   1.426   4.250   0.192
 9559SOL    HW129576   1.366   4.330   0.181
 9559SOL    HW229577   1.519   4.280   0.211
 9560SOL     OW29578   3.614   0.021   2.097
 9560SOL    HW129579   3.526   0.003   2.143
 9560SOL    HW229580   3.666   0.089   2.149
 9561SOL     OW29581   0.775   1.111   0.527
 9561SOL    HW129582   0.862   1.079   0.564
 9561SOL    HW229583   0.717   1.033   0.506
 9562SOL     OW29584   3.109   5.657   3.351
 9562SOL    HW129585   3.053   5.654   3.434
 9562SOL    HW229586   3.068   5.722   3.287
 9563SOL     OW29587   0.702   5.997   1.106
 9563SOL    HW129588   0.717   6.052   1.025
 9563SOL    HW229589   0.623   5.937   1.093
 9564SOL     OW29590   1.003   0.409   6.883
 9564SOL    HW129591   1.015   0.399   6.784
 9564SOL    HW229592   1.003   0.506   6.907
 9565SOL     OW29593   2.832   1.661   3.749
 9565SOL    HW129594   2.871   1.752   3.737
 9565SOL    HW229595   2.777   1.637   3.669
 9566SOL     OW29596   2.699   0.387   0.384
 9566SOL    HW129597   2.653   0.366   0.471
 9566SOL    HW229598   2.647   0.346   0.309
 9567SOL     OW29599   6.610   4.117   1.026
 9567SOL    HW129600   6.614   4.135   1.125
 9567SOL    HW229601   6.592   4.202   0.977
 9568SOL     OW29602   4.889   1.288   6.864
 9568SOL    HW129603   4.857   1.382   6.849
 9568SOL    HW229604   4.836   1.247   6.939
 9569SOL     OW29605   5.410   1.079   2.194
 9569SOL    HW129606   5.344   1.154   2.194
 9569SOL    HW229607   5.366   0.996   2.229
 9570SOL     OW29608   0.206   2.913   1.357
 9570SOL    HW129609   0.120   2.931   1.309
 9570SOL    HW229610   0.259   2.997   1.363
 9571SOL     OW29611   3.057   1.799   6.931
 9571SOL    HW129612   2.978   1.848   6.969
 9571SOL    HW229613   3.027   1.711   6.894
 9572SOL     OW29614   2.238   4.075   3.897
 9572SOL    HW129615   2.193   3.986   3.908
 9572SOL    HW229616   2.266   4.110   3.986
 9573SOL     OW29617   6.238   1.148   4.470
 9573SOL    HW129618   6.318   1.094   4.442
 9573SOL    HW229619   6.261   1.245   4.471
 9574SOL     OW29620   3.237   3.340   1.393
 9574SOL    HW129621   3.337   3.345   1.395
 9574SOL    HW229622   3.199   3.431   1.378
 9575SOL     OW29623   6.405   6.633   1.635
 9575SOL    HW129624   6.469   6.559   1.614
 9575SOL    HW229625   6.313   6.606   1.606
 9576SOL     OW29626   0.949   6.658   6.980
 9576SOL    HW129627   1.023   6.724   6.991
 9576SOL    HW229628   0.890   6.660   0.042
 9577SOL     OW29629   6.235   5.228   2.060
 9577SOL    HW129630   6.221   5.312   2.007
 9577SOL    HW229631   6.185   5.235   2.146
 9578SOL     OW29632   2.044   2.646   3.094
 9578SOL    HW129633   1.987   2.725   3.072
 9578SOL    HW229634   2.110   2.630   3.021
 9579SOL     OW29635   5.747   6.152   2.084
 9579SOL    HW129636   5.686   6.226   2.113
 9579SOL    HW229637   5.738   6.139   1.985
 9580SOL     OW29638   5.045   4.933   2.818
 9580SOL    HW129639   5.107   4.873   2.869
 9580SOL    HW229640   4.994   4.878   2.751
 9581SOL     OW29641   6.353   1.522   0.030
 9581SOL    HW129642   6.389   1.503   0.122
 9581SOL    HW229643   6.299   1.605   0.032
 9582SOL     OW29644   5.106   6.176   4.016
 9582SOL    HW129645   5.032   6.141   4.074
 9582SOL    HW229646   5.147   6.100   3.966
 9583SOL     OW29647   3.376   4.511   1.678
 9583SOL    HW129648   3.451   4.536   1.739
 9583SOL    HW229649   3.298   4.572   1.694
 9584SOL     OW29650   2.223   5.102   4.660
 9584SOL    HW129651   2.294   5.096   4.590
 9584SOL    HW229652   2.264   5.138   4.745
 9585SOL     OW29653   4.464   5.732   1.795
 9585SOL    HW129654   4.520   5.808   1.828
 9585SOL    HW229655   4.522   5.665   1.749
 9586SOL     OW29656   4.810   4.889   2.182
 9586SOL    HW129657   4.741   4.821   2.160
 9586SOL    HW229658   4.886   4.881   2.118
 9587SOL     OW29659   2.521   5.984   1.884
 9587SOL    HW129660   2.523   5.972   1.984
 9587SOL    HW229661   2.576   6.062   1.859
 9588SOL     OW29662   6.425   5.676   0.571
 9588SOL    HW129663   6.381   5.766   0.571
 9588SOL    HW229664   6.457   5.655   0.479
 9589SOL     OW29665   1.759   3.681   6.246
 9589SOL    HW129666   1.832   3.683   6.314
 9589SOL    HW229667   1.670   3.681   6.293
 9590SOL     OW29668   5.385   1.689   2.214
 9590SOL    HW129669   5.304   1.680   2.156
 9590SOL    HW229670   5.386   1.616   2.282
 9591SOL     OW29671   3.546   0.356   6.338
 9591SOL    HW129672   3.616   0.285   6.330
 9591SOL    HW229673   3.456   0.318   6.316
 9592SOL     OW29674   2.254   5.121   5.952
 9592SOL    HW129675   2.296   5.182   5.885
 9592SOL    HW229676   2.308   5.120   6.036
 9593SOL     OW29677   1.784   1.755   4.737
 9593SOL    HW129678   1.819   1.792   4.652
 9593SOL    HW229679   1.809   1.815   4.813
 9594SOL     OW29680   0.453   6.316   4.233
 9594SOL    HW129681   0.458   6.390   4.167
 9594SOL    HW229682   0.486   6.347   4.322
 9595SOL     OW29683   0.203   3.559   3.855
 9595SOL    HW129684   0.132   3.521   3.914
 9595SOL    HW229685   0.289   3.565   3.907
 9596SOL     OW29686   0.373   6.608   0.596
 9596SOL    HW129687   0.407   6.648   0.510
 9596SOL    HW229688   0.388   6.509   0.595
 9597SOL     OW29689   0.587   3.926   2.587
 9597SOL    HW129690   0.568   3.946   2.491
 9597SOL    HW229691   0.567   3.829   2.605
 9598SOL     OW29692   1.103   3.837   3.108
 9598SOL    HW129693   1.121   3.853   3.205
 9598SOL    HW229694   1.031   3.768   3.098
 9599SOL     OW29695   3.414   6.966   3.683
 9599SOL    HW129696   3.483   6.912   3.731
 9599SOL    HW229697   3.341   6.991   3.747
 9600SOL     OW29698   3.278   0.685   1.399
 9600SOL    HW129699   3.199   0.656   1.453
 9600SOL    HW229700   3.360   0.685   1.457
 9601SOL     OW29701   6.679   4.191   1.565
 9601SOL    HW129702   6.724   4.272   1.604
 9601SOL    HW229703   6.600   4.167   1.621
 9602SOL     OW29704   4.708   4.212   5.512
 9602SOL    HW129705   4.626   4.165   5.479
 9602SOL    HW229706   4.767   4.148   5.561
 9603SOL     OW29707   5.888   5.645   5.398
 9603SOL    HW129708   5.905   5.723   5.338
 9603SOL    HW229709   5.826   5.674   5.472
 9604SOL     OW29710   5.265   7.011   0.616
 9604SOL    HW129711   5.177   0.034   0.592
 9604SOL    HW229712   5.274   6.922   0.570
 9605SOL     OW29713   6.563   6.414   3.370
 9605SOL    HW129714   6.600   6.501   3.403
 9605SOL    HW229715   6.601   6.339   3.423
 9606SOL     OW29716   1.527   1.715   6.363
 9606SOL    HW129717   1.535   1.627   6.316
 9606SOL    HW229718   1.485   1.701   6.453
 9607SOL     OW29719   3.090   3.089   6.012
 9607SOL    HW129720   2.992   3.109   6.010
 9607SOL    HW229721   3.108   3.016   6.078
 9608SOL     OW29722   6.395   3.991   3.374
 9608SOL    HW129723   6.330   3.955   3.307
 9608SOL    HW229724   6.471   4.036   3.326
 9609SOL     OW29725   3.876   2.234   6.088
 9609SOL    HW129726   3.927   2.320   6.089
 9609SOL    HW229727   3.940   2.157   6.082
 9610SOL     OW29728   1.407   4.017   2.611
 9610SOL    HW129729   1.356   4.102   2.600
 9610SOL    HW229730   1.502   4.031   2.585
 9611SOL     OW29731   1.356   0.651   0.552
 9611SOL    HW129732   1.332   0.748   0.561
 9611SOL    HW229733   1.427   0.641   0.482
 9612SOL     OW29734   0.805   3.001   2.870
 9612SOL    HW129735   0.878   3.069   2.874
 9612SOL    HW229736   0.718   3.043   2.893
 9613SOL     OW29737   5.832   5.433   3.236
 9613SOL    HW129738   5.931   5.430   3.248
 9613SOL    HW229739   5.795   5.340   3.236
 9614SOL     OW29740   5.229   1.987   2.970
 9614SOL    HW129741   5.297   1.915   2.953
 9614SOL    HW229742   5.276   2.070   2.999
 9615SOL     OW29743   2.419   2.861   1.211
 9615SOL    HW129744   2.477   2.933   1.171
 9615SOL    HW229745   2.391   2.889   1.303
 9616SOL     OW29746   3.167   2.941   6.803
 9616SOL    HW129747   3.159   3.024   6.749
 9616SOL    HW229748   3.178   2.965   6.900
 9617SOL     OW29749   2.371   2.541   3.894
 9617SOL    HW129750   2.324   2.497   3.970
 9617SOL    HW229751   2.344   2.637   3.890
 9618SOL     OW29752   3.088   1.136   0.982
 9618SOL    HW129753   3.174   1.153   0.934
 9618SOL    HW229754   3.059   1.042   0.964
 9619SOL     OW29755   2.515   1.248   4.753
 9619SOL    HW129756   2.490   1.155   4.780
 9619SOL    HW229757   2.588   1.243   4.684
 9620SOL     OW29758   5.857   6.949   5.355
 9620SOL    HW129759   5.835   0.007   5.416
 9620SOL    HW229760   5.773   6.900   5.330
 9621SOL     OW29761   1.752   2.516   2.862
 9621SOL    HW129762   1.778   2.613   2.857
 9621SOL    HW229763   1.674   2.506   2.923
 9622SOL     OW29764   5.872   0.641   1.340
 9622SOL    HW129765   5.959   0.679   1.371
 9622SOL    HW229766   5.889   0.568   1.274
 9623SOL     OW29767   3.362   3.365   6.492
 9623SOL    HW129768   3.406   3.300   6.429
 9623SOL    HW229769   3.315   3.435   6.439
 9624SOL     OW29770   6.106   3.199   3.340
 9624SOL    HW129771   6.149   3.110   3.357
 9624SOL    HW229772   6.007   3.192   3.357
 9625SOL     OW29773   6.446   6.091   0.354
 9625SOL    HW129774   6.532   6.054   0.389
 9625SOL    HW229775   6.454   6.190   0.344
 9626SOL     OW29776   3.847   6.094   6.730
 9626SOL    HW129777   3.765   6.149   6.718
 9626SOL    HW229778   3.835   6.006   6.684
 9627SOL     OW29779   1.205   6.547   6.499
 9627SOL    HW129780   1.279   6.516   6.559
 9627SOL    HW229781   1.161   6.627   6.540
 9628SOL     OW29782   4.306   5.998   1.417
 9628SOL    HW129783   4.344   6.086   1.388
 9628SOL    HW229784   4.225   5.977   1.362
 9629SOL     OW29785   2.800   6.424   1.298
 9629SOL    HW129786   2.820   6.422   1.200
 9629SOL    HW229787   2.874   6.379   1.348
 9630SOL     OW29788   6.191   0.915   5.824
 9630SOL    HW129789   6.092   0.918   5.841
 9630SOL    HW229790   6.226   0.825   5.851
 9631SOL     OW29791   6.335   6.161   6.761
 9631SOL    HW129792   6.356   6.245   6.812
 9631SOL    HW229793   6.390   6.158   6.678
 9632SOL     OW29794   1.671   6.477   1.713
 9632SOL    HW129795   1.684   6.575   1.733
 9632SOL    HW229796   1.642   6.430   1.796
 9633SOL     OW29797   6.578   5.240   6.257
 9633SOL    HW129798   6.507   5.294   6.212
 9633SOL    HW229799   6.543   5.207   6.345
 9634SOL     OW29800   1.235   6.534   4.656
 9634SOL    HW129801   1.187   6.618   4.633
 9634SOL    HW229802   1.206   6.503   4.747
 9635SOL     OW29803   2.643   5.290   5.242
 9635SOL    HW129804   2.615   5.383   5.268
 9635SOL    HW229805   2.628   5.228   5.319
 9636SOL     OW29806   4.185   0.741   5.632
 9636SOL    HW129807   4.188   0.826   5.684
 9636SOL    HW229808   4.183   0.663   5.695
 9637SOL     OW29809   2.006   1.625   6.659
 9637SOL    HW129810   1.927   1.577   6.695
 9637SOL    HW229811   2.088   1.595   6.708
 9638SOL     OW29812   6.376   2.113   5.154
 9638SOL    HW129813   6.395   2.015   5.156
 9638SOL    HW229814   6.436   2.158   5.088
 9639SOL     OW29815   4.183   1.390   2.627
 9639SOL    HW129816   4.278   1.376   2.656
 9639SOL    HW229817   4.163   1.488   2.626
 9640SOL     OW29818   2.298   2.111   2.774
 9640SOL    HW129819   2.220   2.087   2.716
 9640SOL    HW229820   2.320   2.208   2.763
 9641SOL     OW29821   6.462   5.848   0.186
 9641SOL    HW129822   6.408   5.870   0.105
 9641SOL    HW229823   6.436   5.910   0.260
 9642SOL     OW29824   3.221   0.409   4.541
 9642SOL    HW129825   3.248   0.328   4.594
 9642SOL    HW229826   3.236   0.392   4.444
 9643SOL     OW29827   4.631   4.364   3.995
 9643SOL    HW129828   4.550   4.417   3.971
 9643SOL    HW229829   4.708   4.425   4.012
 9644SOL     OW29830   1.836   2.234   6.089
 9644SOL    HW129831   1.747   2.219   6.045
 9644SOL    HW229832   1.848   2.168   6.163
 9645SOL     OW29833   3.202   5.157   4.729
 9645SOL    HW129834   3.176   5.197   4.641
 9645SOL    HW229835   3.271   5.086   4.714
 9646SOL     OW29836   4.044   4.791   2.714
 9646SOL    HW129837   3.966   4.792   2.652
 9646SOL    HW229838   4.094   4.705   2.704
 9647SOL     OW29839   6.424   3.184   0.446
 9647SOL    HW129840   6.405   3.168   0.543
 9647SOL    HW229841   6.387   3.109   0.392
 9648SOL     OW29842   4.714   2.807   0.878
 9648SOL    HW129843   4.748   2.822   0.970
 9648SOL    HW229844   4.787   2.826   0.812
 9649SOL     OW29845   1.975   6.110   0.714
 9649SOL    HW129846   1.909   6.179   0.744
 9649SOL    HW229847   2.067   6.140   0.739
 9650SOL     OW29848   6.842   6.459   1.916
 9650SOL    HW129849   6.935   6.455   1.879
 9650SOL    HW229850   6.846   6.483   2.013
 9651SOL     OW29851   0.526   1.321   6.014
 9651SOL    HW129852   0.483   1.306   5.925
 9651SOL    HW229853   0.552   1.417   6.023
 9652SOL     OW29854   0.524   5.709   2.951
 9652SOL    HW129855   0.559   5.629   2.902
 9652SOL    HW229856   0.600   5.760   2.991
 9653SOL     OW29857   5.719   5.325   4.494
 9653SOL    HW129858   5.762   5.252   4.546
 9653SOL    HW229859   5.627   5.342   4.529
 9654SOL     OW29860   2.249   2.656   2.137
 9654SOL    HW129861   2.266   2.558   2.148
 9654SOL    HW229862   2.273   2.684   2.045
 9655SOL     OW29863   6.380   2.449   6.967
 9655SOL    HW129864   6.364   2.354   6.937
 9655SOL    HW229865   6.403   2.505   6.888
 9656SOL     OW29866   3.844   0.540   2.773
 9656SOL    HW129867   3.882   0.471   2.834
 9656SOL    HW229868   3.885   0.629   2.794
 9657SOL     OW29869   6.846   0.344   4.470
 9657SOL    HW129870   6.904   0.275   4.427
 9657SOL    HW229871   6.786   0.299   4.536
 9658SOL     OW29872   6.503   2.646   2.451
 9658SOL    HW129873   6.480   2.554   2.483
 9658SOL    HW229874   6.420   2.702   2.449
 9659SOL     OW29875   0.417   4.586   7.012
 9659SOL    HW129876   0.475   4.507   0.013
 9659SOL    HW229877   0.322   4.564   0.014
 9660SOL     OW29878   0.428   5.320   0.028
 9660SOL    HW129879   0.479   5.282   6.969
 9660SOL    HW229880   0.371   5.249   0.069
 9661SOL     OW29881   4.230   6.735   1.364
 9661SOL    HW129882   4.251   6.760   1.269
 9661SOL    HW229883   4.133   6.711   1.371
 9662SOL     OW29884   6.154   0.730   4.620
 9662SOL    HW129885   6.234   0.698   4.671
 9662SOL    HW229886   6.105   0.797   4.676
 9663SOL     OW29887   2.425   5.288   2.327
 9663SOL    HW129888   2.348   5.265   2.266
 9663SOL    HW229889   2.503   5.228   2.305
 9664SOL     OW29890   3.169   6.545   2.037
 9664SOL    HW129891   3.126   6.475   2.093
 9664SOL    HW229892   3.227   6.603   2.094
 9665SOL     OW29893   5.588   4.155   4.422
 9665SOL    HW129894   5.611   4.065   4.459
 9665SOL    HW229895   5.588   4.222   4.496
 9666SOL     OW29896   5.749   4.560   4.228
 9666SOL    HW129897   5.654   4.532   4.241
 9666SOL    HW229898   5.796   4.563   4.317
 9667SOL     OW29899   4.024   3.150   4.116
 9667SOL    HW129900   4.056   3.220   4.052
 9667SOL    HW229901   4.022   3.189   4.208
 9668SOL     OW29902   0.486   0.850   5.569
 9668SOL    HW129903   0.549   0.774   5.551
 9668SOL    HW229904   0.536   0.936   5.573
 9669SOL     OW29905   1.779   5.812   0.567
 9669SOL    HW129906   1.829   5.833   0.652
 9669SOL    HW229907   1.688   5.779   0.590
 9670SOL     OW29908   5.381   5.193   0.137
 9670SOL    HW129909   5.369   5.200   0.237
 9670SOL    HW229910   5.328   5.115   0.103
 9671SOL     OW29911   6.801   6.337   6.127
 9671SOL    HW129912   6.769   6.244   6.115
 9671SOL    HW229913   6.836   6.373   6.041
 9672SOL     OW29914   0.431   6.542   4.816
 9672SOL    HW129915   0.390   6.451   4.805
 9672SOL    HW229916   0.371   6.611   4.776
 9673SOL     OW29917   2.926   3.456   6.446
 9673SOL    HW129918   2.830   3.478   6.430
 9673SOL    HW229919   2.969   3.530   6.499
 9674SOL     OW29920   3.264   6.561   2.685
 9674SOL    HW129921   3.353   6.521   2.708
 9674SOL    HW229922   3.258   6.573   2.586
 9675SOL     OW29923   6.616   2.640   2.204
 9675SOL    HW129924   6.585   2.659   2.297
 9675SOL    HW229925   6.663   2.552   2.201
 9676SOL     OW29926   0.023   3.278   4.481
 9676SOL    HW129927   0.068   3.346   4.423
 9676SOL    HW229928   0.032   3.187   4.439
 9677SOL     OW29929   1.715   3.482   5.622
 9677SOL    HW129930   1.687   3.538   5.544
 9677SOL    HW229931   1.762   3.400   5.589
 9678SOL     OW29932   3.177   3.615   3.251
 9678SOL    HW129933   3.159   3.580   3.343
 9678SOL    HW229934   3.276   3.616   3.235
 9679SOL     OW29935   1.078   3.435   1.938
 9679SOL    HW129936   1.140   3.373   1.891
 9679SOL    HW229937   1.062   3.402   2.031
 9680SOL     OW29938   5.850   5.580   3.491
 9680SOL    HW129939   5.890   5.671   3.501
 9680SOL    HW229940   5.808   5.572   3.400
 9681SOL     OW29941   1.898   0.704   2.764
 9681SOL    HW129942   1.813   0.705   2.710
 9681SOL    HW229943   1.923   0.609   2.783
 9682SOL     OW29944   5.862   3.912   3.004
 9682SOL    HW129945   5.765   3.937   3.009
 9682SOL    HW229946   5.901   3.945   2.918
 9683SOL     OW29947   4.659   5.862   6.983
 9683SOL    HW129948   4.746   5.817   6.967
 9683SOL    HW229949   4.648   5.938   6.920
 9684SOL     OW29950   1.720   3.612   4.114
 9684SOL    HW129951   1.631   3.643   4.080
 9684SOL    HW229952   1.722   3.513   4.118
 9685SOL     OW29953   2.151   2.471   6.983
 9685SOL    HW129954   2.129   2.549   0.023
 9685SOL    HW229955   2.095   2.474   6.900
 9686SOL     OW29956   6.023   0.951   1.594
 9686SOL    HW129957   5.948   0.967   1.530
 9686SOL    HW229958   5.986   0.937   1.686
 9687SOL     OW29959   3.411   0.376   3.704
 9687SOL    HW129960   3.466   0.323   3.769
 9687SOL    HW229961   3.442   0.356   3.611
 9688SOL     OW29962   0.262   1.551   3.148
 9688SOL    HW129963   0.275   1.473   3.086
 9688SOL    HW229964   0.344   1.609   3.146
 9689SOL     OW29965   2.230   5.809   6.122
 9689SOL    HW129966   2.303   5.795   6.189
 9689SOL    HW229967   2.182   5.723   6.107
 9690SOL     OW29968   6.267   4.490   1.278
 9690SOL    HW129969   6.239   4.468   1.371
 9690SOL    HW229970   6.230   4.422   1.215
 9691SOL     OW29971   1.723   4.100   1.853
 9691SOL    HW129972   1.699   4.045   1.933
 9691SOL    HW229973   1.669   4.184   1.854
 9692SOL     OW29974   2.708   5.812   1.465
 9692SOL    HW129975   2.741   5.882   1.401
 9692SOL    HW229976   2.709   5.722   1.420
 9693SOL     OW29977   6.310   5.833   1.566
 9693SOL    HW129978   6.271   5.810   1.476
 9693SOL    HW229979   6.260   5.784   1.637
 9694SOL     OW29980   2.164   2.192   6.989
 9694SOL    HW129981   2.166   2.143   6.902
 9694SOL    HW229982   2.176   2.290   6.972
 9695SOL     OW29983   6.325   4.207   1.346
 9695SOL    HW129984   6.285   4.228   1.256
 9695SOL    HW229985   6.283   4.265   1.415
 9696SOL     OW29986   4.234   3.159   1.125
 9696SOL    HW129987   4.169   3.202   1.063
 9696SOL    HW229988   4.275   3.229   1.184
 9697SOL     OW29989   0.789   5.698   0.504
 9697SOL    HW129990   0.710   5.668   0.452
 9697SOL    HW229991   0.825   5.783   0.465
 9698SOL     OW29992   5.930   2.039   4.987
 9698SOL    HW129993   5.852   2.095   4.958
 9698SOL    HW229994   6.010   2.098   5.001
 9699SOL     OW29995   1.669   3.228   0.085
 9699SOL    HW129996   1.701   3.135   0.098
 9699SOL    HW229997   1.608   3.253   0.160
 9700SOL     OW29998   3.380   4.145   4.628
 9700SOL    HW129999   3.416   4.219   4.570
 9700SOL    HW230000   3.454   4.083   4.652
 9701SOL     OW30001   5.760   4.584   4.977
 9701SOL    HW130002   5.687   4.645   4.947
 9701SOL    HW230003   5.721   4.499   5.010
 9702SOL     OW30004   4.537   0.856   1.007
 9702SOL    HW130005   4.502   0.946   1.033
 9702SOL    HW230006   4.471   0.811   0.947
 9703SOL     OW30007   2.779   6.537   3.688
 9703SOL    HW130008   2.791   6.614   3.626
 9703SOL    HW230009   2.862   6.482   3.688
 9704SOL     OW30010   2.907   0.559   3.441
 9704SOL    HW130011   2.915   0.646   3.393
 9704SOL    HW230012   2.997   0.527   3.468
 9705SOL     OW30013   3.565   3.873   0.623
 9705SOL    HW130014   3.514   3.932   0.561
 9705SOL    HW230015   3.660   3.904   0.628
 9706SOL     OW30016   5.452   3.051   2.834
 9706SOL    HW130017   5.424   3.042   2.739
 9706SOL    HW230018   5.372   3.049   2.893
 9707SOL     OW30019   2.341   5.269   2.604
 9707SOL    HW130020   2.251   5.310   2.614
 9707SOL    HW230021   2.355   5.242   2.508
 9708SOL     OW30022   2.765   1.934   2.814
 9708SOL    HW130023   2.828   1.912   2.888
 9708SOL    HW230024   2.769   1.862   2.745
 9709SOL     OW30025   1.824   5.465   2.662
 9709SOL    HW130026   1.742   5.408   2.665
 9709SOL    HW230027   1.815   5.539   2.729
 9710SOL     OW30028   0.314   0.506   3.047
 9710SOL    HW130029   0.345   0.425   3.098
 9710SOL    HW230030   0.217   0.496   3.026
 9711SOL     OW30031   0.993   4.109   5.398
 9711SOL    HW130032   1.080   4.140   5.358
 9711SOL    HW230033   0.967   4.172   5.472
 9712SOL     OW30034   4.828   2.207   4.060
 9712SOL    HW130035   4.773   2.141   4.009
 9712SOL    HW230036   4.908   2.232   4.005
 9713SOL     OW30037   6.878   5.201   2.728
 9713SOL    HW130038   6.855   5.128   2.793
 9713SOL    HW230039   6.908   5.161   2.642
 9714SOL     OW30040   1.578   2.256   1.651
 9714SOL    HW130041   1.511   2.330   1.649
 9714SOL    HW230042   1.545   2.180   1.595
 9715SOL     OW30043   4.764   5.444   5.217
 9715SOL    HW130044   4.836   5.508   5.192
 9715SOL    HW230045   4.700   5.489   5.279
 9716SOL     OW30046   3.998   1.943   6.370
 9716SOL    HW130047   3.993   1.961   6.271
 9716SOL    HW230048   4.029   1.850   6.385
 9717SOL     OW30049   5.593   5.044   3.694
 9717SOL    HW130050   5.659   5.052   3.769
 9717SOL    HW230051   5.633   5.082   3.610
 9718SOL     OW30052   4.891   2.974   1.585
 9718SOL    HW130053   4.826   2.929   1.645
 9718SOL    HW230054   4.860   2.966   1.490
 9719SOL     OW30055   0.317   1.376   0.133
 9719SOL    HW130056   0.398   1.429   0.159
 9719SOL    HW230057   0.333   1.279   0.153
 9720SOL     OW30058   6.946   6.973   1.974
 9720SOL    HW130059   6.932   0.017   2.051
 9720SOL    HW230060   0.015   6.995   1.928
 9721SOL     OW30061   6.720   3.693   2.592
 9721SOL    HW130062   6.721   3.732   2.500
 9721SOL    HW230063   6.683   3.760   2.656
 9722SOL     OW30064   1.016   0.144   4.065
 9722SOL    HW130065   1.083   0.213   4.092
 9722SOL    HW230066   1.063   0.067   4.023
 9723SOL     OW30067   0.142   1.047   3.569
 9723SOL    HW130068   0.121   1.142   3.545
 9723SOL    HW230069   0.131   1.034   3.668
 9724SOL     OW30070   3.517   2.773   1.473
 9724SOL    HW130071   3.498   2.867   1.443
 9724SOL    HW230072   3.555   2.776   1.566
 9725SOL     OW30073   4.156   3.272   5.591
 9725SOL    HW130074   4.164   3.190   5.535
 9725SOL    HW230075   4.243   3.290   5.637
 9726SOL     OW30076   5.370   6.733   4.905
 9726SOL    HW130077   5.294   6.784   4.945
 9726SOL    HW230078   5.352   6.635   4.914
 9727SOL     OW30079   1.551   2.505   5.550
 9727SOL    HW130080   1.462   2.551   5.546
 9727SOL    HW230081   1.613   2.556   5.609
 9728SOL     OW30082   3.163   5.172   6.855
 9728SOL    HW130083   3.202   5.115   6.927
 9728SOL    HW230084   3.211   5.259   6.852
 9729SOL     OW30085   2.821   5.228   2.540
 9729SOL    HW130086   2.794   5.262   2.450
 9729SOL    HW230087   2.887   5.154   2.530
 9730SOL     OW30088   6.647   3.607   3.225
 9730SOL    HW130089   6.691   3.518   3.219
 9730SOL    HW230090   6.716   3.679   3.215
 9731SOL     OW30091   4.417   5.110   0.984
 9731SOL    HW130092   4.488   5.138   0.919
 9731SOL    HW230093   4.394   5.014   0.969
 9732SOL     OW30094   6.428   6.409   2.625
 9732SOL    HW130095   6.336   6.412   2.587
 9732SOL    HW230096   6.456   6.314   2.637
 9733SOL     OW30097   5.492   4.528   6.355
 9733SOL    HW130098   5.455   4.536   6.447
 9733SOL    HW230099   5.525   4.434   6.341
 9734SOL     OW30100   5.234   2.410   4.651
 9734SOL    HW130101   5.271   2.336   4.594
 9734SOL    HW230102   5.308   2.472   4.677
 9735SOL     OW30103   1.417   4.426   0.916
 9735SOL    HW130104   1.517   4.424   0.922
 9735SOL    HW230105   1.387   4.369   0.839
 9736SOL     OW30106   3.379   1.468   0.698
 9736SOL    HW130107   3.304   1.534   0.694
 9736SOL    HW230108   3.356   1.397   0.765
 9737SOL     OW30109   4.130   2.246   5.250
 9737SOL    HW130110   4.147   2.242   5.348
 9737SOL    HW230111   4.132   2.341   5.220
 9738SOL     OW30112   1.602   0.293   2.233
 9738SOL    HW130113   1.563   0.347   2.159
 9738SOL    HW230114   1.651   0.353   2.297
 9739SOL     OW30115   5.256   4.875   1.645
 9739SOL    HW130116   5.343   4.845   1.606
 9739SOL    HW230117   5.195   4.795   1.655
 9740SOL     OW30118   6.801   4.349   3.109
 9740SOL    HW130119   6.849   4.346   3.196
 9740SOL    HW230120   6.841   4.421   3.051
 9741SOL     OW30121   4.646   2.205   1.857
 9741SOL    HW130122   4.580   2.276   1.832
 9741SOL    HW230123   4.605   2.143   1.923
 9742SOL     OW30124   4.906   2.009   4.265
 9742SOL    HW130125   4.876   2.083   4.204
 9742SOL    HW230126   4.948   2.049   4.347
 9743SOL     OW30127   1.679   2.660   5.738
 9743SOL    HW130128   1.653   2.609   5.819
 9743SOL    HW230129   1.679   2.758   5.758
 9744SOL     OW30130   1.620   0.574   1.656
 9744SOL    HW130131   1.536   0.568   1.602
 9744SOL    HW230132   1.669   0.658   1.633
 9745SOL     OW30133   0.131   2.123   5.017
 9745SOL    HW130134   0.175   2.065   5.086
 9745SOL    HW230135   0.177   2.212   5.013
 9746SOL     OW30136   6.100   1.187   4.697
 9746SOL    HW130137   6.153   1.207   4.779
 9746SOL    HW230138   6.161   1.161   4.623
 9747SOL     OW30139   0.559   6.852   6.643
 9747SOL    HW130140   0.642   6.866   6.698
 9747SOL    HW230141   0.481   6.892   6.690
 9748SOL     OW30142   0.008   6.017   4.008
 9748SOL    HW130143   0.071   6.042   4.081
 9748SOL    HW230144   0.001   5.917   4.002
 9749SOL     OW30145   0.689   4.627   4.212
 9749SOL    HW130146   0.632   4.601   4.290
 9749SOL    HW230147   0.770   4.675   4.245
 9750SOL     OW30148   4.238   4.724   3.502
 9750SOL    HW130149   4.265   4.820   3.502
 9750SOL    HW230150   4.318   4.667   3.478
 9751SOL     OW30151   2.037   2.300   0.567
 9751SOL    HW130152   1.981   2.355   0.629
 9751SOL    HW230153   1.979   2.232   0.521
 9752SOL     OW30154   3.684   1.370   5.755
 9752SOL    HW130155   3.783   1.369   5.766
 9752SOL    HW230156   3.650   1.276   5.749
 9753SOL     OW30157   6.731   5.831   5.232
 9753SOL    HW130158   6.714   5.739   5.267
 9753SOL    HW230159   6.675   5.897   5.283
 9754SOL     OW30160   0.519   2.143   6.244
 9754SOL    HW130161   0.561   2.058   6.212
 9754SOL    HW230162   0.441   2.165   6.186
 9755SOL     OW30163   4.008   4.987   5.135
 9755SOL    HW130164   3.922   4.968   5.088
 9755SOL    HW230165   4.026   5.085   5.133
 9756SOL     OW30166   5.949   2.713   6.300
 9756SOL    HW130167   6.015   2.638   6.302
 9756SOL    HW230168   5.862   2.682   6.338
 9757SOL     OW30169   6.200   2.306   3.863
 9757SOL    HW130170   6.208   2.399   3.828
 9757SOL    HW230171   6.239   2.241   3.797
 9758SOL     OW30172   3.029   0.284   0.133
 9758SOL    HW130173   3.006   0.369   0.180
 9758SOL    HW230174   3.028   0.300   0.034
 9759SOL     OW30175   3.293   5.975   1.456
 9759SOL    HW130176   3.349   5.918   1.516
 9759SOL    HW230177   3.246   5.917   1.389
 9760SOL     OW30178   5.671   4.404   6.110
 9760SOL    HW130179   5.659   4.386   6.208
 9760SOL    HW230180   5.624   4.333   6.057
 9761SOL     OW30181   5.708   5.733   2.316
 9761SOL    HW130182   5.651   5.676   2.257
 9761SOL    HW230183   5.699   5.829   2.288
 9762SOL     OW30184   2.521   1.519   4.588
 9762SOL    HW130185   2.468   1.486   4.666
 9762SOL    HW230186   2.464   1.580   4.533
 9763SOL     OW30187   2.285   1.517   1.308
 9763SOL    HW130188   2.275   1.604   1.261
 9763SOL    HW230189   2.242   1.522   1.398
 9764SOL     OW30190   1.459   2.380   2.227
 9764SOL    HW130191   1.548   2.370   2.183
 9764SOL    HW230192   1.469   2.423   2.316
 9765SOL     OW30193   0.050   1.373   5.542
 9765SOL    HW130194   0.140   1.401   5.574
 9765SOL    HW230195   0.010   1.445   5.485
 9766SOL     OW30196   2.871   1.101   2.447
 9766SOL    HW130197   2.893   1.011   2.483
 9766SOL    HW230198   2.951   1.140   2.401
 9767SOL     OW30199   4.829   0.527   5.559
 9767SOL    HW130200   4.834   0.511   5.460
 9767SOL    HW230201   4.918   0.559   5.592
 9768SOL     OW30202   4.401   2.434   2.549
 9768SOL    HW130203   4.421   2.511   2.487
 9768SOL    HW230204   4.477   2.421   2.612
 9769SOL     OW30205   0.584   1.918   1.450
 9769SOL    HW130206   0.614   1.917   1.354
 9769SOL    HW230207   0.605   2.006   1.490
 9770SOL     OW30208   6.228   4.380   5.965
 9770SOL    HW130209   6.137   4.360   6.001
 9770SOL    HW230210   6.295   4.318   6.006
 9771SOL     OW30211   3.799   6.005   5.763
 9771SOL    HW130212   3.863   6.076   5.791
 9771SOL    HW230213   3.790   6.006   5.663
 9772SOL     OW30214   6.797   0.461   1.681
 9772SOL    HW130215   6.817   0.503   1.769
 9772SOL    HW230216   6.867   0.393   1.659
 9773SOL     OW30217   5.780   5.711   3.202
 9773SOL    HW130218   5.818   5.618   3.201
 9773SOL    HW230219   5.706   5.718   3.136
 9774SOL     OW30220   0.131   5.383   3.223
 9774SOL    HW130221   0.083   5.340   3.299
 9774SOL    HW230222   0.065   5.404   3.150
 9775SOL     OW30223   2.765   2.232   4.855
 9775SOL    HW130224   2.738   2.329   4.846
 9775SOL    HW230225   2.684   2.175   4.841
 9776SOL     OW30226   0.411   5.202   4.554
 9776SOL    HW130227   0.463   5.269   4.608
 9776SOL    HW230228   0.406   5.233   4.459
 9777SOL     OW30229   5.722   4.860   6.840
 9777SOL    HW130230   5.687   4.886   6.750
 9777SOL    HW230231   5.809   4.905   6.857
 9778SOL     OW30232   3.700   1.002   3.445
 9778SOL    HW130233   3.764   0.989   3.521
 9778SOL    HW230234   3.719   0.934   3.374
 9779SOL     OW30235   3.116   1.718   6.003
 9779SOL    HW130236   3.114   1.655   6.081
 9779SOL    HW230237   3.025   1.757   5.988
 9780SOL     OW30238   3.535   4.399   0.306
 9780SOL    HW130239   3.482   4.465   0.359
 9780SOL    HW230240   3.473   4.344   0.250
 9781SOL     OW30241   1.800   4.924   4.264
 9781SOL    HW130242   1.771   4.983   4.189
 9781SOL    HW230243   1.900   4.919   4.266
 9782SOL     OW30244   6.559   0.574   1.268
 9782SOL    HW130245   6.613   0.652   1.237
 9782SOL    HW230246   6.617   0.510   1.318
 9783SOL     OW30247   5.249   1.267   2.757
 9783SOL    HW130248   5.327   1.262   2.696
 9783SOL    HW230249   5.227   1.363   2.775
 9784SOL     OW30250   5.170   0.902   4.149
 9784SOL    HW130251   5.191   0.964   4.225
 9784SOL    HW230252   5.253   0.887   4.095
 9785SOL     OW30253   0.680   2.991   1.581
 9785SOL    HW130254   0.722   3.040   1.657
 9785SOL    HW230255   0.645   3.057   1.514
 9786SOL     OW30256   2.693   6.784   4.568
 9786SOL    HW130257   2.784   6.812   4.536
 9786SOL    HW230258   2.649   6.861   4.613
 9787SOL     OW30259   5.422   4.573   1.901
 9787SOL    HW130260   5.459   4.532   1.817
 9787SOL    HW230261   5.442   4.513   1.978
 9788SOL     OW30262   0.602   1.012   5.285
 9788SOL    HW130263   0.627   0.944   5.215
 9788SOL    HW230264   0.502   1.019   5.290
 9789SOL     OW30265   1.787   5.771   4.479
 9789SOL    HW130266   1.837   5.789   4.564
 9789SOL    HW230267   1.689   5.784   4.495
 9790SOL     OW30268   6.398   1.809   4.304
 9790SOL    HW130269   6.475   1.793   4.242
 9790SOL    HW230270   6.391   1.732   4.368
 9791SOL     OW30271   1.090   2.401   1.166
 9791SOL    HW130272   1.035   2.331   1.212
 9791SOL    HW230273   1.131   2.461   1.235
 9792SOL     OW30274   4.385   5.599   2.320
 9792SOL    HW130275   4.370   5.524   2.255
 9792SOL    HW230276   4.482   5.620   2.324
 9793SOL     OW30277   4.941   5.912   2.667
 9793SOL    HW130278   4.927   5.994   2.613
 9793SOL    HW230279   4.886   5.917   2.751
 9794SOL     OW30280   3.679   3.055   6.715
 9794SOL    HW130281   3.715   3.107   6.637
 9794SOL    HW230282   3.710   2.960   6.710
 9795SOL     OW30283   2.126   3.913   4.537
 9795SOL    HW130284   2.182   3.945   4.614
 9795SOL    HW230285   2.087   3.991   4.489
 9796SOL     OW30286   3.775   4.977   0.175
 9796SOL    HW130287   3.729   4.997   0.261
 9796SOL    HW230288   3.750   5.046   0.107
 9797SOL     OW30289   4.768   2.932   4.904
 9797SOL    HW130290   4.713   2.874   4.964
 9797SOL    HW230291   4.841   2.878   4.864
 9798SOL     OW30292   1.687   2.323   1.901
 9798SOL    HW130293   1.727   2.413   1.880
 9798SOL    HW230294   1.635   2.291   1.821
 9799SOL     OW30295   3.067   3.922   2.120
 9799SOL    HW130296   3.009   3.889   2.194
 9799SOL    HW230297   3.141   3.978   2.157
 9800SOL     OW30298   3.714   5.126   6.978
 9800SOL    HW130299   3.700   5.087   6.887
 9800SOL    HW230300   3.809   5.157   6.987
 9801SOL     OW30301   4.602   5.155   0.021
 9801SOL    HW130302   4.603   5.253   0.040
 9801SOL    HW230303   4.511   5.118   0.039
 9802SOL     OW30304   0.337   4.375   1.458
 9802SOL    HW130305   0.391   4.456   1.479
 9802SOL    HW230306   0.393   4.312   1.403
 9803SOL     OW30307   5.738   1.016   6.521
 9803SOL    HW130308   5.658   1.069   6.493
 9803SOL    HW230309   5.720   0.972   6.609
 9804SOL     OW30310   5.449   5.313   4.451
 9804SOL    HW130311   5.377   5.275   4.510
 9804SOL    HW230312   5.425   5.297   4.355
 9805SOL     OW30313   3.188   4.281   0.787
 9805SOL    HW130314   3.228   4.356   0.735
 9805SOL    HW230315   3.238   4.196   0.767
 9806SOL     OW30316   6.251   2.223   2.679
 9806SOL    HW130317   6.216   2.237   2.772
 9806SOL    HW230318   6.320   2.151   2.680
 9807SOL     OW30319   3.752   2.628   0.641
 9807SOL    HW130320   3.692   2.708   0.628
 9807SOL    HW230321   3.827   2.653   0.702
 9808SOL     OW30322   1.083   1.507   5.155
 9808SOL    HW130323   1.121   1.592   5.117
 9808SOL    HW230324   1.054   1.523   5.249
 9809SOL     OW30325   1.005   0.654   4.983
 9809SOL    HW130326   1.010   0.618   4.890
 9809SOL    HW230327   1.045   0.588   5.047
 9810SOL     OW30328   4.032   1.170   3.740
 9810SOL    HW130329   4.093   1.155   3.818
 9810SOL    HW230330   4.078   1.230   3.674
 9811SOL     OW30331   1.420   6.643   2.688
 9811SOL    HW130332   1.349   6.680   2.749
 9811SOL    HW230333   1.377   6.612   2.603
 9812SOL     OW30334   5.185   2.932   5.186
 9812SOL    HW130335   5.118   2.994   5.228
 9812SOL    HW230336   5.206   2.858   5.250
 9813SOL     OW30337   6.482   4.895   0.312
 9813SOL    HW130338   6.532   4.818   0.352
 9813SOL    HW230339   6.439   4.948   0.385
 9814SOL     OW30340   6.833   0.434   5.678
 9814SOL    HW130341   6.889   0.373   5.622
 9814SOL    HW230342   6.893   0.497   5.728
 9815SOL     OW30343   6.593   3.947   3.034
 9815SOL    HW130344   6.656   3.915   3.105
 9815SOL    HW230345   6.546   4.029   3.065
 9816SOL     OW30346   6.631   0.487   6.011
 9816SOL    HW130347   6.627   0.414   5.943
 9816SOL    HW230348   6.717   0.481   6.062
 9817SOL     OW30349   2.700   6.926   6.993
 9817SOL    HW130350   2.604   6.956   6.995
 9817SOL    HW230351   2.732   6.923   6.899
 9818SOL     OW30352   0.693   6.707   3.316
 9818SOL    HW130353   0.629   6.779   3.292
 9818SOL    HW230354   0.653   6.618   3.294
 9819SOL     OW30355   6.798   2.845   4.617
 9819SOL    HW130356   6.759   2.809   4.532
 9819SOL    HW230357   6.741   2.920   4.651
 9820SOL     OW30358   3.727   2.205   5.834
 9820SOL    HW130359   3.655   2.145   5.799
 9820SOL    HW230360   3.753   2.175   5.926
 9821SOL     OW30361   3.676   3.008   1.536
 9821SOL    HW130362   3.750   3.071   1.514
 9821SOL    HW230363   3.680   2.985   1.634
 9822SOL     OW30364   3.507   6.534   4.888
 9822SOL    HW130365   3.531   6.596   4.963
 9822SOL    HW230366   3.524   6.439   4.916
 9823SOL     OW30367   2.872   6.994   3.124
 9823SOL    HW130368   2.774   6.976   3.115
 9823SOL    HW230369   2.918   6.913   3.160
 9824SOL     OW30370   0.930   6.130   5.460
 9824SOL    HW130371   0.945   6.204   5.395
 9824SOL    HW230372   0.956   6.159   5.552
 9825SOL     OW30373   6.475   6.588   4.988
 9825SOL    HW130374   6.396   6.624   5.038
 9825SOL    HW230375   6.444   6.525   4.918
 9826SOL     OW30376   2.373   5.588   5.075
 9826SOL    HW130377   2.314   5.651   5.025
 9826SOL    HW230378   2.469   5.609   5.054
 9827SOL     OW30379   1.722   4.718   2.078
 9827SOL    HW130380   1.738   4.727   1.979
 9827SOL    HW230381   1.802   4.750   2.127
 9828SOL     OW30382   4.880   1.752   4.708
 9828SOL    HW130383   4.802   1.747   4.770
 9828SOL    HW230384   4.919   1.661   4.695
 9829SOL     OW30385   4.856   5.188   5.696
 9829SOL    HW130386   4.795   5.261   5.728
 9829SOL    HW230387   4.850   5.181   5.597
 9830SOL     OW30388   5.604   1.567   3.752
 9830SOL    HW130389   5.555   1.530   3.831
 9830SOL    HW230390   5.597   1.667   3.752
 9831SOL     OW30391   0.626   4.407   2.699
 9831SOL    HW130392   0.716   4.431   2.734
 9831SOL    HW230393   0.621   4.428   2.602
 9832SOL     OW30394   4.594   5.666   4.662
 9832SOL    HW130395   4.635   5.580   4.694
 9832SOL    HW230396   4.659   5.715   4.605
 9833SOL     OW30397   4.128   3.635   4.026
 9833SOL    HW130398   4.059   3.659   4.094
 9833SOL    HW230399   4.219   3.648   4.065
 9834SOL     OW30400   2.825   6.412   5.389
 9834SOL    HW130401   2.901   6.351   5.364
 9834SOL    HW230402   2.755   6.360   5.437
 9835SOL     OW30403   4.043   3.835   4.576
 9835SOL    HW130404   4.134   3.861   4.606
 9835SOL    HW230405   4.009   3.760   4.634
 9836SOL     OW30406   0.218   3.833   6.258
 9836SOL    HW130407   0.244   3.928   6.241
 9836SOL    HW230408   0.134   3.811   6.209
 9837SOL     OW30409   5.694   1.852   3.501
 9837SOL    HW130410   5.730   1.945   3.491
 9837SOL    HW230411   5.700   1.804   3.414
 9838SOL     OW30412   1.786   6.699   1.307
 9838SOL    HW130413   1.694   6.736   1.322
 9838SOL    HW230414   1.798   6.615   1.360
 9839SOL     OW30415   4.534   6.534   3.865
 9839SOL    HW130416   4.522   6.610   3.800
 9839SOL    HW230417   4.444   6.494   3.886
 9840SOL     OW30418   6.505   1.706   6.620
 9840SOL    HW130419   6.453   1.621   6.612
 9840SOL    HW230420   6.449   1.776   6.663
 9841SOL     OW30421   6.665   6.310   2.929
 9841SOL    HW130422   6.618   6.364   2.998
 9841SOL    HW230423   6.598   6.258   2.876
 9842SOL     OW30424   3.609   0.485   6.664
 9842SOL    HW130425   3.613   0.569   6.718
 9842SOL    HW230426   3.700   0.465   6.627
 9843SOL     OW30427   0.305   0.489   1.496
 9843SOL    HW130428   0.395   0.521   1.526
 9843SOL    HW230429   0.276   0.541   1.415
 9844SOL     OW30430   4.669   0.142   4.340
 9844SOL    HW130431   4.679   0.149   4.241
 9844SOL    HW230432   4.679   0.233   4.381
 9845SOL     OW30433   1.593   3.344   2.519
 9845SOL    HW130434   1.649   3.264   2.500
 9845SOL    HW230435   1.633   3.425   2.475
 9846SOL     OW30436   6.339   2.492   1.368
 9846SOL    HW130437   6.314   2.501   1.272
 9846SOL    HW230438   6.277   2.547   1.425
 9847SOL     OW30439   4.140   3.648   6.853
 9847SOL    HW130440   4.056   3.593   6.859
 9847SOL    HW230441   4.153   3.680   6.759
 9848SOL     OW30442   3.691   3.873   5.799
 9848SOL    HW130443   3.685   3.773   5.805
 9848SOL    HW230444   3.694   3.912   5.891
 9849SOL     OW30445   0.812   2.236   4.434
 9849SOL    HW130446   0.719   2.266   4.459
 9849SOL    HW230447   0.810   2.193   4.344
 9850SOL     OW30448   1.872   6.905   3.787
 9850SOL    HW130449   1.955   6.960   3.772
 9850SOL    HW230450   1.891   6.837   3.857
 9851SOL     OW30451   3.680   5.376   3.924
 9851SOL    HW130452   3.669   5.476   3.932
 9851SOL    HW230453   3.710   5.339   4.012
 9852SOL     OW30454   1.975   0.107   0.518
 9852SOL    HW130455   2.054   0.106   0.580
 9852SOL    HW230456   1.892   0.082   0.569
 9853SOL     OW30457   0.210   4.337   3.477
 9853SOL    HW130458   0.238   4.334   3.573
 9853SOL    HW230459   0.255   4.262   3.428
 9854SOL     OW30460   0.804   4.294   6.448
 9854SOL    HW130461   0.815   4.217   6.510
 9854SOL    HW230462   0.885   4.303   6.390
 9855SOL     OW30463   0.997   5.192   0.332
 9855SOL    HW130464   1.054   5.247   0.393
 9855SOL    HW230465   1.053   5.153   0.259
 9856SOL     OW30466   5.568   3.243   3.378
 9856SOL    HW130467   5.473   3.213   3.392
 9856SOL    HW230468   5.588   3.245   3.280
 9857SOL     OW30469   4.784   0.278   5.720
 9857SOL    HW130470   4.808   0.355   5.661
 9857SOL    HW230471   4.754   0.311   5.809
 9858SOL     OW30472   6.430   5.714   1.996
 9858SOL    HW130473   6.521   5.673   1.999
 9858SOL    HW230474   6.429   5.798   2.050
 9859SOL     OW30475   6.916   5.650   3.236
 9859SOL    HW130476   6.831   5.701   3.246
 9859SOL    HW230477   6.901   5.572   3.175
 9860SOL     OW30478   1.479   3.087   4.570
 9860SOL    HW130479   1.444   3.102   4.663
 9860SOL    HW230480   1.466   2.991   4.544
 9861SOL     OW30481   3.671   1.982   2.836
 9861SOL    HW130482   3.759   2.022   2.812
 9861SOL    HW230483   3.684   1.887   2.866
 9862SOL     OW30484   1.335   4.092   6.540
 9862SOL    HW130485   1.413   4.098   6.478
 9862SOL    HW230486   1.360   4.130   6.629
 9863SOL     OW30487   4.358   6.718   1.719
 9863SOL    HW130488   4.260   6.737   1.724
 9863SOL    HW230489   4.393   6.751   1.631
 9864SOL     OW30490   2.481   5.720   5.486
 9864SOL    HW130491   2.514   5.712   5.580
 9864SOL    HW230492   2.385   5.750   5.487
 9865SOL     OW30493   1.467   5.255   5.625
 9865SOL    HW130494   1.410   5.335   5.645
 9865SOL    HW230495   1.547   5.255   5.683
 9866SOL     OW30496   6.595   5.591   5.689
 9866SOL    HW130497   6.680   5.543   5.668
 9866SOL    HW230498   6.532   5.530   5.737
 9867SOL     OW30499   3.915   1.889   2.338
 9867SOL    HW130500   4.002   1.903   2.292
 9867SOL    HW230501   3.879   1.799   2.317
 9868SOL     OW30502   2.192   4.338   3.546
 9868SOL    HW130503   2.094   4.347   3.565
 9868SOL    HW230504   2.223   4.416   3.492
 9869SOL     OW30505   0.136   2.689   1.042
 9869SOL    HW130506   0.198   2.738   0.980
 9869SOL    HW230507   0.171   2.695   1.135
 9870SOL     OW30508   2.525   2.467   2.570
 9870SOL    HW130509   2.483   2.548   2.611
 9870SOL    HW230510   2.514   2.389   2.631
 9871SOL     OW30511   5.543   5.524   3.412
 9871SOL    HW130512   5.460   5.519   3.357
 9871SOL    HW230513   5.552   5.440   3.466
 9872SOL     OW30514   0.887   4.812   5.806
 9872SOL    HW130515   0.951   4.839   5.878
 9872SOL    HW230516   0.859   4.893   5.755
 9873SOL     OW30517   1.132   1.167   5.265
 9873SOL    HW130518   1.148   1.101   5.192
 9873SOL    HW230519   1.202   1.239   5.261
 9874SOL     OW30520   0.436   2.186   4.705
 9874SOL    HW130521   0.483   2.241   4.774
 9874SOL    HW230522   0.416   2.095   4.742
 9875SOL     OW30523   6.335   6.127   0.698
 9875SOL    HW130524   6.352   6.169   0.787
 9875SOL    HW230525   6.294   6.036   0.711
 9876SOL     OW30526   0.385   6.581   3.411
 9876SOL    HW130527   0.401   6.485   3.435
 9876SOL    HW230528   0.350   6.586   3.317
 9877SOL     OW30529   0.969   5.607   5.315
 9877SOL    HW130530   0.883   5.655   5.297
 9877SOL    HW230531   0.981   5.594   5.413
 9878SOL     OW30532   3.226   2.664   6.801
 9878SOL    HW130533   3.152   2.610   6.841
 9878SOL    HW230534   3.191   2.753   6.773
 9879SOL     OW30535   6.575   5.510   6.102
 9879SOL    HW130536   6.522   5.579   6.150
 9879SOL    HW230537   6.657   5.488   6.155
 9880SOL     OW30538   2.940   1.203   1.376
 9880SOL    HW130539   2.963   1.110   1.349
 9880SOL    HW230540   2.896   1.250   1.300
 9881SOL     OW30541   6.085   1.496   3.871
 9881SOL    HW130542   6.016   1.547   3.820
 9881SOL    HW230543   6.155   1.558   3.905
 9882SOL     OW30544   3.653   3.426   4.884
 9882SOL    HW130545   3.570   3.370   4.877
 9882SOL    HW230546   3.645   3.489   4.961
 9883SOL     OW30547   2.000   6.934   2.276
 9883SOL    HW130548   1.962   6.980   2.196
 9883SOL    HW230549   2.097   6.959   2.287
 9884SOL     OW30550   2.893   2.700   5.716
 9884SOL    HW130551   2.864   2.791   5.745
 9884SOL    HW230552   2.842   2.673   5.634
 9885SOL     OW30553   4.874   2.849   5.400
 9885SOL    HW130554   4.873   2.750   5.384
 9885SOL    HW230555   4.968   2.880   5.411
 9886SOL     OW30556   3.364   5.558   1.208
 9886SOL    HW130557   3.427   5.627   1.172
 9886SOL    HW230558   3.308   5.522   1.134
 9887SOL     OW30559   3.402   2.064   6.880
 9887SOL    HW130560   3.443   1.977   6.907
 9887SOL    HW230561   3.358   2.106   6.959
 9888SOL     OW30562   6.343   6.951   3.503
 9888SOL    HW130563   6.297   6.885   3.563
 9888SOL    HW230564   6.282   0.011   3.488
 9889SOL     OW30565   6.515   5.984   2.786
 9889SOL    HW130566   6.492   6.061   2.845
 9889SOL    HW230567   6.593   5.935   2.825
 9890SOL     OW30568   0.544   3.640   2.392
 9890SOL    HW130569   0.554   3.629   2.293
 9890SOL    HW230570   0.468   3.703   2.410
 9891SOL     OW30571   5.463   5.845   1.663
 9891SOL    HW130572   5.407   5.832   1.744
 9891SOL    HW230573   5.418   5.802   1.584
 9892SOL     OW30574   1.242   5.608   3.925
 9892SOL    HW130575   1.161   5.569   3.969
 9892SOL    HW230576   1.321   5.550   3.941
 9893SOL     OW30577   5.488   5.336   4.756
 9893SOL    HW130578   5.473   5.434   4.743
 9893SOL    HW230579   5.569   5.321   4.812
 9894SOL     OW30580   4.461   3.350   5.451
 9894SOL    HW130581   4.485   3.254   5.438
 9894SOL    HW230582   4.381   3.373   5.396
 9895SOL     OW30583   5.691   2.118   0.098
 9895SOL    HW130584   5.618   2.074   0.148
 9895SOL    HW230585   5.662   2.136   0.004
 9896SOL     OW30586   4.092   3.235   0.367
 9896SOL    HW130587   4.013   3.203   0.420
 9896SOL    HW230588   4.060   3.282   0.285
 9897SOL     OW30589   6.527   1.535   3.491
 9897SOL    HW130590   6.488   1.540   3.583
 9897SOL    HW230591   6.480   1.600   3.432
 9898SOL     OW30592   1.678   4.879   6.294
 9898SOL    HW130593   1.680   4.801   6.357
 9898SOL    HW230594   1.605   4.865   6.226
 9899SOL     OW30595   4.894   4.810   2.630
 9899SOL    HW130596   4.838   4.729   2.613
 9899SOL    HW230597   4.930   4.845   2.543
 9900SOL     OW30598   1.317   4.164   3.738
 9900SOL    HW130599   1.263   4.144   3.820
 9900SOL    HW230600   1.314   4.262   3.719
 9901SOL     OW30601   2.675   1.942   6.131
 9901SOL    HW130602   2.613   1.989   6.067
 9901SOL    HW230603   2.641   1.955   6.225
 9902SOL     OW30604   4.779   3.841   0.306
 9902SOL    HW130605   4.755   3.913   0.241
 9902SOL    HW230606   4.703   3.777   0.314
 9903SOL     OW30607   3.756   0.932   1.522
 9903SOL    HW130608   3.758   1.011   1.584
 9903SOL    HW230609   3.663   0.919   1.487
 9904SOL     OW30610   0.220   0.032   1.908
 9904SOL    HW130611   0.272   0.115   1.922
 9904SOL    HW230612   0.279   6.979   1.871
 9905SOL     OW30613   1.569   6.372   5.974
 9905SOL    HW130614   1.609   6.462   5.959
 9905SOL    HW230615   1.634   6.314   6.023
 9906SOL     OW30616   4.141   4.070   5.889
 9906SOL    HW130617   4.067   4.055   5.824
 9906SOL    HW230618   4.155   4.169   5.900
 9907SOL     OW30619   1.021   6.454   2.730
 9907SOL    HW130620   0.978   6.526   2.675
 9907SOL    HW230621   1.120   6.460   2.721
 9908SOL     OW30622   0.405   3.356   4.745
 9908SOL    HW130623   0.498   3.339   4.776
 9908SOL    HW230624   0.362   3.269   4.721
 9909SOL     OW30625   3.347   0.504   2.735
 9909SOL    HW130626   3.363   0.415   2.694
 9909SOL    HW230627   3.250   0.514   2.757
 9910SOL     OW30628   0.796   4.452   0.944
 9910SOL    HW130629   0.733   4.390   0.897
 9910SOL    HW230630   0.755   4.481   1.031
 9911SOL     OW30631   3.898   5.085   3.098
 9911SOL    HW130632   3.949   5.161   3.137
 9911SOL    HW230633   3.875   5.020   3.169
 9912SOL     OW30634   3.966   6.834   1.172
 9912SOL    HW130635   4.063   6.843   1.148
 9912SOL    HW230636   3.910   6.850   1.091
 9913SOL     OW30637   4.164   2.273   2.533
 9913SOL    HW130638   4.092   2.266   2.602
 9913SOL    HW230639   4.217   2.357   2.549
 9914SOL     OW30640   2.515   5.529   5.293
 9914SOL    HW130641   2.455   5.558   5.219
 9914SOL    HW230642   2.496   5.584   5.375
 9915SOL     OW30643   5.894   3.576   4.015
 9915SOL    HW130644   5.920   3.667   3.983
 9915SOL    HW230645   5.964   3.510   3.988
 9916SOL     OW30646   2.600   2.759   0.597
 9916SOL    HW130647   2.585   2.830   0.667
 9916SOL    HW230648   2.660   2.689   0.634
 9917SOL     OW30649   2.191   2.683   4.662
 9917SOL    HW130650   2.183   2.623   4.583
 9917SOL    HW230651   2.157   2.636   4.743
 9918SOL     OW30652   2.249   0.678   4.621
 9918SOL    HW130653   2.327   0.616   4.634
 9918SOL    HW230654   2.194   0.647   4.544
 9919SOL     OW30655   0.135   5.597   2.742
 9919SOL    HW130656   0.156   5.674   2.681
 9919SOL    HW230657   0.039   5.570   2.728
 9920SOL     OW30658   4.334   6.514   2.883
 9920SOL    HW130659   4.329   6.602   2.837
 9920SOL    HW230660   4.367   6.528   2.977
 9921SOL     OW30661   4.906   6.960   3.435
 9921SOL    HW130662   4.839   6.995   3.500
 9921SOL    HW230663   4.879   6.985   3.342
 9922SOL     OW30664   5.014   3.335   1.597
 9922SOL    HW130665   4.935   3.279   1.574
 9922SOL    HW230666   5.042   3.388   1.516
 9923SOL     OW30667   6.126   0.851   6.112
 9923SOL    HW130668   6.026   0.842   6.116
 9923SOL    HW230669   6.168   0.760   6.111
 9924SOL     OW30670   5.127   0.925   3.371
 9924SOL    HW130671   5.201   0.990   3.354
 9924SOL    HW230672   5.154   0.861   3.444
 9925SOL     OW30673   3.353   2.053   5.008
 9925SOL    HW130674   3.320   2.144   4.984
 9925SOL    HW230675   3.276   1.990   5.015
 9926SOL     OW30676   1.691   0.873   6.553
 9926SOL    HW130677   1.776   0.912   6.587
 9926SOL    HW230678   1.681   0.893   6.455
 9927SOL     OW30679   0.982   2.518   2.169
 9927SOL    HW130680   0.983   2.575   2.087
 9927SOL    HW230681   0.902   2.458   2.168
 9928SOL     OW30682   6.968   3.394   2.816
 9928SOL    HW130683   6.963   3.323   2.886
 9928SOL    HW230684   6.876   3.415   2.784
 9929SOL     OW30685   1.370   4.397   5.755
 9929SOL    HW130686   1.445   4.354   5.705
 9929SOL    HW230687   1.392   4.398   5.853
 9930SOL     OW30688   0.170   5.435   0.177
 9930SOL    HW130689   0.240   5.494   0.216
 9930SOL    HW230690   0.153   5.462   0.082
 9931SOL     OW30691   2.986   4.972   6.767
 9931SOL    HW130692   3.042   4.889   6.775
 9931SOL    HW230693   3.045   5.052   6.778
 9932SOL     OW30694   1.746   2.244   1.026
 9932SOL    HW130695   1.747   2.161   1.083
 9932SOL    HW230696   1.822   2.240   0.961
 9933SOL     OW30697   0.518   1.350   2.161
 9933SOL    HW130698   0.546   1.446   2.151
 9933SOL    HW230699   0.543   1.317   2.252
 9934SOL     OW30700   4.993   0.925   0.112
 9934SOL    HW130701   5.036   0.837   0.132
 9934SOL    HW230702   5.064   0.992   0.086
 9935SOL     OW30703   2.869   2.080   0.807
 9935SOL    HW130704   2.945   2.129   0.765
 9935SOL    HW230705   2.879   1.981   0.790
 9936SOL     OW30706   5.527   6.399   6.018
 9936SOL    HW130707   5.441   6.406   5.968
 9936SOL    HW230708   5.509   6.385   6.116
 9937SOL     OW30709   1.649   6.528   3.249
 9937SOL    HW130710   1.649   6.587   3.329
 9937SOL    HW230711   1.620   6.580   3.168
 9938SOL     OW30712   6.598   0.970   3.606
 9938SOL    HW130713   6.603   0.945   3.703
 9938SOL    HW230714   6.554   1.059   3.596
 9939SOL     OW30715   2.862   4.191   1.474
 9939SOL    HW130716   2.938   4.147   1.426
 9939SOL    HW230717   2.887   4.204   1.570
 9940SOL     OW30718   6.963   0.815   3.670
 9940SOL    HW130719   7.008   0.841   3.584
 9940SOL    HW230720   6.917   0.895   3.709
 9941SOL     OW30721   5.694   4.742   0.619
 9941SOL    HW130722   5.691   4.700   0.709
 9941SOL    HW230723   5.610   4.795   0.604
 9942SOL     OW30724   5.547   6.010   2.729
 9942SOL    HW130725   5.519   6.022   2.825
 9942SOL    HW230726   5.641   5.975   2.727
 9943SOL     OW30727   1.245   4.048   5.593
 9943SOL    HW130728   1.299   4.052   5.678
 9943SOL    HW230729   1.182   3.970   5.598
 9944SOL     OW30730   1.688   5.704   5.800
 9944SOL    HW130731   1.590   5.722   5.800
 9944SOL    HW230732   1.727   5.733   5.712
 9945SOL     OW30733   6.731   3.657   6.929
 9945SOL    HW130734   6.641   3.700   6.940
 9945SOL    HW230735   6.720   3.560   6.911
 9946SOL     OW30736   4.922   2.205   1.448
 9946SOL    HW130737   4.903   2.261   1.529
 9946SOL    HW230738   4.978   2.127   1.474
 9947SOL     OW30739   0.654   1.352   2.940
 9947SOL    HW130740   0.662   1.452   2.941
 9947SOL    HW230741   0.671   1.318   2.847
 9948SOL     OW30742   5.594   0.874   4.738
 9948SOL    HW130743   5.633   0.956   4.695
 9948SOL    HW230744   5.660   0.837   4.804
 9949SOL     OW30745   6.553   4.397   3.061
 9949SOL    HW130746   6.553   4.464   3.136
 9949SOL    HW230747   6.645   4.359   3.050
 9950SOL     OW30748   4.548   4.051   5.295
 9950SOL    HW130749   4.535   3.959   5.333
 9950SOL    HW230750   4.640   4.058   5.257
 9951SOL     OW30751   0.025   1.925   2.882
 9951SOL    HW130752   0.122   1.935   2.903
 9951SOL    HW230753   7.011   2.004   2.830
 9952SOL     OW30754   1.365   4.771   1.764
 9952SOL    HW130755   1.458   4.737   1.751
 9952SOL    HW230756   1.328   4.734   1.849
 9953SOL     OW30757   6.159   3.653   3.889
 9953SOL    HW130758   6.206   3.707   3.959
 9953SOL    HW230759   6.150   3.558   3.920
 9954SOL     OW30760   3.508   0.677   1.528
 9954SOL    HW130761   3.494   0.699   1.624
 9954SOL    HW230762   3.602   0.646   1.515
 9955SOL     OW30763   5.565   4.856   1.737
 9955SOL    HW130764   5.526   4.852   1.828
 9955SOL    HW230765   5.512   4.798   1.675
 9956SOL     OW30766   1.951   2.762   3.847
 9956SOL    HW130767   1.870   2.815   3.820
 9956SOL    HW230768   1.938   2.725   3.939
 9957SOL     OW30769   5.326   0.716   0.548
 9957SOL    HW130770   5.360   0.705   0.642
 9957SOL    HW230771   5.393   0.679   0.484
 9958SOL     OW30772   5.918   5.296   6.978
 9958SOL    HW130773   5.900   5.254   0.049
 9958SOL    HW230774   5.877   5.387   6.974
 9959SOL     OW30775   5.535   5.511   0.724
 9959SOL    HW130776   5.612   5.572   0.704
 9959SOL    HW230777   5.493   5.481   0.638
 9960SOL     OW30778   6.555   0.130   0.067
 9960SOL    HW130779   6.538   0.038   0.101
 9960SOL    HW230780   6.470   0.168   0.030
 9961SOL     OW30781   3.212   5.838   1.005
 9961SOL    HW130782   3.170   5.766   0.950
 9961SOL    HW230783   3.312   5.829   0.999
 9962SOL     OW30784   3.125   0.247   1.701
 9962SOL    HW130785   3.124   0.310   1.778
 9962SOL    HW230786   3.130   0.299   1.615
 9963SOL     OW30787   0.960   0.328   5.775
 9963SOL    HW130788   0.950   0.423   5.746
 9963SOL    HW230789   0.946   0.322   5.874
 9964SOL     OW30790   4.488   4.576   6.131
 9964SOL    HW130791   4.557   4.612   6.194
 9964SOL    HW230792   4.424   4.517   6.180
 9965SOL     OW30793   2.974   5.418   4.102
 9965SOL    HW130794   2.891   5.453   4.145
 9965SOL    HW230795   2.955   5.329   4.060
 9966SOL     OW30796   3.846   4.892   3.260
 9966SOL    HW130797   3.864   4.813   3.200
 9966SOL    HW230798   3.904   4.885   3.341
 9967SOL     OW30799   7.016   0.381   3.253
 9967SOL    HW130800   0.023   0.443   3.179
 9967SOL    HW230801   6.918   0.391   3.273
 9968SOL     OW30802   4.031   6.442   0.279
 9968SOL    HW130803   4.053   6.536   0.250
 9968SOL    HW230804   3.957   6.445   0.346
 9969SOL     OW30805   0.114   6.047   3.766
 9969SOL    HW130806   0.156   5.974   3.711
 9969SOL    HW230807   0.078   6.008   3.851
 9970SOL     OW30808   6.661   3.435   2.327
 9970SOL    HW130809   6.752   3.404   2.356
 9970SOL    HW230810   6.644   3.527   2.362
 9971SOL     OW30811   0.099   5.228   4.587
 9971SOL    HW130812   0.072   5.172   4.665
 9971SOL    HW230813   0.198   5.241   4.586
 9972SOL     OW30814   3.426   4.197   5.981
 9972SOL    HW130815   3.434   4.127   5.910
 9972SOL    HW230816   3.340   4.184   6.030
 9973SOL     OW30817   2.198   1.968   3.437
 9973SOL    HW130818   2.254   2.017   3.503
 9973SOL    HW230819   2.155   2.032   3.374
 9974SOL     OW30820   1.388   2.386   3.274
 9974SOL    HW130821   1.292   2.401   3.297
 9974SOL    HW230822   1.431   2.330   3.346
 9975SOL     OW30823   2.377   4.695   6.638
 9975SOL    HW130824   2.356   4.748   6.556
 9975SOL    HW230825   2.446   4.626   6.616
 9976SOL     OW30826   4.110   5.236   6.017
 9976SOL    HW130827   4.083   5.142   5.995
 9976SOL    HW230828   4.058   5.299   5.959
 9977SOL     OW30829   4.356   0.140   5.772
 9977SOL    HW130830   4.379   0.139   5.869
 9977SOL    HW230831   4.437   0.117   5.718
 9978SOL     OW30832   0.973   2.781   0.079
 9978SOL    HW130833   0.882   2.740   0.080
 9978SOL    HW230834   1.005   2.788   7.002
 9979SOL     OW30835   3.260   3.753   5.225
 9979SOL    HW130836   3.254   3.778   5.129
 9979SOL    HW230837   3.233   3.657   5.237
 9980SOL     OW30838   1.274   1.535   1.619
 9980SOL    HW130839   1.339   1.503   1.687
 9980SOL    HW230840   1.296   1.494   1.530
 9981SOL     OW30841   6.191   1.734   0.018
 9981SOL    HW130842   6.106   1.719   0.070
 9981SOL    HW230843   6.169   1.780   6.950
 9982SOL     OW30844   1.792   2.111   4.672
 9982SOL    HW130845   1.838   2.198   4.689
 9982SOL    HW230846   1.840   2.062   4.599
 9983SOL     OW30847   1.161   3.834   2.306
 9983SOL    HW130848   1.118   3.878   2.227
 9983SOL    HW230849   1.143   3.889   2.388
 9984SOL     OW30850   0.500   5.014   0.894
 9984SOL    HW130851   0.569   4.985   0.828
 9984SOL    HW230852   0.509   5.112   0.911
 9985SOL     OW30853   5.014   4.384   0.154
 9985SOL    HW130854   5.032   4.381   0.055
 9985SOL    HW230855   4.952   4.461   0.174
 9986SOL     OW30856   5.810   5.592   6.888
 9986SOL    HW130857   5.785   5.636   6.802
 9986SOL    HW230858   5.776   5.648   6.965
 9987SOL     OW30859   5.950   2.816   1.400
 9987SOL    HW130860   5.990   2.814   1.309
 9987SOL    HW230861   5.920   2.724   1.425
 9988SOL     OW30862   6.015   0.021   3.703
 9988SOL    HW130863   5.942   0.086   3.685
 9988SOL    HW230864   5.995   6.988   3.787
 9989SOL     OW30865   0.057   6.185   2.594
 9989SOL    HW130866   0.028   6.166   2.688
 9989SOL    HW230867   0.051   6.283   2.577
 9990SOL     OW30868   0.124   0.154   3.092
 9990SOL    HW130869   0.107   0.204   3.177
 9990SOL    HW230870   0.074   0.067   3.094
 9991SOL     OW30871   1.781   4.367   2.619
 9991SOL    HW130872   1.706   4.393   2.679
 9991SOL    HW230873   1.782   4.427   2.539
 9992SOL     OW30874   2.357   5.173   0.571
 9992SOL    HW130875   2.399   5.155   0.660
 9992SOL    HW230876   2.289   5.246   0.581
 9993SOL     OW30877   4.071   0.164   4.791
 9993SOL    HW130878   4.018   0.215   4.859
 9993SOL    HW230879   4.145   0.114   4.837
 9994SOL     OW30880   5.769   5.347   4.912
 9994SOL    HW130881   5.834   5.276   4.886
 9994SOL    HW230882   5.803   5.436   4.883
 9995SOL     OW30883   3.555   1.597   6.265
 9995SOL    HW130884   3.539   1.694   6.247
 9995SOL    HW230885   3.561   1.548   6.178
 9996SOL     OW30886   2.914   3.791   0.488
 9996SOL    HW130887   2.954   3.700   0.489
 9996SOL    HW230888   2.894   3.820   0.582
 9997SOL     OW30889   6.518   2.495   3.892
 9997SOL    HW130890   6.549   2.477   3.799
 9997SOL    HW230891   6.430   2.544   3.890
 9998SOL     OW30892   4.854   3.929   2.330
 9998SOL    HW130893   4.816   4.006   2.279
 9998SOL    HW230894   4.937   3.897   2.285
 9999SOL     OW30895   0.552   6.513   4.050
 9999SOL    HW130896   0.588   6.560   4.130
 9999SOL    HW230897   0.626   6.492   3.986
10000SOL     OW30898   4.501   2.404   1.178
10000SOL    HW130899   4.525   2.471   1.107
10000SOL    HW230900   4.470   2.320   1.135
10001SOL     OW30901   3.583   6.172   1.740
10001SOL    HW130902   3.676   6.209   1.737
10001SOL    HW230903   3.538   6.187   1.652
10002SOL     OW30904   2.485   0.738   2.035
10002SOL    HW130905   2.488   0.654   2.089
10002SOL    HW230906   2.409   0.795   2.066
10003SOL     OW30907   1.348   0.641   3.065
10003SOL    HW130908   1.296   0.726   3.075
10003SOL    HW230909   1.314   0.590   2.986
10004SOL     OW30910   6.552   4.879   4.332
10004SOL    HW130911   6.501   4.876   4.246
10004SOL    HW230912   6.649   4.893   4.313
10005SOL     OW30913   2.723   5.233   3.586
10005SOL    HW130914   2.796   5.280   3.636
10005SOL    HW230915   2.659   5.192   3.651
10006SOL     OW30916   5.782   0.844   5.268
10006SOL    HW130917   5.761   0.916   5.202
10006SOL    HW230918   5.836   0.881   5.343
10007SOL     OW30919   1.164   4.969   4.507
10007SOL    HW130920   1.116   4.954   4.420
10007SOL    HW230921   1.248   4.915   4.508
10008SOL     OW30922   3.359   1.834   5.945
10008SOL    HW130923   3.359   1.797   5.852
10008SOL    HW230924   3.266   1.831   5.982
10009SOL     OW30925   1.337   4.093   2.135
10009SOL    HW130926   1.402   4.026   2.170
10009SOL    HW230927   1.372   4.185   2.154
10010SOL     OW30928   2.533   3.987   0.283
10010SOL    HW130929   2.481   4.058   0.331
10010SOL    HW230930   2.631   4.003   0.295
10011SOL     OW30931   1.995   3.121   0.184
10011SOL    HW130932   2.078   3.065   0.180
10011SOL    HW230933   1.915   3.063   0.164
10012SOL     OW30934   5.978   2.505   3.152
10012SOL    HW130935   6.004   2.601   3.146
10012SOL    HW230936   5.993   2.472   3.246
10013SOL     OW30937   0.604   6.201   4.927
10013SOL    HW130938   0.618   6.102   4.919
10013SOL    HW230939   0.625   6.230   5.020
10014SOL     OW30940   0.801   1.100   2.945
10014SOL    HW130941   0.791   1.200   2.950
10014SOL    HW230942   0.711   1.058   2.953
10015SOL     OW30943   4.029   5.790   5.895
10015SOL    HW130944   4.094   5.731   5.942
10015SOL    HW230945   4.074   5.875   5.869
10016SOL     OW30946   2.061   0.524   4.078
10016SOL    HW130947   2.115   0.440   4.083
10016SOL    HW230948   2.116   0.601   4.110
10017SOL     OW30949   2.840   2.302   3.132
10017SOL    HW130950   2.876   2.289   3.225
10017SOL    HW230951   2.776   2.379   3.132
10018SOL     OW30952   6.649   3.369   5.302
10018SOL    HW130953   6.660   3.332   5.394
10018SOL    HW230954   6.709   3.320   5.238
10019SOL     OW30955   0.478   2.468   2.046
10019SOL    HW130956   0.447   2.537   1.981
10019SOL    HW230957   0.417   2.389   2.042
10020SOL     OW30958   6.193   1.307   1.688
10020SOL    HW130959   6.095   1.321   1.675
10020SOL    HW230960   6.217   1.214   1.661
10021SOL     OW30961   0.727   3.209   2.532
10021SOL    HW130962   0.779   3.125   2.544
10021SOL    HW230963   0.747   3.249   2.443
10022SOL     OW30964   2.058   4.944   5.984
10022SOL    HW130965   2.136   4.993   5.944
10022SOL    HW230966   2.014   4.890   5.912
10023SOL     OW30967   0.948   1.027   6.079
10023SOL    HW130968   0.935   0.947   6.136
10023SOL    HW230969   1.020   1.009   6.011
10024SOL     OW30970   1.670   4.741   2.645
10024SOL    HW130971   1.764   4.770   2.663
10024SOL    HW230972   1.666   4.693   2.558
10025SOL     OW30973   1.147   4.294   0.711
10025SOL    HW130974   1.144   4.358   0.789
10025SOL    HW230975   1.142   4.200   0.745
10026SOL     OW30976   5.302   1.590   4.629
10026SOL    HW130977   5.239   1.637   4.691
10026SOL    HW230978   5.336   1.654   4.560
10027SOL     OW30979   2.832   1.581   5.176
10027SOL    HW130980   2.926   1.566   5.208
10027SOL    HW230981   2.832   1.652   5.106
10028SOL     OW30982   4.236   0.031   1.408
10028SOL    HW130983   4.181   0.086   1.345
10028SOL    HW230984   4.319   0.000   1.362
10029SOL     OW30985   0.262   4.235   4.654
10029SOL    HW130986   0.177   4.188   4.676
10029SOL    HW230987   0.256   4.273   4.562
10030SOL     OW30988   2.380   6.993   4.015
10030SOL    HW130989   2.445   6.992   4.091
10030SOL    HW230990   2.397   6.913   3.956
10031SOL     OW30991   2.645   4.892   3.321
10031SOL    HW130992   2.663   4.980   3.277
10031SOL    HW230993   2.646   4.820   3.252
10032SOL     OW30994   3.264   6.652   4.828
10032SOL    HW130995   3.213   6.568   4.846
10032SOL    HW230996   3.361   6.631   4.818
10033SOL     OW30997   2.957   0.545   4.167
10033SOL    HW130998   3.009   0.630   4.158
10033SOL    HW230999   2.952   0.499   4.079
10034SOL     OW31000   2.386   1.198   4.112
10034SOL    HW131001   2.343   1.284   4.140
10034SOL    HW231002   2.457   1.174   4.178
10035SOL     OW31003   6.250   2.515   2.093
10035SOL    HW131004   6.176   2.510   2.026
10035SOL    HW231005   6.289   2.607   2.093
10036SOL     OW31006   0.109   0.465   6.863
10036SOL    HW131007   0.072   0.403   6.794
10036SOL    HW231008   0.122   0.555   6.822
10037SOL     OW31009   6.042   6.555   6.758
10037SOL    HW131010   6.040   6.655   6.758
10037SOL    HW231011   6.082   6.523   6.672
10038SOL     OW31012   4.237   6.440   6.496
10038SOL    HW131013   4.203   6.419   6.588
10038SOL    HW231014   4.336   6.428   6.494
10039SOL     OW31015   0.040   5.554   2.463
10039SOL    HW131016   6.980   5.606   2.499
10039SOL    HW231017   0.096   5.614   2.406
10040SOL     OW31018   3.174   0.062   1.287
10040SOL    HW131019   3.168   0.008   1.203
10040SOL    HW231020   3.203   0.155   1.264
10041SOL     OW31021   6.517   5.312   5.094
10041SOL    HW131022   6.461   5.381   5.047
10041SOL    HW231023   6.601   5.297   5.042
10042SOL     OW31024   0.276   0.531   4.747
10042SOL    HW131025   0.221   0.595   4.802
10042SOL    HW231026   0.329   0.472   4.808
10043SOL     OW31027   0.546   0.585   4.090
10043SOL    HW131028   0.565   0.627   4.178
10043SOL    HW231029   0.530   0.656   4.022
10044SOL     OW31030   2.968   1.573   6.853
10044SOL    HW131031   3.062   1.552   6.827
10044SOL    HW231032   2.908   1.499   6.823
10045SOL     OW31033   3.815   0.109   5.153
10045SOL    HW131034   3.794   0.090   5.057
10045SOL    HW231035   3.809   0.024   5.205
10046SOL     OW31036   0.406   2.649   1.869
10046SOL    HW131037   0.487   2.693   1.831
10046SOL    HW231038   0.343   2.718   1.903
10047SOL     OW31039   0.217   1.954   3.315
10047SOL    HW131040   0.120   1.966   3.290
10047SOL    HW231041   0.226   1.952   3.414
10048SOL     OW31042   3.588   2.434   1.692
10048SOL    HW131043   3.602   2.531   1.710
10048SOL    HW231044   3.637   2.379   1.760
10049SOL     OW31045   1.343   6.763   4.846
10049SOL    HW131046   1.419   6.756   4.911
10049SOL    HW231047   1.279   6.688   4.860
10050SOL     OW31048   5.067   2.583   3.743
10050SOL    HW131049   5.095   2.678   3.751
10050SOL    HW231050   5.008   2.571   3.664
10051SOL     OW31051   5.914   2.793   5.609
10051SOL    HW131052   5.939   2.696   5.616
10051SOL    HW231053   5.942   2.841   5.691
10052SOL     OW31054   0.743   3.560   1.587
10052SOL    HW131055   0.660   3.536   1.636
10052SOL    HW231056   0.749   3.507   1.502
10053SOL     OW31057   3.383   5.645   3.500
10053SOL    HW131058   3.336   5.573   3.449
10053SOL    HW231059   3.330   5.730   3.495
10054SOL     OW31060   3.785   5.469   4.244
10054SOL    HW131061   3.699   5.520   4.240
10054SOL    HW231062   3.768   5.372   4.233
10055SOL     OW31063   6.190   3.027   5.903
10055SOL    HW131064   6.118   3.021   5.972
10055SOL    HW231065   6.279   3.035   5.947
10056SOL     OW31066   6.802   5.094   1.481
10056SOL    HW131067   6.877   5.127   1.539
10056SOL    HW231068   6.736   5.044   1.537
10057SOL     OW31069   3.424   2.090   3.916
10057SOL    HW131070   3.368   2.125   3.841
10057SOL    HW231071   3.366   2.072   3.996
10058SOL     OW31072   0.924   5.386   3.779
10058SOL    HW131073   0.936   5.443   3.698
10058SOL    HW231074   0.889   5.296   3.751
10059SOL     OW31075   5.895   0.135   0.575
10059SOL    HW131076   5.825   0.198   0.609
10059SOL    HW231077   5.855   0.044   0.563
10060SOL     OW31078   2.219   2.954   1.727
10060SOL    HW131079   2.301   2.922   1.775
10060SOL    HW231080   2.195   2.890   1.654
10061SOL     OW31081   6.144   2.011   4.712
10061SOL    HW131082   6.123   2.038   4.618
10061SOL    HW231083   6.059   1.992   4.761
10062SOL     OW31084   6.118   6.138   2.856
10062SOL    HW131085   6.109   6.126   2.757
10062SOL    HW231086   6.034   6.177   2.892
10063SOL     OW31087   1.537   2.807   2.975
10063SOL    HW131088   1.545   2.826   3.073
10063SOL    HW231089   1.518   2.710   2.962
10064SOL     OW31090   5.581   6.851   4.694
10064SOL    HW131091   5.643   6.790   4.644
10064SOL    HW231092   5.581   6.827   4.791
10065SOL     OW31093   0.961   6.296   3.146
10065SOL    HW131094   1.053   6.278   3.180
10065SOL    HW231095   0.927   6.382   3.184
10066SOL     OW31096   0.622   0.195   3.407
10066SOL    HW131097   0.684   0.157   3.475
10066SOL    HW231098   0.596   0.288   3.433
10067SOL     OW31099   3.755   4.934   3.841
10067SOL    HW131100   3.715   4.921   3.750
10067SOL    HW231101   3.695   4.895   3.910
10068SOL     OW31102   4.869   3.858   5.036
10068SOL    HW131103   4.931   3.880   4.962
10068SOL    HW231104   4.849   3.760   5.036
10069SOL     OW31105   3.469   0.865   3.215
10069SOL    HW131106   3.426   0.948   3.180
10069SOL    HW231107   3.401   0.791   3.218
10070SOL     OW31108   0.679   0.042   4.664
10070SOL    HW131109   0.630   0.103   4.602
10070SOL    HW231110   0.621   0.022   4.744
10071SOL     OW31111   5.243   5.818   5.129
10071SOL    HW131112   5.281   5.743   5.183
10071SOL    HW231113   5.230   5.899   5.187
10072SOL     OW31114   0.868   6.790   2.972
10072SOL    HW131115   0.951   6.754   3.014
10072SOL    HW231116   0.805   6.821   3.043
10073SOL     OW31117   0.197   4.756   6.366
10073SOL    HW131118   0.249   4.799   6.440
10073SOL    HW231119   0.259   4.708   6.304
10074SOL     OW31120   2.461   7.011   5.886
10074SOL    HW131121   2.448   6.913   5.904
10074SOL    HW231122   2.382   0.028   5.836
10075SOL     OW31123   1.186   2.524   3.889
10075SOL    HW131124   1.107   2.515   3.950
10075SOL    HW231125   1.222   2.617   3.895
10076SOL     OW31126   5.322   6.953   4.689
10076SOL    HW131127   5.411   6.940   4.644
10076SOL    HW231128   5.300   6.871   4.741
10077SOL     OW31129   3.928   1.450   6.393
10077SOL    HW131130   3.856   1.428   6.460
10077SOL    HW231131   3.990   1.372   6.386
10078SOL     OW31132   5.625   6.657   6.021
10078SOL    HW131133   5.604   6.560   6.012
10078SOL    HW231134   5.630   6.699   5.930
10079SOL     OW31135   0.289   3.696   0.368
10079SOL    HW131136   0.220   3.740   0.309
10079SOL    HW231137   0.299   3.600   0.341
10080SOL     OW31138   1.836   3.158   6.441
10080SOL    HW131139   1.874   3.215   6.368
10080SOL    HW231140   1.844   3.206   6.529
10081SOL     OW31141   6.952   0.633   6.569
10081SOL    HW131142   6.906   0.546   6.588
10081SOL    HW231143   0.015   0.640   6.627
10082SOL     OW31144   6.604   1.259   1.320
10082SOL    HW131145   6.645   1.300   1.238
10082SOL    HW231146   6.613   1.322   1.397
10083SOL     OW31147   4.852   0.609   4.429
10083SOL    HW131148   4.835   0.547   4.352
10083SOL    HW231149   4.942   0.652   4.418
10084SOL     OW31150   2.294   1.361   5.910
10084SOL    HW131151   2.378   1.324   5.950
10084SOL    HW231152   2.279   1.453   5.944
10085SOL     OW31153   0.617   5.488   2.814
10085SOL    HW131154   0.628   5.390   2.801
10085SOL    HW231155   0.631   5.534   2.726
10086SOL     OW31156   6.282   3.785   1.892
10086SOL    HW131157   6.209   3.792   1.960
10086SOL    HW231158   6.371   3.785   1.938
10087SOL     OW31159   1.399   0.109   4.228
10087SOL    HW131160   1.334   0.033   4.235
10087SOL    HW231161   1.490   0.073   4.205
10088SOL     OW31162   0.362   0.128   4.701
10088SOL    HW131163   0.335   0.078   4.783
10088SOL    HW231164   0.292   0.196   4.678
10089SOL     OW31165   1.436   3.272   2.297
10089SOL    HW131166   1.420   3.355   2.244
10089SOL    HW231167   1.479   3.296   2.384
10090SOL     OW31168   0.619   4.948   0.474
10090SOL    HW131169   0.608   4.908   0.383
10090SOL    HW231170   0.579   5.039   0.475
10091SOL     OW31171   0.715   2.559   4.568
10091SOL    HW131172   0.646   2.499   4.528
10091SOL    HW231173   0.729   2.534   4.663
10092SOL     OW31174   1.827   4.132   5.444
10092SOL    HW131175   1.874   4.045   5.431
10092SOL    HW231176   1.756   4.142   5.373
10093SOL     OW31177   6.231   4.572   6.429
10093SOL    HW131178   6.266   4.653   6.381
10093SOL    HW231179   6.290   4.494   6.411
10094SOL     OW31180   1.450   1.604   1.983
10094SOL    HW131181   1.369   1.547   1.967
10094SOL    HW231182   1.452   1.632   2.079
10095SOL     OW31183   6.832   0.870   5.941
10095SOL    HW131184   6.887   0.885   5.859
10095SOL    HW231185   6.822   0.772   5.957
10096SOL     OW31186   0.670   5.673   2.589
10096SOL    HW131187   0.631   5.760   2.557
10096SOL    HW231188   0.752   5.691   2.643
10097SOL     OW31189   1.264   0.855   6.942
10097SOL    HW131190   1.307   0.868   6.853
10097SOL    HW231191   1.266   0.758   6.966
10098SOL     OW31192   2.397   4.865   6.408
10098SOL    HW131193   2.342   4.839   6.329
10098SOL    HW231194   2.368   4.955   6.441
10099SOL     OW31195   6.904   4.401   4.752
10099SOL    HW131196   6.967   4.329   4.725
10099SOL    HW231197   6.910   4.416   4.850
10100SOL     OW31198   5.408   1.049   4.815
10100SOL    HW131199   5.471   0.987   4.769
10100SOL    HW231200   5.458   1.099   4.886
10101SOL     OW31201   0.152   4.766   2.265
10101SOL    HW131202   0.145   4.750   2.364
10101SOL    HW231203   0.145   4.865   2.248
10102SOL     OW31204   2.409   1.553   2.551
10102SOL    HW131205   2.353   1.522   2.628
10102SOL    HW231206   2.396   1.651   2.538
10103SOL     OW31207   2.730   2.316   6.770
10103SOL    HW131208   2.760   2.316   6.674
10103SOL    HW231209   2.739   2.224   6.807
10104SOL     OW31210   1.418   5.900   5.140
10104SOL    HW131211   1.379   5.874   5.228
10104SOL    HW231212   1.345   5.914   5.074
10105SOL     OW31213   2.219   0.422   6.375
10105SOL    HW131214   2.277   0.387   6.302
10105SOL    HW231215   2.275   0.441   6.456
10106SOL     OW31216   5.167   5.754   0.205
10106SOL    HW131217   5.223   5.815   0.260
10106SOL    HW231218   5.070   5.767   0.229
10107SOL     OW31219   5.571   1.403   5.994
10107SOL    HW131220   5.587   1.502   5.998
10107SOL    HW231221   5.550   1.369   6.085
10108SOL     OW31222   6.457   6.885   0.717
10108SOL    HW131223   6.535   6.910   0.660
10108SOL    HW231224   6.490   6.855   0.807
10109SOL     OW31225   4.609   4.950   3.613
10109SOL    HW131226   4.555   4.893   3.675
10109SOL    HW231227   4.631   5.037   3.657
10110SOL     OW31228   3.546   0.623   5.892
10110SOL    HW131229   3.545   0.699   5.957
10110SOL    HW231230   3.616   0.640   5.822
10111SOL     OW31231   0.530   2.443   2.656
10111SOL    HW131232   0.506   2.359   2.607
10111SOL    HW231233   0.519   2.521   2.594
10112SOL     OW31234   4.504   4.502   5.449
10112SOL    HW131235   4.504   4.418   5.395
10112SOL    HW231236   4.414   4.546   5.442
10113SOL     OW31237   3.744   6.641   0.071
10113SOL    HW131238   3.794   6.556   0.054
10113SOL    HW231239   3.693   6.635   0.157
10114SOL     OW31240   4.623   0.674   1.220
10114SOL    HW131241   4.530   0.639   1.221
10114SOL    HW231242   4.629   0.752   1.158
10115SOL     OW31243   1.963   1.863   3.824
10115SOL    HW131244   2.022   1.786   3.798
10115SOL    HW231245   1.993   1.946   3.777
10116SOL     OW31246   1.159   1.319   1.440
10116SOL    HW131247   1.151   1.251   1.512
10116SOL    HW231248   1.097   1.297   1.365
10117SOL     OW31249   5.267   0.767   5.977
10117SOL    HW131250   5.182   0.719   5.957
10117SOL    HW231251   5.248   0.863   5.998
10118SOL     OW31252   0.009   5.451   1.660
10118SOL    HW131253   0.022   5.356   1.632
10118SOL    HW231254   6.936   5.482   1.634
10119SOL     OW31255   2.569   0.979   5.470
10119SOL    HW131256   2.657   1.025   5.482
10119SOL    HW231257   2.526   0.965   5.560
10120SOL     OW31258   0.180   2.866   3.509
10120SOL    HW131259   0.179   2.767   3.495
10120SOL    HW231260   0.139   2.887   3.598
10121SOL     OW31261   6.415   4.671   5.157
10121SOL    HW131262   6.392   4.587   5.207
10121SOL    HW231263   6.511   4.667   5.129
10122SOL     OW31264   5.422   3.440   0.537
10122SOL    HW131265   5.376   3.521   0.572
10122SOL    HW231266   5.514   3.434   0.576
10123SOL     OW31267   0.173   6.180   0.232
10123SOL    HW131268   0.224   6.217   0.154
10123SOL    HW231269   0.096   6.126   0.199
10124SOL     OW31270   3.325   4.237   0.307
10124SOL    HW131271   3.295   4.183   0.229
10124SOL    HW231272   3.265   4.316   0.319
10125SOL     OW31273   1.181   0.674   1.592
10125SOL    HW131274   1.233   0.612   1.650
10125SOL    HW231275   1.212   0.768   1.609
10126SOL     OW31276   6.666   5.224   0.817
10126SOL    HW131277   6.670   5.321   0.842
10126SOL    HW231278   6.662   5.215   0.718
10127SOL     OW31279   3.905   5.450   5.224
10127SOL    HW131280   4.001   5.481   5.228
10127SOL    HW231281   3.845   5.530   5.225
10128SOL     OW31282   0.184   2.415   1.182
10128SOL    HW131283   0.223   2.342   1.239
10128SOL    HW231284   0.233   2.421   1.096
10129SOL     OW31285   6.303   2.460   3.268
10129SOL    HW131286   6.217   2.480   3.313
10129SOL    HW231287   6.316   2.522   3.190
10130SOL     OW31288   6.599   5.392   1.391
10130SOL    HW131289   6.630   5.375   1.484
10130SOL    HW231290   6.675   5.377   1.328
10131SOL     OW31291   0.164   0.930   1.198
10131SOL    HW131292   0.124   1.015   1.231
10131SOL    HW231293   0.123   0.906   1.110
10132SOL     OW31294   3.018   6.740   2.678
10132SOL    HW131295   3.028   6.819   2.618
10132SOL    HW231296   3.087   6.672   2.656
10133SOL     OW31297   5.070   5.665   3.294
10133SOL    HW131298   5.147   5.719   3.260
10133SOL    HW231299   5.013   5.635   3.217
10134SOL     OW31300   6.952   1.450   3.104
10134SOL    HW131301   6.898   1.392   3.165
10134SOL    HW231302   6.893   1.518   3.062
10135SOL     OW31303   4.184   4.871   3.246
10135SOL    HW131304   4.181   4.837   3.152
10135SOL    HW231305   4.102   4.841   3.294
10136SOL     OW31306   5.908   6.759   3.518
10136SOL    HW131307   5.980   6.826   3.537
10136SOL    HW231308   5.820   6.796   3.547
10137SOL     OW31309   6.285   5.191   3.823
10137SOL    HW131310   6.385   5.182   3.831
10137SOL    HW231311   6.254   5.143   3.742
10138SOL     OW31312   5.608   2.388   6.783
10138SOL    HW131313   5.675   2.460   6.801
10138SOL    HW231314   5.516   2.424   6.795
10139SOL     OW31315   3.828   2.923   3.119
10139SOL    HW131316   3.876   3.009   3.137
10139SOL    HW231317   3.823   2.907   3.020
10140SOL     OW31318   0.121   5.157   6.293
10140SOL    HW131319   0.205   5.105   6.311
10140SOL    HW231320   0.044   5.112   6.336
10141SOL     OW31321   1.420   0.646   4.106
10141SOL    HW131322   1.452   0.552   4.096
10141SOL    HW231323   1.432   0.695   4.019
10142SOL     OW31324   4.524   6.088   4.941
10142SOL    HW131325   4.579   6.153   4.888
10142SOL    HW231326   4.460   6.138   5.000
10143SOL     OW31327   4.474   0.006   1.242
10143SOL    HW131328   4.515   6.941   1.205
10143SOL    HW231329   4.524   0.035   1.323
10144SOL     OW31330   3.186   5.527   4.233
10144SOL    HW131331   3.111   5.502   4.172
10144SOL    HW231332   3.245   5.594   4.188
10145SOL     OW31333   3.124   6.110   5.550
10145SOL    HW131334   3.090   6.134   5.641
10145SOL    HW231335   3.061   6.045   5.507
10146SOL     OW31336   4.028   5.541   4.310
10146SOL    HW131337   4.077   5.564   4.226
10146SOL    HW231338   3.941   5.498   4.288
10147SOL     OW31339   4.554   4.750   4.840
10147SOL    HW131340   4.631   4.707   4.888
10147SOL    HW231341   4.468   4.708   4.870
10148SOL     OW31342   5.508   5.942   0.643
10148SOL    HW131343   5.425   5.910   0.689
10148SOL    HW231344   5.583   5.946   0.709
10149SOL     OW31345   4.097   2.505   1.082
10149SOL    HW131346   4.057   2.532   1.170
10149SOL    HW231347   4.034   2.445   1.033
10150SOL     OW31348   4.773   4.287   1.213
10150SOL    HW131349   4.737   4.217   1.152
10150SOL    HW231350   4.701   4.318   1.275
10151SOL     OW31351   2.077   7.005   5.587
10151SOL    HW131352   2.079   6.977   5.491
10151SOL    HW231353   2.045   6.929   5.643
10152SOL     OW31354   0.016   5.645   3.475
10152SOL    HW131355   7.003   5.654   3.381
10152SOL    HW231356   6.976   5.579   3.524
10153SOL     OW31357   5.330   6.354   4.588
10153SOL    HW131358   5.259   6.285   4.574
10153SOL    HW231359   5.400   6.319   4.650
10154SOL     OW31360   6.621   5.237   5.822
10154SOL    HW131361   6.564   5.161   5.853
10154SOL    HW231362   6.573   5.323   5.839
10155SOL     OW31363   3.935   0.869   6.142
10155SOL    HW131364   4.017   0.879   6.198
10155SOL    HW231365   3.959   0.884   6.046
10156SOL     OW31366   5.682   0.889   2.405
10156SOL    HW131367   5.615   0.867   2.335
10156SOL    HW231368   5.742   0.810   2.421
10157SOL     OW31369   5.589   1.468   6.309
10157SOL    HW131370   5.566   1.554   6.354
10157SOL    HW231371   5.678   1.436   6.342
10158SOL     OW31372   4.457   3.351   0.017
10158SOL    HW131373   4.502   3.273   0.061
10158SOL    HW231374   4.398   3.397   0.084
10159SOL     OW31375   1.458   2.181   6.366
10159SOL    HW131376   1.434   2.093   6.326
10159SOL    HW231377   1.508   2.236   6.298
10160SOL     OW31378   0.307   5.495   3.859
10160SOL    HW131379   0.265   5.511   3.769
10160SOL    HW231380   0.273   5.410   3.897
10161SOL     OW31381   3.279   5.498   6.234
10161SOL    HW131382   3.251   5.482   6.139
10161SOL    HW231383   3.355   5.562   6.235
10162SOL     OW31384   2.988   2.510   6.911
10162SOL    HW131385   2.939   2.567   6.844
10162SOL    HW231386   3.017   2.425   6.867
10163SOL     OW31387   6.189   3.512   5.978
10163SOL    HW131388   6.223   3.488   5.887
10163SOL    HW231389   6.113   3.577   5.969
10164SOL     OW31390   6.890   2.904   5.226
10164SOL    HW131391   6.917   2.993   5.189
10164SOL    HW231392   6.816   2.917   5.292
10165SOL     OW31393   0.464   1.748   4.516
10165SOL    HW131394   0.414   1.803   4.582
10165SOL    HW231395   0.543   1.799   4.483
10166SOL     OW31396   2.375   1.355   1.902
10166SOL    HW131397   2.421   1.276   1.861
10166SOL    HW231398   2.374   1.431   1.837
10167SOL     OW31399   4.856   0.283   0.274
10167SOL    HW131400   4.924   0.213   0.290
10167SOL    HW231401   4.812   0.268   0.185
10168SOL     OW31402   7.009   4.442   3.828
10168SOL    HW131403   6.941   4.380   3.866
10168SOL    HW231404   0.061   4.462   3.898
10169SOL     OW31405   6.648   4.072   3.684
10169SOL    HW131406   6.598   4.015   3.751
10169SOL    HW231407   6.644   4.167   3.713
10170SOL     OW31408   1.794   4.351   4.887
10170SOL    HW131409   1.793   4.364   4.788
10170SOL    HW231410   1.876   4.300   4.913
10171SOL     OW31411   6.869   4.153   6.291
10171SOL    HW131412   6.788   4.096   6.279
10171SOL    HW231413   6.860   4.236   6.235
10172SOL     OW31414   4.933   0.722   2.564
10172SOL    HW131415   4.893   0.722   2.656
10172SOL    HW231416   4.905   0.805   2.516
10173SOL     OW31417   1.901   1.987   2.187
10173SOL    HW131418   1.825   1.930   2.219
10173SOL    HW231419   1.986   1.957   2.231
10174SOL     OW31420   6.765   4.749   2.736
10174SOL    HW131421   6.830   4.691   2.686
10174SOL    HW231422   6.815   4.823   2.782
10175SOL     OW31423   6.358   2.311   5.760
10175SOL    HW131424   6.286   2.373   5.791
10175SOL    HW231425   6.333   2.271   5.672
10176SOL     OW31426   1.943   3.930   0.008
10176SOL    HW131427   1.844   3.939   0.012
10176SOL    HW231428   1.973   3.858   0.071
10177SOL     OW31429   2.984   6.221   0.346
10177SOL    HW131430   3.048   6.294   0.323
10177SOL    HW231431   2.903   6.261   0.389
10178SOL     OW31432   6.274   2.771   4.781
10178SOL    HW131433   6.179   2.792   4.808
10178SOL    HW231434   6.318   2.719   4.854
10179SOL     OW31435   1.116   2.640   6.033
10179SOL    HW131436   1.042   2.627   6.099
10179SOL    HW231437   1.168   2.555   6.024
10180SOL     OW31438   2.786   5.864   5.644
10180SOL    HW131439   2.805   5.766   5.640
10180SOL    HW231440   2.845   5.912   5.579
10181SOL     OW31441   6.131   3.316   1.219
10181SOL    HW131442   6.145   3.234   1.275
10181SOL    HW231443   6.070   3.294   1.143
10182SOL     OW31444   5.771   1.217   1.150
10182SOL    HW131445   5.793   1.269   1.233
10182SOL    HW231446   5.849   1.160   1.124
10183SOL     OW31447   1.748   1.667   6.076
10183SOL    HW131448   1.825   1.617   6.037
10183SOL    HW231449   1.760   1.676   6.174
10184SOL     OW31450   4.340   0.978   6.195
10184SOL    HW131451   4.379   1.065   6.165
10184SOL    HW231452   4.410   0.924   6.242
10185SOL     OW31453   4.701   6.852   0.887
10185SOL    HW131454   4.766   6.776   0.876
10185SOL    HW231455   4.610   6.815   0.906
10186SOL     OW31456   4.738   2.721   2.697
10186SOL    HW131457   4.713   2.784   2.625
10186SOL    HW231458   4.837   2.705   2.695
10187SOL     OW31459   0.756   2.496   1.667
10187SOL    HW131460   0.661   2.530   1.672
10187SOL    HW231461   0.774   2.438   1.747
10188SOL     OW31462   4.260   6.361   0.447
10188SOL    HW131463   4.207   6.435   0.488
10188SOL    HW231464   4.240   6.357   0.348
10189SOL     OW31465   1.821   6.501   5.380
10189SOL    HW131466   1.898   6.438   5.390
10189SOL    HW231467   1.752   6.461   5.320
10190SOL     OW31468   4.921   2.669   6.912
10190SOL    HW131469   4.914   2.666   6.812
10190SOL    HW231470   4.837   2.708   6.949
10191SOL     OW31471   5.532   4.917   0.324
10191SOL    HW131472   5.620   4.945   0.362
10191SOL    HW231473   5.539   4.911   0.224
10192SOL     OW31474   3.629   1.095   5.713
10192SOL    HW131475   3.550   1.076   5.771
10192SOL    HW231476   3.602   1.091   5.617
10193SOL     OW31477   4.951   4.162   0.714
10193SOL    HW131478   4.919   4.254   0.691
10193SOL    HW231479   4.912   4.096   0.649
10194SOL     OW31480   5.755   4.033   5.593
10194SOL    HW131481   5.851   4.032   5.563
10194SOL    HW231482   5.698   3.991   5.523
10195SOL     OW31483   6.720   4.481   1.689
10195SOL    HW131484   6.816   4.486   1.717
10195SOL    HW231485   6.699   4.560   1.630
10196SOL     OW31486   0.315   1.565   4.935
10196SOL    HW131487   0.395   1.591   4.881
10196SOL    HW231488   0.304   1.465   4.931
10197SOL     OW31489   5.927   0.829   5.831
10197SOL    HW131490   5.964   0.743   5.795
10197SOL    HW231491   5.888   0.812   5.922
10198SOL     OW31492   3.823   0.030   2.685
10198SOL    HW131493   3.848   7.004   2.599
10198SOL    HW231494   3.730   0.003   2.711
10199SOL     OW31495   1.307   2.958   5.732
10199SOL    HW131496   1.373   2.886   5.711
10199SOL    HW231497   1.236   2.960   5.662
10200SOL     OW31498   6.285   3.126   0.994
10200SOL    HW131499   6.371   3.091   1.031
10200SOL    HW231500   6.226   3.154   1.070
10201SOL     OW31501   0.999   3.670   0.965
10201SOL    HW131502   0.961   3.762   0.957
10201SOL    HW231503   0.928   3.603   0.946
10202SOL     OW31504   3.705   0.705   5.643
10202SOL    HW131505   3.733   0.790   5.599
10202SOL    HW231506   3.778   0.674   5.705
10203SOL     OW31507   6.367   2.670   5.005
10203SOL    HW131508   6.312   2.620   5.072
10203SOL    HW231509   6.451   2.620   4.986
10204SOL     OW31510   5.341   6.602   6.774
10204SOL    HW131511   5.427   6.630   6.731
10204SOL    HW231512   5.360   6.543   6.853
10205SOL     OW31513   1.475   0.728   6.233
10205SOL    HW131514   1.559   0.781   6.241
10205SOL    HW231515   1.408   0.779   6.180
10206SOL     OW31516   1.317   0.602   5.623
10206SOL    HW131517   1.302   0.698   5.647
10206SOL    HW231518   1.277   0.543   5.694
10207SOL     OW31519   1.242   1.538   5.556
10207SOL    HW131520   1.229   1.517   5.653
10207SOL    HW231521   1.153   1.541   5.510
10208SOL     OW31522   6.433   4.935   5.223
10208SOL    HW131523   6.403   4.842   5.204
10208SOL    HW231524   6.499   4.935   5.298
10209SOL     OW31525   6.951   6.815   6.726
10209SOL    HW131526   6.956   6.772   6.636
10209SOL    HW231527   6.859   6.852   6.740
10210SOL     OW31528   4.050   5.795   2.238
10210SOL    HW131529   4.058   5.772   2.335
10210SOL    HW231530   4.022   5.714   2.186
10211SOL     OW31531   4.235   5.824   5.272
10211SOL    HW131532   4.244   5.788   5.365
10211SOL    HW231533   4.326   5.832   5.231
10212SOL     OW31534   0.615   0.369   6.112
10212SOL    HW131535   0.568   0.288   6.147
10212SOL    HW231536   0.608   0.371   6.012
10213SOL     OW31537   5.383   1.538   0.926
10213SOL    HW131538   5.412   1.565   0.835
10213SOL    HW231539   5.286   1.561   0.939
10214SOL     OW31540   0.639   2.559   0.928
10214SOL    HW131541   0.631   2.657   0.947
10214SOL    HW231542   0.690   2.516   1.002
10215SOL     OW31543   3.169   3.578   2.491
10215SOL    HW131544   3.121   3.491   2.480
10215SOL    HW231545   3.159   3.632   2.408
10216SOL     OW31546   6.601   6.781   2.443
10216SOL    HW131547   6.664   6.826   2.507
10216SOL    HW231548   6.601   6.831   2.357
10217SOL     OW31549   3.128   1.011   3.274
10217SOL    HW131550   3.193   0.973   3.208
10217SOL    HW231551   3.178   1.045   3.353
10218SOL     OW31552   1.181   2.336   2.223
10218SOL    HW131553   1.276   2.365   2.212
10218SOL    HW231554   1.122   2.416   2.225
10219SOL     OW31555   0.183   0.787   2.337
10219SOL    HW131556   0.259   0.851   2.328
10219SOL    HW231557   0.097   0.835   2.322
10220SOL     OW31558   3.380   2.864   1.778
10220SOL    HW131559   3.419   2.886   1.868
10220SOL    HW231560   3.283   2.841   1.788
10221SOL     OW31561   0.870   6.211   3.471
10221SOL    HW131562   0.948   6.206   3.534
10221SOL    HW231563   0.902   6.239   3.380
10222SOL     OW31564   2.985   3.921   4.568
10222SOL    HW131565   2.933   3.929   4.653
10222SOL    HW231566   3.010   3.825   4.554
10223SOL     OW31567   0.870   5.790   1.471
10223SOL    HW131568   0.894   5.790   1.374
10223SOL    HW231569   0.854   5.884   1.501
10224SOL     OW31570   5.667   3.783   3.645
10224SOL    HW131571   5.742   3.718   3.648
10224SOL    HW231572   5.683   3.856   3.712
10225SOL     OW31573   2.275   3.659   6.127
10225SOL    HW131574   2.262   3.664   6.028
10225SOL    HW231575   2.369   3.685   6.149
10226SOL     OW31576   4.840   2.317   0.016
10226SOL    HW131577   4.753   2.361   0.037
10226SOL    HW231578   4.842   2.290   6.938
10227SOL     OW31579   5.272   3.684   1.037
10227SOL    HW131580   5.198   3.620   1.015
10227SOL    HW231581   5.253   3.727   1.125
10228SOL     OW31582   5.393   0.723   0.826
10228SOL    HW131583   5.395   0.626   0.848
10228SOL    HW231584   5.364   0.775   0.906
10229SOL     OW31585   6.769   3.490   4.391
10229SOL    HW131586   6.820   3.551   4.451
10229SOL    HW231587   6.684   3.535   4.364
10230SOL     OW31588   0.246   6.170   2.366
10230SOL    HW131589   0.261   6.257   2.412
10230SOL    HW231590   0.194   6.109   2.426
10231SOL     OW31591   1.222   5.416   3.237
10231SOL    HW131592   1.245   5.426   3.333
10231SOL    HW231593   1.236   5.503   3.190
10232SOL     OW31594   5.104   5.308   3.929
10232SOL    HW131595   5.186   5.345   3.887
10232SOL    HW231596   5.044   5.384   3.957
10233SOL     OW31597   3.803   4.264   5.870
10233SOL    HW131598   3.767   4.204   5.942
10233SOL    HW231599   3.846   4.208   5.799
10234SOL     OW31600   6.942   1.270   1.827
10234SOL    HW131601   6.948   1.265   1.727
10234SOL    HW231602   6.944   1.177   1.864
10235SOL     OW31603   1.488   0.819   2.821
10235SOL    HW131604   1.568   0.759   2.820
10235SOL    HW231605   1.468   0.846   2.915
10236SOL     OW31606   2.504   0.028   1.322
10236SOL    HW131607   2.519   6.965   1.265
10236SOL    HW231608   2.535   0.009   1.415
10237SOL     OW31609   0.463   3.595   5.922
10237SOL    HW131610   0.365   3.598   5.906
10237SOL    HW231611   0.511   3.639   5.846
10238SOL     OW31612   3.163   6.327   1.282
10238SOL    HW131613   3.160   6.418   1.239
10238SOL    HW231614   3.124   6.332   1.374
10239SOL     OW31615   1.515   2.786   4.537
10239SOL    HW131616   1.598   2.738   4.511
10239SOL    HW231617   1.446   2.775   4.465
10240SOL     OW31618   2.442   6.915   0.846
10240SOL    HW131619   2.395   6.953   0.925
10240SOL    HW231620   2.512   6.851   0.876
10241SOL     OW31621   3.956   2.596   1.635
10241SOL    HW131622   3.906   2.645   1.706
10241SOL    HW231623   3.942   2.497   1.646
10242SOL     OW31624   0.259   2.880   0.065
10242SOL    HW131625   0.293   2.793   0.101
10242SOL    HW231626   0.197   2.921   0.132
10243SOL     OW31627   2.490   5.249   0.809
10243SOL    HW131628   2.555   5.325   0.806
10243SOL    HW231629   2.397   5.285   0.816
10244SOL     OW31630   2.680   4.896   1.183
10244SOL    HW131631   2.589   4.934   1.167
10244SOL    HW231632   2.682   4.800   1.156
10245SOL     OW31633   4.342   4.163   0.688
10245SOL    HW131634   4.430   4.211   0.684
10245SOL    HW231635   4.268   4.230   0.694
10246SOL     OW31636   2.995   3.858   4.265
10246SOL    HW131637   3.025   3.764   4.248
10246SOL    HW231638   2.946   3.862   4.352
10247SOL     OW31639   0.685   2.521   4.845
10247SOL    HW131640   0.657   2.603   4.895
10247SOL    HW231641   0.778   2.496   4.873
10248SOL     OW31642   0.973   0.288   3.399
10248SOL    HW131643   1.066   0.279   3.434
10248SOL    HW231644   0.923   0.356   3.453
10249SOL     OW31645   2.718   5.038   6.705
10249SOL    HW131646   2.757   5.110   6.647
10249SOL    HW231647   2.791   4.997   6.760
10250SOL     OW31648   4.272   2.374   0.686
10250SOL    HW131649   4.282   2.426   0.601
10250SOL    HW231650   4.281   2.276   0.666
10251SOL     OW31651   1.857   0.171   4.122
10251SOL    HW131652   1.832   0.219   4.206
10251SOL    HW231653   1.944   0.123   4.136
10252SOL     OW31654   5.503   4.210   5.981
10252SOL    HW131655   5.455   4.130   6.015
10252SOL    HW231656   5.438   4.273   5.939
10253SOL     OW31657   4.053   6.245   6.451
10253SOL    HW131658   4.080   6.149   6.450
10253SOL    HW231659   4.135   6.302   6.454
10254SOL     OW31660   5.497   1.173   5.043
10254SOL    HW131661   5.498   1.147   5.140
10254SOL    HW231662   5.495   1.272   5.035
10255SOL     OW31663   3.843   5.304   2.059
10255SOL    HW131664   3.908   5.346   2.122
10255SOL    HW231665   3.831   5.363   1.979
10256SOL     OW31666   4.527   0.864   2.852
10256SOL    HW131667   4.621   0.896   2.843
10256SOL    HW231668   4.470   0.937   2.891
10257SOL     OW31669   3.275   5.304   2.670
10257SOL    HW131670   3.292   5.275   2.576
10257SOL    HW231671   3.180   5.285   2.695
10258SOL     OW31672   1.271   1.322   1.958
10258SOL    HW131673   1.248   1.260   2.033
10258SOL    HW231674   1.347   1.285   1.905
10259SOL     OW31675   1.251   4.113   3.463
10259SOL    HW131676   1.198   4.029   3.451
10259SOL    HW231677   1.287   4.117   3.556
10260SOL     OW31678   1.038   0.549   3.783
10260SOL    HW131679   0.943   0.541   3.813
10260SOL    HW231680   1.040   0.562   3.684
10261SOL     OW31681   6.569   3.637   1.062
10261SOL    HW131682   6.585   3.674   0.970
10261SOL    HW231683   6.621   3.690   1.129
10262SOL     OW31684   3.992   1.148   0.397
10262SOL    HW131685   4.065   1.216   0.388
10262SOL    HW231686   3.989   1.091   0.315
10263SOL     OW31687   6.144   0.718   1.404
10263SOL    HW131688   6.100   0.794   1.451
10263SOL    HW231689   6.243   0.721   1.422
10264SOL     OW31690   6.981   5.943   6.193
10264SOL    HW131691   6.904   5.960   6.132
10264SOL    HW231692   0.046   5.984   6.153
10265SOL     OW31693   2.113   1.869   0.318
10265SOL    HW131694   2.023   1.881   0.277
10265SOL    HW231695   2.130   1.771   0.334
10266SOL     OW31696   2.931   3.583   2.056
10266SOL    HW131697   2.921   3.506   1.992
10266SOL    HW231698   2.894   3.666   2.015
10267SOL     OW31699   5.965   1.030   1.014
10267SOL    HW131700   5.935   0.984   0.930
10267SOL    HW231701   5.996   0.962   1.081
10268SOL     OW31702   4.057   0.159   1.239
10268SOL    HW131703   4.027   0.223   1.310
10268SOL    HW231704   3.978   0.133   1.183
10269SOL     OW31705   2.865   2.350   0.434
10269SOL    HW131706   2.766   2.346   0.449
10269SOL    HW231707   2.894   2.267   0.387
10270SOL     OW31708   2.698   0.172   2.068
10270SOL    HW131709   2.704   0.076   2.044
10270SOL    HW231710   2.751   0.189   2.151
10271SOL     OW31711   1.432   1.963   6.865
10271SOL    HW131712   1.389   2.012   6.788
10271SOL    HW231713   1.406   2.007   6.951
10272SOL     OW31714   6.199   0.325   5.082
10272SOL    HW131715   6.187   0.239   5.133
10272SOL    HW231716   6.111   0.370   5.071
10273SOL     OW31717   2.393   5.008   3.331
10273SOL    HW131718   2.484   4.967   3.328
10273SOL    HW231719   2.369   5.044   3.241
10274SOL     OW31720   0.142   5.365   5.265
10274SOL    HW131721   0.044   5.372   5.284
10274SOL    HW231722   0.194   5.400   5.342
10275SOL     OW31723   0.123   0.572   2.773
10275SOL    HW131724   0.046   0.553   2.712
10275SOL    HW231725   0.169   0.486   2.796
10276SOL     OW31726   3.543   6.004   5.902
10276SOL    HW131727   3.641   6.000   5.881
10276SOL    HW231728   3.503   6.083   5.857
10277SOL     OW31729   0.068   6.707   4.324
10277SOL    HW131730   7.011   6.695   4.259
10277SOL    HW231731   0.069   6.631   4.389
10278SOL     OW31732   6.715   0.368   5.308
10278SOL    HW131733   6.624   0.382   5.348
10278SOL    HW231734   6.785   0.386   5.378
10279SOL     OW31735   1.997   5.840   4.005
10279SOL    HW131736   1.911   5.805   3.969
10279SOL    HW231737   2.001   5.823   4.104
10280SOL     OW31738   5.345   4.252   0.630
10280SOL    HW131739   5.286   4.214   0.559
10280SOL    HW231740   5.398   4.178   0.673
10281SOL     OW31741   6.828   1.786   3.725
10281SOL    HW131742   6.755   1.778   3.658
10281SOL    HW231743   6.811   1.865   3.783
10282SOL     OW31744   5.330   3.183   3.481
10282SOL    HW131745   5.261   3.240   3.526
10282SOL    HW231746   5.376   3.127   3.549
10283SOL     OW31747   0.679   3.107   1.079
10283SOL    HW131748   0.691   3.196   1.123
10283SOL    HW231749   0.749   3.044   1.113
10284SOL     OW31750   0.321   3.167   3.836
10284SOL    HW131751   0.253   3.124   3.895
10284SOL    HW231752   0.276   3.207   3.756
10285SOL     OW31753   5.435   6.236   4.927
10285SOL    HW131754   5.496   6.176   4.977
10285SOL    HW231755   5.487   6.311   4.886
10286SOL     OW31756   2.843   1.385   3.802
10286SOL    HW131757   2.830   1.477   3.766
10286SOL    HW231758   2.912   1.386   3.875
10287SOL     OW31759   2.615   5.676   2.596
10287SOL    HW131760   2.570   5.726   2.671
10287SOL    HW231761   2.583   5.582   2.595
10288SOL     OW31762   3.490   0.012   5.414
10288SOL    HW131763   3.495   0.014   5.514
10288SOL    HW231764   3.394   0.013   5.385
10289SOL     OW31765   3.041   5.750   6.673
10289SOL    HW131766   3.100   5.789   6.743
10289SOL    HW231767   2.970   5.816   6.648
10290SOL     OW31768   3.086   3.289   2.435
10290SOL    HW131769   3.028   3.241   2.501
10290SOL    HW231770   3.115   3.226   2.364
10291SOL     OW31771   2.071   1.746   2.589
10291SOL    HW131772   2.167   1.769   2.572
10291SOL    HW231773   2.062   1.702   2.678
10292SOL     OW31774   6.361   6.413   6.958
10292SOL    HW131775   6.379   6.483   6.889
10292SOL    HW231776   6.287   6.442   7.018
10293SOL     OW31777   1.317   4.242   4.111
10293SOL    HW131778   1.411   4.228   4.082
10293SOL    HW231779   1.301   4.339   4.129
10294SOL     OW31780   3.978   1.649   2.094
10294SOL    HW131781   3.938   1.617   2.181
10294SOL    HW231782   3.943   1.740   2.073
10295SOL     OW31783   1.058   1.877   6.815
10295SOL    HW131784   1.018   1.833   6.895
10295SOL    HW231785   1.113   1.811   6.764
10296SOL     OW31786   5.628   1.439   5.708
10296SOL    HW131787   5.586   1.358   5.666
10296SOL    HW231788   5.608   1.440   5.806
10297SOL     OW31789   3.143   1.442   0.058
10297SOL    HW131790   3.168   1.490   6.992
10297SOL    HW231791   3.121   1.509   0.130
10298SOL     OW31792   0.767   2.361   2.804
10298SOL    HW131793   0.768   2.398   2.897
10298SOL    HW231794   0.684   2.392   2.757
10299SOL     OW31795   4.151   6.292   2.817
10299SOL    HW131796   4.204   6.375   2.835
10299SOL    HW231797   4.206   6.229   2.762
10300SOL     OW31798   0.796   3.564   1.866
10300SOL    HW131799   0.847   3.639   1.909
10300SOL    HW231800   0.803   3.572   1.766
10301SOL     OW31801   4.309   0.383   6.098
10301SOL    HW131802   4.266   0.446   6.035
10301SOL    HW231803   4.254   0.374   6.181
10302SOL     OW31804   2.711   6.113   4.768
10302SOL    HW131805   2.782   6.044   4.756
10302SOL    HW231806   2.705   6.170   4.686
10303SOL     OW31807   0.888   6.117   4.961
10303SOL    HW131808   0.814   6.056   4.931
10303SOL    HW231809   0.902   6.106   5.060
10304SOL     OW31810   6.387   6.741   0.171
10304SOL    HW131811   6.451   6.734   0.094
10304SOL    HW231812   6.395   6.659   0.228
10305SOL     OW31813   2.238   4.160   5.741
10305SOL    HW131814   2.329   4.201   5.744
10305SOL    HW231815   2.222   4.120   5.651
10306SOL     OW31816   4.848   0.178   1.091
10306SOL    HW131817   4.794   0.148   1.012
10306SOL    HW231818   4.799   0.153   1.175
10307SOL     OW31819   2.367   6.898   4.709
10307SOL    HW131820   2.294   6.920   4.643
10307SOL    HW231821   2.445   6.958   4.691
10308SOL     OW31822   2.537   4.877   2.888
10308SOL    HW131823   2.450   4.829   2.883
10308SOL    HW231824   2.609   4.813   2.915
10309SOL     OW31825   6.168   1.490   4.919
10309SOL    HW131826   6.094   1.474   4.985
10309SOL    HW231827   6.163   1.583   4.885
10310SOL     OW31828   2.808   3.275   5.730
10310SOL    HW131829   2.887   3.336   5.740
10310SOL    HW231830   2.727   3.321   5.766
10311SOL     OW31831   5.025   6.075   0.324
10311SOL    HW131832   5.008   6.136   0.402
10311SOL    HW231833   5.121   6.046   0.325
10312SOL     OW31834   4.497   0.455   1.878
10312SOL    HW131835   4.508   0.485   1.973
10312SOL    HW231836   4.407   0.481   1.844
10313SOL     OW31837   4.833   6.389   3.015
10313SOL    HW131838   4.789   6.394   3.104
10313SOL    HW231839   4.791   6.455   2.953
10314SOL     OW31840   0.524   0.349   1.274
10314SOL    HW131841   0.603   0.350   1.335
10314SOL    HW231842   0.490   0.442   1.260
10315SOL     OW31843   5.742   6.180   3.898
10315SOL    HW131844   5.691   6.093   3.892
10315SOL    HW231845   5.749   6.220   3.807
10316SOL     OW31846   0.834   2.136   0.069
10316SOL    HW131847   0.809   2.043   0.095
10316SOL    HW231848   0.768   2.200   0.109
10317SOL     OW31849   3.773   5.743   5.994
10317SOL    HW131850   3.713   5.780   5.923
10317SOL    HW231851   3.868   5.751   5.965
10318SOL     OW31852   6.131   6.810   0.124
10318SOL    HW131853   6.104   6.840   0.215
10318SOL    HW231854   6.229   6.786   0.125
10319SOL     OW31855   0.562   4.517   4.409
10319SOL    HW131856   0.503   4.531   4.488
10319SOL    HW231857   0.578   4.420   4.396
10320SOL     OW31858   0.684   6.741   3.894
10320SOL    HW131859   0.767   6.688   3.910
10320SOL    HW231860   0.615   6.715   3.961
10321SOL     OW31861   5.484   2.135   1.941
10321SOL    HW131862   5.569   2.149   1.990
10321SOL    HW231863   5.413   2.195   1.979
10322SOL     OW31864   4.555   4.462   4.900
10322SOL    HW131865   4.569   4.489   4.805
10322SOL    HW231866   4.474   4.509   4.936
10323SOL     OW31867   0.428   4.458   5.224
10323SOL    HW131868   0.472   4.547   5.235
10323SOL    HW231869   0.472   4.391   5.284
10324SOL     OW31870   3.192   3.140   2.244
10324SOL    HW131871   3.192   3.055   2.191
10324SOL    HW231872   3.243   3.210   2.195
10325SOL     OW31873   0.037   5.889   3.181
10325SOL    HW131874   6.994   5.813   3.203
10325SOL    HW231875   0.097   5.863   3.105
10326SOL     OW31876   5.640   3.285   6.602
10326SOL    HW131877   5.697   3.343   6.543
10326SOL    HW231878   5.640   3.191   6.567
10327SOL     OW31879   2.373   3.753   0.739
10327SOL    HW131880   2.459   3.702   0.744
10327SOL    HW231881   2.376   3.829   0.804
10328SOL     OW31882   6.731   3.155   1.637
10328SOL    HW131883   6.791   3.078   1.614
10328SOL    HW231884   6.636   3.130   1.618
10329SOL     OW31885   3.423   1.287   2.798
10329SOL    HW131886   3.476   1.208   2.830
10329SOL    HW231887   3.327   1.262   2.792
10330SOL     OW31888   4.439   0.459   1.444
10330SOL    HW131889   4.507   0.411   1.500
10330SOL    HW231890   4.431   0.554   1.476
10331SOL     OW31891   6.493   5.600   0.320
10331SOL    HW131892   6.548   5.539   0.263
10331SOL    HW231893   6.454   5.672   0.263
10332SOL     OW31894   1.119   0.937   6.576
10332SOL    HW131895   1.021   0.929   6.598
10332SOL    HW231896   1.166   0.852   6.602
10333SOL     OW31897   0.768   5.642   4.479
10333SOL    HW131898   0.727   5.724   4.520
10333SOL    HW231899   0.839   5.607   4.539
10334SOL     OW31900   3.244   0.157   3.889
10334SOL    HW131901   3.164   0.147   3.829
10334SOL    HW231902   3.250   0.078   3.950
10335SOL     OW31903   0.497   2.718   6.018
10335SOL    HW131904   0.433   2.725   6.094
10335SOL    HW231905   0.589   2.698   6.054
10336SOL     OW31906   5.146   0.174   3.073
10336SOL    HW131907   5.171   0.251   3.014
10336SOL    HW231908   5.210   0.168   3.149
10337SOL     OW31909   6.082   5.337   6.749
10337SOL    HW131910   6.055   5.427   6.714
10337SOL    HW231911   6.028   5.316   6.831
10338SOL     OW31912   2.352   6.451   1.844
10338SOL    HW131913   2.403   6.532   1.817
10338SOL    HW231914   2.330   6.457   1.942
10339SOL     OW31915   6.573   2.427   5.873
10339SOL    HW131916   6.654   2.442   5.817
10339SOL    HW231917   6.510   2.366   5.826
10340SOL     OW31918   2.068   3.884   6.546
10340SOL    HW131919   2.123   3.915   6.468
10340SOL    HW231920   2.023   3.798   6.522
10341SOL     OW31921   2.265   2.493   2.974
10341SOL    HW131922   2.346   2.549   2.960
10341SOL    HW231923   2.217   2.480   2.887
10342SOL     OW31924   1.021   0.968   3.016
10342SOL    HW131925   1.058   0.924   2.935
10342SOL    HW231926   0.951   1.034   2.990
10343SOL     OW31927   2.343   5.684   1.284
10343SOL    HW131928   2.411   5.700   1.355
10343SOL    HW231929   2.373   5.727   1.199
10344SOL     OW31930   4.287   4.518   6.327
10344SOL    HW131931   4.333   4.603   6.353
10344SOL    HW231932   4.206   4.505   6.384
10345SOL     OW31933   1.288   3.470   4.674
10345SOL    HW131934   1.315   3.520   4.756
10345SOL    HW231935   1.322   3.518   4.593
10346SOL     OW31936   0.120   5.567   1.196
10346SOL    HW131937   0.054   5.622   1.146
10346SOL    HW231938   0.166   5.624   1.264
10347SOL     OW31939   4.422   1.403   3.686
10347SOL    HW131940   4.414   1.503   3.683
10347SOL    HW231941   4.517   1.377   3.673
10348SOL     OW31942   6.020   4.136   0.616
10348SOL    HW131943   6.028   4.097   0.524
10348SOL    HW231944   6.103   4.187   0.638
10349SOL     OW31945   0.369   6.282   6.601
10349SOL    HW131946   0.336   6.187   6.599
10349SOL    HW231947   0.467   6.283   6.619
10350SOL     OW31948   3.025   0.332   5.904
10350SOL    HW131949   2.976   0.395   5.844
10350SOL    HW231950   3.123   0.337   5.887
10351SOL     OW31951   4.881   5.577   5.702
10351SOL    HW131952   4.890   5.567   5.801
10351SOL    HW231953   4.970   5.564   5.659
10352SOL     OW31954   3.637   2.886   6.191
10352SOL    HW131955   3.670   2.809   6.246
10352SOL    HW231956   3.715   2.938   6.156
10353SOL     OW31957   6.802   2.279   4.812
10353SOL    HW131958   6.862   2.199   4.813
10353SOL    HW231959   6.851   2.357   4.851
10354SOL     OW31960   5.705   1.626   2.062
10354SOL    HW131961   5.725   1.569   1.982
10354SOL    HW231962   5.607   1.645   2.066
10355SOL     OW31963   2.121   5.840   1.902
10355SOL    HW131964   2.132   5.819   1.999
10355SOL    HW231965   2.057   5.775   1.860
10356SOL     OW31966   6.965   3.616   5.196
10356SOL    HW131967   6.875   3.612   5.239
10356SOL    HW231968   0.018   3.607   5.265
10357SOL     OW31969   2.282   1.615   0.086
10357SOL    HW131970   2.191   1.639   0.053
10357SOL    HW231971   2.275   1.535   0.147
10358SOL     OW31972   6.992   1.852   1.570
10358SOL    HW131973   7.017   1.764   1.610
10358SOL    HW231974   6.893   1.865   1.576
10359SOL     OW31975   0.070   0.929   1.567
10359SOL    HW131976   0.159   0.972   1.549
10359SOL    HW231977   7.015   0.985   1.527
10360SOL     OW31978   5.667   6.379   3.675
10360SOL    HW131979   5.721   6.434   3.611
10360SOL    HW231980   5.634   6.296   3.629
10361SOL     OW31981   2.196   4.733   1.367
10361SOL    HW131982   2.113   4.781   1.396
10361SOL    HW231983   2.232   4.777   1.285
10362SOL     OW31984   1.889   4.474   4.650
10362SOL    HW131985   1.986   4.470   4.676
10362SOL    HW231986   1.850   4.560   4.683
10363SOL     OW31987   4.978   0.945   3.947
10363SOL    HW131988   4.961   1.043   3.944
10363SOL    HW231989   5.036   0.923   4.026
10364SOL     OW31990   1.771   4.003   1.158
10364SOL    HW131991   1.813   4.055   1.233
10364SOL    HW231992   1.704   3.938   1.196
10365SOL     OW31993   4.656   5.822   0.224
10365SOL    HW131994   4.658   5.730   0.263
10365SOL    HW231995   4.678   5.817   0.126
10366SOL     OW31996   3.111   6.495   3.661
10366SOL    HW131997   3.121   6.546   3.576
10366SOL    HW231998   3.108   6.397   3.640
10367SOL     OW31999   6.629   2.405   3.674
10367SOL    HW132000   6.698   2.333   3.681
10367SOL    HW232001   6.617   2.431   3.579
10368SOL     OW32002   2.257   0.500   1.585
10368SOL    HW132003   2.205   0.452   1.656
10368SOL    HW232004   2.301   0.581   1.625
10369SOL     OW32005   3.982   2.839   0.371
10369SOL    HW132006   3.908   2.895   0.335
10369SOL    HW232007   4.003   2.867   0.464
10370SOL     OW32008   3.249   0.611   5.093
10370SOL    HW132009   3.149   0.606   5.100
10370SOL    HW232010   3.275   0.608   4.996
10371SOL     OW32011   4.919   6.465   6.070
10371SOL    HW132012   4.909   6.366   6.056
10371SOL    HW232013   4.964   6.482   6.158
10372SOL     OW32014   1.085   0.442   3.087
10372SOL    HW132015   1.121   0.476   3.001
10372SOL    HW232016   1.155   0.388   3.134
10373SOL     OW32017   1.203   5.918   4.699
10373SOL    HW132018   1.120   5.943   4.650
10373SOL    HW232019   1.245   5.838   4.655
10374SOL     OW32020   3.154   2.072   3.435
10374SOL    HW132021   3.087   2.144   3.418
10374SOL    HW232022   3.185   2.034   3.348
10375SOL     OW32023   5.982   2.177   0.491
10375SOL    HW132024   5.896   2.176   0.542
10375SOL    HW232025   6.035   2.257   0.516
10376SOL     OW32026   0.520   0.803   3.918
10376SOL    HW132027   0.468   0.808   3.833
10376SOL    HW232028   0.458   0.819   3.995
10377SOL     OW32029   1.026   6.780   4.575
10377SOL    HW132030   1.064   6.735   4.494
10377SOL    HW232031   0.927   6.764   4.580
10378SOL     OW32032   0.261   6.932   6.811
10378SOL    HW132033   0.184   6.995   6.795
10378SOL    HW232034   0.232   6.838   6.793
10379SOL     OW32035   5.079   1.721   4.385
10379SOL    HW132036   5.166   1.738   4.433
10379SOL    HW232037   5.034   1.809   4.367
10380SOL     OW32038   5.526   0.544   2.431
10380SOL    HW132039   5.498   0.608   2.503
10380SOL    HW232040   5.448   0.521   2.374
10381SOL     OW32041   4.552   5.101   5.133
10381SOL    HW132042   4.624   5.048   5.088
10381SOL    HW232043   4.493   5.141   5.064
10382SOL     OW32044   2.025   5.626   0.637
10382SOL    HW132045   2.066   5.650   0.549
10382SOL    HW232046   2.023   5.707   0.696
10383SOL     OW32047   0.040   2.510   0.074
10383SOL    HW132048   0.070   2.415   0.061
10383SOL    HW232049   6.962   2.510   0.104
10384SOL     OW32050   6.318   0.041   0.456
10384SOL    HW132051   6.366   7.012   0.382
10384SOL    HW232052   6.379   0.050   0.535
10385SOL     OW32053   5.940   1.969   0.100
10385SOL    HW132054   5.901   1.878   0.116
10385SOL    HW232055   5.867   2.036   0.093
10386SOL     OW32056   5.775   3.016   6.134
10386SOL    HW132057   5.756   2.918   6.141
10386SOL    HW232058   5.695   3.067   6.166
10387SOL     OW32059   2.287   2.876   3.323
10387SOL    HW132060   2.287   2.816   3.403
10387SOL    HW232061   2.356   2.845   3.258
10388SOL     OW32062   1.561   4.590   2.990
10388SOL    HW132063   1.499   4.562   3.063
10388SOL    HW232064   1.645   4.536   2.996
10389SOL     OW32065   0.643   5.465   3.290
10389SOL    HW132066   0.648   5.400   3.366
10389SOL    HW232067   0.732   5.471   3.245
10390SOL     OW32068   1.640   3.234   3.507
10390SOL    HW132069   1.653   3.135   3.512
10390SOL    HW232070   1.590   3.265   3.588
10391SOL     OW32071   3.089   6.730   5.626
10391SOL    HW132072   3.126   6.822   5.620
10391SOL    HW232073   3.021   6.725   5.699
10392SOL     OW32074   6.959   5.082   6.483
10392SOL    HW132075   6.997   5.017   6.550
10392SOL    HW232076   6.862   5.062   6.470
10393SOL     OW32077   1.155   1.387   3.986
10393SOL    HW132078   1.163   1.320   3.912
10393SOL    HW232079   1.086   1.455   3.961
10394SOL     OW32080   2.360   6.471   6.789
10394SOL    HW132081   2.332   6.550   6.734
10394SOL    HW232082   2.290   6.452   6.858
10395SOL     OW32083   1.168   1.193   4.415
10395SOL    HW132084   1.234   1.119   4.425
10395SOL    HW232085   1.113   1.201   4.499
10396SOL     OW32086   0.359   0.263   5.214
10396SOL    HW132087   0.451   0.300   5.203
10396SOL    HW232088   0.363   0.164   5.220
10397SOL     OW32089   4.332   1.835   2.381
10397SOL    HW132090   4.281   1.892   2.446
10397SOL    HW232091   4.411   1.795   2.427
10398SOL     OW32092   6.702   2.859   2.587
10398SOL    HW132093   6.781   2.807   2.556
10398SOL    HW232094   6.626   2.797   2.608
10399SOL     OW32095   5.899   2.038   5.500
10399SOL    HW132096   5.983   1.984   5.492
10399SOL    HW232097   5.833   1.990   5.556
10400SOL     OW32098   2.324   4.156   1.419
10400SOL    HW132099   2.277   4.165   1.331
10400SOL    HW232100   2.280   4.215   1.487
10401SOL     OW32101   0.802   6.344   1.104
10401SOL    HW132102   0.803   6.323   1.201
10401SOL    HW232103   0.849   6.430   1.088
10402SOL     OW32104   0.410   3.011   4.090
10402SOL    HW132105   0.326   3.021   4.036
10402SOL    HW232106   0.486   3.052   4.040
10403SOL     OW32107   4.915   1.426   2.069
10403SOL    HW132108   4.941   1.362   2.141
10403SOL    HW232109   4.949   1.392   1.981
10404SOL     OW32110   0.142   6.742   3.511
10404SOL    HW132111   0.174   6.649   3.526
10404SOL    HW232112   0.105   6.779   3.597
10405SOL     OW32113   1.947   6.835   6.393
10405SOL    HW132114   1.953   6.742   6.356
10405SOL    HW232115   2.020   6.849   6.459
10406SOL     OW32116   2.502   4.930   6.072
10406SOL    HW132117   2.565   4.898   6.143
10406SOL    HW232118   2.409   4.901   6.093
10407SOL     OW32119   1.093   1.234   6.639
10407SOL    HW132120   1.036   1.264   6.715
10407SOL    HW232121   1.066   1.141   6.612
10408SOL     OW32122   4.310   5.253   3.126
10408SOL    HW132123   4.367   5.273   3.205
10408SOL    HW232124   4.333   5.163   3.090
10409SOL     OW32125   6.067   4.572   2.425
10409SOL    HW132126   5.987   4.625   2.397
10409SOL    HW232127   6.126   4.629   2.483
10410SOL     OW32128   5.966   6.900   0.791
10410SOL    HW132129   5.989   6.836   0.717
10410SOL    HW232130   6.049   6.926   0.839
10411SOL     OW32131   1.790   4.528   2.380
10411SOL    HW132132   1.830   4.620   2.378
10411SOL    HW232133   1.816   4.479   2.296
10412SOL     OW32134   0.521   2.247   6.997
10412SOL    HW132135   0.472   2.323   6.954
10412SOL    HW232136   0.555   2.275   0.069
10413SOL     OW32137   0.042   2.205   6.303
10413SOL    HW132138   0.059   2.300   6.329
10413SOL    HW232139   7.008   2.204   6.217
10414SOL     OW32140   5.661   0.243   5.374
10414SOL    HW132141   5.621   0.318   5.426
10414SOL    HW232142   5.593   0.203   5.313
10415SOL     OW32143   0.703   6.027   3.624
10415SOL    HW132144   0.686   6.095   3.695
10415SOL    HW232145   0.741   6.073   3.543
10416SOL     OW32146   4.981   0.401   6.853
10416SOL    HW132147   4.956   0.440   6.764
10416SOL    HW232148   4.976   0.472   6.923
10417SOL     OW32149   3.825   4.965   4.613
10417SOL    HW132150   3.863   4.924   4.530
10417SOL    HW232151   3.734   5.002   4.594
10418SOL     OW32152   6.336   3.647   6.794
10418SOL    HW132153   6.246   3.685   6.774
10418SOL    HW232154   6.363   3.586   6.719
10419SOL     OW32155   2.781   1.475   4.478
10419SOL    HW132156   2.686   1.503   4.492
10419SOL    HW232157   2.840   1.556   4.481
10420SOL     OW32158   5.486   2.978   3.601
10420SOL    HW132159   5.528   2.949   3.687
10420SOL    HW232160   5.541   2.947   3.524
10421SOL     OW32161   0.740   4.935   3.603
10421SOL    HW132162   0.648   4.946   3.565
10421SOL    HW232163   0.759   5.010   3.667
10422SOL     OW32164   6.086   3.642   5.019
10422SOL    HW132165   6.181   3.632   5.051
10422SOL    HW232166   6.023   3.619   5.093
10423SOL     OW32167   2.691   4.918   3.824
10423SOL    HW132168   2.604   4.915   3.874
10423SOL    HW232169   2.679   4.878   3.734
10424SOL     OW32170   3.225   1.408   0.417
10424SOL    HW132171   3.130   1.386   0.437
10424SOL    HW232172   3.228   1.480   0.348
10425SOL     OW32173   1.671   3.059   0.937
10425SOL    HW132174   1.697   3.149   0.903
10425SOL    HW232175   1.678   2.992   0.863
10426SOL     OW32176   6.149   2.154   6.283
10426SOL    HW132177   6.079   2.130   6.350
10426SOL    HW232178   6.222   2.087   6.285
10427SOL     OW32179   5.440   1.364   4.370
10427SOL    HW132180   5.409   1.392   4.461
10427SOL    HW232181   5.540   1.367   4.367
10428SOL     OW32182   1.715   0.029   4.824
10428SOL    HW132183   1.677   6.964   4.784
10428SOL    HW232184   1.671   0.048   4.912
10429SOL     OW32185   1.118   2.976   1.107
10429SOL    HW132186   1.159   2.910   1.170
10429SOL    HW232187   1.125   2.942   1.013
10430SOL     OW32188   3.303   0.387   3.996
10430SOL    HW132189   3.304   0.306   3.938
10430SOL    HW232190   3.265   0.465   3.946
10431SOL     OW32191   3.846   0.855   3.272
10431SOL    HW132192   3.795   0.837   3.188
10431SOL    HW232193   3.908   0.780   3.290
10432SOL     OW32194   1.054   5.740   6.264
10432SOL    HW132195   0.985   5.678   6.226
10432SOL    HW232196   1.030   5.834   6.240
10433SOL     OW32197   3.250   6.880   3.376
10433SOL    HW132198   3.347   6.860   3.387
10433SOL    HW232199   3.225   6.958   3.434
10434SOL     OW32200   5.138   0.883   6.405
10434SOL    HW132201   5.128   0.950   6.478
10434SOL    HW232202   5.234   0.862   6.391
10435SOL     OW32203   2.765   1.653   0.504
10435SOL    HW132204   2.706   1.699   0.571
10435SOL    HW232205   2.809   1.722   0.446
10436SOL     OW32206   6.921   3.952   5.134
10436SOL    HW132207   6.932   3.958   5.035
10436SOL    HW232208   6.907   3.856   5.160
10437SOL     OW32209   5.823   6.369   4.705
10437SOL    HW132210   5.812   6.294   4.639
10437SOL    HW232211   5.734   6.390   4.746
10438SOL     OW32212   6.951   5.931   6.897
10438SOL    HW132213   0.003   5.918   6.827
10438SOL    HW232214   6.891   5.851   6.899
10439SOL     OW32215   6.236   5.235   4.637
10439SOL    HW132216   6.141   5.262   4.654
10439SOL    HW232217   6.238   5.143   4.598
10440SOL     OW32218   6.117   2.656   0.961
10440SOL    HW132219   6.191   2.704   0.914
10440SOL    HW232220   6.032   2.668   0.909
10441SOL     OW32221   4.627   1.745   0.051
10441SOL    HW132222   4.679   1.806   0.112
10441SOL    HW232223   4.662   1.754   6.976
10442SOL     OW32224   2.041   1.582   4.839
10442SOL    HW132225   1.975   1.643   4.795
10442SOL    HW232226   2.055   1.502   4.780
10443SOL     OW32227   1.172   0.985   1.088
10443SOL    HW132228   1.244   1.055   1.091
10443SOL    HW232229   1.098   1.010   1.149
10444SOL     OW32230   3.578   5.015   4.475
10444SOL    HW132231   3.623   5.006   4.386
10444SOL    HW232232   3.486   4.977   4.470
10445SOL     OW32233   1.039   3.409   3.658
10445SOL    HW132234   0.977   3.379   3.585
10445SOL    HW232235   0.992   3.402   3.746
10446SOL     OW32236   2.496   4.982   5.728
10446SOL    HW132237   2.431   5.040   5.679
10446SOL    HW232238   2.528   5.030   5.810
10447SOL     OW32239   0.514   2.199   2.505
10447SOL    HW132240   0.606   2.170   2.479
10447SOL    HW232241   0.466   2.234   2.424
10448SOL     OW32242   2.536   6.626   2.055
10448SOL    HW132243   2.594   6.590   2.128
10448SOL    HW232244   2.443   6.639   2.089
10449SOL     OW32245   3.926   5.165   4.752
10449SOL    HW132246   3.837   5.184   4.792
10449SOL    HW232247   3.916   5.094   4.682
10450SOL     OW32248   6.741   0.714   4.897
10450SOL    HW132249   6.650   0.755   4.902
10450SOL    HW232250   6.740   0.624   4.939
10451SOL     OW32251   3.448   1.859   3.757
10451SOL    HW132252   3.460   1.901   3.847
10451SOL    HW232253   3.398   1.772   3.768
10452SOL     OW32254   6.363   3.004   4.682
10452SOL    HW132255   6.312   3.081   4.719
10452SOL    HW232256   6.316   2.919   4.705
10453SOL     OW32257   4.531   5.951   3.892
10453SOL    HW132258   4.484   5.952   3.981
10453SOL    HW232259   4.617   5.901   3.901
10454SOL     OW32260   6.485   1.384   6.835
10454SOL    HW132261   6.437   1.393   6.923
10454SOL    HW232262   6.425   1.414   6.761
10455SOL     OW32263   0.545   6.169   3.333
10455SOL    HW132264   0.474   6.133   3.394
10455SOL    HW232265   0.568   6.262   3.360
10456SOL     OW32266   1.358   5.472   6.555
10456SOL    HW132267   1.367   5.481   6.654
10456SOL    HW232268   1.396   5.384   6.526
10457SOL     OW32269   4.151   2.112   6.560
10457SOL    HW132270   4.105   2.046   6.501
10457SOL    HW232271   4.133   2.089   6.656
10458SOL     OW32272   1.041   5.839   6.879
10458SOL    HW132273   1.085   5.755   6.910
10458SOL    HW232274   0.950   5.818   6.844
10459SOL     OW32275   6.081   5.173   1.703
10459SOL    HW132276   6.179   5.161   1.721
10459SOL    HW232277   6.062   5.270   1.687
10460SOL     OW32278   6.863   0.494   0.621
10460SOL    HW132279   6.884   0.440   0.540
10460SOL    HW232280   6.767   0.483   0.645
10461SOL     OW32281   7.000   4.552   6.418
10461SOL    HW132282   0.014   4.458   6.436
10461SOL    HW232283   0.056   4.616   6.438
10462SOL     OW32284   4.055   3.103   6.133
10462SOL    HW132285   4.033   3.094   6.036
10462SOL    HW232286   3.985   3.157   6.178
10463SOL     OW32287   4.998   2.420   6.423
10463SOL    HW132288   5.035   2.379   6.506
10463SOL    HW232289   5.051   2.391   6.344
10464SOL     OW32290   6.303   4.340   2.650
10464SOL    HW132291   6.316   4.431   2.691
10464SOL    HW232292   6.211   4.334   2.610
10465SOL     OW32293   5.310   4.793   1.248
10465SOL    HW132294   5.221   4.828   1.276
10465SOL    HW232295   5.318   4.697   1.274
10466SOL     OW32296   6.738   4.350   6.135
10466SOL    HW132297   6.765   4.306   6.049
10466SOL    HW232298   6.760   4.447   6.131
10467SOL     OW32299   0.730   3.020   0.000
10467SOL    HW132300   0.671   3.083   0.052
10467SOL    HW232301   0.749   2.939   0.055
10468SOL     OW32302   1.380   4.574   3.469
10468SOL    HW132303   1.433   4.521   3.535
10468SOL    HW232304   1.292   4.600   3.511
10469SOL     OW32305   0.556   1.401   4.106
10469SOL    HW132306   0.647   1.437   4.128
10469SOL    HW232307   0.556   1.302   4.120
10470SOL     OW32308   2.038   3.340   3.108
10470SOL    HW132309   2.108   3.399   3.148
10470SOL    HW232310   2.013   3.268   3.173
10471SOL     OW32311   2.759   6.321   6.753
10471SOL    HW132312   2.723   6.271   6.831
10471SOL    HW232313   2.852   6.291   6.734
10472SOL     OW32314   3.406   4.623   6.790
10472SOL    HW132315   3.375   4.528   6.801
10472SOL    HW232316   3.372   4.660   6.704
10473SOL     OW32317   5.800   4.845   1.161
10473SOL    HW132318   5.806   4.763   1.105
10473SOL    HW232319   5.769   4.820   1.253
10474SOL     OW32320   5.742   0.785   4.962
10474SOL    HW132321   5.673   0.801   5.033
10474SOL    HW232322   5.824   0.747   5.003
10475SOL     OW32323   1.002   5.163   0.983
10475SOL    HW132324   0.984   5.234   1.051
10475SOL    HW232325   1.100   5.142   0.981
10476SOL     OW32326   4.823   6.673   1.280
10476SOL    HW132327   4.810   6.772   1.266
10476SOL    HW232328   4.782   6.623   1.205
10477SOL     OW32329   0.249   5.609   3.178
10477SOL    HW132330   0.206   5.523   3.207
10477SOL    HW232331   0.253   5.672   3.256
10478SOL     OW32332   6.641   0.937   6.489
10478SOL    HW132333   6.544   0.954   6.474
10478SOL    HW232334   6.663   0.952   6.585
10479SOL     OW32335   0.662   3.245   1.734
10479SOL    HW132336   0.614   3.321   1.777
10479SOL    HW232337   0.760   3.258   1.743
10480SOL     OW32338   2.217   0.755   3.652
10480SOL    HW132339   2.279   0.727   3.725
10480SOL    HW232340   2.163   0.676   3.622
10481SOL     OW32341   6.893   1.311   1.533
10481SOL    HW132342   6.879   1.241   1.464
10481SOL    HW232343   6.814   1.374   1.533
10482SOL     OW32344   5.587   2.812   4.180
10482SOL    HW132345   5.542   2.858   4.257
10482SOL    HW232346   5.686   2.814   4.194
10483SOL     OW32347   6.877   6.358   0.480
10483SOL    HW132348   6.823   6.320   0.555
10483SOL    HW232349   6.816   6.392   0.409
10484SOL     OW32350   6.417   1.104   2.658
10484SOL    HW132351   6.369   1.105   2.746
10484SOL    HW232352   6.354   1.072   2.587
10485SOL     OW32353   5.181   3.450   5.597
10485SOL    HW132354   5.184   3.469   5.499
10485SOL    HW232355   5.086   3.445   5.628
10486SOL     OW32356   5.591   3.110   2.265
10486SOL    HW132357   5.634   3.042   2.325
10486SOL    HW232358   5.617   3.093   2.171
10487SOL     OW32359   5.825   6.782   1.527
10487SOL    HW132360   5.873   6.758   1.442
10487SOL    HW232361   5.875   6.855   1.573
10488SOL     OW32362   2.213   2.969   0.135
10488SOL    HW132363   2.290   2.977   0.071
10488SOL    HW232364   2.248   2.968   0.228
10489SOL     OW32365   1.338   5.632   4.933
10489SOL    HW132366   1.288   5.717   4.948
10489SOL    HW232367   1.298   5.559   4.988
10490SOL     OW32368   6.806   0.184   3.956
10490SOL    HW132369   6.877   0.209   3.890
10490SOL    HW232370   6.811   0.086   3.975
10491SOL     OW32371   0.667   4.362   5.694
10491SOL    HW132372   0.603   4.327   5.626
10491SOL    HW232373   0.649   4.459   5.710
10492SOL     OW32374   3.925   4.032   5.714
10492SOL    HW132375   3.866   4.059   5.638
10492SOL    HW232376   3.906   3.937   5.738
10493SOL     OW32377   3.462   1.015   0.757
10493SOL    HW132378   3.402   0.949   0.711
10493SOL    HW232379   3.542   1.033   0.699
10494SOL     OW32380   5.812   2.533   4.507
10494SOL    HW132381   5.824   2.471   4.585
10494SOL    HW232382   5.717   2.564   4.503
10495SOL     OW32383   1.714   6.940   0.083
10495SOL    HW132384   1.748   6.894   0.165
10495SOL    HW232385   1.737   0.019   0.088
10496SOL     OW32386   6.388   0.347   5.663
10496SOL    HW132387   6.347   0.258   5.644
10496SOL    HW232388   6.470   0.334   5.719
10497SOL     OW32389   1.231   1.175   0.578
10497SOL    HW132390   1.264   1.161   0.485
10497SOL    HW232391   1.138   1.211   0.575
10498SOL     OW32392   2.722   5.374   6.128
10498SOL    HW132393   2.758   5.288   6.092
10498SOL    HW232394   2.663   5.355   6.206
10499SOL     OW32395   3.351   5.316   3.046
10499SOL    HW132396   3.433   5.334   3.099
10499SOL    HW232397   3.351   5.222   3.012
10500SOL     OW32398   1.041   2.405   6.947
10500SOL    HW132399   1.078   2.313   6.942
10500SOL    HW232400   0.964   2.413   6.884
10501SOL     OW32401   1.489   2.508   3.059
10501SOL    HW132402   1.467   2.453   3.139
10501SOL    HW232403   1.441   2.472   2.979
10502SOL     OW32404   3.082   6.450   5.669
10502SOL    HW132405   3.099   6.401   5.583
10502SOL    HW232406   3.113   6.544   5.660
10503SOL     OW32407   2.512   3.309   5.740
10503SOL    HW132408   2.515   3.399   5.696
10503SOL    HW232409   2.548   3.240   5.677
10504SOL     OW32410   2.958   2.868   1.180
10504SOL    HW132411   2.942   2.858   1.278
10504SOL    HW232412   3.015   2.793   1.148
10505SOL     OW32413   0.325   6.694   1.366
10505SOL    HW132414   0.370   6.779   1.392
10505SOL    HW232415   0.376   6.650   1.292
10506SOL     OW32416   0.418   4.003   5.563
10506SOL    HW132417   0.514   3.975   5.556
10506SOL    HW232418   0.403   4.049   5.650
10507SOL     OW32419   0.827   0.114   5.042
10507SOL    HW132420   0.923   0.100   5.022
10507SOL    HW232421   0.793   0.193   4.989
10508SOL     OW32422   5.170   4.463   3.172
10508SOL    HW132423   5.126   4.520   3.102
10508SOL    HW232424   5.238   4.405   3.129
10509SOL     OW32425   1.915   0.614   5.675
10509SOL    HW132426   1.821   0.648   5.670
10509SOL    HW232427   1.970   0.656   5.603
10510SOL     OW32428   6.713   5.851   0.110
10510SOL    HW132429   6.625   5.853   0.157
10510SOL    HW232430   6.769   5.777   0.147
10511SOL     OW32431   5.735   2.341   0.257
10511SOL    HW132432   5.733   2.257   0.203
10511SOL    HW232433   5.649   2.350   0.308
10512SOL     OW32434   3.612   6.278   6.733
10512SOL    HW132435   3.573   6.201   6.682
10512SOL    HW232436   3.689   6.316   6.683
10513SOL     OW32437   6.792   2.512   0.184
10513SOL    HW132438   6.821   2.493   0.278
10513SOL    HW232439   6.727   2.443   0.155
10514SOL     OW32440   6.665   3.820   1.254
10514SOL    HW132441   6.587   3.879   1.273
10514SOL    HW232442   6.748   3.862   1.293
10515SOL     OW32443   6.437   2.237   4.219
10515SOL    HW132444   6.487   2.199   4.297
10515SOL    HW232445   6.447   2.336   4.219
10516SOL     OW32446   4.002   0.210   6.450
10516SOL    HW132447   4.089   0.161   6.447
10516SOL    HW232448   3.931   0.149   6.486
10517SOL     OW32449   0.682   1.613   2.993
10517SOL    HW132450   0.631   1.649   3.071
10517SOL    HW232451   0.769   1.575   3.025
10518SOL     OW32452   0.536   6.987   1.176
10518SOL    HW132453   0.529   6.894   1.141
10518SOL    HW232454   0.503   6.990   1.271
10519SOL     OW32455   3.117   3.690   5.738
10519SOL    HW132456   3.149   3.781   5.713
10519SOL    HW232457   3.138   3.625   5.666
10520SOL     OW32458   4.155   3.457   6.384
10520SOL    HW132459   4.082   3.422   6.325
10520SOL    HW232460   4.174   3.552   6.359
10521SOL     OW32461   6.641   5.327   1.679
10521SOL    HW132462   6.569   5.392   1.707
10521SOL    HW232463   6.646   5.253   1.746
10522SOL     OW32464   6.176   0.619   1.955
10522SOL    HW132465   6.127   0.583   2.034
10522SOL    HW232466   6.232   0.547   1.915
10523SOL     OW32467   0.090   5.846   6.674
10523SOL    HW132468   0.163   5.901   6.634
10523SOL    HW232469   0.021   5.826   6.604
10524SOL     OW32470   3.821   1.039   4.238
10524SOL    HW132471   3.894   0.974   4.260
10524SOL    HW232472   3.766   1.055   4.320
10525SOL     OW32473   2.665   6.332   4.558
10525SOL    HW132474   2.670   6.328   4.458
10525SOL    HW232475   2.738   6.391   4.592
10526SOL     OW32476   5.850   6.789   2.226
10526SOL    HW132477   5.824   6.859   2.160
10526SOL    HW232478   5.788   6.711   2.219
10527SOL     OW32479   1.711   2.467   4.719
10527SOL    HW132480   1.642   2.395   4.707
10527SOL    HW232481   1.753   2.458   4.809
10528SOL     OW32482   6.617   4.988   5.443
10528SOL    HW132483   6.546   5.053   5.467
10528SOL    HW232484   6.628   4.922   5.517
10529SOL     OW32485   6.030   6.296   3.703
10529SOL    HW132486   6.037   6.298   3.603
10529SOL    HW232487   6.012   6.388   3.737
10530SOL     OW32488   1.964   1.877   5.688
10530SOL    HW132489   1.880   1.929   5.672
10530SOL    HW232490   1.942   1.793   5.738
10531SOL     OW32491   1.928   2.656   5.389
10531SOL    HW132492   1.836   2.630   5.361
10531SOL    HW232493   1.950   2.747   5.353
10532SOL     OW32494   3.350   2.887   5.390
10532SOL    HW132495   3.395   2.819   5.332
10532SOL    HW232496   3.253   2.862   5.402
10533SOL     OW32497   2.383   0.965   6.224
10533SOL    HW132498   2.438   0.894   6.267
10533SOL    HW232499   2.305   0.924   6.177
10534SOL     OW32500   5.831   5.591   1.230
10534SOL    HW132501   5.790   5.527   1.295
10534SOL    HW232502   5.870   5.668   1.280
10535SOL     OW32503   0.254   1.095   2.754
10535SOL    HW132504   0.340   1.144   2.744
10535SOL    HW232505   0.204   1.131   2.833
10536SOL     OW32506   4.426   0.150   3.430
10536SOL    HW132507   4.331   0.183   3.425
10536SOL    HW232508   4.460   0.132   3.338
10537SOL     OW32509   0.462   4.588   1.158
10537SOL    HW132510   0.520   4.670   1.160
10537SOL    HW232511   0.514   4.511   1.194
10538SOL     OW32512   5.069   3.558   0.270
10538SOL    HW132513   5.121   3.643   0.265
10538SOL    HW232514   5.105   3.492   0.204
10539SOL     OW32515   0.992   2.926   5.925
10539SOL    HW132516   1.008   2.843   5.871
10539SOL    HW232517   1.080   2.962   5.957
10540SOL     OW32518   2.758   0.490   6.908
10540SOL    HW132519   2.796   0.504   6.817
10540SOL    HW232520   2.663   0.461   6.900
10541SOL     OW32521   4.051   2.597   0.720
10541SOL    HW132522   4.065   2.686   0.678
10541SOL    HW232523   4.085   2.599   0.814
10542SOL     OW32524   1.075   2.430   0.199
10542SOL    HW132525   1.155   2.483   0.171
10542SOL    HW232526   1.038   2.382   0.119
10543SOL     OW32527   2.199   1.174   5.354
10543SOL    HW132528   2.232   1.137   5.440
10543SOL    HW232529   2.099   1.176   5.355
10544SOL     OW32530   0.733   2.344   2.129
10544SOL    HW132531   0.645   2.390   2.118
10544SOL    HW232532   0.727   2.278   2.204
10545SOL     OW32533   5.778   0.373   2.215
10545SOL    HW132534   5.756   0.327   2.129
10545SOL    HW232535   5.752   0.470   2.209
10546SOL     OW32536   3.265   0.945   4.246
10546SOL    HW132537   3.278   0.874   4.314
10546SOL    HW232538   3.343   1.007   4.247
10547SOL     OW32539   4.166   1.293   0.744
10547SOL    HW132540   4.205   1.259   0.659
10547SOL    HW232541   4.174   1.223   0.815
10548SOL     OW32542   4.701   4.245   4.986
10548SOL    HW132543   4.720   4.211   5.078
10548SOL    HW232544   4.643   4.326   4.991
10549SOL     OW32545   1.263   0.895   1.740
10549SOL    HW132546   1.339   0.883   1.805
10549SOL    HW232547   1.177   0.878   1.787
10550SOL     OW32548   4.913   0.035   5.196
10550SOL    HW132549   4.931   0.115   5.252
10550SOL    HW232550   4.816   0.033   5.171
10551SOL     OW32551   1.324   2.642   5.580
10551SOL    HW132552   1.289   2.679   5.494
10551SOL    HW232553   1.249   2.601   5.632
10552SOL     OW32554   2.989   2.224   5.329
10552SOL    HW132555   2.904   2.271   5.304
10552SOL    HW232556   3.064   2.260   5.274
10553SOL     OW32557   2.953   4.524   6.723
10553SOL    HW132558   2.933   4.432   6.756
10553SOL    HW232559   2.894   4.590   6.769
10554SOL     OW32560   6.606   4.321   5.458
10554SOL    HW132561   6.559   4.308   5.545
10554SOL    HW232562   6.650   4.411   5.457
10555SOL     OW32563   3.156   2.092   1.090
10555SOL    HW132564   3.137   1.994   1.089
10555SOL    HW232565   3.221   2.113   1.163
10556SOL     OW32566   2.120   3.158   4.296
10556SOL    HW132567   2.092   3.212   4.375
10556SOL    HW232568   2.094   3.206   4.212
10557SOL     OW32569   6.310   2.149   3.689
10557SOL    HW132570   6.401   2.108   3.696
10557SOL    HW232571   6.313   2.228   3.628
10558SOL     OW32572   5.138   6.427   5.172
10558SOL    HW132573   5.131   6.458   5.077
10558SOL    HW232574   5.135   6.506   5.233
10559SOL     OW32575   4.321   2.720   0.484
10559SOL    HW132576   4.299   2.757   0.394
10559SOL    HW232577   4.360   2.628   0.474
10560SOL     OW32578   0.375   2.596   4.533
10560SOL    HW132579   0.428   2.633   4.609
10560SOL    HW232580   0.369   2.496   4.543
10561SOL     OW32581   2.889   4.253   6.788
10561SOL    HW132582   2.832   4.199   6.727
10561SOL    HW232583   2.960   4.195   6.827
10562SOL     OW32584   3.315   1.128   0.504
10562SOL    HW132585   3.218   1.139   0.482
10562SOL    HW232586   3.354   1.057   0.445
10563SOL     OW32587   1.821   1.468   4.395
10563SOL    HW132588   1.782   1.550   4.355
10563SOL    HW232589   1.803   1.390   4.336
10564SOL     OW32590   6.533   2.170   2.071
10564SOL    HW132591   6.463   2.196   2.137
10564SOL    HW232592   6.567   2.251   2.024
10565SOL     OW32593   5.402   1.747   4.911
10565SOL    HW132594   5.402   1.763   5.010
10565SOL    HW232595   5.308   1.750   4.877
10566SOL     OW32596   3.879   4.421   0.043
10566SOL    HW132597   3.879   4.444   0.141
10566SOL    HW232598   3.949   4.475   7.014
10567SOL     OW32599   1.455   4.949   4.088
10567SOL    HW132600   1.504   5.033   4.109
10567SOL    HW232601   1.440   4.942   3.990
10568SOL     OW32602   4.308   1.507   3.145
10568SOL    HW132603   4.314   1.606   3.157
10568SOL    HW232604   4.338   1.482   3.053
10569SOL     OW32605   6.245   3.047   3.857
10569SOL    HW132606   6.319   3.109   3.833
10569SOL    HW232607   6.160   3.098   3.870
10570SOL     OW32608   1.254   4.244   2.489
10570SOL    HW132609   1.334   4.242   2.428
10570SOL    HW232610   1.190   4.172   2.462
10571SOL     OW32611   5.811   0.257   4.456
10571SOL    HW132612   5.720   0.225   4.433
10571SOL    HW232613   5.865   0.181   4.493
10572SOL     OW32614   6.451   3.472   1.848
10572SOL    HW132615   6.489   3.434   1.933
10572SOL    HW232616   6.431   3.569   1.861
10573SOL     OW32617   6.201   4.477   5.682
10573SOL    HW132618   6.235   4.451   5.773
10573SOL    HW232619   6.125   4.416   5.656
10574SOL     OW32620   0.446   1.653   2.798
10574SOL    HW132621   0.533   1.633   2.843
10574SOL    HW232622   0.425   1.580   2.733
10575SOL     OW32623   0.956   0.120   5.565
10575SOL    HW132624   0.926   0.168   5.482
10575SOL    HW232625   0.969   0.186   5.639
10576SOL     OW32626   1.692   4.880   3.194
10576SOL    HW132627   1.640   4.857   3.276
10576SOL    HW232628   1.734   4.797   3.157
10577SOL     OW32629   0.700   2.733   5.140
10577SOL    HW132630   0.694   2.633   5.131
10577SOL    HW232631   0.720   2.756   5.235
10578SOL     OW32632   5.788   1.014   5.656
10578SOL    HW132633   5.831   1.103   5.669
10578SOL    HW232634   5.829   0.948   5.718
10579SOL     OW32635   4.726   0.794   0.526
10579SOL    HW132636   4.716   0.862   0.599
10579SOL    HW232637   4.675   0.712   0.549
10580SOL     OW32638   6.948   6.068   0.493
10580SOL    HW132639   6.933   6.122   0.576
10580SOL    HW232640   6.964   6.130   0.416
10581SOL     OW32641   4.671   1.461   4.250
10581SOL    HW132642   4.658   1.380   4.192
10581SOL    HW232643   4.769   1.476   4.264
10582SOL     OW32644   3.369   4.398   0.033
10582SOL    HW132645   3.329   4.367   6.964
10582SOL    HW232646   3.298   4.403   0.102
10583SOL     OW32647   4.428   1.811   0.750
10583SOL    HW132648   4.366   1.794   0.826
10583SOL    HW232649   4.487   1.889   0.772
10584SOL     OW32650   6.269   0.356   1.817
10584SOL    HW132651   6.335   0.349   1.742
10584SOL    HW232652   6.203   0.281   1.811
10585SOL     OW32653   1.595   4.116   6.415
10585SOL    HW132654   1.669   4.149   6.357
10585SOL    HW232655   1.631   4.093   6.506
10586SOL     OW32656   3.745   0.854   0.311
10586SOL    HW132657   3.748   0.757   0.332
10586SOL    HW232658   3.751   0.907   0.395
10587SOL     OW32659   6.089   3.779   1.346
10587SOL    HW132660   6.039   3.693   1.360
10587SOL    HW232661   6.170   3.761   1.289
10588SOL     OW32662   0.567   5.179   3.071
10588SOL    HW132663   0.540   5.090   3.107
10588SOL    HW232664   0.504   5.249   3.106
10589SOL     OW32665   6.415   1.901   3.925
10589SOL    HW132666   6.354   1.972   3.960
10589SOL    HW232667   6.455   1.850   4.001
10590SOL     OW32668   1.369   0.804   4.325
10590SOL    HW132669   1.410   0.761   4.244
10590SOL    HW232670   1.297   0.866   4.296
10591SOL     OW32671   1.235   2.555   0.888
10591SOL    HW132672   1.207   2.462   0.864
10591SOL    HW232673   1.158   2.603   0.930
10592SOL     OW32674   6.431   1.955   0.003
10592SOL    HW132675   6.374   2.037   0.009
10592SOL    HW232676   6.425   1.904   0.090
10593SOL     OW32677   2.329   4.577   0.664
10593SOL    HW132678   2.288   4.620   0.745
10593SOL    HW232679   2.423   4.608   0.653
10594SOL     OW32680   0.987   2.031   4.526
10594SOL    HW132681   1.059   2.050   4.459
10594SOL    HW232682   0.921   2.106   4.526
10595SOL     OW32683   2.686   6.121   5.725
10595SOL    HW132684   2.612   6.126   5.791
10595SOL    HW232685   2.709   6.025   5.707
10596SOL     OW32686   3.353   1.191   1.720
10596SOL    HW132687   3.416   1.269   1.718
10596SOL    HW232688   3.268   1.218   1.765
10597SOL     OW32689   1.641   6.870   4.409
10597SOL    HW132690   1.737   6.899   4.409
10597SOL    HW232691   1.614   6.844   4.501
10598SOL     OW32692   1.771   1.734   6.972
10598SOL    HW132693   1.790   1.787   0.037
10598SOL    HW232694   1.750   1.796   6.897
10599SOL     OW32695   4.957   0.543   0.055
10599SOL    HW132696   4.868   0.585   0.037
10599SOL    HW232697   5.029   0.608   0.034
10600SOL     OW32698   1.661   2.890   6.118
10600SOL    HW132699   1.575   2.933   6.143
10600SOL    HW232700   1.644   2.799   6.079
10601SOL     OW32701   3.450   6.646   5.698
10601SOL    HW132702   3.516   6.578   5.731
10601SOL    HW232703   3.479   6.737   5.728
10602SOL     OW32704   4.498   0.754   1.912
10602SOL    HW132705   4.523   0.705   1.828
10602SOL    HW232706   4.514   0.852   1.900
10603SOL     OW32707   1.462   5.455   4.447
10603SOL    HW132708   1.466   5.478   4.545
10603SOL    HW232709   1.421   5.365   4.436
10604SOL     OW32710   6.999   4.549   5.273
10604SOL    HW132711   6.944   4.619   5.228
10604SOL    HW232712   0.050   4.514   5.209
10605SOL     OW32713   1.924   4.771   6.493
10605SOL    HW132714   1.835   4.739   6.527
10605SOL    HW232715   1.947   4.721   6.409
10606SOL     OW32716   0.894   0.660   2.782
10606SOL    HW132717   0.849   0.664   2.871
10606SOL    HW232718   0.866   0.738   2.727
10607SOL     OW32719   5.754   5.277   0.399
10607SOL    HW132720   5.736   5.179   0.398
10607SOL    HW232721   5.787   5.305   0.489
10608SOL     OW32722   6.238   1.488   3.249
10608SOL    HW132723   6.305   1.414   3.257
10608SOL    HW232724   6.200   1.489   3.157
10609SOL     OW32725   4.381   6.512   1.930
10609SOL    HW132726   4.386   6.529   1.832
10609SOL    HW232727   4.374   6.414   1.947
10610SOL     OW32728   1.233   3.378   5.285
10610SOL    HW132729   1.230   3.446   5.359
10610SOL    HW232730   1.326   3.344   5.274
10611SOL     OW32731   4.743   2.355   6.529
10611SOL    HW132732   4.746   2.255   6.518
10611SOL    HW232733   4.816   2.396   6.474
10612SOL     OW32734   1.369   0.001   0.853
10612SOL    HW132735   1.343   0.017   0.758
10612SOL    HW232736   1.442   6.951   0.856
10613SOL     OW32737   0.636   6.899   6.202
10613SOL    HW132738   0.562   6.895   6.136
10613SOL    HW232739   0.712   6.952   6.164
10614SOL     OW32740   6.595   1.292   4.727
10614SOL    HW132741   6.561   1.206   4.687
10614SOL    HW232742   6.645   1.271   4.811
10615SOL     OW32743   6.157   5.575   5.232
10615SOL    HW132744   6.086   5.515   5.194
10615SOL    HW232745   6.218   5.521   5.290
10616SOL     OW32746   3.181   6.089   0.492
10616SOL    HW132747   3.105   6.140   0.453
10616SOL    HW232748   3.267   6.132   0.466
10617SOL     OW32749   1.017   2.300   6.529
10617SOL    HW132750   0.925   2.263   6.517
10617SOL    HW232751   1.070   2.238   6.586
10618SOL     OW32752   5.980   3.533   1.300
10618SOL    HW132753   6.058   3.471   1.289
10618SOL    HW232754   5.933   3.513   1.386
10619SOL     OW32755   1.055   4.488   4.063
10619SOL    HW132756   1.126   4.479   4.133
10619SOL    HW232757   1.041   4.585   4.041
10620SOL     OW32758   1.416   5.651   4.234
10620SOL    HW132759   1.427   5.598   4.318
10620SOL    HW232760   1.468   5.736   4.241
10621SOL     OW32761   2.577   6.565   1.377
10621SOL    HW132762   2.531   6.505   1.443
10621SOL    HW232763   2.646   6.512   1.327
10622SOL     OW32764   4.332   1.453   1.391
10622SOL    HW132765   4.410   1.398   1.361
10622SOL    HW232766   4.365   1.532   1.444
10623SOL     OW32767   6.878   1.287   3.705
10623SOL    HW132768   6.930   1.292   3.620
10623SOL    HW232769   6.910   1.210   3.760
10624SOL     OW32770   2.495   1.091   4.426
10624SOL    HW132771   2.568   1.137   4.477
10624SOL    HW232772   2.417   1.075   4.487
10625SOL     OW32773   0.084   3.485   6.992
10625SOL    HW132774   0.156   3.517   0.034
10625SOL    HW232775   0.047   3.562   6.940
10626SOL     OW32776   6.582   2.161   1.479
10626SOL    HW132777   6.590   2.066   1.507
10626SOL    HW232778   6.495   2.198   1.511
10627SOL     OW32779   6.026   5.155   4.224
10627SOL    HW132780   6.041   5.112   4.135
10627SOL    HW232781   5.932   5.136   4.254
10628SOL     OW32782   6.101   5.767   6.041
10628SOL    HW132783   6.112   5.864   6.020
10628SOL    HW232784   6.083   5.756   6.139
10629SOL     OW32785   2.883   5.683   6.172
10629SOL    HW132786   2.805   5.647   6.121
10629SOL    HW232787   2.952   5.717   6.108
10630SOL     OW32788   6.784   1.313   2.881
10630SOL    HW132789   6.812   1.309   2.785
10630SOL    HW232790   6.777   1.409   2.909
10631SOL     OW32791   0.734   6.799   4.602
10631SOL    HW132792   0.699   6.778   4.510
10631SOL    HW232793   0.729   6.897   4.618
10632SOL     OW32794   0.486   2.741   4.972
10632SOL    HW132795   0.395   2.738   5.014
10632SOL    HW232796   0.555   2.758   5.042
10633SOL     OW32797   1.086   4.886   0.701
10633SOL    HW132798   1.136   4.814   0.749
10633SOL    HW232799   1.150   4.940   0.646
10634SOL     OW32800   3.615   6.931   1.844
10634SOL    HW132801   3.700   6.972   1.809
10634SOL    HW232802   3.582   6.983   1.922
10635SOL     OW32803   2.009   0.855   1.019
10635SOL    HW132804   2.104   0.827   1.028
10635SOL    HW232805   2.004   0.951   0.992
10636SOL     OW32806   0.029   2.102   1.417
10636SOL    HW132807   6.991   2.040   1.361
10636SOL    HW232808   0.041   2.064   1.508
10637SOL     OW32809   3.888   4.825   5.529
10637SOL    HW132810   3.916   4.897   5.465
10637SOL    HW232811   3.902   4.736   5.488
10638SOL     OW32812   6.930   0.009   5.339
10638SOL    HW132813   7.009   0.057   5.377
10638SOL    HW232814   6.904   0.051   5.252
10639SOL     OW32815   3.184   1.152   4.935
10639SOL    HW132816   3.204   1.182   4.842
10639SOL    HW232817   3.094   1.185   4.963
10640SOL     OW32818   3.644   6.879   0.267
10640SOL    HW132819   3.674   6.806   0.328
10640SOL    HW232820   3.724   6.919   0.221
10641SOL     OW32821   4.318   0.658   6.486
10641SOL    HW132822   4.236   0.667   6.542
10641SOL    HW232823   4.393   0.711   6.526
10642SOL     OW32824   6.978   3.701   1.037
10642SOL    HW132825   7.011   3.698   1.131
10642SOL    HW232826   0.038   3.717   0.975
10643SOL     OW32827   3.920   3.775   5.522
10643SOL    HW132828   3.907   3.679   5.548
10643SOL    HW232829   3.831   3.814   5.495
10644SOL     OW32830   3.836   1.360   4.769
10644SOL    HW132831   3.843   1.438   4.707
10644SOL    HW232832   3.836   1.392   4.863
10645SOL     OW32833   2.398   0.278   4.992
10645SOL    HW132834   2.491   0.315   4.994
10645SOL    HW232835   2.334   0.345   5.029
10646SOL     OW32836   0.768   4.047   6.598
10646SOL    HW132837   0.670   4.030   6.587
10646SOL    HW232838   0.818   3.996   6.528
10647SOL     OW32839   6.869   4.927   0.438
10647SOL    HW132840   6.880   4.970   0.348
10647SOL    HW232841   6.924   4.844   0.442
10648SOL     OW32842   4.679   4.066   6.572
10648SOL    HW132843   4.773   4.099   6.562
10648SOL    HW232844   4.655   4.062   6.669
10649SOL     OW32845   0.667   4.536   5.972
10649SOL    HW132846   0.625   4.577   5.891
10649SOL    HW232847   0.597   4.514   6.039
10650SOL     OW32848   2.663   0.077   3.827
10650SOL    HW132849   2.671   7.005   3.784
10650SOL    HW232850   2.697   0.147   3.765
10651SOL     OW32851   3.347   6.883   5.873
10651SOL    HW132852   3.283   6.809   5.891
10651SOL    HW232853   3.424   6.878   5.937
10652SOL     OW32854   3.369   0.938   0.312
10652SOL    HW132855   3.389   0.863   0.375
10652SOL    HW232856   3.403   0.916   0.221
10653SOL     OW32857   5.811   3.070   4.154
10653SOL    HW132858   5.739   3.049   4.087
10653SOL    HW232859   5.793   3.161   4.193
10654SOL     OW32860   4.486   1.041   1.284
10654SOL    HW132861   4.486   1.069   1.188
10654SOL    HW232862   4.398   1.000   1.307
10655SOL     OW32863   3.336   5.776   1.704
10655SOL    HW132864   3.244   5.740   1.686
10655SOL    HW232865   3.380   5.722   1.775
10656SOL     OW32866   6.161   3.319   6.204
10656SOL    HW132867   6.181   3.224   6.181
10656SOL    HW232868   6.199   3.380   6.134
10657SOL     OW32869   5.935   0.558   1.748
10657SOL    HW132870   6.025   0.601   1.738
10657SOL    HW232871   5.946   0.459   1.741
10658SOL     OW32872   0.941   6.040   4.601
10658SOL    HW132873   0.902   6.127   4.629
10658SOL    HW232874   0.885   5.965   4.636
10659SOL     OW32875   5.559   0.932   0.724
10659SOL    HW132876   5.655   0.909   0.739
10659SOL    HW232877   5.501   0.859   0.759
10660SOL     OW32878   5.248   5.082   5.444
10660SOL    HW132879   5.259   5.024   5.525
10660SOL    HW232880   5.338   5.100   5.404
10661SOL     OW32881   0.303   0.308   2.431
10661SOL    HW132882   0.246   0.368   2.376
10661SOL    HW232883   0.347   0.361   2.503
10662SOL     OW32884   5.858   1.769   0.566
10662SOL    HW132885   5.930   1.810   0.510
10662SOL    HW232886   5.892   1.755   0.659
10663SOL     OW32887   0.339   0.554   0.122
10663SOL    HW132888   0.292   0.603   0.048
10663SOL    HW232889   0.406   0.491   0.082
10664SOL     OW32890   1.849   4.546   6.860
10664SOL    HW132891   1.862   4.449   6.842
10664SOL    HW232892   1.771   4.580   6.806
10665SOL     OW32893   6.090   0.845   6.944
10665SOL    HW132894   6.174   0.837   6.997
10665SOL    HW232895   6.112   0.858   6.848
10666SOL     OW32896   1.064   0.128   6.994
10666SOL    HW132897   0.987   0.117   0.038
10666SOL    HW232898   1.066   0.223   6.960
10667SOL     OW32899   3.360   2.220   5.265
10667SOL    HW132900   3.370   2.143   5.201
10667SOL    HW232901   3.280   2.275   5.239
10668SOL     OW32902   2.202   1.206   6.117
10668SOL    HW132903   2.232   1.286   6.063
10668SOL    HW232904   2.260   1.128   6.095
10669SOL     OW32905   1.054   6.785   6.578
10669SOL    HW132906   1.113   6.791   6.659
10669SOL    HW232907   0.990   6.862   6.578
10670SOL     OW32908   0.103   5.106   5.314
10670SOL    HW132909   0.108   5.037   5.242
10670SOL    HW232910   0.105   5.197   5.273
10671SOL     OW32911   1.353   1.757   3.152
10671SOL    HW132912   1.389   1.693   3.084
10671SOL    HW232913   1.318   1.706   3.230
10672SOL     OW32914   0.260   2.869   0.843
10672SOL    HW132915   0.259   2.918   0.930
10672SOL    HW232916   0.349   2.882   0.799
10673SOL     OW32917   3.266   3.491   5.050
10673SOL    HW132918   3.343   3.554   5.058
10673SOL    HW232919   3.282   3.428   4.973
10674SOL     OW32920   4.151   1.921   2.179
10674SOL    HW132921   4.212   1.889   2.252
10674SOL    HW232922   4.146   2.021   2.182
10675SOL     OW32923   0.098   1.088   6.439
10675SOL    HW132924   0.063   1.026   6.509
10675SOL    HW232925   0.123   1.175   6.481
10676SOL     OW32926   6.948   0.466   0.036
10676SOL    HW132927   7.016   0.478   6.982
10676SOL    HW232928   6.932   0.369   0.051
10677SOL     OW32929   0.051   1.110   0.118
10677SOL    HW132930   0.067   1.185   0.054
10677SOL    HW232931   6.975   1.114   0.151
10678SOL     OW32932   2.178   5.731   3.213
10678SOL    HW132933   2.210   5.646   3.173
10678SOL    HW232934   2.192   5.729   3.312
10679SOL     OW32935   5.549   4.855   3.513
10679SOL    HW132936   5.467   4.799   3.525
10679SOL    HW232937   5.544   4.935   3.573
10680SOL     OW32938   1.774   2.170   3.776
10680SOL    HW132939   1.761   2.133   3.868
10680SOL    HW232940   1.698   2.230   3.753
10681SOL     OW32941   0.629   1.932   6.134
10681SOL    HW132942   0.708   1.945   6.075
10681SOL    HW232943   0.622   1.836   6.162
10682SOL     OW32944   6.582   1.897   3.238
10682SOL    HW132945   6.584   1.995   3.217
10682SOL    HW232946   6.611   1.846   3.156
10683SOL     OW32947   1.688   0.963   3.589
10683SOL    HW132948   1.616   0.898   3.614
10683SOL    HW232949   1.774   0.935   3.631
10684SOL     OW32950   6.170   6.212   0.338
10684SOL    HW132951   6.116   6.283   0.383
10684SOL    HW232952   6.240   6.178   0.401
10685SOL     OW32953   6.552   1.949   2.228
10685SOL    HW132954   6.553   1.968   2.326
10685SOL    HW232955   6.556   2.035   2.178
10686SOL     OW32956   3.863   4.489   1.414
10686SOL    HW132957   3.946   4.433   1.418
10686SOL    HW232958   3.798   4.457   1.482
10687SOL     OW32959   0.729   4.620   1.548
10687SOL    HW132960   0.808   4.629   1.488
10687SOL    HW232961   0.704   4.709   1.585
10688SOL     OW32962   6.696   6.104   1.739
10688SOL    HW132963   6.788   6.126   1.708
10688SOL    HW232964   6.636   6.183   1.725
10689SOL     OW32965   0.712   0.452   1.715
10689SOL    HW132966   0.637   0.517   1.713
10689SOL    HW232967   0.800   0.501   1.712
10690SOL     OW32968   4.504   6.098   2.368
10690SOL    HW132969   4.406   6.115   2.377
10690SOL    HW232970   4.520   6.001   2.352
10691SOL     OW32971   6.461   1.675   1.221
10691SOL    HW132972   6.533   1.705   1.283
10691SOL    HW232973   6.498   1.607   1.158
10692SOL     OW32974   5.187   6.138   4.919
10692SOL    HW132975   5.287   6.136   4.911
10692SOL    HW232976   5.160   6.125   5.014
10693SOL     OW32977   5.002   2.364   3.181
10693SOL    HW132978   5.026   2.413   3.096
10693SOL    HW232979   5.051   2.277   3.184
10694SOL     OW32980   3.673   5.933   0.987
10694SOL    HW132981   3.766   5.970   0.988
10694SOL    HW232982   3.610   6.002   0.952
10695SOL     OW32983   6.391   3.162   4.988
10695SOL    HW132984   6.327   3.145   4.912
10695SOL    HW232985   6.385   3.258   5.016
10696SOL     OW32986   5.926   7.016   1.649
10696SOL    HW132987   5.976   0.055   1.584
10696SOL    HW232988   5.955   0.019   1.742
10697SOL     OW32989   2.503   5.843   3.208
10697SOL    HW132990   2.540   5.847   3.115
10697SOL    HW232991   2.457   5.929   3.230
10698SOL     OW32992   2.693   0.923   3.422
10698SOL    HW132993   2.597   0.909   3.448
10698SOL    HW232994   2.718   1.018   3.436
10699SOL     OW32995   2.052   2.314   3.084
10699SOL    HW132996   1.999   2.276   3.009
10699SOL    HW232997   2.073   2.410   3.066
10700SOL     OW32998   6.685   0.870   1.905
10700SOL    HW132999   6.680   0.770   1.908
10700SOL    HW233000   6.680   0.901   1.810
10701SOL     OW33001   3.417   6.698   1.271
10701SOL    HW133002   3.452   6.759   1.341
10701SOL    HW233003   3.320   6.681   1.287
10702SOL     OW33004   5.506   3.557   0.940
10702SOL    HW133005   5.531   3.626   0.872
10702SOL    HW233006   5.450   3.599   1.011
10703SOL     OW33007   3.721   3.222   4.226
10703SOL    HW133008   3.706   3.134   4.180
10703SOL    HW233009   3.762   3.205   4.316
10704SOL     OW33010   5.572   6.337   2.170
10704SOL    HW133011   5.475   6.315   2.157
10704SOL    HW233012   5.586   6.435   2.156
10705SOL     OW33013   1.729   3.488   6.543
10705SOL    HW133014   1.703   3.474   6.448
10705SOL    HW233015   1.729   3.401   6.592
10706SOL     OW33016   3.559   2.044   1.406
10706SOL    HW133017   3.552   2.002   1.496
10706SOL    HW233018   3.654   2.040   1.375
10707SOL     OW33019   6.219   0.001   6.260
10707SOL    HW133020   6.167   0.076   6.218
10707SOL    HW233021   6.291   6.990   6.197
10708SOL     OW33022   4.826   0.870   1.659
10708SOL    HW133023   4.771   0.921   1.592
10708SOL    HW233024   4.887   0.933   1.706
10709SOL     OW33025   0.881   6.644   5.934
10709SOL    HW133026   0.791   6.671   5.969
10709SOL    HW233027   0.876   6.552   5.897
10710SOL     OW33028   6.498   5.604   3.475
10710SOL    HW133029   6.401   5.624   3.463
10710SOL    HW233030   6.515   5.573   3.569
10711SOL     OW33031   2.492   5.976   4.855
10711SOL    HW133032   2.574   6.028   4.829
10711SOL    HW233033   2.428   6.037   4.903
10712SOL     OW33034   4.172   1.350   5.450
10712SOL    HW133035   4.180   1.355   5.350
10712SOL    HW233036   4.102   1.284   5.475
10713SOL     OW33037   1.717   6.028   1.023
10713SOL    HW133038   1.724   6.121   1.057
10713SOL    HW233039   1.688   6.030   0.927
10714SOL     OW33040   6.202   5.552   5.899
10714SOL    HW133041   6.163   5.474   5.949
10714SOL    HW233042   6.151   5.634   5.923
10715SOL     OW33043   5.927   1.017   3.645
10715SOL    HW133044   6.014   0.983   3.680
10715SOL    HW233045   5.857   1.011   3.716
10716SOL     OW33046   6.685   1.062   2.719
10716SOL    HW133047   6.587   1.075   2.705
10716SOL    HW233048   6.731   1.150   2.722
10717SOL     OW33049   6.599   6.538   2.345
10717SOL    HW133050   6.623   6.629   2.379
10717SOL    HW233051   6.500   6.528   2.343
10718SOL     OW33052   1.004   3.908   5.587
10718SOL    HW133053   0.918   3.861   5.605
10718SOL    HW233054   0.987   3.990   5.533
10719SOL     OW33055   3.896   6.903   2.399
10719SOL    HW133056   3.947   6.823   2.431
10719SOL    HW233057   3.949   6.986   2.417
10720SOL     OW33058   0.377   3.029   6.821
10720SOL    HW133059   0.367   2.951   6.883
10720SOL    HW233060   0.470   3.032   6.785
10721SOL     OW33061   4.723   2.563   4.620
10721SOL    HW133062   4.745   2.658   4.595
10721SOL    HW233063   4.771   2.500   4.560
10722SOL     OW33064   0.285   4.411   0.655
10722SOL    HW133065   0.188   4.424   0.636
10722SOL    HW233066   0.301   4.412   0.754
10723SOL     OW33067   6.090   5.048   0.672
10723SOL    HW133068   6.095   5.043   0.573
10723SOL    HW233069   6.098   4.955   0.710
10724SOL     OW33070   3.572   6.954   5.700
10724SOL    HW133071   3.621   0.021   5.717
10724SOL    HW233072   3.483   6.957   5.745
10725SOL     OW33073   6.633   0.102   5.029
10725SOL    HW133074   6.716   0.054   5.056
10725SOL    HW233075   6.655   0.173   4.963
10726SOL     OW33076   5.777   1.510   4.437
10726SOL    HW133077   5.877   1.512   4.443
10726SOL    HW233078   5.738   1.517   4.529
10727SOL     OW33079   2.972   6.436   0.024
10727SOL    HW133080   2.912   6.516   0.022
10727SOL    HW233081   3.010   6.425   0.116
10728SOL     OW33082   5.640   5.925   3.841
10728SOL    HW133083   5.622   5.858   3.769
10728SOL    HW233084   5.634   5.880   3.930
10729SOL     OW33085   6.015   2.835   4.752
10729SOL    HW133086   5.992   2.924   4.792
10729SOL    HW233087   5.998   2.763   4.820
10730SOL     OW33088   1.644   5.513   3.551
10730SOL    HW133089   1.606   5.435   3.500
10730SOL    HW233090   1.570   5.574   3.578
10731SOL     OW33091   4.939   5.890   6.504
10731SOL    HW133092   5.017   5.921   6.558
10731SOL    HW233093   4.905   5.804   6.542
10732SOL     OW33094   6.067   5.811   2.703
10732SOL    HW133095   6.155   5.779   2.737
10732SOL    HW233096   6.078   5.901   2.660
10733SOL     OW33097   0.574   1.583   5.948
10733SOL    HW133098   0.524   1.638   5.881
10733SOL    HW233099   0.670   1.608   5.948
10734SOL     OW33100   1.414   0.282   4.844
10734SOL    HW133101   1.498   0.277   4.898
10734SOL    HW233102   1.422   0.222   4.765
10735SOL     OW33103   6.784   6.921   1.749
10735SOL    HW133104   6.847   6.944   1.823
10735SOL    HW233105   6.691   6.949   1.773
10736SOL     OW33106   5.257   5.935   3.468
10736SOL    HW133107   5.229   5.889   3.384
10736SOL    HW233108   5.232   5.879   3.547
10737SOL     OW33109   6.273   1.034   1.585
10737SOL    HW133110   6.315   1.007   1.671
10737SOL    HW233111   6.178   1.004   1.582
10738SOL     OW33112   3.109   0.001   0.797
10738SOL    HW133113   3.143   0.095   0.784
10738SOL    HW233114   3.135   6.963   0.718
10739SOL     OW33115   5.483   2.971   4.384
10739SOL    HW133116   5.522   3.034   4.451
10739SOL    HW233117   5.391   2.946   4.412
10740SOL     OW33118   3.008   0.452   6.151
10740SOL    HW133119   3.025   0.416   6.059
10740SOL    HW233120   3.052   0.542   6.160
10741SOL     OW33121   1.509   2.259   3.730
10741SOL    HW133122   1.444   2.250   3.805
10741SOL    HW233123   1.460   2.252   3.643
10742SOL     OW33124   6.590   6.827   2.169
10742SOL    HW133125   6.500   6.783   2.169
10742SOL    HW233126   6.590   6.901   2.102
10743SOL     OW33127   3.025   1.690   5.500
10743SOL    HW133128   3.059   1.779   5.468
10743SOL    HW233129   2.957   1.704   5.572
10744SOL     OW33130   2.758   1.191   1.045
10744SOL    HW133131   2.837   1.133   1.024
10744SOL    HW233132   2.788   1.271   1.097
10745SOL     OW33133   2.387   4.538   1.326
10745SOL    HW133134   2.336   4.476   1.266
10745SOL    HW233135   2.330   4.617   1.347
10746SOL     OW33136   2.449   5.746   6.522
10746SOL    HW133137   2.416   5.717   6.432
10746SOL    HW233138   2.373   5.781   6.576
10747SOL     OW33139   6.890   1.512   4.659
10747SOL    HW133140   6.923   1.502   4.753
10747SOL    HW233141   6.961   1.555   4.604
10748SOL     OW33142   3.250   6.972   2.105
10748SOL    HW133143   3.301   0.027   2.059
10748SOL    HW233144   3.153   6.992   2.101
10749SOL     OW33145   6.037   4.510   1.689
10749SOL    HW133146   6.021   4.441   1.761
10749SOL    HW233147   6.013   4.600   1.724
10750SOL     OW33148   4.426   1.871   4.563
10750SOL    HW133149   4.490   1.830   4.498
10750SOL    HW233150   4.367   1.936   4.514
10751SOL     OW33151   6.885   5.514   4.275
10751SOL    HW133152   6.876   5.415   4.276
10751SOL    HW233153   6.974   5.540   4.239
10752SOL     OW33154   6.721   6.243   0.682
10752SOL    HW133155   6.678   6.154   0.666
10752SOL    HW233156   6.806   6.230   0.734
10753SOL     OW33157   4.744   0.209   4.900
10753SOL    HW133158   4.813   0.268   4.943
10753SOL    HW233159   4.770   0.193   4.805
10754SOL     OW33160   1.051   4.805   2.210
10754SOL    HW133161   1.076   4.731   2.272
10754SOL    HW233162   0.951   4.811   2.204
10755SOL     OW33163   0.370   2.396   1.542
10755SOL    HW133164   0.429   2.440   1.474
10755SOL    HW233165   0.326   2.316   1.501
10756SOL     OW33166   1.602   0.822   0.213
10756SOL    HW133167   1.551   0.861   0.136
10756SOL    HW233168   1.581   0.873   0.296
10757SOL     OW33169   0.455   2.687   2.197
10757SOL    HW133170   0.366   2.644   2.211
10757SOL    HW233171   0.514   2.625   2.145
10758SOL     OW33172   0.703   0.640   6.856
10758SOL    HW133173   0.794   0.679   6.865
10758SOL    HW233174   0.698   0.585   6.773
10759SOL     OW33175   2.998   3.033   5.211
10759SOL    HW133176   2.969   3.126   5.233
10759SOL    HW233177   3.090   3.017   5.248
10760SOL     OW33178   0.861   4.456   6.824
10760SOL    HW133179   0.828   4.522   6.892
10760SOL    HW233180   0.888   4.371   6.869
10761SOL     OW33181   1.181   1.510   5.831
10761SOL    HW133182   1.187   1.586   5.896
10761SOL    HW233183   1.190   1.423   5.880
10762SOL     OW33184   2.474   6.160   6.476
10762SOL    HW133185   2.445   6.167   6.571
10762SOL    HW233186   2.520   6.072   6.461
10763SOL     OW33187   4.789   0.612   3.093
10763SOL    HW133188   4.768   0.517   3.071
10763SOL    HW233189   4.708   0.656   3.131
10764SOL     OW33190   5.196   6.583   4.654
10764SOL    HW133191   5.245   6.499   4.630
10764SOL    HW233192   5.225   6.656   4.592
10765SOL     OW33193   0.575   1.656   1.490
10765SOL    HW133194   0.551   1.752   1.476
10765SOL    HW233195   0.558   1.631   1.585
10766SOL     OW33196   2.467   5.050   6.730
10766SOL    HW133197   2.452   5.016   6.823
10766SOL    HW233198   2.564   5.044   6.708
10767SOL     OW33199   1.850   5.145   0.042
10767SOL    HW133200   1.836   5.046   0.043
10767SOL    HW233201   1.762   5.191   0.031
10768SOL     OW33202   5.285   6.320   6.838
10768SOL    HW133203   5.190   6.292   6.828
10768SOL    HW233204   5.325   6.334   6.748
10769SOL     OW33205   3.044   3.193   4.663
10769SOL    HW133206   3.080   3.132   4.592
10769SOL    HW233207   3.043   3.145   4.751
10770SOL     OW33208   5.562   7.011   3.412
10770SOL    HW133209   5.492   7.002   3.341
10770SOL    HW233210   5.594   6.920   3.438
10771SOL     OW33211   4.880   5.855   5.945
10771SOL    HW133212   4.847   5.912   5.870
10771SOL    HW233213   4.818   5.864   6.024
10772SOL     OW33214   6.000   4.879   2.152
10772SOL    HW133215   5.990   4.945   2.226
10772SOL    HW233216   6.078   4.904   2.094
10773SOL     OW33217   0.667   4.132   1.720
10773SOL    HW133218   0.715   4.092   1.642
10773SOL    HW233219   0.701   4.224   1.736
10774SOL     OW33220   0.980   3.276   0.774
10774SOL    HW133221   0.998   3.257   0.870
10774SOL    HW233222   1.017   3.366   0.750
10775SOL     OW33223   1.776   4.090   0.556
10775SOL    HW133224   1.723   4.007   0.542
10775SOL    HW233225   1.872   4.072   0.538
10776SOL     OW33226   0.619   2.683   3.559
10776SOL    HW133227   0.714   2.662   3.536
10776SOL    HW233228   0.606   2.782   3.562
10777SOL     OW33229   1.749   0.347   0.934
10777SOL    HW133230   1.671   0.404   0.908
10777SOL    HW233231   1.724   0.289   1.011
10778SOL     OW33232   4.808   0.335   3.208
10778SOL    HW133233   4.833   0.243   3.179
10778SOL    HW233234   4.875   0.401   3.174
10779SOL     OW33235   5.608   3.189   5.824
10779SOL    HW133236   5.550   3.265   5.796
10779SOL    HW233237   5.677   3.222   5.888
10780SOL     OW33238   2.108   5.168   4.134
10780SOL    HW133239   2.086   5.137   4.041
10780SOL    HW233240   2.111   5.268   4.136
10781SOL     OW33241   5.511   2.174   4.739
10781SOL    HW133242   5.491   2.242   4.810
10781SOL    HW233243   5.541   2.220   4.655
10782SOL     OW33244   0.810   1.807   5.710
10782SOL    HW133245   0.864   1.845   5.635
10782SOL    HW233246   0.799   1.875   5.782
10783SOL     OW33247   1.053   2.452   3.654
10783SOL    HW133248   0.977   2.397   3.688
10783SOL    HW233249   1.102   2.493   3.731
10784SOL     OW33250   4.152   5.988   3.272
10784SOL    HW133251   4.114   5.917   3.213
10784SOL    HW233252   4.148   6.076   3.226
10785SOL     OW33253   1.764   5.380   1.822
10785SOL    HW133254   1.768   5.460   1.882
10785SOL    HW233255   1.828   5.311   1.856
10786SOL     OW33256   4.560   2.030   2.039
10786SOL    HW133257   4.491   1.973   1.993
10786SOL    HW233258   4.533   2.044   2.134
10787SOL     OW33259   3.938   2.145   3.471
10787SOL    HW133260   3.867   2.088   3.511
10787SOL    HW233261   4.009   2.164   3.539
10788SOL     OW33262   1.349   3.964   0.625
10788SOL    HW133263   1.323   4.006   0.538
10788SOL    HW233264   1.434   3.913   0.612
10789SOL     OW33265   6.434   1.384   2.623
10789SOL    HW133266   6.443   1.287   2.598
10789SOL    HW233267   6.338   1.409   2.626
10790SOL     OW33268   6.878   1.931   5.689
10790SOL    HW133269   6.795   1.976   5.722
10790SOL    HW233270   6.957   1.969   5.738
10791SOL     OW33271   1.993   2.225   3.589
10791SOL    HW133272   1.915   2.190   3.640
10791SOL    HW233273   1.987   2.195   3.494
10792SOL     OW33274   3.416   1.679   2.194
10792SOL    HW133275   3.407   1.581   2.210
10792SOL    HW233276   3.478   1.695   2.117
10793SOL     OW33277   3.492   1.716   4.989
10793SOL    HW133278   3.409   1.772   4.987
10793SOL    HW233279   3.571   1.772   4.962
10794SOL     OW33280   5.530   2.420   0.445
10794SOL    HW133281   5.537   2.518   0.427
10794SOL    HW233282   5.495   2.405   0.537
10795SOL     OW33283   0.091   3.401   3.195
10795SOL    HW133284   0.053   3.313   3.169
10795SOL    HW233285   0.100   3.459   3.114
10796SOL     OW33286   7.014   0.204   6.248
10796SOL    HW133287   6.983   0.198   6.343
10796SOL    HW233288   6.986   0.122   6.198
10797SOL     OW33289   4.414   4.774   0.495
10797SOL    HW133290   4.503   4.728   0.493
10797SOL    HW233291   4.345   4.716   0.451
10798SOL     OW33292   2.079   6.231   6.678
10798SOL    HW133293   2.003   6.258   6.738
10798SOL    HW233294   2.062   6.267   6.586
10799SOL     OW33295   2.669   1.368   2.790
10799SOL    HW133296   2.752   1.417   2.762
10799SOL    HW233297   2.643   1.304   2.719
10800SOL     OW33298   2.398   0.043   5.284
10800SOL    HW133299   2.350   0.077   5.365
10800SOL    HW233300   2.372   0.098   5.205
10801SOL     OW33301   2.829   6.375   5.682
10801SOL    HW133302   2.794   6.282   5.694
10801SOL    HW233303   2.929   6.373   5.682
10802SOL     OW33304   0.362   5.311   4.323
10802SOL    HW133305   0.318   5.246   4.261
10802SOL    HW233306   0.428   5.366   4.272
10803SOL     OW33307   0.211   4.585   4.425
10803SOL    HW133308   0.111   4.583   4.425
10803SOL    HW233309   0.247   4.492   4.420
10804SOL     OW33310   4.869   4.646   0.840
10804SOL    HW133311   4.814   4.730   0.843
10804SOL    HW233312   4.824   4.575   0.894
10805SOL     OW33313   3.826   6.412   0.442
10805SOL    HW133314   3.739   6.438   0.482
10805SOL    HW233315   3.824   6.314   0.420
10806SOL     OW33316   6.053   4.204   6.352
10806SOL    HW133317   6.140   4.192   6.304
10806SOL    HW233318   6.030   4.301   6.353
10807SOL     OW33319   4.187   1.298   4.390
10807SOL    HW133320   4.137   1.346   4.317
10807SOL    HW233321   4.141   1.313   4.477
10808SOL     OW33322   6.776   2.127   0.206
10808SOL    HW133323   6.750   2.171   0.120
10808SOL    HW233324   6.868   2.090   0.199
10809SOL     OW33325   2.701   1.607   1.951
10809SOL    HW133326   2.716   1.563   1.862
10809SOL    HW233327   2.640   1.686   1.939
10810SOL     OW33328   1.821   1.207   6.258
10810SOL    HW133329   1.840   1.145   6.335
10810SOL    HW233330   1.887   1.282   6.259
10811SOL     OW33331   4.923   4.952   6.394
10811SOL    HW133332   5.007   4.942   6.341
10811SOL    HW233333   4.858   4.880   6.369
10812SOL     OW33334   6.739   2.867   2.146
10812SOL    HW133335   6.681   2.817   2.211
10812SOL    HW233336   6.786   2.802   2.087
10813SOL     OW33337   3.265   6.114   2.710
10813SOL    HW133338   3.339   6.082   2.768
10813SOL    HW233339   3.303   6.158   2.628
10814SOL     OW33340   2.167   5.349   4.494
10814SOL    HW133341   2.102   5.273   4.484
10814SOL    HW233342   2.148   5.398   4.579
10815SOL     OW33343   4.495   2.193   4.296
10815SOL    HW133344   4.414   2.171   4.351
10815SOL    HW233345   4.575   2.202   4.356
10816SOL     OW33346   2.182   2.421   1.826
10816SOL    HW133347   2.159   2.496   1.765
10816SOL    HW233348   2.227   2.348   1.774
10817SOL     OW33349   4.229   0.538   1.838
10817SOL    HW133350   4.175   0.505   1.916
10817SOL    HW233351   4.209   0.483   1.757
10818SOL     OW33352   4.393   2.815   7.001
10818SOL    HW133353   4.336   2.750   6.951
10818SOL    HW233354   4.490   2.795   6.984
10819SOL     OW33355   0.735   3.738   5.504
10819SOL    HW133356   0.792   3.783   5.435
10819SOL    HW233357   0.788   3.667   5.550
10820SOL     OW33358   6.957   0.135   4.356
10820SOL    HW133359   6.927   0.048   4.318
10820SOL    HW233360   0.031   0.156   4.323
10821SOL     OW33361   0.130   6.978   0.869
10821SOL    HW133362   0.065   6.953   0.798
10821SOL    HW233363   0.173   6.895   0.905
10822SOL     OW33364   0.189   4.243   0.044
10822SOL    HW133365   0.276   4.197   0.061
10822SOL    HW233366   0.120   4.209   0.108
10823SOL     OW33367   1.931   2.116   1.297
10823SOL    HW133368   1.872   2.190   1.328
10823SOL    HW233369   2.021   2.124   1.340
10824SOL     OW33370   5.454   0.706   3.372
10824SOL    HW133371   5.380   0.738   3.432
10824SOL    HW233372   5.516   0.646   3.423
10825SOL     OW33373   3.650   1.072   2.074
10825SOL    HW133374   3.748   1.058   2.088
10825SOL    HW233375   3.633   1.164   2.040
10826SOL     OW33376   6.495   2.974   1.048
10826SOL    HW133377   6.525   2.883   1.020
10826SOL    HW233378   6.523   2.991   1.142
10827SOL     OW33379   1.050   3.428   4.105
10827SOL    HW133380   1.003   3.503   4.152
10827SOL    HW233381   1.116   3.465   4.040
10828SOL     OW33382   1.040   5.617   0.428
10828SOL    HW133383   0.993   5.620   0.339
10828SOL    HW233384   0.972   5.620   0.501
10829SOL     OW33385   2.185   3.480   1.570
10829SOL    HW133386   2.262   3.528   1.612
10829SOL    HW233387   2.184   3.385   1.599
10830SOL     OW33388   4.894   1.304   3.485
10830SOL    HW133389   4.898   1.341   3.392
10830SOL    HW233390   4.908   1.205   3.482
10831SOL     OW33391   5.569   3.386   2.294
10831SOL    HW133392   5.580   3.287   2.301
10831SOL    HW233393   5.522   3.409   2.209
10832SOL     OW33394   0.328   3.396   2.918
10832SOL    HW133395   0.422   3.405   2.884
10832SOL    HW233396   0.321   3.315   2.975
10833SOL     OW33397   2.459   6.940   3.509
10833SOL    HW133398   2.387   6.948   3.578
10833SOL    HW233399   2.461   0.006   3.454
10834SOL     OW33400   6.788   1.071   5.547
10834SOL    HW133401   6.812   0.977   5.524
10834SOL    HW233402   6.703   1.096   5.500
10835SOL     OW33403   6.977   3.030   1.581
10835SOL    HW133404   6.982   2.934   1.608
10835SOL    HW233405   6.984   3.037   1.482
10836SOL     OW33406   2.149   2.989   0.991
10836SOL    HW133407   2.181   3.025   0.903
10836SOL    HW233408   2.226   2.979   1.054
10837SOL     OW33409   1.257   5.702   1.137
10837SOL    HW133410   1.171   5.726   1.093
10837SOL    HW233411   1.255   5.730   1.233
10838SOL     OW33412   6.501   6.952   0.289
10838SOL    HW133413   6.446   6.876   0.254
10838SOL    HW233414   6.595   6.921   0.303
10839SOL     OW33415   1.646   1.517   0.078
10839SOL    HW133416   1.699   1.593   0.039
10839SOL    HW233417   1.667   1.433   0.028
10840SOL     OW33418   3.358   6.253   2.477
10840SOL    HW133419   3.435   6.257   2.414
10840SOL    HW233420   3.273   6.266   2.427
10841SOL     OW33421   5.203   2.734   6.936
10841SOL    HW133422   5.116   2.688   6.955
10841SOL    HW233423   5.211   2.752   6.838
10842SOL     OW33424   6.262   2.850   1.408
10842SOL    HW133425   6.261   2.883   1.313
10842SOL    HW233426   6.190   2.782   1.421
10843SOL     OW33427   0.044   1.573   1.631
10843SOL    HW133428   0.010   1.507   1.564
10843SOL    HW233429   0.132   1.541   1.668
10844SOL     OW33430   3.808   0.331   3.424
10844SOL    HW133431   3.771   0.399   3.487
10844SOL    HW233432   3.735   0.296   3.366
10845SOL     OW33433   2.238   3.043   0.709
10845SOL    HW133434   2.310   3.111   0.692
10845SOL    HW233435   2.278   2.951   0.703
10846SOL     OW33436   3.986   1.587   1.546
10846SOL    HW133437   3.999   1.521   1.620
10846SOL    HW233438   3.950   1.672   1.583
10847SOL     OW33439   4.668   2.805   5.536
10847SOL    HW133440   4.754   2.836   5.496
10847SOL    HW233441   4.599   2.799   5.464
10848SOL     OW33442   1.431   0.904   6.677
10848SOL    HW133443   1.412   0.938   6.585
10848SOL    HW233444   1.497   0.829   6.672
10849SOL     OW33445   2.045   5.431   3.774
10849SOL    HW133446   2.138   5.436   3.812
10849SOL    HW233447   2.039   5.491   3.694
10850SOL     OW33448   5.613   0.580   2.088
10850SOL    HW133449   5.697   0.627   2.060
10850SOL    HW233450   5.556   0.643   2.142
10851SOL     OW33451   4.606   1.964   6.646
10851SOL    HW133452   4.517   2.007   6.628
10851SOL    HW233453   4.677   2.010   6.593
10852SOL     OW33454   6.987   0.626   5.781
10852SOL    HW133455   6.987   0.719   5.746
10852SOL    HW233456   0.051   0.610   5.836
10853SOL     OW33457   2.585   0.658   4.378
10853SOL    HW133458   2.568   0.749   4.340
10853SOL    HW233459   2.683   0.641   4.383
10854SOL     OW33460   0.117   6.374   0.761
10854SOL    HW133461   0.018   6.380   0.771
10854SOL    HW233462   0.160   6.374   0.851
10855SOL     OW33463   0.738   5.410   1.266
10855SOL    HW133464   0.742   5.419   1.366
10855SOL    HW233465   0.738   5.313   1.242
10856SOL     OW33466   5.912   0.290   6.677
10856SOL    HW133467   5.873   0.371   6.634
10856SOL    HW233468   5.895   0.292   6.775
10857SOL     OW33469   6.701   0.358   4.849
10857SOL    HW133470   6.615   0.405   4.873
10857SOL    HW233471   6.764   0.363   4.927
10858SOL     OW33472   2.220   2.288   0.228
10858SOL    HW133473   2.163   2.236   0.164
10858SOL    HW233474   2.212   2.386   0.207
10859SOL     OW33475   1.492   5.616   2.041
10859SOL    HW133476   1.545   5.698   2.064
10859SOL    HW233477   1.487   5.607   1.941
10860SOL     OW33478   6.462   2.994   1.566
10860SOL    HW133479   6.406   2.950   1.497
10860SOL    HW233480   6.414   2.993   1.654
10861SOL     OW33481   2.326   3.875   1.458
10861SOL    HW133482   2.345   3.974   1.452
10861SOL    HW233483   2.335   3.846   1.553
10862SOL     OW33484   3.614   4.400   5.303
10862SOL    HW133485   3.521   4.366   5.289
10862SOL    HW233486   3.614   4.500   5.299
10863SOL     OW33487   2.289   0.395   3.402
10863SOL    HW133488   2.321   0.463   3.336
10863SOL    HW233489   2.223   0.437   3.464
10864SOL     OW33490   2.933   4.232   1.729
10864SOL    HW133491   2.913   4.326   1.758
10864SOL    HW233492   3.031   4.219   1.722
10865SOL     OW33493   3.810   1.644   2.335
10865SOL    HW133494   3.793   1.572   2.402
10865SOL    HW233495   3.726   1.696   2.319
10866SOL     OW33496   0.754   3.512   3.517
10866SOL    HW133497   0.714   3.589   3.565
10866SOL    HW233498   0.826   3.544   3.455
10867SOL     OW33499   4.661   2.706   0.022
10867SOL    HW133500   4.683   2.774   0.092
10867SOL    HW233501   4.662   2.615   0.062
10868SOL     OW33502   1.526   0.021   5.015
10868SOL    HW133503   1.527   6.971   5.088
10868SOL    HW233504   1.432   0.040   4.988
10869NA      NA33505   6.798   1.024   6.132
10870NA      NA33506   4.320   4.702   5.199
10871NA      NA33507   1.520   4.759   2.809
10872NA      NA33508   5.357   3.657   3.015
10873NA      NA33509   3.586   2.528   5.607
10874NA      NA33510   2.534   4.964   0.149
10875NA      NA33511   1.758   5.420   6.561
10876NA      NA33512   4.076   4.832   1.577
10877NA      NA33513   5.204   4.714   0.504
10878NA      NA33514   3.453   1.334   0.511
10879NA      NA33515   5.304   6.790   1.707
10880NA      NA33516   2.528   6.733   5.019
10881NA      NA33517   4.263   4.972   2.373
10882NA      NA33518   4.358   3.833   6.882
   7.01801   7.01801   7.01801
