Generated by trjconv : CNT in water t=  47.00000
33518
    1C        C    1   2.838   2.765   4.744
    1C        C    2   2.896   2.720   4.865
    1C        C    3   2.839   2.772   4.983
    1C        C    4   2.843   2.769   4.259
    1C        C    5   2.896   2.721   4.381
    1C        C    6   2.841   2.769   4.502
    1C        C    7   3.011   2.642   4.621
    1C        C    8   2.890   2.716   4.623
    1C        C    9   3.071   2.605   4.743
    1C        C   10   3.009   2.635   4.866
    1C        C   11   3.182   2.495   4.971
    1C        C   12   3.060   2.563   4.974
    1C        C   13   2.845   2.769   3.769
    1C        C   14   2.901   2.726   3.892
    1C        C   15   2.849   2.774   4.014
    1C        C   16   3.017   2.649   4.135
    1C        C   17   2.896   2.721   4.137
    1C        C   18   3.077   2.615   4.259
    1C        C   19   3.017   2.647   4.382
    1C        C   20   3.209   2.552   4.502
    1C        C   21   3.078   2.606   4.502
    1C        C   22   3.276   2.528   4.624
    1C        C   23   3.200   2.546   4.742
    1C        C   24   3.411   2.481   4.861
    1C        C   25   3.270   2.501   4.857
    1C        C   26   3.487   2.467   4.978
    1C        C   27   2.844   2.763   3.280
    1C        C   28   2.900   2.720   3.402
    1C        C   29   2.852   2.771   3.525
    1C        C   30   3.018   2.643   3.648
    1C        C   31   2.901   2.722   3.648
    1C        C   32   3.077   2.605   3.770
    1C        C   33   3.015   2.642   3.891
    1C        C   34   3.203   2.545   4.015
    1C        C   35   3.075   2.605   4.014
    1C        C   36   3.272   2.528   4.137
    1C        C   37   3.204   2.552   4.259
    1C        C   38   3.414   2.503   4.377
    1C        C   39   3.275   2.530   4.379
    1C        C   40   3.485   2.497   4.499
    1C        C   41   3.416   2.511   4.622
    1C        C   42   3.630   2.486   4.744
    1C        C   43   3.488   2.487   4.741
    1C        C   44   3.704   2.486   4.864
    1C        C   45   3.626   2.468   4.978
    1C        C   46   2.835   2.748   2.793
    1C        C   47   2.894   2.709   2.916
    1C        C   48   2.837   2.758   3.036
    1C        C   49   3.011   2.633   3.160
    1C        C   50   2.893   2.712   3.157
    1C        C   51   3.078   2.603   3.280
    1C        C   52   3.014   2.637   3.402
    1C        C   53   3.205   2.548   3.524
    1C        C   54   3.076   2.604   3.525
    1C        C   55   3.271   2.525   3.647
    1C        C   56   3.207   2.548   3.770
    1C        C   57   3.410   2.501   3.891
    1C        C   58   3.271   2.523   3.894
    1C        C   59   3.482   2.497   4.013
    1C        C   60   3.411   2.503   4.135
    1C        C   61   3.626   2.496   4.255
    1C        C   62   3.485   2.495   4.255
    1C        C   63   3.696   2.504   4.377
    1C        C   64   3.626   2.496   4.499
    1C        C   65   3.833   2.539   4.622
    1C        C   66   3.698   2.498   4.621
    1C        C   67   3.903   2.560   4.743
    1C        C   68   3.841   2.523   4.864
    1C        C   69   4.052   2.585   4.978
    1C        C   70   3.921   2.533   4.978
    1C        C   71   2.819   2.730   2.305
    1C        C   72   2.881   2.692   2.426
    1C        C   73   2.830   2.742   2.548
    1C        C   74   3.003   2.622   2.669
    1C        C   75   2.884   2.698   2.670
    1C        C   76   3.070   2.599   2.791
    1C        C   77   3.014   2.636   2.915
    1C        C   78   3.206   2.551   3.032
    1C        C   79   3.074   2.600   3.038
    1C        C   80   3.273   2.533   3.156
    1C        C   81   3.210   2.552   3.281
    1C        C   82   3.413   2.495   3.399
    1C        C   83   3.275   2.525   3.403
    1C        C   84   3.480   2.494   3.524
    1C        C   85   3.411   2.503   3.647
    1C        C   86   3.622   2.493   3.767
    1C        C   87   3.481   2.495   3.769
    1C        C   88   3.692   2.503   3.889
    1C        C   89   3.623   2.501   4.013
    1C        C   90   3.833   2.545   4.132
    1C        C   91   3.696   2.510   4.133
    1C        C   92   3.896   2.571   4.256
    1C        C   93   3.833   2.538   4.377
    1C        C   94   4.024   2.629   4.496
    1C        C   95   3.900   2.561   4.500
    1C        C   96   4.085   2.667   4.618
    1C        C   97   4.027   2.630   4.741
    1C        C   98   4.192   2.761   4.862
    1C        C   99   4.100   2.651   4.861
    1C        C  100   4.214   2.837   4.977
    1C        C  101   2.817   2.728   2.067
    1C        C  102   2.989   2.592   2.187
    1C        C  103   2.872   2.675   2.185
    1C        C  104   3.065   2.576   2.306
    1C        C  105   3.001   2.616   2.426
    1C        C  106   3.199   2.537   2.548
    1C        C  107   3.067   2.588   2.547
    1C        C  108   3.268   2.520   2.670
    1C        C  109   3.199   2.540   2.791
    1C        C  110   3.411   2.496   2.911
    1C        C  111   3.272   2.522   2.911
    1C        C  112   3.482   2.490   3.033
    1C        C  113   3.411   2.504   3.155
    1C        C  114   3.623   2.493   3.279
    1C        C  115   3.482   2.485   3.276
    1C        C  116   3.692   2.505   3.401
    1C        C  117   3.621   2.498   3.523
    1C        C  118   3.829   2.540   3.645
    1C        C  119   3.692   2.507   3.645
    1C        C  120   3.894   2.567   3.768
    1C        C  121   3.829   2.538   3.890
    1C        C  122   4.021   2.637   4.010
    1C        C  123   3.900   2.563   4.009
    1C        C  124   4.080   2.675   4.132
    1C        C  125   4.022   2.635   4.255
    1C        C  126   4.192   2.764   4.376
    1C        C  127   4.084   2.674   4.376
    1C        C  128   4.241   2.817   4.498
    1C        C  129   4.190   2.762   4.617
    1C        C  130   4.326   2.927   4.737
    1C        C  131   4.237   2.816   4.739
    1C        C  132   4.355   2.998   4.856
    1C        C  133   4.291   2.952   4.972
    1C        C  134   3.168   2.465   2.081
    1C        C  135   3.035   2.507   2.081
    1C        C  136   3.258   2.474   2.189
    1C        C  137   3.196   2.522   2.306
    1C        C  138   3.404   2.477   2.428
    1C        C  139   3.265   2.502   2.428
    1C        C  140   3.480   2.478   2.547
    1C        C  141   3.407   2.495   2.667
    1C        C  142   3.621   2.491   2.789
    1C        C  143   3.480   2.487   2.788
    1C        C  144   3.692   2.506   2.910
    1C        C  145   3.623   2.495   3.032
    1C        C  146   3.827   2.542   3.156
    1C        C  147   3.691   2.503   3.156
    1C        C  148   3.896   2.563   3.277
    1C        C  149   3.829   2.540   3.400
    1C        C  150   4.021   2.627   3.522
    1C        C  151   3.896   2.561   3.522
    1C        C  152   4.078   2.670   3.643
    1C        C  153   4.019   2.631   3.766
    1C        C  154   4.190   2.760   3.887
    1C        C  155   4.077   2.675   3.886
    1C        C  156   4.242   2.808   4.010
    1C        C  157   4.192   2.762   4.134
    1C        C  158   4.337   2.918   4.250
    1C        C  159   4.247   2.810   4.255
    1C        C  160   4.374   2.981   4.371
    1C        C  161   4.329   2.928   4.494
    1C        C  162   4.439   3.108   4.616
    1C        C  163   4.372   2.983   4.616
    1C        C  164   4.460   3.182   4.735
    1C        C  165   4.427   3.120   4.857
    1C        C  166   4.507   3.320   4.969
    1C        C  167   4.482   3.183   4.970
    1C        C  168   3.473   2.430   2.073
    1C        C  169   3.397   2.450   2.189
    1C        C  170   3.616   2.469   2.305
    1C        C  171   3.474   2.459   2.307
    1C        C  172   3.692   2.491   2.422
    1C        C  173   3.621   2.487   2.544
    1C        C  174   3.826   2.537   2.665
    1C        C  175   3.691   2.498   2.666
    1C        C  176   3.893   2.562   2.787
    1C        C  177   3.830   2.536   2.911
    1C        C  178   4.024   2.620   3.032
    1C        C  179   3.894   2.564   3.033
    1C        C  180   4.089   2.653   3.153
    1C        C  181   4.026   2.619   3.274
    1C        C  182   4.196   2.740   3.396
    1C        C  183   4.085   2.652   3.398
    1C        C  184   4.245   2.795   3.517
    1C        C  185   4.192   2.755   3.641
    1C        C  186   4.337   2.908   3.764
    1C        C  187   4.246   2.800   3.764
    1C        C  188   4.377   2.970   3.884
    1C        C  189   4.335   2.915   4.007
    1C        C  190   4.441   3.102   4.125
    1C        C  191   4.375   2.977   4.127
    1C        C  192   4.469   3.166   4.247
    1C        C  193   4.443   3.104   4.371
    1C        C  194   4.505   3.307   4.488
    1C        C  195   4.467   3.171   4.493
    1C        C  196   4.521   3.383   4.606
    1C        C  197   4.505   3.316   4.730
    1C        C  198   4.545   3.531   4.849
    1C        C  199   4.529   3.389   4.850
    1C        C  200   4.580   3.618   4.957
    1C        C  201   3.613   2.417   2.072
    1C        C  202   3.827   2.505   2.181
    1C        C  203   3.690   2.463   2.183
    1C        C  204   3.902   2.532   2.299
    1C        C  205   3.831   2.517   2.421
    1C        C  206   4.020   2.617   2.541
    1C        C  207   3.893   2.556   2.541
    1C        C  208   4.083   2.651   2.663
    1C        C  209   4.021   2.622   2.786
    1C        C  210   4.196   2.741   2.905
    1C        C  211   4.084   2.656   2.909
    1C        C  212   4.248   2.791   3.027
    1C        C  213   4.198   2.743   3.150
    1C        C  214   4.330   2.903   3.273
    1C        C  215   4.248   2.788   3.274
    1C        C  216   4.370   2.965   3.394
    1C        C  217   4.333   2.905   3.516
    1C        C  218   4.432   3.092   3.635
    1C        C  219   4.372   2.965   3.639
    1C        C  220   4.462   3.158   3.756
    1C        C  221   4.438   3.098   3.882
    1C        C  222   4.498   3.304   3.998
    1C        C  223   4.470   3.165   4.002
    1C        C  224   4.508   3.374   4.120
    1C        C  225   4.500   3.304   4.243
    1C        C  226   4.516   3.516   4.361
    1C        C  227   4.508   3.375   4.364
    1C        C  228   4.511   3.591   4.481
    1C        C  229   4.518   3.524   4.605
    1C        C  230   4.483   3.734   4.722
    1C        C  231   4.526   3.599   4.725
    1C        C  232   4.483   3.811   4.840
    1C        C  233   4.544   3.753   4.952
    1C        C  234   4.016   2.607   2.059
    1C        C  235   3.895   2.538   2.064
    1C        C  236   4.083   2.643   2.177
    1C        C  237   4.025   2.603   2.299
    1C        C  238   4.202   2.728   2.417
    1C        C  239   4.085   2.646   2.419
    1C        C  240   4.254   2.780   2.538
    1C        C  241   4.195   2.736   2.659
    1C        C  242   4.333   2.898   2.780
    1C        C  243   4.245   2.787   2.781
    1C        C  244   4.372   2.959   2.901
    1C        C  245   4.336   2.901   3.025
    1C        C  246   4.435   3.085   3.145
    1C        C  247   4.369   2.960   3.150
    1C        C  248   4.450   3.157   3.265
    1C        C  249   4.427   3.094   3.390
    1C        C  250   4.484   3.298   3.510
    1C        C  251   4.452   3.161   3.512
    1C        C  252   4.498   3.367   3.633
    1C        C  253   4.492   3.296   3.755
    1C        C  254   4.515   3.512   3.875
    1C        C  255   4.505   3.371   3.874
    1C        C  256   4.511   3.586   3.995
    1C        C  257   4.512   3.516   4.118
    1C        C  258   4.478   3.726   4.238
    1C        C  259   4.505   3.587   4.239
    1C        C  260   4.458   3.796   4.359
    1C        C  261   4.477   3.728   4.482
    1C        C  262   4.416   3.936   4.599
    1C        C  263   4.466   3.804   4.600
    1C        C  264   4.391   4.005   4.720
    1C        C  265   4.422   3.938   4.840
    1C        C  266   4.319   4.130   4.956
    1C        C  267   4.386   4.009   4.956
    1C        C  268   4.259   2.772   2.057
    1C        C  269   4.195   2.730   2.174
    1C        C  270   4.345   2.884   2.294
    1C        C  271   4.253   2.775   2.294
    1C        C  272   4.383   2.948   2.414
    1C        C  273   4.341   2.891   2.537
    1C        C  274   4.445   3.078   2.660
    1C        C  275   4.374   2.956   2.658
    1C        C  276   4.471   3.149   2.779
    1C        C  277   4.441   3.082   2.900
    1C        C  278   4.501   3.285   3.022
    1C        C  279   4.465   3.148   3.022
    1C        C  280   4.507   3.359   3.142
    1C        C  281   4.486   3.293   3.265
    1C        C  282   4.508   3.506   3.386
    1C        C  283   4.499   3.364   3.386
    1C        C  284   4.508   3.578   3.507
    1C        C  285   4.509   3.508   3.630
    1C        C  286   4.481   3.719   3.749
    1C        C  287   4.508   3.580   3.752
    1C        C  288   4.469   3.790   3.871
    1C        C  289   4.483   3.725   3.996
    1C        C  290   4.421   3.930   4.113
    1C        C  291   4.468   3.797   4.116
    1C        C  292   4.391   3.998   4.234
    1C        C  293   4.419   3.932   4.355
    1C        C  294   4.318   4.121   4.475
    1C        C  295   4.391   4.000   4.475
    1C        C  296   4.279   4.183   4.595
    1C        C  297   4.329   4.133   4.718
    1C        C  298   4.197   4.311   4.834
    1C        C  299   4.281   4.195   4.837
    1C        C  300   4.168   4.402   4.940
    1C        C  301   4.347   2.880   2.055
    1C        C  302   4.461   3.066   2.170
    1C        C  303   4.394   2.939   2.173
    1C        C  304   4.471   3.138   2.292
    1C        C  305   4.445   3.074   2.416
    1C        C  306   4.508   3.279   2.534
    1C        C  307   4.470   3.143   2.537
    1C        C  308   4.521   3.354   2.653
    1C        C  309   4.500   3.288   2.776
    1C        C  310   4.518   3.497   2.897
    1C        C  311   4.512   3.356   2.900
    1C        C  312   4.513   3.571   3.018
    1C        C  313   4.509   3.501   3.141
    1C        C  314   4.487   3.713   3.260
    1C        C  315   4.508   3.573   3.262
    1C        C  316   4.469   3.785   3.380
    1C        C  317   4.485   3.717   3.503
    1C        C  318   4.422   3.919   3.625
    1C        C  319   4.465   3.785   3.625
    1C        C  320   4.391   3.985   3.746
    1C        C  321   4.425   3.924   3.868
    1C        C  322   4.317   4.109   3.985
    1C        C  323   4.395   3.991   3.989
    1C        C  324   4.275   4.167   4.107
    1C        C  325   4.319   4.119   4.232
    1C        C  326   4.184   4.286   4.350
    1C        C  327   4.279   4.181   4.353
    1C        C  328   4.132   4.336   4.471
    1C        C  329   4.186   4.289   4.593
    1C        C  330   4.023   4.434   4.711
    1C        C  331   4.139   4.352   4.711
    1C        C  332   3.969   4.491   4.828
    1C        C  333   4.051   4.479   4.941
    1C        C  334   4.545   3.268   2.060
    1C        C  335   4.525   3.129   2.059
    1C        C  336   4.532   3.347   2.176
    1C        C  337   4.503   3.277   2.295
    1C        C  338   4.525   3.493   2.410
    1C        C  339   4.517   3.352   2.414
    1C        C  340   4.514   3.564   2.531
    1C        C  341   4.520   3.495   2.654
    1C        C  342   4.494   3.707   2.772
    1C        C  343   4.517   3.568   2.775
    1C        C  344   4.472   3.775   2.893
    1C        C  345   4.486   3.709   3.018
    1C        C  346   4.423   3.915   3.138
    1C        C  347   4.468   3.782   3.138
    1C        C  348   4.392   3.982   3.259
    1C        C  349   4.426   3.920   3.381
    1C        C  350   4.318   4.104   3.501
    1C        C  351   4.394   3.985   3.503
    1C        C  352   4.272   4.163   3.620
    1C        C  353   4.313   4.104   3.742
    1C        C  354   4.176   4.267   3.864
    1C        C  355   4.272   4.164   3.863
    1C        C  356   4.120   4.316   3.985
    1C        C  357   4.179   4.271   4.105
    1C        C  358   4.010   4.400   4.229
    1C        C  359   4.130   4.326   4.225
    1C        C  360   3.950   4.441   4.350
    1C        C  361   4.018   4.420   4.472
    1C        C  362   3.824   4.516   4.590
    1C        C  363   3.953   4.460   4.591
    1C        C  364   3.761   4.544   4.713
    1C        C  365   3.836   4.539   4.833
    1C        C  366   3.624   4.603   4.942
    1C        C  367   3.759   4.573   4.945
    1C        C  368   4.504   3.563   2.052
    1C        C  369   4.522   3.487   2.168
    1C        C  370   4.493   3.702   2.285
    1C        C  371   4.517   3.563   2.288
    1C        C  372   4.476   3.770   2.407
    1C        C  373   4.495   3.704   2.531
    1C        C  374   4.426   3.909   2.646
    1C        C  375   4.475   3.777   2.650
    1C        C  376   4.394   3.970   2.769
    1C        C  377   4.424   3.909   2.893
    1C        C  378   4.315   4.091   3.011
    1C        C  379   4.399   3.978   3.013
    1C        C  380   4.271   4.151   3.131
    1C        C  381   4.314   4.100   3.255
    1C        C  382   4.174   4.257   3.376
    1C        C  383   4.273   4.157   3.378
    1C        C  384   4.119   4.306   3.497
    1C        C  385   4.173   4.263   3.621
    1C        C  386   4.001   4.387   3.739
    1C        C  387   4.123   4.315   3.743
    1C        C  388   3.937   4.419   3.861
    1C        C  389   4.001   4.392   3.984
    1C        C  390   3.814   4.486   4.108
    1C        C  391   3.942   4.427   4.108
    1C        C  392   3.748   4.514   4.230
    1C        C  393   3.824   4.505   4.349
    1C        C  394   3.615   4.551   4.471
    1C        C  395   3.756   4.538   4.468
    1C        C  396   3.544   4.561   4.593
    1C        C  397   3.621   4.562   4.711
    1C        C  398   3.407   4.546   4.839
    1C        C  399   3.545   4.574   4.829
    1C        C  400   3.340   4.505   4.954
    1C        C  401   4.496   3.702   2.047
    1C        C  402   4.452   3.914   2.165
    1C        C  403   4.484   3.776   2.165
    1C        C  404   4.410   3.973   2.286
    1C        C  405   4.429   3.903   2.407
    1C        C  406   4.322   4.094   2.522
    1C        C  407   4.399   3.976   2.524
    1C        C  408   4.275   4.143   2.646
    1C        C  409   4.311   4.085   2.769
    1C        C  410   4.169   4.246   2.884
    1C        C  411   4.266   4.143   2.889
    1C        C  412   4.121   4.298   3.007
    1C        C  413   4.172   4.252   3.130
    1C        C  414   3.994   4.367   3.252
    1C        C  415   4.116   4.295   3.253
    1C        C  416   3.933   4.401   3.374
    1C        C  417   3.999   4.380   3.497
    1C        C  418   3.804   4.471   3.616
    1C        C  419   3.935   4.417   3.618
    1C        C  420   3.742   4.504   3.739
    1C        C  421   3.809   4.479   3.861
    1C        C  422   3.608   4.531   3.983
    1C        C  423   3.747   4.505   3.985
    1C        C  424   3.538   4.536   4.105
    1C        C  425   3.609   4.534   4.228
    1C        C  426   3.400   4.553   4.355
    1C        C  427   3.541   4.553   4.351
    1C        C  428   3.330   4.549   4.477
    1C        C  429   3.403   4.557   4.598
    1C        C  430   3.192   4.514   4.719
    1C        C  431   3.331   4.543   4.719
    1C        C  432   3.121   4.493   4.841
    1C        C  433   3.201   4.499   4.955
    1C        C  434   4.383   4.118   2.048
    1C        C  435   4.448   3.994   2.050
    1C        C  436   4.300   4.160   2.158
    1C        C  437   4.332   4.092   2.278
    1C        C  438   4.180   4.246   2.397
    1C        C  439   4.284   4.150   2.397
    1C        C  440   4.119   4.290   2.517
    1C        C  441   4.172   4.240   2.638
    1C        C  442   4.005   4.372   2.764
    1C        C  443   4.118   4.287   2.759
    1C        C  444   3.938   4.404   2.884
    1C        C  445   4.001   4.373   3.007
    1C        C  446   3.811   4.469   3.128
    1C        C  447   3.939   4.407   3.128
    1C        C  448   3.742   4.489   3.250
    1C        C  449   3.805   4.462   3.373
    1C        C  450   3.602   4.531   3.493
    1C        C  451   3.738   4.493   3.494
    1C        C  452   3.535   4.538   3.617
    1C        C  453   3.604   4.534   3.740
    1C        C  454   3.393   4.542   3.863
    1C        C  455   3.534   4.543   3.863
    1C        C  456   3.327   4.530   3.987
    1C        C  457   3.397   4.536   4.110
    1C        C  458   3.192   4.504   4.235
    1C        C  459   3.329   4.537   4.233
    1C        C  460   3.124   4.484   4.357
    1C        C  461   3.194   4.510   4.477
    1C        C  462   2.996   4.428   4.604
    1C        C  463   3.124   4.488   4.598
    1C        C  464   2.929   4.399   4.725
    1C        C  465   2.987   4.442   4.848
    1C        C  466   2.800   4.331   4.959
    1C        C  467   2.906   4.423   4.964
    1C        C  468   4.118   4.284   2.040
    1C        C  469   4.183   4.242   2.157
    1C        C  470   3.998   4.361   2.275
    1C        C  471   4.121   4.289   2.276
    1C        C  472   3.942   4.403   2.398
    1C        C  473   4.005   4.372   2.520
    1C        C  474   3.813   4.463   2.641
    1C        C  475   3.944   4.409   2.642
    1C        C  476   3.742   4.479   2.762
    1C        C  477   3.809   4.461   2.885
    1C        C  478   3.604   4.519   3.004
    1C        C  479   3.742   4.488   3.006
    1C        C  480   3.533   4.531   3.126
    1C        C  481   3.604   4.516   3.248
    1C        C  482   3.392   4.531   3.371
    1C        C  483   3.534   4.533   3.369
    1C        C  484   3.324   4.527   3.495
    1C        C  485   3.394   4.536   3.617
    1C        C  486   3.187   4.500   3.739
    1C        C  487   3.324   4.533   3.740
    1C        C  488   3.123   4.478   3.864
    1C        C  489   3.190   4.494   3.987
    1C        C  490   3.000   4.414   4.114
    1C        C  491   3.128   4.475   4.112
    1C        C  492   2.939   4.383   4.238
    1C        C  493   2.996   4.424   4.360
    1C        C  494   2.829   4.296   4.482
    1C        C  495   2.936   4.388   4.482
    1C        C  496   2.774   4.253   4.605
    1C        C  497   2.819   4.310   4.726
    1C        C  498   2.654   4.168   4.836
    1C        C  499   2.750   4.271   4.843
    1C        C  500   2.583   4.121   4.948
    1C        C  501   3.998   4.355   2.035
    1C        C  502   3.813   4.461   2.156
    1C        C  503   3.941   4.403   2.153
    1C        C  504   3.741   4.478   2.276
    1C        C  505   3.810   4.454   2.396
    1C        C  506   3.605   4.502   2.518
    1C        C  507   3.744   4.478   2.519
    1C        C  508   3.532   4.508   2.639
    1C        C  509   3.603   4.506   2.760
    1C        C  510   3.393   4.527   2.882
    1C        C  511   3.534   4.525   2.882
    1C        C  512   3.321   4.521   3.004
    1C        C  513   3.392   4.535   3.125
    1C        C  514   3.184   4.502   3.252
    1C        C  515   3.322   4.532   3.248
    1C        C  516   3.120   4.465   3.372
    1C        C  517   3.187   4.492   3.494
    1C        C  518   2.995   4.409   3.624
    1C        C  519   3.120   4.474   3.617
    1C        C  520   2.937   4.372   3.748
    1C        C  521   2.997   4.413   3.869
    1C        C  522   2.834   4.283   3.994
    1C        C  523   2.942   4.374   3.992
    1C        C  524   2.784   4.233   4.117
    1C        C  525   2.832   4.291   4.236
    1C        C  526   2.699   4.130   4.361
    1C        C  527   2.781   4.245   4.359
    1C        C  528   2.657   4.074   4.484
    1C        C  529   2.689   4.140   4.605
    1C        C  530   2.578   3.956   4.729
    1C        C  531   2.631   4.088   4.723
    1C        C  532   2.539   3.899   4.854
    1C        C  533   2.524   3.995   4.959
    1C        C  534   3.617   4.558   2.037
    1C        C  535   3.750   4.514   2.043
    1C        C  536   3.536   4.531   2.152
    1C        C  537   3.602   4.509   2.276
    1C        C  538   3.390   4.511   2.397
    1C        C  539   3.531   4.517   2.398
    1C        C  540   3.319   4.502   2.519
    1C        C  541   3.390   4.514   2.641
    1C        C  542   3.182   4.483   2.764
    1C        C  543   3.319   4.518   2.762
    1C        C  544   3.116   4.464   2.888
    1C        C  545   3.183   4.493   3.009
    1C        C  546   2.995   4.400   3.131
    1C        C  547   3.117   4.471   3.132
    1C        C  548   2.936   4.361   3.254
    1C        C  549   2.995   4.400   3.377
    1C        C  550   2.829   4.277   3.502
    1C        C  551   2.937   4.369   3.502
    1C        C  552   2.781   4.228   3.625
    1C        C  553   2.831   4.279   3.747
    1C        C  554   2.696   4.122   3.873
    1C        C  555   2.783   4.233   3.872
    1C        C  556   2.658   4.062   3.995
    1C        C  557   2.696   4.122   4.117
    1C        C  558   2.592   3.942   4.244
    1C        C  559   2.659   4.066   4.241
    1C        C  560   2.564   3.880   4.368
    1C        C  561   2.592   3.949   4.488
    1C        C  562   2.526   3.747   4.615
    1C        C  563   2.562   3.883   4.609
    1C        C  564   2.509   3.678   4.737
    1C        C  565   2.523   3.757   4.855
    1C        C  566   2.531   3.546   4.974
    1C        C  567   2.530   3.685   4.974
    1C        C  568   3.326   4.477   2.037
    1C        C  569   3.395   4.510   2.154
    1C        C  570   3.181   4.476   2.278
    1C        C  571   3.320   4.507   2.275
    1C        C  572   3.112   4.454   2.399
    1C        C  573   3.181   4.475   2.520
    1C        C  574   2.983   4.404   2.644
    1C        C  575   3.112   4.461   2.643
    1C        C  576   2.929   4.360   2.766
    1C        C  577   2.993   4.396   2.887
    1C        C  578   2.822   4.274   3.012
    1C        C  579   2.931   4.363   3.010
    1C        C  580   2.777   4.220   3.135
    1C        C  581   2.828   4.270   3.257
    1C        C  582   2.694   4.112   3.384
    1C        C  583   2.779   4.225   3.381
    1C        C  584   2.656   4.055   3.508
    1C        C  585   2.695   4.116   3.629
    1C        C  586   2.591   3.933   3.756
    1C        C  587   2.656   4.059   3.753
    1C        C  588   2.567   3.869   3.879
    1C        C  589   2.596   3.936   4.001
    1C        C  590   2.536   3.735   4.127
    1C        C  591   2.564   3.874   4.124
    1C        C  592   2.524   3.670   4.252
    1C        C  593   2.530   3.743   4.372
    1C        C  594   2.504   3.532   4.494
    1C        C  595   2.518   3.673   4.495
    1C        C  596   2.507   3.461   4.616
    1C        C  597   2.501   3.536   4.735
    1C        C  598   2.523   3.327   4.856
    1C        C  599   2.518   3.468   4.858
    1C        C  600   2.526   3.247   4.971
    1C        C  601   3.194   4.435   2.044
    1C        C  602   2.980   4.385   2.157
    1C        C  603   3.114   4.436   2.159
    1C        C  604   2.921   4.353   2.282
    1C        C  605   2.985   4.391   2.402
    1C        C  606   2.816   4.266   2.528
    1C        C  607   2.922   4.359   2.524
    1C        C  608   2.767   4.215   2.651
    1C        C  609   2.822   4.268   2.770
    1C        C  610   2.686   4.107   2.893
    1C        C  611   2.768   4.222   2.893
    1C        C  612   2.650   4.050   3.017
    1C        C  613   2.691   4.108   3.139
    1C        C  614   2.587   3.926   3.265
    1C        C  615   2.654   4.050   3.263
    1C        C  616   2.564   3.864   3.390
    1C        C  617   2.594   3.928   3.512
    1C        C  618   2.528   3.728   3.636
    1C        C  619   2.567   3.864   3.635
    1C        C  620   2.516   3.662   3.761
    1C        C  621   2.531   3.733   3.882
    1C        C  622   2.510   3.524   4.005
    1C        C  623   2.524   3.665   4.006
    1C        C  624   2.511   3.457   4.130
    1C        C  625   2.505   3.530   4.251
    1C        C  626   2.532   3.320   4.373
    1C        C  627   2.509   3.459   4.373
    1C        C  628   2.548   3.251   4.496
    1C        C  629   2.534   3.322   4.617
    1C        C  630   2.597   3.119   4.740
    1C        C  631   2.546   3.252   4.739
    1C        C  632   2.616   3.049   4.862
    1C        C  633   2.560   3.111   4.979
    1C        C  634   2.778   4.304   2.053
    1C        C  635   2.887   4.392   2.048
    1C        C  636   2.738   4.232   2.166
    1C        C  637   2.804   4.273   2.284
    1C        C  638   2.675   4.107   2.408
    1C        C  639   2.763   4.217   2.407
    1C        C  640   2.639   4.045   2.530
    1C        C  641   2.678   4.106   2.652
    1C        C  642   2.580   3.917   2.776
    1C        C  643   2.641   4.045   2.774
    1C        C  644   2.557   3.853   2.899
    1C        C  645   2.586   3.924   3.018
    1C        C  646   2.524   3.725   3.148
    1C        C  647   2.560   3.862   3.142
    1C        C  648   2.515   3.655   3.270
    1C        C  649   2.527   3.727   3.391
    1C        C  650   2.508   3.518   3.515
    1C        C  651   2.516   3.659   3.514
    1C        C  652   2.510   3.450   3.639
    1C        C  653   2.510   3.521   3.761
    1C        C  654   2.536   3.312   3.884
    1C        C  655   2.514   3.452   3.884
    1C        C  656   2.550   3.247   4.009
    1C        C  657   2.537   3.319   4.130
    1C        C  658   2.605   3.119   4.256
    1C        C  659   2.550   3.249   4.252
    1C        C  660   2.634   3.053   4.378
    1C        C  661   2.597   3.119   4.497
    1C        C  662   2.707   2.937   4.622
    1C        C  663   2.629   3.054   4.619
    1C        C  664   2.749   2.876   4.742
    1C        C  665   2.695   2.929   4.862
    1C        C  666   2.743   2.872   4.981
    1C        C  667   2.679   4.023   2.051
    1C        C  668   2.675   4.105   2.165
    1C        C  669   2.584   3.913   2.290
    1C        C  670   2.639   4.044   2.287
    1C        C  671   2.556   3.847   2.412
    1C        C  672   2.580   3.917   2.532
    1C        C  673   2.513   3.716   2.659
    1C        C  674   2.553   3.851   2.654
    1C        C  675   2.502   3.646   2.781
    1C        C  676   2.517   3.718   2.902
    1C        C  677   2.504   3.513   3.026
    1C        C  678   2.507   3.654   3.027
    1C        C  679   2.509   3.443   3.149
    1C        C  680   2.507   3.514   3.271
    1C        C  681   2.522   3.305   3.397
    1C        C  682   2.504   3.445   3.394
    1C        C  683   2.542   3.236   3.519
    1C        C  684   2.530   3.310   3.639
    1C        C  685   2.593   3.108   3.767
    1C        C  686   2.547   3.242   3.762
    1C        C  687   2.632   3.050   3.889
    1C        C  688   2.603   3.116   4.011
    1C        C  689   2.712   2.937   4.135
    1C        C  690   2.632   3.054   4.134
    1C        C  691   2.753   2.878   4.256
    1C        C  692   2.712   2.935   4.378
    1C        C  693   2.752   2.879   4.501
    1C        C  694   2.630   3.892   2.055
    1C        C  695   2.532   3.703   2.175
    1C        C  696   2.574   3.837   2.171
    1C        C  697   2.499   3.638   2.297
    1C        C  698   2.513   3.712   2.416
    1C        C  699   2.487   3.503   2.541
    1C        C  700   2.498   3.643   2.539
    1C        C  701   2.504   3.433   2.662
    1C        C  702   2.500   3.504   2.784
    1C        C  703   2.527   3.297   2.907
    1C        C  704   2.505   3.436   2.908
    1C        C  705   2.544   3.232   3.031
    1C        C  706   2.528   3.303   3.152
    1C        C  707   2.595   3.105   3.277
    1C        C  708   2.543   3.236   3.276
    1C        C  709   2.625   3.041   3.400
    1C        C  710   2.593   3.104   3.522
    1C        C  711   2.712   2.932   3.645
    1C        C  712   2.627   3.045   3.645
    1C        C  713   2.757   2.879   3.768
    1C        C  714   2.714   2.935   3.890
    1C        C  715   2.759   2.882   4.013
    1C        C  716   2.451   3.496   2.064
    1C        C  717   2.493   3.630   2.062
    1C        C  718   2.463   3.419   2.184
    1C        C  719   2.479   3.498   2.301
    1C        C  720   2.513   3.288   2.421
    1C        C  721   2.480   3.425   2.423
    1C        C  722   2.532   3.220   2.544
    1C        C  723   2.520   3.292   2.665
    1C        C  724   2.592   3.093   2.788
    1C        C  725   2.538   3.223   2.787
    1C        C  726   2.621   3.032   2.912
    1C        C  727   2.595   3.100   3.033
    1C        C  728   2.704   2.921   3.157
    1C        C  729   2.624   3.038   3.157
    1C        C  730   2.753   2.871   3.279
    1C        C  731   2.710   2.928   3.401
    1C        C  732   2.757   2.875   3.523
    1C        C  733   2.486   3.194   2.068
    1C        C  734   2.487   3.278   2.180
    1C        C  735   2.582   3.084   2.303
    1C        C  736   2.529   3.216   2.301
    1C        C  737   2.610   3.020   2.426
    1C        C  738   2.585   3.089   2.546
    1C        C  739   2.690   2.902   2.669
    1C        C  740   2.624   3.027   2.667
    1C        C  741   2.736   2.848   2.791
    1C        C  742   2.697   2.913   2.910
    1C        C  743   2.742   2.862   3.034
    1C        C  744   2.545   3.068   2.070
    1C        C  745   2.682   2.895   2.186
    1C        C  746   2.607   3.014   2.183
    1C        C  747   2.726   2.837   2.307
    1C        C  748   2.683   2.899   2.426
    1C        C  749   2.732   2.844   2.547
    1C        C  750   2.730   2.836   2.068
    1C        C  751   3.659   2.312   1.979
    1C        O  752   3.707   2.207   2.031
    1C        O  753   3.649   2.327   1.840
    1C        C  754   4.631   3.056   1.986
    1C        O  755   4.613   3.013   1.869
    1C        O  756   4.754   3.032   2.048
    1C        C  757   4.440   4.207   1.946
    1C        O  758   4.554   4.259   1.962
    1C        O  759   4.363   4.230   1.831
    1C        C  760   3.588   4.666   1.939
    1C        O  761   3.572   4.786   1.975
    1C        O  762   3.609   4.658   1.801
    1C        C  763   2.880   4.514   1.964
    1C        O  764   2.924   4.529   1.847
    1C        O  765   2.813   4.628   2.009
    1C        C  766   2.348   3.475   1.960
    1C        O  767   2.377   3.447   1.840
    1C        O  768   2.214   3.513   1.976
    1C        C  769   4.701   3.601   5.041
    1C        O  770   4.686   3.587   5.165
    1C        O  771   4.829   3.645   5.007
    1C        C  772   4.281   4.463   5.014
    1C        O  773   4.349   4.414   5.108
    1C        O  774   4.349   4.580   4.979
    1C        C  775   4.152   2.516   5.063
    1C        O  776   4.165   2.391   5.062
    1C        O  777   4.166   2.555   5.196
    1C        C  778   2.889   4.511   5.082
    1C        O  779   2.807   4.607   5.075
    1C        O  780   2.889   4.475   5.218
    1C        C  781   2.450   3.040   5.048
    1C        O  782   2.352   2.994   4.984
    1C        O  783   2.466   2.985   5.175
    1C        C  784   2.389   4.019   5.015
    1C        O  785   2.282   4.019   4.948
    1C        O  786   2.366   4.083   5.138
    1C        C  787   2.951   2.442   1.978
    1C        O  788   2.939   2.490   1.862
    1C        O  789   2.907   2.311   1.998
    1C        C  790   3.182   2.369   5.048
    1C        O  791   3.124   2.267   5.001
    1C        O  792   3.197   2.370   5.187
    1C        H  793   4.324   2.999   5.062
    1C        H  794   4.195   2.797   5.075
    1C        H  795   4.538   3.123   5.039
    1C        H  796   4.479   3.372   5.058
    1C        H  797   4.524   3.804   5.044
    1C        H  798   4.411   3.968   5.052
    1C        H  799   4.349   4.191   5.039
    1C        H  800   4.027   4.542   5.024
    1C        H  801   3.813   4.594   5.035
    1C        H  802   3.580   4.681   5.000
    1C        H  803   3.389   4.447   5.029
    1C        H  804   3.158   4.528   5.049
    1C        H  805   3.880   2.497   5.070
    1C        H  806   3.679   2.434   5.065
    1C        H  807   3.005   2.557   5.066
    1C        H  808   3.449   2.521   5.062
    1C        H  809   2.826   2.697   5.059
    1C        H  810   2.733   2.931   5.069
    1C        H  811   2.503   3.301   5.060
    1C        H  812   2.587   3.506   5.056
    1C        H  813   2.496   3.728   5.066
    1C        H  814   2.580   4.180   5.037
    1C        H  815   2.766   4.289   5.052
    1C        H  816   2.684   2.868   1.977
    1C        H  817   2.830   2.678   1.973
    1C        H  818   3.211   2.437   1.987
    1C        H  819   3.428   2.461   1.981
    1C        H  820   3.877   2.473   1.981
    1C        H  821   4.061   2.627   1.964
    1C        H  822   4.252   2.717   1.965
    1C        H  823   4.349   2.937   1.964
    1C        H  824   4.617   3.312   1.995
    1C        H  825   4.458   3.515   1.968
    1C        H  826   4.456   3.740   1.955
    1C        H  827   3.809   4.527   1.954
    1C        H  828   3.937   4.319   1.955
    1C        H  829   4.162   4.276   1.942
    1C        H  830   4.531   3.981   1.983
    1C        H  831   2.638   3.829   1.969
    1C        H  832   2.733   4.041   1.960
    1C        H  833   2.712   4.303   1.969
    1C        H  834   3.363   4.530   1.952
    1C        H  835   3.156   4.381   1.960
    1C        H  836   2.505   3.000   1.998
    1C        H  837   2.482   3.234   1.969
    1C        H  838   2.504   3.675   1.966
    2V3OU   H29  839   2.797   3.546   1.093
    2V3OU   C27  840   2.776   3.498   1.192
    2V3OU   H27  841   2.725   3.561   1.270
    2V3OU   H28  842   2.723   3.402   1.170
    2V3OU   O11  843   2.904   3.479   1.253
    2V3OU   C15  844   2.922   3.390   1.357
    2V3OU   C13  845   3.051   3.375   1.413
    2V3OU   C14  846   3.073   3.267   1.499
    2V3OU   C16  847   2.966   3.189   1.544
    2V3OU    H6  848   2.986   3.103   1.609
    2V3OU   C12  849   3.215   3.229   1.520
    2V3OU    O2  850   3.236   3.122   1.581
    2V3OU   C10  851   3.325   3.305   1.460
    2V3OU    C8  852   3.458   3.266   1.471
    2V3OU   O10  853   3.489   3.163   1.554
    2V3OU   H26  854   3.403   3.119   1.562
    2V3OU    C6  855   3.565   3.346   1.420
    2V3OU    C5  856   3.537   3.466   1.354
    2V3OU    C4  857   3.704   3.293   1.413
    2V3OU    H4  858   3.725   3.226   1.501
    2V3OU    H5  859   3.713   3.228   1.321
    2V3OU    C2  860   3.814   3.399   1.405
    2V3OU    O6  861   3.798   3.473   1.526
    2V3OU   H21  862   3.758   3.555   1.493
    2V3OU    C3  863   3.777   3.495   1.292
    2V3OU    H2  864   3.856   3.574   1.285
    2V3OU    H3  865   3.782   3.436   1.196
    2V3OU   C25  866   3.949   3.327   1.398
    2V3OU    O7  867   3.997   3.293   1.290
    2V3OU   C26  868   4.027   3.288   1.523
    2V3OU   H22  869   4.064   3.383   1.568
    2V3OU   H23  870   4.113   3.222   1.495
    2V3OU    O8  871   3.964   3.212   1.624
    2V3OU   H24  872   3.928   3.267   1.696
    2V3OU    C1  873   3.642   3.562   1.308
    2V3OU    H1  874   3.620   3.616   1.211
    2V3OU    O3  875   3.652   3.654   1.417
    2V3OU   C19  876   3.617   3.790   1.389
    2V3OU    H9  877   3.521   3.788   1.329
    2V3OU    O4  878   3.714   3.842   1.301
    2V3OU   C20  879   3.840   3.872   1.361
    2V3OU   H10  880   3.890   3.771   1.371
    2V3OU   C24  881   3.605   3.856   1.526
    2V3OU   H16  882   3.539   3.790   1.588
    2V3OU   H17  883   3.559   3.957   1.509
    2V3OU   C23  884   3.744   3.873   1.588
    2V3OU   H15  885   3.786   3.767   1.603
    2V3OU    N1  886   3.731   3.949   1.710
    2V3OU   H19  887   3.805   3.920   1.771
    2V3OU   H20  888   3.638   3.935   1.744
    2V3OU   C21  889   3.847   3.945   1.495
    2V3OU   H11  890   3.950   3.925   1.537
    2V3OU    O5  891   3.828   4.085   1.489
    2V3OU   H18  892   3.772   4.100   1.567
    2V3OU   C22  893   3.913   3.949   1.252
    2V3OU   H12  894   3.860   4.045   1.231
    2V3OU   H13  895   3.909   3.888   1.158
    2V3OU   H14  896   4.023   3.956   1.275
    2V3OU   C11  897   3.158   3.466   1.371
    2V3OU    O1  898   3.130   3.570   1.309
    2V3OU    C9  899   3.300   3.425   1.387
    2V3OU    C7  900   3.401   3.503   1.332
    2V3OU    O9  901   3.385   3.608   1.244
    2V3OU   H25  902   3.290   3.629   1.238
    2V3OU   C17  903   2.817   3.304   1.395
    2V3OU    H7  904   2.714   3.332   1.371
    2V3OU   C18  905   2.839   3.206   1.490
    2V3OU    H8  906   2.752   3.148   1.524
    3SOL     OW  907   0.754   3.460   0.934
    3SOL    HW1  908   0.706   3.477   1.020
    3SOL    HW2  909   0.696   3.486   0.857
    4SOL     OW  910   5.412   1.277   2.298
    4SOL    HW1  911   5.482   1.307   2.234
    4SOL    HW2  912   5.455   1.245   2.382
    5SOL     OW  913   3.695   3.040   1.155
    5SOL    HW1  914   3.785   3.010   1.186
    5SOL    HW2  915   3.630   3.035   1.230
    6SOL     OW  916   2.423   2.313   0.837
    6SOL    HW1  917   2.373   2.284   0.755
    6SOL    HW2  918   2.397   2.255   0.914
    7SOL     OW  919   6.010   1.342   1.500
    7SOL    HW1  920   5.976   1.401   1.574
    7SOL    HW2  921   5.981   1.380   1.412
    8SOL     OW  922   2.848   1.972   3.407
    8SOL    HW1  923   2.943   1.941   3.418
    8SOL    HW2  924   2.842   2.032   3.327
    9SOL     OW  925   0.755   3.967   6.141
    9SOL    HW1  926   0.790   3.914   6.218
    9SOL    HW2  927   0.803   3.939   6.058
   10SOL     OW  928   0.419   3.941   0.329
   10SOL    HW1  929   0.417   3.893   0.241
   10SOL    HW2  930   0.450   4.035   0.315
   11SOL     OW  931   4.073   6.219   6.946
   11SOL    HW1  932   4.041   6.247   6.855
   11SOL    HW2  933   4.160   6.262   6.965
   12SOL     OW  934   5.429   6.097   2.819
   12SOL    HW1  935   5.447   6.087   2.721
   12SOL    HW2  936   5.460   6.016   2.867
   13SOL     OW  937   1.683   0.136   3.620
   13SOL    HW1  938   1.593   0.176   3.634
   13SOL    HW2  939   1.741   0.156   3.698
   14SOL     OW  940   3.140   0.066   2.445
   14SOL    HW1  941   3.194   0.102   2.522
   14SOL    HW2  942   3.136   6.985   2.450
   15SOL     OW  943   2.353   6.765   6.200
   15SOL    HW1  944   2.308   6.847   6.166
   15SOL    HW2  945   2.307   6.734   6.283
   16SOL     OW  946   6.691   1.696   6.686
   16SOL    HW1  947   6.602   1.688   6.732
   16SOL    HW2  948   6.757   1.737   6.748
   17SOL     OW  949   4.640   6.262   3.327
   17SOL    HW1  950   4.693   6.333   3.373
   17SOL    HW2  951   4.547   6.295   3.311
   18SOL     OW  952   1.641   1.221   0.390
   18SOL    HW1  953   1.694   1.271   0.459
   18SOL    HW2  954   1.703   1.169   0.332
   19SOL     OW  955   0.732   6.838   1.681
   19SOL    HW1  956   0.738   6.875   1.773
   19SOL    HW2  957   0.824   6.825   1.644
   20SOL     OW  958   3.159   0.824   3.814
   20SOL    HW1  959   3.250   0.810   3.854
   20SOL    HW2  960   3.098   0.863   3.883
   21SOL     OW  961   2.887   2.734   1.443
   21SOL    HW1  962   2.903   2.683   1.359
   21SOL    HW2  963   2.973   2.777   1.473
   22SOL     OW  964   0.872   1.249   4.980
   22SOL    HW1  965   0.894   1.277   4.886
   22SOL    HW2  966   0.948   1.270   5.040
   23SOL     OW  967   3.427   5.698   4.543
   23SOL    HW1  968   3.434   5.637   4.464
   23SOL    HW2  969   3.446   5.792   4.515
   24SOL     OW  970   3.803   0.921   4.522
   24SOL    HW1  971   3.717   0.959   4.557
   24SOL    HW2  972   3.870   0.916   4.597
   25SOL     OW  973   2.729   4.512   1.231
   25SOL    HW1  974   2.766   4.494   1.139
   25SOL    HW2  975   2.805   4.531   1.293
   26SOL     OW  976   5.909   1.166   2.995
   26SOL    HW1  977   5.989   1.153   2.937
   26SOL    HW2  978   5.858   1.080   3.002
   27SOL     OW  979   6.078   6.379   1.738
   27SOL    HW1  980   5.996   6.326   1.714
   27SOL    HW2  981   6.159   6.333   1.703
   28SOL     OW  982   3.230   0.855   0.763
   28SOL    HW1  983   3.200   0.879   0.671
   28SOL    HW2  984   3.317   0.807   0.758
   29SOL     OW  985   3.991   2.721   1.506
   29SOL    HW1  986   4.089   2.702   1.498
   29SOL    HW2  987   3.967   2.734   1.603
   30SOL     OW  988   3.843   1.198   4.740
   30SOL    HW1  989   3.899   1.115   4.733
   30SOL    HW2  990   3.880   1.268   4.679
   31SOL     OW  991   0.446   1.109   5.128
   31SOL    HW1  992   0.366   1.167   5.112
   31SOL    HW2  993   0.518   1.163   5.172
   32SOL     OW  994   0.403   1.816   2.153
   32SOL    HW1  995   0.391   1.759   2.073
   32SOL    HW2  996   0.358   1.904   2.138
   33SOL     OW  997   1.830   2.154   5.092
   33SOL    HW1  998   1.847   2.126   5.187
   33SOL    HW2  999   1.871   2.086   5.031
   34SOL     OW 1000   0.842   0.592   4.644
   34SOL    HW1 1001   0.814   0.552   4.557
   34SOL    HW2 1002   0.781   0.560   4.717
   35SOL     OW 1003   4.048   1.743   6.222
   35SOL    HW1 1004   4.015   1.652   6.198
   35SOL    HW2 1005   4.047   1.754   6.322
   36SOL     OW 1006   1.363   1.617   5.894
   36SOL    HW1 1007   1.316   1.624   5.806
   36SOL    HW2 1008   1.453   1.576   5.880
   37SOL     OW 1009   2.093   6.586   0.621
   37SOL    HW1 1010   2.085   6.492   0.655
   37SOL    HW2 1011   2.068   6.650   0.694
   38SOL     OW 1012   6.973   6.279   1.990
   38SOL    HW1 1013   6.926   6.357   2.031
   38SOL    HW2 1014   0.029   6.311   1.931
   39SOL     OW 1015   6.970   2.743   5.857
   39SOL    HW1 1016   6.993   2.823   5.913
   39SOL    HW2 1017   6.871   2.726   5.861
   40SOL     OW 1018   6.807   0.897   1.525
   40SOL    HW1 1019   6.887   0.914   1.467
   40SOL    HW2 1020   6.836   0.892   1.621
   41SOL     OW 1021   1.508   0.720   5.819
   41SOL    HW1 1022   1.554   0.662   5.887
   41SOL    HW2 1023   1.556   0.714   5.732
   42SOL     OW 1024   4.110   0.336   0.460
   42SOL    HW1 1025   4.139   0.407   0.396
   42SOL    HW2 1026   4.090   0.252   0.410
   43SOL     OW 1027   5.094   5.732   5.078
   43SOL    HW1 1028   5.021   5.744   5.145
   43SOL    HW2 1029   5.121   5.635   5.075
   44SOL     OW 1030   0.691   3.465   6.567
   44SOL    HW1 1031   0.790   3.472   6.562
   44SOL    HW2 1032   0.665   3.371   6.585
   45SOL     OW 1033   2.616   0.522   1.614
   45SOL    HW1 1034   2.686   0.470   1.663
   45SOL    HW2 1035   2.536   0.464   1.601
   46SOL     OW 1036   1.422   4.878   3.937
   46SOL    HW1 1037   1.516   4.844   3.946
   46SOL    HW2 1038   1.380   4.885   4.027
   47SOL     OW 1039   5.452   4.470   2.995
   47SOL    HW1 1040   5.444   4.486   2.897
   47SOL    HW2 1041   5.546   4.490   3.024
   48SOL     OW 1042   0.905   1.350   5.590
   48SOL    HW1 1043   0.863   1.340   5.681
   48SOL    HW2 1044   0.867   1.430   5.544
   49SOL     OW 1045   5.366   2.583   0.586
   49SOL    HW1 1046   5.321   2.616   0.503
   49SOL    HW2 1047   5.310   2.510   0.627
   50SOL     OW 1048   0.072   3.893   4.443
   50SOL    HW1 1049   0.071   3.862   4.348
   50SOL    HW2 1050   0.117   3.825   4.501
   51SOL     OW 1051   3.214   5.567   2.759
   51SOL    HW1 1052   3.215   5.490   2.695
   51SOL    HW2 1053   3.186   5.650   2.711
   52SOL     OW 1054   1.059   1.968   1.392
   52SOL    HW1 1055   0.979   1.929   1.439
   52SOL    HW2 1056   1.135   1.903   1.397
   53SOL     OW 1057   4.999   6.197   4.201
   53SOL    HW1 1058   4.964   6.105   4.186
   53SOL    HW2 1059   4.941   6.263   4.154
   54SOL     OW 1060   4.312   5.818   6.145
   54SOL    HW1 1061   4.274   5.748   6.085
   54SOL    HW2 1062   4.331   5.778   6.235
   55SOL     OW 1063   3.660   2.379   0.381
   55SOL    HW1 1064   3.612   2.382   0.293
   55SOL    HW2 1065   3.644   2.290   0.424
   56SOL     OW 1066   0.919   6.626   1.540
   56SOL    HW1 1067   0.834   6.651   1.494
   56SOL    HW2 1068   0.914   6.530   1.569
   57SOL     OW 1069   5.824   1.306   0.967
   57SOL    HW1 1070   5.878   1.250   0.902
   57SOL    HW2 1071   5.849   1.402   0.956
   58SOL     OW 1072   6.840   7.011   6.424
   58SOL    HW1 1073   6.792   7.005   6.512
   58SOL    HW2 1074   6.923   0.047   6.435
   59SOL     OW 1075   0.908   0.145   5.031
   59SOL    HW1 1076   0.851   0.155   4.950
   59SOL    HW2 1077   0.898   0.226   5.089
   60SOL     OW 1078   4.954   6.667   4.920
   60SOL    HW1 1079   4.982   6.704   5.008
   60SOL    HW2 1080   4.854   6.660   4.916
   61SOL     OW 1081   3.942   0.540   5.122
   61SOL    HW1 1082   3.932   0.631   5.082
   61SOL    HW2 1083   3.883   0.476   5.074
   62SOL     OW 1084   2.903   1.561   4.972
   62SOL    HW1 1085   2.862   1.490   5.029
   62SOL    HW2 1086   2.998   1.537   4.952
   63SOL     OW 1087   0.169   3.520   3.296
   63SOL    HW1 1088   0.170   3.432   3.248
   63SOL    HW2 1089   0.103   3.515   3.372
   64SOL     OW 1090   6.668   2.440   5.711
   64SOL    HW1 1091   6.712   2.511   5.656
   64SOL    HW2 1092   6.581   2.474   5.745
   65SOL     OW 1093   0.261   3.486   5.794
   65SOL    HW1 1094   0.209   3.408   5.759
   65SOL    HW2 1095   0.320   3.455   5.869
   66SOL     OW 1096   2.993   1.366   0.906
   66SOL    HW1 1097   2.905   1.397   0.871
   66SOL    HW2 1098   3.053   1.446   0.921
   67SOL     OW 1099   4.780   5.582   3.967
   67SOL    HW1 1100   4.872   5.613   3.992
   67SOL    HW2 1101   4.786   5.523   3.886
   68SOL     OW 1102   5.257   2.962   6.338
   68SOL    HW1 1103   5.185   2.993   6.400
   68SOL    HW2 1104   5.342   2.952   6.388
   69SOL     OW 1105   2.220   2.876   5.879
   69SOL    HW1 1106   2.272   2.934   5.817
   69SOL    HW2 1107   2.259   2.880   5.971
   70SOL     OW 1108   6.759   5.622   1.920
   70SOL    HW1 1109   6.730   5.548   1.980
   70SOL    HW2 1110   6.683   5.650   1.861
   71SOL     OW 1111   2.109   3.142   3.173
   71SOL    HW1 1112   2.197   3.097   3.185
   71SOL    HW2 1113   2.116   3.238   3.200
   72SOL     OW 1114   3.164   5.685   4.147
   72SOL    HW1 1115   3.133   5.723   4.234
   72SOL    HW2 1116   3.173   5.758   4.079
   73SOL     OW 1117   4.162   2.315   6.439
   73SOL    HW1 1118   4.152   2.223   6.477
   73SOL    HW2 1119   4.229   2.312   6.365
   74SOL     OW 1120   5.279   6.153   6.321
   74SOL    HW1 1121   5.269   6.057   6.295
   74SOL    HW2 1122   5.342   6.160   6.398
   75SOL     OW 1123   3.921   4.824   5.102
   75SOL    HW1 1124   3.902   4.858   5.010
   75SOL    HW2 1125   3.846   4.851   5.163
   76SOL     OW 1126   2.567   3.172   1.062
   76SOL    HW1 1127   2.530   3.200   1.150
   76SOL    HW2 1128   2.560   3.248   0.997
   77SOL     OW 1129   5.376   4.920   6.326
   77SOL    HW1 1130   5.328   4.865   6.258
   77SOL    HW2 1131   5.408   5.005   6.285
   78SOL     OW 1132   6.598   6.589   6.048
   78SOL    HW1 1133   6.630   6.509   5.999
   78SOL    HW2 1134   6.619   6.579   6.145
   79SOL     OW 1135   3.434   6.913   6.915
   79SOL    HW1 1136   3.488   6.829   6.907
   79SOL    HW2 1137   3.374   6.907   6.995
   80SOL     OW 1138   0.114   1.220   4.169
   80SOL    HW1 1139   0.155   1.306   4.138
   80SOL    HW2 1140   0.159   1.190   4.253
   81SOL     OW 1141   1.451   0.048   4.158
   81SOL    HW1 1142   1.393   6.988   4.179
   81SOL    HW2 1143   1.535   0.043   4.212
   82SOL     OW 1144   7.000   4.407   5.609
   82SOL    HW1 1145   6.977   4.447   5.520
   82SOL    HW2 1146   6.918   4.395   5.664
   83SOL     OW 1147   6.742   0.332   6.909
   83SOL    HW1 1148   6.771   0.248   6.863
   83SOL    HW2 1149   6.798   0.408   6.876
   84SOL     OW 1150   6.160   3.484   1.641
   84SOL    HW1 1151   6.232   3.517   1.701
   84SOL    HW2 1152   6.198   3.419   1.575
   85SOL     OW 1153   0.183   1.918   5.343
   85SOL    HW1 1154   0.106   1.868   5.382
   85SOL    HW2 1155   0.252   1.854   5.311
   86SOL     OW 1156   1.762   1.215   4.805
   86SOL    HW1 1157   1.675   1.168   4.822
   86SOL    HW2 1158   1.826   1.152   4.760
   87SOL     OW 1159   4.279   0.592   1.551
   87SOL    HW1 1160   4.251   0.500   1.578
   87SOL    HW2 1161   4.209   0.657   1.579
   88SOL     OW 1162   5.407   0.452   0.353
   88SOL    HW1 1163   5.444   0.470   0.444
   88SOL    HW2 1164   5.453   0.510   0.286
   89SOL     OW 1165   2.077   1.690   5.627
   89SOL    HW1 1166   1.996   1.660   5.678
   89SOL    HW2 1167   2.111   1.775   5.666
   90SOL     OW 1168   6.455   5.849   3.901
   90SOL    HW1 1169   6.539   5.879   3.856
   90SOL    HW2 1170   6.410   5.779   3.846
   91SOL     OW 1171   4.800   4.893   4.595
   91SOL    HW1 1172   4.772   4.892   4.691
   91SOL    HW2 1173   4.900   4.887   4.589
   92SOL     OW 1174   2.823   6.460   1.378
   92SOL    HW1 1175   2.771   6.510   1.309
   92SOL    HW2 1176   2.809   6.501   1.468
   93SOL     OW 1177   3.978   5.040   5.861
   93SOL    HW1 1178   4.035   5.123   5.865
   93SOL    HW2 1179   3.912   5.049   5.787
   94SOL     OW 1180   2.283   6.148   1.135
   94SOL    HW1 1181   2.234   6.087   1.198
   94SOL    HW2 1182   2.230   6.231   1.120
   95SOL     OW 1183   6.415   6.886   4.884
   95SOL    HW1 1184   6.348   6.937   4.831
   95SOL    HW2 1185   6.504   6.889   4.838
   96SOL     OW 1186   1.155   6.845   5.261
   96SOL    HW1 1187   1.249   6.812   5.248
   96SOL    HW2 1188   1.157   6.940   5.292
   97SOL     OW 1189   6.208   2.987   4.906
   97SOL    HW1 1190   6.303   3.007   4.929
   97SOL    HW2 1191   6.150   3.013   4.983
   98SOL     OW 1192   5.889   2.317   5.770
   98SOL    HW1 1193   5.968   2.297   5.827
   98SOL    HW2 1194   5.918   2.331   5.675
   99SOL     OW 1195   4.271   2.362   1.416
   99SOL    HW1 1196   4.244   2.428   1.346
   99SOL    HW2 1197   4.369   2.340   1.405
  100SOL     OW 1198   6.069   5.062   6.541
  100SOL    HW1 1199   6.071   4.998   6.618
  100SOL    HW2 1200   6.120   5.145   6.566
  101SOL     OW 1201   1.119   6.559   4.276
  101SOL    HW1 1202   1.067   6.582   4.195
  101SOL    HW2 1203   1.182   6.483   4.255
  102SOL     OW 1204   4.961   0.269   3.434
  102SOL    HW1 1205   4.886   0.222   3.386
  102SOL    HW2 1206   4.994   0.211   3.508
  103SOL     OW 1207   3.745   1.876   1.579
  103SOL    HW1 1208   3.785   1.870   1.670
  103SOL    HW2 1209   3.799   1.821   1.515
  104SOL     OW 1210   0.194   5.802   1.512
  104SOL    HW1 1211   0.285   5.762   1.521
  104SOL    HW2 1212   0.191   5.889   1.561
  105SOL     OW 1213   4.939   1.559   5.310
  105SOL    HW1 1214   4.864   1.562   5.244
  105SOL    HW2 1215   4.952   1.466   5.342
  106SOL     OW 1216   3.631   6.736   0.709
  106SOL    HW1 1217   3.709   6.698   0.758
  106SOL    HW2 1218   3.663   6.801   0.640
  107SOL     OW 1219   2.472   3.301   1.293
  107SOL    HW1 1220   2.382   3.343   1.284
  107SOL    HW2 1221   2.482   3.261   1.385
  108SOL     OW 1222   4.790   4.307   5.568
  108SOL    HW1 1223   4.716   4.244   5.543
  108SOL    HW2 1224   4.875   4.279   5.521
  109SOL     OW 1225   6.057   0.851   1.359
  109SOL    HW1 1226   6.066   0.862   1.458
  109SOL    HW2 1227   5.968   0.809   1.338
  110SOL     OW 1228   3.027   6.131   5.343
  110SOL    HW1 1229   3.088   6.083   5.279
  110SOL    HW2 1230   3.005   6.070   5.419
  111SOL     OW 1231   4.022   1.256   3.360
  111SOL    HW1 1232   4.092   1.300   3.416
  111SOL    HW2 1233   4.065   1.201   3.289
  112SOL     OW 1234   0.222   1.505   6.418
  112SOL    HW1 1235   0.307   1.461   6.447
  112SOL    HW2 1236   0.190   1.567   6.490
  113SOL     OW 1237   6.982   5.754   3.698
  113SOL    HW1 1238   0.027   5.831   3.710
  113SOL    HW2 1239   6.903   5.783   3.644
  114SOL     OW 1240   0.602   6.768   6.745
  114SOL    HW1 1241   0.537   6.820   6.800
  114SOL    HW2 1242   0.601   6.802   6.651
  115SOL     OW 1243   5.227   0.986   4.935
  115SOL    HW1 1244   5.258   1.064   4.988
  115SOL    HW2 1245   5.166   0.929   4.991
  116SOL     OW 1246   6.086   4.485   2.778
  116SOL    HW1 1247   5.988   4.501   2.768
  116SOL    HW2 1248   6.125   4.464   2.689
  117SOL     OW 1249   1.255   6.620   6.183
  117SOL    HW1 1250   1.344   6.662   6.201
  117SOL    HW2 1251   1.248   6.534   6.234
  118SOL     OW 1252   1.490   0.571   2.355
  118SOL    HW1 1253   1.579   0.584   2.399
  118SOL    HW2 1254   1.419   0.566   2.426
  119SOL     OW 1255   6.735   3.068   6.245
  119SOL    HW1 1256   6.639   3.088   6.225
  119SOL    HW2 1257   6.793   3.115   6.178
  120SOL     OW 1258   5.611   6.464   1.363
  120SOL    HW1 1259   5.688   6.415   1.324
  120SOL    HW2 1260   5.572   6.411   1.439
  121SOL     OW 1261   2.950   3.419   5.753
  121SOL    HW1 1262   2.948   3.429   5.654
  121SOL    HW2 1263   3.010   3.488   5.793
  122SOL     OW 1264   0.454   3.164   4.595
  122SOL    HW1 1265   0.377   3.127   4.648
  122SOL    HW2 1266   0.419   3.209   4.513
  123SOL     OW 1267   0.888   1.893   1.611
  123SOL    HW1 1268   0.796   1.860   1.632
  123SOL    HW2 1269   0.952   1.861   1.680
  124SOL     OW 1270   4.681   3.105   0.613
  124SOL    HW1 1271   4.625   3.171   0.563
  124SOL    HW2 1272   4.759   3.152   0.654
  125SOL     OW 1273   2.000   3.444   1.783
  125SOL    HW1 1274   2.068   3.479   1.847
  125SOL    HW2 1275   1.999   3.344   1.785
  126SOL     OW 1276   3.462   4.558   1.298
  126SOL    HW1 1277   3.415   4.559   1.386
  126SOL    HW2 1278   3.402   4.594   1.227
  127SOL     OW 1279   0.837   5.398   5.918
  127SOL    HW1 1280   0.752   5.348   5.907
  127SOL    HW2 1281   0.915   5.339   5.895
  128SOL     OW 1282   4.387   2.511   1.845
  128SOL    HW1 1283   4.416   2.606   1.834
  128SOL    HW2 1284   4.304   2.495   1.792
  129SOL     OW 1285   2.864   3.504   6.170
  129SOL    HW1 1286   2.960   3.509   6.143
  129SOL    HW2 1287   2.856   3.525   6.268
  130SOL     OW 1288   1.286   2.308   4.481
  130SOL    HW1 1289   1.217   2.275   4.416
  130SOL    HW2 1290   1.303   2.405   4.466
  131SOL     OW 1291   5.640   2.048   2.698
  131SOL    HW1 1292   5.584   2.114   2.748
  131SOL    HW2 1293   5.709   2.009   2.759
  132SOL     OW 1294   0.397   2.540   1.156
  132SOL    HW1 1295   0.405   2.639   1.141
  132SOL    HW2 1296   0.310   2.520   1.199
  133SOL     OW 1297   6.306   5.621   2.040
  133SOL    HW1 1298   6.276   5.599   1.948
  133SOL    HW2 1299   6.379   5.689   2.036
  134SOL     OW 1300   0.645   4.154   2.735
  134SOL    HW1 1301   0.654   4.077   2.672
  134SOL    HW2 1302   0.595   4.228   2.691
  135SOL     OW 1303   4.428   1.589   4.020
  135SOL    HW1 1304   4.354   1.605   3.954
  135SOL    HW2 1305   4.410   1.642   4.103
  136SOL     OW 1306   5.177   4.895   5.442
  136SOL    HW1 1307   5.140   4.803   5.429
  136SOL    HW2 1308   5.276   4.893   5.427
  137SOL     OW 1309   3.377   0.549   5.805
  137SOL    HW1 1310   3.354   0.546   5.708
  137SOL    HW2 1311   3.467   0.506   5.819
  138SOL     OW 1312   6.368   5.211   4.864
  138SOL    HW1 1313   6.437   5.181   4.930
  138SOL    HW2 1314   6.296   5.142   4.858
  139SOL     OW 1315   3.487   5.574   5.333
  139SOL    HW1 1316   3.581   5.595   5.308
  139SOL    HW2 1317   3.460   5.627   5.413
  140SOL     OW 1318   6.440   4.551   4.800
  140SOL    HW1 1319   6.392   4.511   4.878
  140SOL    HW2 1320   6.471   4.643   4.823
  141SOL     OW 1321   1.469   2.260   2.823
  141SOL    HW1 1322   1.408   2.268   2.744
  141SOL    HW2 1323   1.459   2.169   2.863
  142SOL     OW 1324   1.384   5.699   1.184
  142SOL    HW1 1325   1.319   5.746   1.243
  142SOL    HW2 1326   1.353   5.605   1.169
  143SOL     OW 1327   5.138   3.959   1.975
  143SOL    HW1 1328   5.084   3.910   1.906
  143SOL    HW2 1329   5.104   4.052   1.983
  144SOL     OW 1330   2.395   6.250   0.496
  144SOL    HW1 1331   2.375   6.339   0.537
  144SOL    HW2 1332   2.340   6.180   0.539
  145SOL     OW 1333   6.852   5.325   0.361
  145SOL    HW1 1334   6.849   5.400   0.428
  145SOL    HW2 1335   6.806   5.245   0.398
  146SOL     OW 1336   6.319   4.933   0.547
  146SOL    HW1 1337   6.349   4.911   0.455
  146SOL    HW2 1338   6.222   4.959   0.546
  147SOL     OW 1339   5.918   2.384   1.490
  147SOL    HW1 1340   5.866   2.411   1.570
  147SOL    HW2 1341   5.956   2.292   1.503
  148SOL     OW 1342   1.127   4.939   5.862
  148SOL    HW1 1343   1.055   4.922   5.929
  148SOL    HW2 1344   1.217   4.930   5.906
  149SOL     OW 1345   3.183   1.307   5.823
  149SOL    HW1 1346   3.139   1.301   5.913
  149SOL    HW2 1347   3.115   1.292   5.752
  150SOL     OW 1348   0.418   5.949   5.958
  150SOL    HW1 1349   0.364   5.962   5.875
  150SOL    HW2 1350   0.362   5.901   6.026
  151SOL     OW 1351   3.810   0.715   1.573
  151SOL    HW1 1352   3.786   0.739   1.479
  151SOL    HW2 1353   3.735   0.744   1.634
  152SOL     OW 1354   3.217   0.982   4.774
  152SOL    HW1 1355   3.173   1.057   4.824
  152SOL    HW2 1356   3.148   0.914   4.751
  153SOL     OW 1357   1.728   0.794   3.226
  153SOL    HW1 1358   1.823   0.803   3.197
  153SOL    HW2 1359   1.705   0.871   3.286
  154SOL     OW 1360   6.707   2.029   3.030
  154SOL    HW1 1361   6.799   2.049   2.997
  154SOL    HW2 1362   6.671   1.948   2.984
  155SOL     OW 1363   0.305   0.799   2.801
  155SOL    HW1 1364   0.309   0.780   2.899
  155SOL    HW2 1365   0.228   0.859   2.782
  156SOL     OW 1366   0.239   2.382   1.559
  156SOL    HW1 1367   0.159   2.327   1.582
  156SOL    HW2 1368   0.228   2.420   1.467
  157SOL     OW 1369   6.030   3.158   2.698
  157SOL    HW1 1370   5.991   3.068   2.677
  157SOL    HW2 1371   5.957   3.224   2.711
  158SOL     OW 1372   1.267   1.669   3.593
  158SOL    HW1 1373   1.294   1.691   3.687
  158SOL    HW2 1374   1.289   1.573   3.574
  159SOL     OW 1375   4.914   3.446   2.350
  159SOL    HW1 1376   4.879   3.394   2.272
  159SOL    HW2 1377   4.902   3.544   2.332
  160SOL     OW 1378   6.749   4.410   5.725
  160SOL    HW1 1379   6.718   4.499   5.758
  160SOL    HW2 1380   6.790   4.359   5.801
  161SOL     OW 1381   3.753   4.856   5.334
  161SOL    HW1 1382   3.707   4.938   5.299
  161SOL    HW2 1383   3.685   4.791   5.367
  162SOL     OW 1384   4.567   6.254   2.225
  162SOL    HW1 1385   4.650   6.198   2.226
  162SOL    HW2 1386   4.591   6.350   2.239
  163SOL     OW 1387   5.389   0.615   1.880
  163SOL    HW1 1388   5.393   0.589   1.976
  163SOL    HW2 1389   5.388   0.715   1.872
  164SOL     OW 1390   6.356   3.369   1.122
  164SOL    HW1 1391   6.293   3.291   1.118
  164SOL    HW2 1392   6.303   3.453   1.135
  165SOL     OW 1393   5.788   4.105   6.128
  165SOL    HW1 1394   5.791   4.006   6.132
  165SOL    HW2 1395   5.811   4.144   6.217
  166SOL     OW 1396   1.682   0.757   1.628
  166SOL    HW1 1397   1.728   0.845   1.637
  166SOL    HW2 1398   1.589   0.764   1.663
  167SOL     OW 1399   6.577   3.478   0.401
  167SOL    HW1 1400   6.666   3.496   0.443
  167SOL    HW2 1401   6.524   3.417   0.460
  168SOL     OW 1402   2.532   5.841   1.604
  168SOL    HW1 1403   2.576   5.756   1.633
  168SOL    HW2 1404   2.532   5.846   1.504
  169SOL     OW 1405   0.946   6.993   1.508
  169SOL    HW1 1406   0.965   0.061   1.459
  169SOL    HW2 1407   0.953   7.009   1.606
  170SOL     OW 1408   0.578   1.714   3.117
  170SOL    HW1 1409   0.616   1.709   3.025
  170SOL    HW2 1410   0.521   1.634   3.134
  171SOL     OW 1411   3.404   3.627   0.559
  171SOL    HW1 1412   3.442   3.630   0.466
  171SOL    HW2 1413   3.309   3.597   0.555
  172SOL     OW 1414   6.846   2.869   0.853
  172SOL    HW1 1415   6.829   2.886   0.756
  172SOL    HW2 1416   6.925   2.922   0.883
  173SOL     OW 1417   0.445   6.233   5.963
  173SOL    HW1 1418   0.466   6.135   5.973
  173SOL    HW2 1419   0.506   6.273   5.895
  174SOL     OW 1420   2.695   5.629   3.326
  174SOL    HW1 1421   2.746   5.597   3.246
  174SOL    HW2 1422   2.714   5.726   3.341
  175SOL     OW 1423   0.649   5.585   3.056
  175SOL    HW1 1424   0.560   5.611   3.093
  175SOL    HW2 1425   0.639   5.560   2.959
  176SOL     OW 1426   2.984   5.448   0.764
  176SOL    HW1 1427   3.034   5.376   0.717
  176SOL    HW2 1428   2.961   5.521   0.699
  177SOL     OW 1429   4.221   2.306   3.164
  177SOL    HW1 1430   4.285   2.345   3.098
  177SOL    HW2 1431   4.249   2.332   3.257
  178SOL     OW 1432   5.911   4.283   5.928
  178SOL    HW1 1433   5.856   4.203   5.952
  178SOL    HW2 1434   6.003   4.274   5.967
  179SOL     OW 1435   2.929   0.356   0.833
  179SOL    HW1 1436   2.942   0.262   0.800
  179SOL    HW2 1437   2.999   0.415   0.794
  180SOL     OW 1438   1.249   2.185   6.492
  180SOL    HW1 1439   1.256   2.281   6.464
  180SOL    HW2 1440   1.230   2.128   6.412
  181SOL     OW 1441   3.223   2.926   5.104
  181SOL    HW1 1442   3.296   2.865   5.135
  181SOL    HW2 1443   3.263   3.015   5.079
  182SOL     OW 1444   4.948   2.693   5.215
  182SOL    HW1 1445   4.887   2.702   5.295
  182SOL    HW2 1446   5.004   2.775   5.206
  183SOL     OW 1447   5.393   1.862   2.290
  183SOL    HW1 1448   5.383   1.772   2.249
  183SOL    HW2 1449   5.303   1.903   2.305
  184SOL     OW 1450   0.176   4.732   3.337
  184SOL    HW1 1451   0.132   4.650   3.374
  184SOL    HW2 1452   0.200   4.717   3.241
  185SOL     OW 1453   2.807   3.422   6.475
  185SOL    HW1 1454   2.736   3.402   6.543
  185SOL    HW2 1455   2.788   3.511   6.433
  186SOL     OW 1456   6.035   6.494   3.357
  186SOL    HW1 1457   6.087   6.528   3.279
  186SOL    HW2 1458   5.948   6.542   3.363
  187SOL     OW 1459   5.455   1.158   4.007
  187SOL    HW1 1460   5.454   1.165   3.908
  187SOL    HW2 1461   5.395   1.228   4.046
  188SOL     OW 1462   6.405   2.652   4.091
  188SOL    HW1 1463   6.461   2.638   4.010
  188SOL    HW2 1464   6.458   2.703   4.159
  189SOL     OW 1465   2.147   3.962   2.457
  189SOL    HW1 1466   2.192   3.916   2.381
  189SOL    HW2 1467   2.078   4.026   2.420
  190SOL     OW 1468   3.427   1.558   6.707
  190SOL    HW1 1469   3.388   1.530   6.795
  190SOL    HW2 1470   3.374   1.517   6.633
  191SOL     OW 1471   4.116   6.044   5.555
  191SOL    HW1 1472   4.097   6.032   5.653
  191SOL    HW2 1473   4.196   5.990   5.530
  192SOL     OW 1474   0.151   0.221   1.081
  192SOL    HW1 1475   0.196   0.150   1.027
  192SOL    HW2 1476   0.052   0.214   1.068
  193SOL     OW 1477   5.482   4.589   6.979
  193SOL    HW1 1478   5.556   4.535   6.938
  193SOL    HW2 1479   5.409   4.600   6.913
  194SOL     OW 1480   4.335   6.940   4.573
  194SOL    HW1 1481   4.307   7.010   4.639
  194SOL    HW2 1482   4.256   6.884   4.548
  195SOL     OW 1483   6.659   5.192   3.700
  195SOL    HW1 1484   6.665   5.271   3.639
  195SOL    HW2 1485   6.747   5.179   3.746
  196SOL     OW 1486   1.181   1.466   1.025
  196SOL    HW1 1487   1.102   1.526   1.014
  196SOL    HW2 1488   1.246   1.507   1.089
  197SOL     OW 1489   2.140   0.987   0.843
  197SOL    HW1 1490   2.145   0.920   0.917
  197SOL    HW2 1491   2.113   1.075   0.881
  198SOL     OW 1492   2.963   1.017   3.365
  198SOL    HW1 1493   3.021   0.990   3.288
  198SOL    HW2 1494   2.999   0.979   3.449
  199SOL     OW 1495   0.887   1.747   4.190
  199SOL    HW1 1496   0.822   1.810   4.148
  199SOL    HW2 1497   0.842   1.660   4.209
  200SOL     OW 1498   6.658   2.427   0.178
  200SOL    HW1 1499   6.604   2.391   0.255
  200SOL    HW2 1500   6.673   2.354   0.111
  201SOL     OW 1501   0.542   0.904   6.447
  201SOL    HW1 1502   0.588   0.930   6.362
  201SOL    HW2 1503   0.609   0.862   6.509
  202SOL     OW 1504   4.929   0.078   0.672
  202SOL    HW1 1505   4.929   0.012   0.598
  202SOL    HW2 1506   4.842   0.073   0.721
  203SOL     OW 1507   6.210   2.880   6.394
  203SOL    HW1 1508   6.246   2.872   6.301
  203SOL    HW2 1509   6.174   2.792   6.424
  204SOL     OW 1510   6.404   0.826   5.257
  204SOL    HW1 1511   6.398   0.846   5.159
  204SOL    HW2 1512   6.400   0.728   5.272
  205SOL     OW 1513   2.118   3.628   3.100
  205SOL    HW1 1514   2.023   3.656   3.085
  205SOL    HW2 1515   2.170   3.704   3.139
  206SOL     OW 1516   7.012   3.050   0.178
  206SOL    HW1 1517   6.960   3.131   0.206
  206SOL    HW2 1518   6.987   3.026   0.084
  207SOL     OW 1519   5.964   2.805   4.446
  207SOL    HW1 1520   6.039   2.744   4.473
  207SOL    HW2 1521   5.947   2.871   4.518
  208SOL     OW 1522   1.154   3.421   5.067
  208SOL    HW1 1523   1.183   3.445   5.160
  208SOL    HW2 1524   1.154   3.322   5.057
  209SOL     OW 1525   6.807   4.862   2.820
  209SOL    HW1 1526   6.745   4.931   2.781
  209SOL    HW2 1527   6.783   4.845   2.915
  210SOL     OW 1528   4.516   3.171   0.283
  210SOL    HW1 1529   4.516   3.270   0.289
  210SOL    HW2 1530   4.448   3.142   0.216
  211SOL     OW 1531   0.738   1.329   2.413
  211SOL    HW1 1532   0.678   1.325   2.493
  211SOL    HW2 1533   0.684   1.350   2.332
  212SOL     OW 1534   2.236   3.942   2.171
  212SOL    HW1 1535   2.254   3.990   2.085
  212SOL    HW2 1536   2.229   3.844   2.154
  213SOL     OW 1537   1.246   4.883   0.906
  213SOL    HW1 1538   1.253   4.965   0.849
  213SOL    HW2 1539   1.166   4.830   0.878
  214SOL     OW 1540   5.553   6.331   1.871
  214SOL    HW1 1541   5.528   6.282   1.955
  214SOL    HW2 1542   5.576   6.266   1.799
  215SOL     OW 1543   2.477   5.347   3.240
  215SOL    HW1 1544   2.573   5.362   3.266
  215SOL    HW2 1545   2.428   5.305   3.317
  216SOL     OW 1546   1.077   6.238   2.798
  216SOL    HW1 1547   1.100   6.175   2.724
  216SOL    HW2 1548   1.161   6.267   2.844
  217SOL     OW 1549   0.835   4.383   5.830
  217SOL    HW1 1550   0.763   4.320   5.803
  217SOL    HW2 1551   0.889   4.409   5.749
  218SOL     OW 1552   2.161   1.880   5.135
  218SOL    HW1 1553   2.078   1.913   5.090
  218SOL    HW2 1554   2.203   1.809   5.080
  219SOL     OW 1555   4.371   1.965   1.452
  219SOL    HW1 1556   4.327   2.035   1.508
  219SOL    HW2 1557   4.418   1.900   1.510
  220SOL     OW 1558   3.160   6.776   1.284
  220SOL    HW1 1559   3.195   6.697   1.233
  220SOL    HW2 1560   3.192   6.860   1.242
  221SOL     OW 1561   5.220   4.457   1.993
  221SOL    HW1 1562   5.176   4.432   1.906
  221SOL    HW2 1563   5.215   4.556   2.005
  222SOL     OW 1564   2.362   4.650   6.536
  222SOL    HW1 1565   2.390   4.706   6.458
  222SOL    HW2 1566   2.308   4.706   6.600
  223SOL     OW 1567   6.108   2.576   5.007
  223SOL    HW1 1568   6.077   2.597   5.100
  223SOL    HW2 1569   6.127   2.478   5.000
  224SOL     OW 1570   2.731   2.338   5.527
  224SOL    HW1 1571   2.736   2.301   5.435
  224SOL    HW2 1572   2.643   2.314   5.568
  225SOL     OW 1573   3.730   6.437   5.977
  225SOL    HW1 1574   3.790   6.507   6.016
  225SOL    HW2 1575   3.642   6.439   6.023
  226SOL     OW 1576   1.305   2.421   6.347
  226SOL    HW1 1577   1.300   2.496   6.282
  226SOL    HW2 1578   1.393   2.376   6.339
  227SOL     OW 1579   1.670   3.515   1.518
  227SOL    HW1 1580   1.691   3.584   1.587
  227SOL    HW2 1581   1.667   3.558   1.428
  228SOL     OW 1582   1.256   0.224   2.479
  228SOL    HW1 1583   1.289   0.253   2.568
  228SOL    HW2 1584   1.197   0.144   2.489
  229SOL     OW 1585   3.865   6.640   6.082
  229SOL    HW1 1586   3.803   6.643   6.161
  229SOL    HW2 1587   3.849   6.720   6.024
  230SOL     OW 1588   5.834   5.365   5.844
  230SOL    HW1 1589   5.762   5.344   5.778
  230SOL    HW2 1590   5.922   5.338   5.806
  231SOL     OW 1591   5.344   1.720   6.818
  231SOL    HW1 1592   5.262   1.778   6.812
  231SOL    HW2 1593   5.328   1.646   6.883
  232SOL     OW 1594   1.112   1.683   5.996
  232SOL    HW1 1595   1.053   1.637   5.930
  232SOL    HW2 1596   1.208   1.662   5.974
  233SOL     OW 1597   3.450   1.698   3.324
  233SOL    HW1 1598   3.538   1.716   3.368
  233SOL    HW2 1599   3.410   1.785   3.296
  234SOL     OW 1600   4.882   0.684   0.760
  234SOL    HW1 1601   4.883   0.780   0.791
  234SOL    HW2 1602   4.828   0.629   0.824
  235SOL     OW 1603   4.931   3.097   2.651
  235SOL    HW1 1604   4.861   3.029   2.672
  235SOL    HW2 1605   4.940   3.160   2.728
  236SOL     OW 1606   4.280   4.907   6.293
  236SOL    HW1 1607   4.324   4.957   6.367
  236SOL    HW2 1608   4.189   4.877   6.322
  237SOL     OW 1609   6.205   3.614   3.023
  237SOL    HW1 1610   6.281   3.671   2.992
  237SOL    HW2 1611   6.150   3.587   2.944
  238SOL     OW 1612   6.510   1.951   0.729
  238SOL    HW1 1613   6.605   1.982   0.738
  238SOL    HW2 1614   6.480   1.964   0.635
  239SOL     OW 1615   1.223   3.355   0.060
  239SOL    HW1 1616   1.185   3.281   0.115
  239SOL    HW2 1617   1.255   3.429   0.120
  240SOL     OW 1618   4.995   3.610   3.424
  240SOL    HW1 1619   5.038   3.648   3.506
  240SOL    HW2 1620   5.036   3.522   3.403
  241SOL     OW 1621   2.438   2.040   4.074
  241SOL    HW1 1622   2.377   1.965   4.051
  241SOL    HW2 1623   2.501   2.056   3.998
  242SOL     OW 1624   3.551   3.877   2.414
  242SOL    HW1 1625   3.514   3.852   2.504
  242SOL    HW2 1626   3.575   3.974   2.414
  243SOL     OW 1627   3.678   2.657   6.103
  243SOL    HW1 1628   3.733   2.740   6.097
  243SOL    HW2 1629   3.651   2.628   6.011
  244SOL     OW 1630   4.850   3.182   5.095
  244SOL    HW1 1631   4.804   3.174   5.006
  244SOL    HW2 1632   4.948   3.166   5.084
  245SOL     OW 1633   4.132   1.102   3.141
  245SOL    HW1 1634   4.158   1.077   3.048
  245SOL    HW2 1635   4.210   1.144   3.188
  246SOL     OW 1636   6.059   1.258   1.989
  246SOL    HW1 1637   6.105   1.179   1.948
  246SOL    HW2 1638   6.055   1.332   1.922
  247SOL     OW 1639   1.499   1.326   1.304
  247SOL    HW1 1640   1.458   1.240   1.273
  247SOL    HW2 1641   1.599   1.319   1.296
  248SOL     OW 1642   2.039   2.830   2.198
  248SOL    HW1 1643   2.134   2.862   2.188
  248SOL    HW2 1644   2.014   2.831   2.295
  249SOL     OW 1645   4.944   6.003   4.735
  249SOL    HW1 1646   5.017   6.068   4.715
  249SOL    HW2 1647   4.907   5.968   4.649
  250SOL     OW 1648   3.831   2.610   0.322
  250SOL    HW1 1649   3.774   2.539   0.361
  250SOL    HW2 1650   3.886   2.572   0.247
  251SOL     OW 1651   3.801   4.336   5.545
  251SOL    HW1 1652   3.730   4.273   5.513
  251SOL    HW2 1653   3.845   4.379   5.467
  252SOL     OW 1654   6.900   6.486   5.818
  252SOL    HW1 1655   6.885   6.433   5.735
  252SOL    HW2 1656   6.998   6.488   5.839
  253SOL     OW 1657   4.028   6.436   6.223
  253SOL    HW1 1658   4.126   6.426   6.242
  253SOL    HW2 1659   4.014   6.509   6.156
  254SOL     OW 1660   5.730   2.510   5.528
  254SOL    HW1 1661   5.797   2.576   5.562
  254SOL    HW2 1662   5.706   2.446   5.601
  255SOL     OW 1663   1.518   4.077   6.599
  255SOL    HW1 1664   1.598   4.068   6.539
  255SOL    HW2 1665   1.493   4.174   6.605
  256SOL     OW 1666   4.956   2.387   5.377
  256SOL    HW1 1667   5.052   2.415   5.374
  256SOL    HW2 1668   4.932   2.340   5.292
  257SOL     OW 1669   4.995   6.727   2.207
  257SOL    HW1 1670   5.022   6.634   2.230
  257SOL    HW2 1671   4.917   6.724   2.144
  258SOL     OW 1672   1.646   3.082   6.139
  258SOL    HW1 1673   1.734   3.034   6.142
  258SOL    HW2 1674   1.633   3.122   6.048
  259SOL     OW 1675   3.691   6.720   4.172
  259SOL    HW1 1676   3.715   6.624   4.180
  259SOL    HW2 1677   3.710   6.767   4.259
  260SOL     OW 1678   3.851   5.303   3.433
  260SOL    HW1 1679   3.807   5.384   3.472
  260SOL    HW2 1680   3.784   5.229   3.425
  261SOL     OW 1681   4.297   4.810   0.520
  261SOL    HW1 1682   4.232   4.793   0.595
  261SOL    HW2 1683   4.320   4.908   0.518
  262SOL     OW 1684   1.147   4.026   6.352
  262SOL    HW1 1685   1.220   3.996   6.413
  262SOL    HW2 1686   1.076   3.955   6.346
  263SOL     OW 1687   0.640   6.705   4.229
  263SOL    HW1 1688   0.564   6.759   4.195
  263SOL    HW2 1689   0.708   6.766   4.271
  264SOL     OW 1690   6.269   3.264   6.130
  264SOL    HW1 1691   6.184   3.315   6.145
  264SOL    HW2 1692   6.342   3.303   6.187
  265SOL     OW 1693   6.474   0.187   3.809
  265SOL    HW1 1694   6.512   0.259   3.750
  265SOL    HW2 1695   6.380   0.168   3.782
  266SOL     OW 1696   3.714   0.843   5.876
  266SOL    HW1 1697   3.657   0.900   5.817
  266SOL    HW2 1698   3.770   0.901   5.935
  267SOL     OW 1699   1.786   0.674   4.146
  267SOL    HW1 1700   1.713   0.607   4.131
  267SOL    HW2 1701   1.853   0.668   4.072
  268SOL     OW 1702   3.062   2.595   1.258
  268SOL    HW1 1703   3.118   2.673   1.229
  268SOL    HW2 1704   3.091   2.566   1.349
  269SOL     OW 1705   4.108   2.185   0.351
  269SOL    HW1 1706   4.026   2.165   0.405
  269SOL    HW2 1707   4.188   2.182   0.410
  270SOL     OW 1708   5.572   1.121   6.905
  270SOL    HW1 1709   5.532   1.213   6.911
  270SOL    HW2 1710   5.661   1.126   6.860
  271SOL     OW 1711   1.071   3.259   6.628
  271SOL    HW1 1712   1.092   3.303   6.715
  271SOL    HW2 1713   1.028   3.325   6.566
  272SOL     OW 1714   3.186   6.134   3.685
  272SOL    HW1 1715   3.245   6.160   3.762
  272SOL    HW2 1716   3.238   6.081   3.619
  273SOL     OW 1717   2.103   4.701   6.035
  273SOL    HW1 1718   2.049   4.670   5.957
  273SOL    HW2 1719   2.140   4.622   6.083
  274SOL     OW 1720   5.042   2.778   3.962
  274SOL    HW1 1721   4.986   2.839   3.907
  274SOL    HW2 1722   4.994   2.691   3.976
  275SOL     OW 1723   6.362   6.089   1.415
  275SOL    HW1 1724   6.454   6.126   1.424
  275SOL    HW2 1725   6.303   6.157   1.370
  276SOL     OW 1726   1.218   0.533   5.122
  276SOL    HW1 1727   1.178   0.621   5.097
  276SOL    HW2 1728   1.252   0.487   5.040
  277SOL     OW 1729   1.834   4.303   1.230
  277SOL    HW1 1730   1.931   4.309   1.251
  277SOL    HW2 1731   1.807   4.380   1.172
  278SOL     OW 1732   0.567   2.851   2.080
  278SOL    HW1 1733   0.623   2.887   2.005
  278SOL    HW2 1734   0.471   2.847   2.052
  279SOL     OW 1735   6.052   1.496   3.697
  279SOL    HW1 1736   6.113   1.529   3.769
  279SOL    HW2 1737   6.081   1.532   3.609
  280SOL     OW 1738   1.487   4.706   2.413
  280SOL    HW1 1739   1.415   4.655   2.366
  280SOL    HW2 1740   1.451   4.795   2.443
  281SOL     OW 1741   2.268   4.533   1.391
  281SOL    HW1 1742   2.242   4.570   1.302
  281SOL    HW2 1743   2.187   4.526   1.449
  282SOL     OW 1744   2.737   1.749   5.999
  282SOL    HW1 1745   2.815   1.732   5.940
  282SOL    HW2 1746   2.731   1.847   6.019
  283SOL     OW 1747   3.663   2.317   5.373
  283SOL    HW1 1748   3.580   2.341   5.423
  283SOL    HW2 1749   3.721   2.259   5.430
  284SOL     OW 1750   1.578   4.501   4.143
  284SOL    HW1 1751   1.640   4.530   4.216
  284SOL    HW2 1752   1.493   4.467   4.184
  285SOL     OW 1753   5.100   4.600   4.255
  285SOL    HW1 1754   5.128   4.508   4.226
  285SOL    HW2 1755   5.066   4.597   4.349
  286SOL     OW 1756   3.332   3.613   6.855
  286SOL    HW1 1757   3.395   3.688   6.880
  286SOL    HW2 1758   3.303   3.625   6.760
  287SOL     OW 1759   1.435   3.113   0.157
  287SOL    HW1 1760   1.447   3.125   0.058
  287SOL    HW2 1761   1.379   3.032   0.174
  288SOL     OW 1762   4.719   3.610   0.729
  288SOL    HW1 1763   4.671   3.535   0.685
  288SOL    HW2 1764   4.653   3.670   0.774
  289SOL     OW 1765   3.511   5.130   6.544
  289SOL    HW1 1766   3.487   5.166   6.633
  289SOL    HW2 1767   3.513   5.030   6.547
  290SOL     OW 1768   1.308   1.383   4.676
  290SOL    HW1 1769   1.392   1.435   4.689
  290SOL    HW2 1770   1.229   1.441   4.696
  291SOL     OW 1771   6.850   2.131   2.463
  291SOL    HW1 1772   6.861   2.053   2.401
  291SOL    HW2 1773   6.839   2.215   2.410
  292SOL     OW 1774   2.939   0.024   3.914
  292SOL    HW1 1775   2.882   6.997   3.982
  292SOL    HW2 1776   2.895   0.110   3.885
  293SOL     OW 1777   3.387   4.965   3.837
  293SOL    HW1 1778   3.382   4.937   3.932
  293SOL    HW2 1779   3.300   4.948   3.791
  294SOL     OW 1780   4.410   0.386   0.241
  294SOL    HW1 1781   4.474   0.383   0.165
  294SOL    HW2 1782   4.441   0.326   0.314
  295SOL     OW 1783   5.607   0.050   3.267
  295SOL    HW1 1784   5.614   6.981   3.218
  295SOL    HW2 1785   5.554   0.115   3.212
  296SOL     OW 1786   2.563   2.083   3.251
  296SOL    HW1 1787   2.546   2.117   3.343
  296SOL    HW2 1788   2.519   1.994   3.240
  297SOL     OW 1789   1.560   5.177   2.293
  297SOL    HW1 1790   1.586   5.264   2.252
  297SOL    HW2 1791   1.596   5.101   2.239
  298SOL     OW 1792   6.563   5.076   0.658
  298SOL    HW1 1793   6.466   5.066   0.640
  298SOL    HW2 1794   6.581   5.166   0.697
  299SOL     OW 1795   5.919   2.567   4.639
  299SOL    HW1 1796   5.898   2.588   4.543
  299SOL    HW2 1797   5.880   2.638   4.697
  300SOL     OW 1798   6.869   6.820   2.342
  300SOL    HW1 1799   6.829   6.873   2.267
  300SOL    HW2 1800   6.962   6.853   2.359
  301SOL     OW 1801   4.274   2.742   5.754
  301SOL    HW1 1802   4.359   2.795   5.748
  301SOL    HW2 1803   4.278   2.666   5.689
  302SOL     OW 1804   0.687   6.231   4.481
  302SOL    HW1 1805   0.785   6.245   4.497
  302SOL    HW2 1806   0.645   6.317   4.454
  303SOL     OW 1807   5.811   6.670   2.720
  303SOL    HW1 1808   5.821   6.764   2.751
  303SOL    HW2 1809   5.844   6.608   2.791
  304SOL     OW 1810   3.766   6.440   3.761
  304SOL    HW1 1811   3.847   6.463   3.815
  304SOL    HW2 1812   3.794   6.406   3.671
  305SOL     OW 1813   1.465   3.737   1.224
  305SOL    HW1 1814   1.542   3.684   1.189
  305SOL    HW2 1815   1.419   3.784   1.149
  306SOL     OW 1816   2.326   0.574   3.359
  306SOL    HW1 1817   2.399   0.580   3.427
  306SOL    HW2 1818   2.304   0.665   3.325
  307SOL     OW 1819   3.073   0.021   2.009
  307SOL    HW1 1820   3.093   0.116   1.985
  307SOL    HW2 1821   3.146   7.004   2.067
  308SOL     OW 1822   1.012   5.031   4.139
  308SOL    HW1 1823   0.928   5.045   4.192
  308SOL    HW2 1824   1.059   5.119   4.129
  309SOL     OW 1825   3.429   4.879   5.252
  309SOL    HW1 1826   3.373   4.849   5.175
  309SOL    HW2 1827   3.494   4.949   5.222
  310SOL     OW 1828   1.079   5.603   6.371
  310SOL    HW1 1829   0.991   5.573   6.336
  310SOL    HW2 1830   1.075   5.609   6.471
  311SOL     OW 1831   0.111   0.699   1.487
  311SOL    HW1 1832   0.095   0.661   1.578
  311SOL    HW2 1833   0.190   0.653   1.446
  312SOL     OW 1834   3.797   1.545   4.867
  312SOL    HW1 1835   3.724   1.568   4.933
  312SOL    HW2 1836   3.878   1.515   4.917
  313SOL     OW 1837   0.122   4.918   0.648
  313SOL    HW1 1838   0.114   5.003   0.700
  313SOL    HW2 1839   0.059   4.920   0.570
  314SOL     OW 1840   3.237   6.177   1.503
  314SOL    HW1 1841   3.292   6.101   1.540
  314SOL    HW2 1842   3.297   6.239   1.453
  315SOL     OW 1843   0.789   3.161   2.684
  315SOL    HW1 1844   0.762   3.074   2.642
  315SOL    HW2 1845   0.858   3.205   2.627
  316SOL     OW 1846   2.165   3.735   4.641
  316SOL    HW1 1847   2.146   3.639   4.659
  316SOL    HW2 1848   2.251   3.761   4.684
  317SOL     OW 1849   6.253   1.030   0.045
  317SOL    HW1 1850   6.317   0.956   0.022
  317SOL    HW2 1851   6.160   1.003   0.019
  318SOL     OW 1852   2.165   4.703   1.193
  318SOL    HW1 1853   2.210   4.689   1.104
  318SOL    HW2 1854   2.217   4.769   1.246
  319SOL     OW 1855   1.447   7.009   6.796
  319SOL    HW1 1856   1.392   6.989   6.714
  319SOL    HW2 1857   1.386   0.009   6.873
  320SOL     OW 1858   5.420   3.141   0.722
  320SOL    HW1 1859   5.413   3.238   0.699
  320SOL    HW2 1860   5.445   3.132   0.819
  321SOL     OW 1861   2.363   1.085   1.937
  321SOL    HW1 1862   2.340   1.104   2.033
  321SOL    HW2 1863   2.450   1.036   1.934
  322SOL     OW 1864   3.131   2.175   5.551
  322SOL    HW1 1865   3.088   2.188   5.461
  322SOL    HW2 1866   3.108   2.252   5.610
  323SOL     OW 1867   0.352   4.522   2.009
  323SOL    HW1 1868   0.418   4.471   1.954
  323SOL    HW2 1869   0.267   4.533   1.957
  324SOL     OW 1870   0.670   3.002   4.493
  324SOL    HW1 1871   0.605   3.016   4.568
  324SOL    HW2 1872   0.758   3.043   4.518
  325SOL     OW 1873   2.297   2.268   2.716
  325SOL    HW1 1874   2.320   2.171   2.725
  325SOL    HW2 1875   2.276   2.305   2.807
  326SOL     OW 1876   2.154   4.698   5.217
  326SOL    HW1 1877   2.226   4.668   5.280
  326SOL    HW2 1878   2.176   4.665   5.125
  327SOL     OW 1879   6.033   4.976   6.266
  327SOL    HW1 1880   6.008   4.984   6.362
  327SOL    HW2 1881   6.109   5.037   6.246
  328SOL     OW 1882   3.486   5.687   1.388
  328SOL    HW1 1883   3.472   5.589   1.375
  328SOL    HW2 1884   3.553   5.701   1.461
  329SOL     OW 1885   3.182   3.761   2.437
  329SOL    HW1 1886   3.216   3.842   2.390
  329SOL    HW2 1887   3.225   3.754   2.527
  330SOL     OW 1888   2.841   1.992   1.677
  330SOL    HW1 1889   2.750   2.016   1.644
  330SOL    HW2 1890   2.880   2.070   1.727
  331SOL     OW 1891   5.635   4.236   5.755
  331SOL    HW1 1892   5.683   4.177   5.690
  331SOL    HW2 1893   5.558   4.280   5.709
  332SOL     OW 1894   4.092   2.231   3.710
  332SOL    HW1 1895   4.144   2.284   3.778
  332SOL    HW2 1896   4.006   2.201   3.751
  333SOL     OW 1897   4.385   6.175   0.513
  333SOL    HW1 1898   4.439   6.228   0.448
  333SOL    HW2 1899   4.290   6.169   0.480
  334SOL     OW 1900   5.087   6.415   2.683
  334SOL    HW1 1901   5.017   6.397   2.752
  334SOL    HW2 1902   5.177   6.408   2.725
  335SOL     OW 1903   3.751   6.739   2.868
  335SOL    HW1 1904   3.796   6.690   2.943
  335SOL    HW2 1905   3.667   6.782   2.902
  336SOL     OW 1906   3.667   0.194   4.810
  336SOL    HW1 1907   3.579   0.154   4.834
  336SOL    HW2 1908   3.654   0.264   4.740
  337SOL     OW 1909   0.157   4.265   1.784
  337SOL    HW1 1910   0.145   4.168   1.807
  337SOL    HW2 1911   0.180   4.274   1.687
  338SOL     OW 1912   2.493   2.441   1.595
  338SOL    HW1 1913   2.466   2.531   1.560
  338SOL    HW2 1914   2.574   2.451   1.654
  339SOL     OW 1915   4.329   0.904   3.049
  339SOL    HW1 1916   4.262   0.878   2.979
  339SOL    HW2 1917   4.284   0.906   3.138
  340SOL     OW 1918   5.013   3.946   4.724
  340SOL    HW1 1919   5.092   3.885   4.713
  340SOL    HW2 1920   4.975   3.967   4.634
  341SOL     OW 1921   4.912   4.998   5.610
  341SOL    HW1 1922   4.978   5.070   5.590
  341SOL    HW2 1923   4.898   4.943   5.528
  342SOL     OW 1924   5.647   3.918   0.390
  342SOL    HW1 1925   5.579   3.870   0.445
  342SOL    HW2 1926   5.728   3.859   0.379
  343SOL     OW 1927   2.372   0.400   2.517
  343SOL    HW1 1928   2.307   0.352   2.577
  343SOL    HW2 1929   2.323   0.437   2.438
  344SOL     OW 1930   3.651   5.902   7.000
  344SOL    HW1 1931   3.680   5.985   0.028
  344SOL    HW2 1932   3.725   5.869   6.942
  345SOL     OW 1933   1.117   0.889   6.180
  345SOL    HW1 1934   1.205   0.845   6.163
  345SOL    HW2 1935   1.131   0.977   6.224
  346SOL     OW 1936   3.389   0.750   3.930
  346SOL    HW1 1937   3.351   0.679   3.990
  346SOL    HW2 1938   3.450   0.809   3.984
  347SOL     OW 1939   4.531   6.821   5.613
  347SOL    HW1 1940   4.597   6.772   5.556
  347SOL    HW2 1941   4.515   6.770   5.697
  348SOL     OW 1942   2.688   6.135   2.681
  348SOL    HW1 1943   2.666   6.228   2.712
  348SOL    HW2 1944   2.606   6.079   2.682
  349SOL     OW 1945   2.696   4.966   1.844
  349SOL    HW1 1946   2.768   5.007   1.787
  349SOL    HW2 1947   2.693   5.014   1.932
  350SOL     OW 1948   4.450   3.187   0.914
  350SOL    HW1 1949   4.403   3.268   0.878
  350SOL    HW2 1950   4.422   3.106   0.862
  351SOL     OW 1951   2.954   1.825   0.648
  351SOL    HW1 1952   2.878   1.891   0.654
  351SOL    HW2 1953   2.928   1.740   0.694
  352SOL     OW 1954   3.201   1.770   5.980
  352SOL    HW1 1955   3.283   1.767   5.924
  352SOL    HW2 1956   3.220   1.819   6.065
  353SOL     OW 1957   2.110   0.473   1.473
  353SOL    HW1 1958   2.042   0.432   1.413
  353SOL    HW2 1959   2.091   0.447   1.568
  354SOL     OW 1960   5.193   0.915   2.349
  354SOL    HW1 1961   5.292   0.910   2.336
  354SOL    HW2 1962   5.168   0.864   2.432
  355SOL     OW 1963   1.566   1.304   1.708
  355SOL    HW1 1964   1.654   1.260   1.690
  355SOL    HW2 1965   1.579   1.380   1.772
  356SOL     OW 1966   4.084   6.574   2.840
  356SOL    HW1 1967   3.999   6.526   2.862
  356SOL    HW2 1968   4.161   6.525   2.879
  357SOL     OW 1969   1.357   4.829   5.931
  357SOL    HW1 1970   1.391   4.867   6.018
  357SOL    HW2 1971   1.431   4.779   5.886
  358SOL     OW 1972   5.210   1.130   3.438
  358SOL    HW1 1973   5.216   1.111   3.536
  358SOL    HW2 1974   5.181   1.225   3.424
  359SOL     OW 1975   0.915   2.029   0.290
  359SOL    HW1 1976   0.829   2.073   0.315
  359SOL    HW2 1977   0.944   1.968   0.364
  360SOL     OW 1978   5.129   0.090   0.407
  360SOL    HW1 1979   5.191   0.110   0.483
  360SOL    HW2 1980   5.183   0.077   0.324
  361SOL     OW 1981   3.517   0.931   3.163
  361SOL    HW1 1982   3.553   1.020   3.191
  361SOL    HW2 1983   3.592   0.872   3.135
  362SOL     OW 1984   2.697   3.988   1.117
  362SOL    HW1 1985   2.603   4.005   1.088
  362SOL    HW2 1986   2.697   3.945   1.207
  363SOL     OW 1987   4.332   4.651   3.640
  363SOL    HW1 1988   4.380   4.646   3.728
  363SOL    HW2 1989   4.241   4.691   3.653
  364SOL     OW 1990   2.043   6.320   6.467
  364SOL    HW1 1991   2.000   6.282   6.384
  364SOL    HW2 1992   2.137   6.346   6.446
  365SOL     OW 1993   4.887   0.188   2.871
  365SOL    HW1 1994   4.828   0.181   2.790
  365SOL    HW2 1995   4.830   0.193   2.953
  366SOL     OW 1996   4.993   1.062   0.490
  366SOL    HW1 1997   5.056   0.987   0.508
  366SOL    HW2 1998   4.996   1.127   0.566
  367SOL     OW 1999   4.572   1.853   2.087
  367SOL    HW1 2000   4.513   1.925   2.050
  367SOL    HW2 2001   4.541   1.764   2.054
  368SOL     OW 2002   1.860   5.252   5.625
  368SOL    HW1 2003   1.897   5.340   5.654
  368SOL    HW2 2004   1.936   5.189   5.606
  369SOL     OW 2005   0.549   3.541   1.404
  369SOL    HW1 2006   0.512   3.578   1.490
  369SOL    HW2 2007   0.553   3.442   1.410
  370SOL     OW 2008   3.390   1.800   0.219
  370SOL    HW1 2009   3.308   1.843   0.180
  370SOL    HW2 2010   3.414   1.719   0.166
  371SOL     OW 2011   3.267   2.825   5.982
  371SOL    HW1 2012   3.249   2.769   6.063
  371SOL    HW2 2013   3.342   2.889   6.001
  372SOL     OW 2014   2.019   5.042   0.282
  372SOL    HW1 2015   1.919   5.039   0.274
  372SOL    HW2 2016   2.045   5.052   0.378
  373SOL     OW 2017   6.569   6.960   6.601
  373SOL    HW1 2018   6.554   6.914   6.513
  373SOL    HW2 2019   6.498   6.933   6.665
  374SOL     OW 2020   4.480   0.616   1.378
  374SOL    HW1 2021   4.387   0.606   1.415
  374SOL    HW2 2022   4.486   0.566   1.291
  375SOL     OW 2023   6.651   4.383   0.913
  375SOL    HW1 2024   6.565   4.436   0.915
  375SOL    HW2 2025   6.675   4.363   0.818
  376SOL     OW 2026   1.851   3.804   4.590
  376SOL    HW1 2027   1.818   3.786   4.497
  376SOL    HW2 2028   1.812   3.737   4.653
  377SOL     OW 2029   4.447   1.703   4.706
  377SOL    HW1 2030   4.508   1.773   4.668
  377SOL    HW2 2031   4.426   1.725   4.801
  378SOL     OW 2032   4.937   2.339   5.088
  378SOL    HW1 2033   4.864   2.281   5.053
  378SOL    HW2 2034   4.922   2.433   5.060
  379SOL     OW 2035   0.093   2.593   1.910
  379SOL    HW1 2036   0.168   2.587   1.844
  379SOL    HW2 2037   0.119   2.544   1.993
  380SOL     OW 2038   1.467   1.812   6.902
  380SOL    HW1 2039   1.500   1.760   6.981
  380SOL    HW2 2040   1.486   1.909   6.917
  381SOL     OW 2041   3.836   5.033   0.859
  381SOL    HW1 2042   3.913   5.024   0.922
  381SOL    HW2 2043   3.794   4.943   0.845
  382SOL     OW 2044   2.563   5.298   0.500
  382SOL    HW1 2045   2.504   5.308   0.580
  382SOL    HW2 2046   2.522   5.233   0.436
  383SOL     OW 2047   6.352   1.917   0.461
  383SOL    HW1 2048   6.303   2.002   0.440
  383SOL    HW2 2049   6.291   1.856   0.512
  384SOL     OW 2050   1.794   5.293   5.312
  384SOL    HW1 2051   1.738   5.219   5.275
  384SOL    HW2 2052   1.786   5.294   5.412
  385SOL     OW 2053   4.680   5.368   1.577
  385SOL    HW1 2054   4.644   5.279   1.548
  385SOL    HW2 2055   4.614   5.440   1.554
  386SOL     OW 2056   2.697   6.206   4.523
  386SOL    HW1 2057   2.642   6.149   4.585
  386SOL    HW2 2058   2.645   6.225   4.440
  387SOL     OW 2059   6.710   0.361   6.175
  387SOL    HW1 2060   6.679   0.456   6.175
  387SOL    HW2 2061   6.803   0.357   6.212
  388SOL     OW 2062   0.075   1.908   4.342
  388SOL    HW1 2063   0.096   1.959   4.258
  388SOL    HW2 2064   0.161   1.883   4.388
  389SOL     OW 2065   5.062   3.896   2.238
  389SOL    HW1 2066   5.062   3.915   2.140
  389SOL    HW2 2067   5.142   3.841   2.262
  390SOL     OW 2068   3.975   2.470   6.327
  390SOL    HW1 2069   3.943   2.537   6.393
  390SOL    HW2 2070   4.023   2.396   6.375
  391SOL     OW 2071   4.085   3.802   3.595
  391SOL    HW1 2072   3.985   3.804   3.596
  391SOL    HW2 2073   4.118   3.752   3.675
  392SOL     OW 2074   1.885   3.900   1.807
  392SOL    HW1 2075   1.936   3.978   1.769
  392SOL    HW2 2076   1.918   3.881   1.899
  393SOL     OW 2077   1.623   5.665   1.612
  393SOL    HW1 2078   1.668   5.583   1.648
  393SOL    HW2 2079   1.677   5.702   1.536
  394SOL     OW 2080   6.081   1.086   6.117
  394SOL    HW1 2081   6.133   1.162   6.157
  394SOL    HW2 2082   6.025   1.043   6.188
  395SOL     OW 2083   6.009   4.254   6.792
  395SOL    HW1 2084   5.964   4.324   6.738
  395SOL    HW2 2085   6.107   4.273   6.795
  396SOL     OW 2086   1.406   0.722   1.477
  396SOL    HW1 2087   1.310   0.719   1.505
  396SOL    HW2 2088   1.431   0.635   1.435
  397SOL     OW 2089   4.410   2.430   4.500
  397SOL    HW1 2090   4.346   2.507   4.501
  397SOL    HW2 2091   4.395   2.373   4.581
  398SOL     OW 2092   0.224   1.354   3.301
  398SOL    HW1 2093   0.142   1.371   3.356
  398SOL    HW2 2094   0.209   1.273   3.244
  399SOL     OW 2095   5.703   5.943   3.494
  399SOL    HW1 2096   5.688   5.988   3.582
  399SOL    HW2 2097   5.782   5.984   3.448
  400SOL     OW 2098   0.044   6.336   3.258
  400SOL    HW1 2099   6.971   6.336   3.300
  400SOL    HW2 2100   0.083   6.428   3.264
  401SOL     OW 2101   1.137   5.397   4.929
  401SOL    HW1 2102   1.152   5.376   4.832
  401SOL    HW2 2103   1.220   5.378   4.981
  402SOL     OW 2104   5.580   1.799   4.063
  402SOL    HW1 2105   5.608   1.726   4.001
  402SOL    HW2 2106   5.593   1.770   4.158
  403SOL     OW 2107   2.872   1.850   4.542
  403SOL    HW1 2108   2.848   1.935   4.588
  403SOL    HW2 2109   2.833   1.773   4.593
  404SOL     OW 2110   3.073   5.139   3.743
  404SOL    HW1 2111   3.069   5.044   3.714
  404SOL    HW2 2112   3.059   5.145   3.842
  405SOL     OW 2113   2.719   5.105   3.757
  405SOL    HW1 2114   2.677   5.177   3.702
  405SOL    HW2 2115   2.776   5.147   3.829
  406SOL     OW 2116   0.297   6.914   6.474
  406SOL    HW1 2117   0.391   6.882   6.488
  406SOL    HW2 2118   0.270   6.895   6.380
  407SOL     OW 2119   2.182   3.747   3.939
  407SOL    HW1 2120   2.197   3.804   4.020
  407SOL    HW2 2121   2.163   3.653   3.969
  408SOL     OW 2122   2.489   2.478   2.417
  408SOL    HW1 2123   2.481   2.496   2.515
  408SOL    HW2 2124   2.463   2.560   2.366
  409SOL     OW 2125   0.429   2.594   2.535
  409SOL    HW1 2126   0.451   2.503   2.497
  409SOL    HW2 2127   0.428   2.661   2.461
  410SOL     OW 2128   1.916   3.159   1.735
  410SOL    HW1 2129   1.889   3.134   1.828
  410SOL    HW2 2130   2.009   3.128   1.717
  411SOL     OW 2131   6.961   1.836   0.439
  411SOL    HW1 2132   6.979   1.798   0.348
  411SOL    HW2 2133   0.024   1.825   0.496
  412SOL     OW 2134   1.715   5.153   2.678
  412SOL    HW1 2135   1.764   5.106   2.604
  412SOL    HW2 2136   1.667   5.232   2.641
  413SOL     OW 2137   6.088   4.419   2.032
  413SOL    HW1 2138   6.031   4.396   1.953
  413SOL    HW2 2139   6.171   4.465   2.001
  414SOL     OW 2140   2.244   6.612   3.199
  414SOL    HW1 2141   2.281   6.524   3.231
  414SOL    HW2 2142   2.172   6.642   3.261
  415SOL     OW 2143   5.780   2.130   0.006
  415SOL    HW1 2144   5.788   2.048   0.062
  415SOL    HW2 2145   5.855   2.193   0.027
  416SOL     OW 2146   5.624   2.912   6.167
  416SOL    HW1 2147   5.616   2.987   6.232
  416SOL    HW2 2148   5.605   2.946   6.075
  417SOL     OW 2149   2.163   2.609   5.509
  417SOL    HW1 2150   2.212   2.525   5.484
  417SOL    HW2 2151   2.225   2.672   5.556
  418SOL     OW 2152   3.441   6.166   6.068
  418SOL    HW1 2153   3.358   6.173   6.014
  418SOL    HW2 2154   3.465   6.256   6.104
  419SOL     OW 2155   5.646   0.687   0.116
  419SOL    HW1 2156   5.586   0.754   0.074
  419SOL    HW2 2157   5.709   0.733   0.179
  420SOL     OW 2158   3.269   6.840   0.972
  420SOL    HW1 2159   3.343   6.907   0.973
  420SOL    HW2 2160   3.307   6.748   0.976
  421SOL     OW 2161   4.730   4.225   2.625
  421SOL    HW1 2162   4.827   4.246   2.632
  421SOL    HW2 2163   4.698   4.246   2.532
  422SOL     OW 2164   4.073   1.844   1.699
  422SOL    HW1 2165   4.010   1.912   1.735
  422SOL    HW2 2166   4.160   1.850   1.747
  423SOL     OW 2167   3.219   0.739   6.212
  423SOL    HW1 2168   3.223   0.778   6.120
  423SOL    HW2 2169   3.301   0.763   6.263
  424SOL     OW 2170   1.718   3.761   4.257
  424SOL    HW1 2171   1.683   3.840   4.307
  424SOL    HW2 2172   1.814   3.777   4.232
  425SOL     OW 2173   3.152   1.434   0.184
  425SOL    HW1 2174   3.211   1.417   0.104
  425SOL    HW2 2175   3.115   1.526   0.179
  426SOL     OW 2176   2.161   2.099   3.975
  426SOL    HW1 2177   2.192   2.005   3.959
  426SOL    HW2 2178   2.232   2.163   3.946
  427SOL     OW 2179   4.577   1.353   3.678
  427SOL    HW1 2180   4.659   1.395   3.637
  427SOL    HW2 2181   4.574   1.374   3.775
  428SOL     OW 2182   2.160   2.048   6.550
  428SOL    HW1 2183   2.152   2.109   6.471
  428SOL    HW2 2184   2.071   2.008   6.571
  429SOL     OW 2185   0.136   6.376   3.597
  429SOL    HW1 2186   0.080   6.295   3.579
  429SOL    HW2 2187   0.231   6.357   3.574
  430SOL     OW 2188   2.242   1.087   3.757
  430SOL    HW1 2189   2.182   1.115   3.682
  430SOL    HW2 2190   2.271   0.993   3.744
  431SOL     OW 2191   2.793   1.123   1.565
  431SOL    HW1 2192   2.776   1.202   1.507
  431SOL    HW2 2193   2.842   1.151   1.648
  432SOL     OW 2194   4.777   2.057   1.344
  432SOL    HW1 2195   4.870   2.024   1.327
  432SOL    HW2 2196   4.773   2.101   1.434
  433SOL     OW 2197   1.927   4.361   0.358
  433SOL    HW1 2198   1.948   4.270   0.322
  433SOL    HW2 2199   1.899   4.421   0.282
  434SOL     OW 2200   4.314   5.461   2.713
  434SOL    HW1 2201   4.280   5.423   2.627
  434SOL    HW2 2202   4.237   5.491   2.769
  435SOL     OW 2203   3.394   2.488   6.102
  435SOL    HW1 2204   3.461   2.500   6.029
  435SOL    HW2 2205   3.386   2.390   6.124
  436SOL     OW 2206   5.495   6.213   2.114
  436SOL    HW1 2207   5.516   6.119   2.143
  436SOL    HW2 2208   5.486   6.272   2.194
  437SOL     OW 2209   6.924   0.983   4.919
  437SOL    HW1 2210   6.828   1.003   4.939
  437SOL    HW2 2211   6.930   0.916   4.844
  438SOL     OW 2212   1.027   4.283   2.318
  438SOL    HW1 2213   1.117   4.272   2.361
  438SOL    HW2 2214   1.037   4.334   2.233
  439SOL     OW 2215   0.206   0.750   6.051
  439SOL    HW1 2216   0.241   0.826   6.106
  439SOL    HW2 2217   0.272   0.675   6.054
  440SOL     OW 2218   3.910   2.348   1.023
  440SOL    HW1 2219   3.938   2.252   1.034
  440SOL    HW2 2220   3.897   2.389   1.113
  441SOL     OW 2221   0.214   4.896   2.391
  441SOL    HW1 2222   0.264   4.834   2.450
  441SOL    HW2 2223   0.225   4.868   2.296
  442SOL     OW 2224   3.342   3.161   5.057
  442SOL    HW1 2225   3.424   3.151   5.001
  442SOL    HW2 2226   3.366   3.152   5.153
  443SOL     OW 2227   4.661   2.580   3.173
  443SOL    HW1 2228   4.601   2.528   3.112
  443SOL    HW2 2229   4.715   2.516   3.229
  444SOL     OW 2230   4.470   2.326   1.648
  444SOL    HW1 2231   4.449   2.405   1.706
  444SOL    HW2 2232   4.405   2.253   1.666
  445SOL     OW 2233   2.544   5.559   2.861
  445SOL    HW1 2234   2.518   5.471   2.822
  445SOL    HW2 2235   2.462   5.616   2.872
  446SOL     OW 2236   6.278   0.060   1.236
  446SOL    HW1 2237   6.204   0.126   1.244
  446SOL    HW2 2238   6.365   0.108   1.227
  447SOL     OW 2239   5.909   4.002   0.115
  447SOL    HW1 2240   5.905   3.991   0.015
  447SOL    HW2 2241   5.860   4.085   0.142
  448SOL     OW 2242   3.554   6.299   3.976
  448SOL    HW1 2243   3.583   6.372   3.914
  448SOL    HW2 2244   3.521   6.339   4.062
  449SOL     OW 2245   0.693   4.036   4.656
  449SOL    HW1 2246   0.663   3.967   4.590
  449SOL    HW2 2247   0.641   4.025   4.741
  450SOL     OW 2248   6.943   4.251   2.811
  450SOL    HW1 2249   6.942   4.191   2.731
  450SOL    HW2 2250   0.019   4.282   2.828
  451SOL     OW 2251   1.781   2.094   6.976
  451SOL    HW1 2252   1.722   2.172   6.956
  451SOL    HW2 2253   1.761   2.060   0.049
  452SOL     OW 2254   4.446   5.662   1.896
  452SOL    HW1 2255   4.483   5.693   1.808
  452SOL    HW2 2256   4.347   5.668   1.895
  453SOL     OW 2257   4.822   0.478   0.235
  453SOL    HW1 2258   4.906   0.520   0.269
  453SOL    HW2 2259   4.822   0.380   0.258
  454SOL     OW 2260   6.865   3.275   4.248
  454SOL    HW1 2261   6.941   3.229   4.293
  454SOL    HW2 2262   6.804   3.207   4.207
  455SOL     OW 2263   5.388   5.292   6.874
  455SOL    HW1 2264   5.427   5.300   6.783
  455SOL    HW2 2265   5.452   5.242   6.933
  456SOL     OW 2266   1.999   0.899   3.174
  456SOL    HW1 2267   1.996   0.995   3.147
  456SOL    HW2 2268   2.023   0.842   3.096
  457SOL     OW 2269   2.955   5.697   0.237
  457SOL    HW1 2270   2.999   5.616   0.276
  457SOL    HW2 2271   3.009   5.779   0.260
  458SOL     OW 2272   3.773   1.335   3.464
  458SOL    HW1 2273   3.775   1.428   3.502
  458SOL    HW2 2274   3.864   1.312   3.428
  459SOL     OW 2275   2.810   1.164   3.040
  459SOL    HW1 2276   2.854   1.209   3.118
  459SOL    HW2 2277   2.710   1.167   3.052
  460SOL     OW 2278   0.749   1.397   6.807
  460SOL    HW1 2279   0.743   1.333   6.730
  460SOL    HW2 2280   0.763   1.489   6.772
  461SOL     OW 2281   1.140   6.748   5.541
  461SOL    HW1 2282   1.156   6.733   5.443
  461SOL    HW2 2283   1.201   6.820   5.574
  462SOL     OW 2284   3.623   4.164   4.889
  462SOL    HW1 2285   3.694   4.231   4.867
  462SOL    HW2 2286   3.628   4.141   4.986
  463SOL     OW 2287   5.195   6.217   2.898
  463SOL    HW1 2288   5.205   6.317   2.905
  463SOL    HW2 2289   5.283   6.177   2.874
  464SOL     OW 2290   4.233   6.033   5.023
  464SOL    HW1 2291   4.242   6.115   4.967
  464SOL    HW2 2292   4.215   6.059   5.118
  465SOL     OW 2293   6.976   4.701   0.101
  465SOL    HW1 2294   6.980   4.704   0.201
  465SOL    HW2 2295   6.912   4.771   0.068
  466SOL     OW 2296   3.910   4.831   4.257
  466SOL    HW1 2297   3.866   4.880   4.332
  466SOL    HW2 2298   4.006   4.814   4.280
  467SOL     OW 2299   6.871   6.908   1.727
  467SOL    HW1 2300   6.943   6.875   1.667
  467SOL    HW2 2301   6.883   6.869   1.818
  468SOL     OW 2302   2.190   5.873   6.303
  468SOL    HW1 2303   2.202   5.831   6.213
  468SOL    HW2 2304   2.136   5.812   6.361
  469SOL     OW 2305   3.293   4.404   5.364
  469SOL    HW1 2306   3.211   4.352   5.341
  469SOL    HW2 2307   3.316   4.467   5.290
  470SOL     OW 2308   2.208   5.071   2.423
  470SOL    HW1 2309   2.124   5.026   2.395
  470SOL    HW2 2310   2.237   5.036   2.512
  471SOL     OW 2311   1.477   2.125   3.644
  471SOL    HW1 2312   1.522   2.194   3.701
  471SOL    HW2 2313   1.530   2.040   3.649
  472SOL     OW 2314   5.399   4.197   6.380
  472SOL    HW1 2315   5.389   4.164   6.286
  472SOL    HW2 2316   5.437   4.289   6.379
  473SOL     OW 2317   5.331   2.940   2.594
  473SOL    HW1 2318   5.258   2.871   2.591
  473SOL    HW2 2319   5.416   2.897   2.624
  474SOL     OW 2320   4.916   5.581   3.327
  474SOL    HW1 2321   4.903   5.597   3.425
  474SOL    HW2 2322   4.907   5.484   3.308
  475SOL     OW 2323   5.169   1.472   0.488
  475SOL    HW1 2324   5.124   1.408   0.427
  475SOL    HW2 2325   5.104   1.503   0.558
  476SOL     OW 2326   1.032   3.516   0.231
  476SOL    HW1 2327   1.102   3.587   0.226
  476SOL    HW2 2328   0.994   3.500   0.140
  477SOL     OW 2329   6.416   5.157   3.379
  477SOL    HW1 2330   6.345   5.110   3.328
  477SOL    HW2 2331   6.405   5.139   3.477
  478SOL     OW 2332   6.208   5.279   2.383
  478SOL    HW1 2333   6.242   5.322   2.300
  478SOL    HW2 2334   6.249   5.324   2.463
  479SOL     OW 2335   2.980   3.709   3.030
  479SOL    HW1 2336   2.976   3.763   2.946
  479SOL    HW2 2337   3.043   3.753   3.095
  480SOL     OW 2338   0.659   0.815   1.844
  480SOL    HW1 2339   0.618   0.730   1.880
  480SOL    HW2 2340   0.649   0.887   1.912
  481SOL     OW 2341   5.718   5.987   0.913
  481SOL    HW1 2342   5.745   5.935   0.833
  481SOL    HW2 2343   5.772   5.959   0.992
  482SOL     OW 2344   3.917   5.122   2.604
  482SOL    HW1 2345   3.962   5.189   2.663
  482SOL    HW2 2346   3.892   5.042   2.658
  483SOL     OW 2347   6.369   0.503   3.938
  483SOL    HW1 2348   6.394   0.600   3.946
  483SOL    HW2 2349   6.340   0.483   3.845
  484SOL     OW 2350   1.910   4.772   3.170
  484SOL    HW1 2351   1.903   4.674   3.155
  484SOL    HW2 2352   1.903   4.820   3.082
  485SOL     OW 2353   4.567   2.500   0.609
  485SOL    HW1 2354   4.621   2.488   0.692
  485SOL    HW2 2355   4.629   2.514   0.531
  486SOL     OW 2356   6.204   6.419   5.513
  486SOL    HW1 2357   6.265   6.494   5.487
  486SOL    HW2 2358   6.214   6.401   5.611
  487SOL     OW 2359   0.010   0.933   6.841
  487SOL    HW1 2360   0.035   0.867   6.912
  487SOL    HW2 2361   6.966   0.890   6.776
  488SOL     OW 2362   1.936   5.784   3.073
  488SOL    HW1 2363   1.873   5.862   3.075
  488SOL    HW2 2364   2.027   5.814   3.102
  489SOL     OW 2365   3.072   4.622   5.373
  489SOL    HW1 2366   3.014   4.667   5.441
  489SOL    HW2 2367   3.015   4.568   5.311
  490SOL     OW 2368   1.671   3.345   4.900
  490SOL    HW1 2369   1.619   3.382   4.823
  490SOL    HW2 2370   1.736   3.277   4.867
  491SOL     OW 2371   6.064   3.312   1.252
  491SOL    HW1 2372   6.009   3.386   1.291
  491SOL    HW2 2373   6.066   3.321   1.153
  492SOL     OW 2374   1.361   2.237   5.723
  492SOL    HW1 2375   1.392   2.142   5.724
  492SOL    HW2 2376   1.297   2.250   5.648
  493SOL     OW 2377   1.962   5.619   3.862
  493SOL    HW1 2378   1.937   5.537   3.913
  493SOL    HW2 2379   1.883   5.650   3.810
  494SOL     OW 2380   2.711   0.233   3.962
  494SOL    HW1 2381   2.766   0.286   3.898
  494SOL    HW2 2382   2.626   0.282   3.981
  495SOL     OW 2383   3.585   4.601   6.953
  495SOL    HW1 2384   3.680   4.581   6.979
  495SOL    HW2 2385   3.579   4.607   6.853
  496SOL     OW 2386   5.209   1.079   3.015
  496SOL    HW1 2387   5.197   1.178   3.020
  496SOL    HW2 2388   5.119   1.034   3.015
  497SOL     OW 2389   4.653   2.732   0.931
  497SOL    HW1 2390   4.554   2.746   0.922
  497SOL    HW2 2391   4.701   2.786   0.862
  498SOL     OW 2392   0.600   6.980   0.915
  498SOL    HW1 2393   0.640   6.914   0.979
  498SOL    HW2 2394   0.672   0.020   0.877
  499SOL     OW 2395   2.928   6.612   0.328
  499SOL    HW1 2396   2.829   6.619   0.327
  499SOL    HW2 2397   2.956   6.536   0.386
  500SOL     OW 2398   5.889   1.802   6.190
  500SOL    HW1 2399   5.944   1.879   6.157
  500SOL    HW2 2400   5.797   1.834   6.212
  501SOL     OW 2401   1.598   1.861   4.239
  501SOL    HW1 2402   1.665   1.825   4.303
  501SOL    HW2 2403   1.533   1.920   4.287
  502SOL     OW 2404   2.492   3.441   6.792
  502SOL    HW1 2405   2.564   3.397   6.845
  502SOL    HW2 2406   2.528   3.466   6.702
  503SOL     OW 2407   3.388   4.873   1.013
  503SOL    HW1 2408   3.371   4.882   0.915
  503SOL    HW2 2409   3.482   4.841   1.028
  504SOL     OW 2410   6.713   6.923   6.998
  504SOL    HW1 2411   6.623   6.912   0.020
  504SOL    HW2 2412   6.723   7.015   6.962
  505SOL     OW 2413   6.491   3.956   5.669
  505SOL    HW1 2414   6.512   4.054   5.674
  505SOL    HW2 2415   6.513   3.913   5.757
  506SOL     OW 2416   2.970   5.426   2.903
  506SOL    HW1 2417   3.069   5.433   2.896
  506SOL    HW2 2418   2.943   5.331   2.913
  507SOL     OW 2419   3.376   0.204   2.964
  507SOL    HW1 2420   3.440   0.175   2.893
  507SOL    HW2 2421   3.332   0.289   2.936
  508SOL     OW 2422   0.465   5.298   3.700
  508SOL    HW1 2423   0.368   5.298   3.675
  508SOL    HW2 2424   0.482   5.226   3.768
  509SOL     OW 2425   4.424   0.424   5.886
  509SOL    HW1 2426   4.387   0.404   5.977
  509SOL    HW2 2427   4.509   0.373   5.873
  510SOL     OW 2428   6.558   4.523   6.757
  510SOL    HW1 2429   6.520   4.615   6.771
  510SOL    HW2 2430   6.657   4.526   6.772
  511SOL     OW 2431   0.954   0.993   0.152
  511SOL    HW1 2432   0.901   1.078   0.156
  511SOL    HW2 2433   0.973   0.970   0.056
  512SOL     OW 2434   0.586   1.844   4.408
  512SOL    HW1 2435   0.630   1.775   4.464
  512SOL    HW2 2436   0.538   1.910   4.467
  513SOL     OW 2437   5.830   6.154   2.931
  513SOL    HW1 2438   5.771   6.206   2.870
  513SOL    HW2 2439   5.774   6.102   2.996
  514SOL     OW 2440   4.678   1.590   4.398
  514SOL    HW1 2441   4.746   1.592   4.472
  514SOL    HW2 2442   4.717   1.633   4.317
  515SOL     OW 2443   3.349   1.089   0.222
  515SOL    HW1 2444   3.407   1.112   0.143
  515SOL    HW2 2445   3.402   1.035   0.287
  516SOL     OW 2446   1.246   6.017   1.954
  516SOL    HW1 2447   1.320   5.993   2.016
  516SOL    HW2 2448   1.230   6.116   1.956
  517SOL     OW 2449   3.474   4.848   1.418
  517SOL    HW1 2450   3.390   4.795   1.403
  517SOL    HW2 2451   3.489   4.860   1.516
  518SOL     OW 2452   2.485   6.267   3.862
  518SOL    HW1 2453   2.560   6.212   3.899
  518SOL    HW2 2454   2.498   6.363   3.887
  519SOL     OW 2455   6.491   0.249   2.583
  519SOL    HW1 2456   6.482   0.151   2.599
  519SOL    HW2 2457   6.587   0.276   2.595
  520SOL     OW 2458   2.164   5.645   0.883
  520SOL    HW1 2459   2.260   5.629   0.858
  520SOL    HW2 2460   2.151   5.626   0.980
  521SOL     OW 2461   6.436   6.147   5.635
  521SOL    HW1 2462   6.402   6.230   5.679
  521SOL    HW2 2463   6.412   6.149   5.538
  522SOL     OW 2464   4.023   4.578   6.825
  522SOL    HW1 2465   3.974   4.614   6.746
  522SOL    HW2 2466   3.959   4.571   6.902
  523SOL     OW 2467   1.955   6.960   5.958
  523SOL    HW1 2468   2.005   6.909   5.888
  523SOL    HW2 2469   1.906   0.018   5.916
  524SOL     OW 2470   6.832   0.859   0.784
  524SOL    HW1 2471   6.905   0.910   0.830
  524SOL    HW2 2472   6.756   0.847   0.848
  525SOL     OW 2473   0.820   3.687   3.483
  525SOL    HW1 2474   0.738   3.736   3.511
  525SOL    HW2 2475   0.901   3.740   3.506
  526SOL     OW 2476   3.498   6.746   4.916
  526SOL    HW1 2477   3.471   6.743   5.013
  526SOL    HW2 2478   3.416   6.759   4.860
  527SOL     OW 2479   0.029   0.978   0.940
  527SOL    HW1 2480   0.027   0.952   1.036
  527SOL    HW2 2481   0.113   0.943   0.898
  528SOL     OW 2482   6.898   1.638   4.562
  528SOL    HW1 2483   6.909   1.696   4.643
  528SOL    HW2 2484   6.802   1.608   4.555
  529SOL     OW 2485   1.456   1.216   5.981
  529SOL    HW1 2486   1.420   1.125   5.964
  529SOL    HW2 2487   1.546   1.209   6.025
  530SOL     OW 2488   3.373   4.579   1.571
  530SOL    HW1 2489   3.401   4.664   1.614
  530SOL    HW2 2490   3.444   4.509   1.585
  531SOL     OW 2491   0.664   0.936   6.190
  531SOL    HW1 2492   0.630   0.849   6.153
  531SOL    HW2 2493   0.732   0.974   6.127
  532SOL     OW 2494   3.106   0.648   6.759
  532SOL    HW1 2495   3.047   0.721   6.794
  532SOL    HW2 2496   3.111   0.574   6.825
  533SOL     OW 2497   4.554   6.920   4.790
  533SOL    HW1 2498   4.522   7.013   4.810
  533SOL    HW2 2499   4.519   6.891   4.701
  534SOL     OW 2500   1.835   4.363   1.848
  534SOL    HW1 2501   1.872   4.455   1.835
  534SOL    HW2 2502   1.904   4.305   1.891
  535SOL     OW 2503   4.725   4.150   4.593
  535SOL    HW1 2504   4.671   4.072   4.623
  535SOL    HW2 2505   4.805   4.118   4.541
  536SOL     OW 2506   6.521   6.507   1.062
  536SOL    HW1 2507   6.467   6.465   0.990
  536SOL    HW2 2508   6.612   6.464   1.065
  537SOL     OW 2509   2.775   1.896   2.386
  537SOL    HW1 2510   2.771   1.944   2.299
  537SOL    HW2 2511   2.691   1.844   2.400
  538SOL     OW 2512   4.276   4.500   5.341
  538SOL    HW1 2513   4.189   4.547   5.325
  538SOL    HW2 2514   4.309   4.460   5.256
  539SOL     OW 2515   2.400   0.242   6.646
  539SOL    HW1 2516   2.327   0.256   6.713
  539SOL    HW2 2517   2.454   0.325   6.637
  540SOL     OW 2518   2.195   1.282   4.987
  540SOL    HW1 2519   2.268   1.338   5.026
  540SOL    HW2 2520   2.112   1.336   4.977
  541SOL     OW 2521   5.069   6.443   3.232
  541SOL    HW1 2522   5.053   6.355   3.188
  541SOL    HW2 2523   5.001   6.458   3.304
  542SOL     OW 2524   3.637   6.251   5.612
  542SOL    HW1 2525   3.595   6.241   5.522
  542SOL    HW2 2526   3.567   6.241   5.683
  543SOL     OW 2527   6.406   2.359   4.541
  543SOL    HW1 2528   6.320   2.381   4.587
  543SOL    HW2 2529   6.451   2.443   4.511
  544SOL     OW 2530   0.933   3.009   0.995
  544SOL    HW1 2531   0.956   2.924   1.042
  544SOL    HW2 2532   1.012   3.041   0.943
  545SOL     OW 2533   6.721   5.088   0.424
  545SOL    HW1 2534   6.699   5.019   0.355
  545SOL    HW2 2535   6.654   5.083   0.498
  546SOL     OW 2536   0.001   4.702   2.027
  546SOL    HW1 2537   6.926   4.710   1.992
  546SOL    HW2 2538   0.005   4.736   2.121
  547SOL     OW 2539   4.201   0.176   6.801
  547SOL    HW1 2540   4.115   0.170   6.749
  547SOL    HW2 2541   4.212   0.269   6.835
  548SOL     OW 2542   4.069   2.543   0.110
  548SOL    HW1 2543   4.159   2.579   0.134
  548SOL    HW2 2544   4.050   2.562   0.014
  549SOL     OW 2545   5.494   2.463   3.707
  549SOL    HW1 2546   5.418   2.454   3.771
  549SOL    HW2 2547   5.567   2.399   3.731
  550SOL     OW 2548   6.625   5.518   3.537
  550SOL    HW1 2549   6.641   5.448   3.467
  550SOL    HW2 2550   6.536   5.561   3.520
  551SOL     OW 2551   5.237   0.414   0.153
  551SOL    HW1 2552   5.254   0.500   0.104
  551SOL    HW2 2553   5.282   0.419   0.242
  552SOL     OW 2554   0.365   0.169   4.851
  552SOL    HW1 2555   0.287   0.200   4.796
  552SOL    HW2 2556   0.344   0.081   4.894
  553SOL     OW 2557   3.359   2.347   5.698
  553SOL    HW1 2558   3.446   2.369   5.742
  553SOL    HW2 2559   3.371   2.268   5.637
  554SOL     OW 2560   6.542   5.554   0.413
  554SOL    HW1 2561   6.634   5.594   0.421
  554SOL    HW2 2562   6.502   5.544   0.504
  555SOL     OW 2563   2.725   4.534   6.253
  555SOL    HW1 2564   2.812   4.499   6.288
  555SOL    HW2 2565   2.662   4.548   6.330
  556SOL     OW 2566   6.206   6.315   2.025
  556SOL    HW1 2567   6.131   6.331   2.089
  556SOL    HW2 2568   6.174   6.327   1.931
  557SOL     OW 2569   5.523   3.559   6.081
  557SOL    HW1 2570   5.439   3.597   6.121
  557SOL    HW2 2571   5.532   3.591   5.987
  558SOL     OW 2572   3.359   3.726   2.144
  558SOL    HW1 2573   3.438   3.670   2.167
  558SOL    HW2 2574   3.278   3.690   2.189
  559SOL     OW 2575   6.221   1.260   6.469
  559SOL    HW1 2576   6.220   1.338   6.532
  559SOL    HW2 2577   6.223   1.293   6.375
  560SOL     OW 2578   0.349   2.364   3.596
  560SOL    HW1 2579   0.310   2.287   3.647
  560SOL    HW2 2580   0.428   2.332   3.543
  561SOL     OW 2581   0.335   3.837   0.054
  561SOL    HW1 2582   0.275   3.917   0.062
  561SOL    HW2 2583   0.404   3.854   7.003
  562SOL     OW 2584   4.408   6.503   3.588
  562SOL    HW1 2585   4.421   6.439   3.664
  562SOL    HW2 2586   4.457   6.588   3.608
  563SOL     OW 2587   1.149   1.160   3.840
  563SOL    HW1 2588   1.057   1.160   3.878
  563SOL    HW2 2589   1.209   1.216   3.898
  564SOL     OW 2590   5.715   1.993   5.471
  564SOL    HW1 2591   5.720   2.022   5.567
  564SOL    HW2 2592   5.730   1.894   5.465
  565SOL     OW 2593   2.863   3.449   3.746
  565SOL    HW1 2594   2.776   3.425   3.791
  565SOL    HW2 2595   2.880   3.547   3.756
  566SOL     OW 2596   2.239   2.556   3.627
  566SOL    HW1 2597   2.279   2.472   3.589
  566SOL    HW2 2598   2.309   2.604   3.680
  567SOL     OW 2599   1.862   3.354   5.334
  567SOL    HW1 2600   1.875   3.256   5.322
  567SOL    HW2 2601   1.950   3.398   5.351
  568SOL     OW 2602   1.150   6.954   6.947
  568SOL    HW1 2603   1.152   0.003   0.003
  568SOL    HW2 2604   1.206   6.875   6.972
  569SOL     OW 2605   5.165   3.485   5.942
  569SOL    HW1 2606   5.102   3.479   5.864
  569SOL    HW2 2607   5.222   3.566   5.934
  570SOL     OW 2608   3.877   0.729   6.269
  570SOL    HW1 2609   3.849   0.770   6.182
  570SOL    HW2 2610   3.795   0.705   6.322
  571SOL     OW 2611   2.461   4.493   1.781
  571SOL    HW1 2612   2.517   4.421   1.742
  571SOL    HW2 2613   2.489   4.512   1.875
  572SOL     OW 2614   3.252   1.065   4.189
  572SOL    HW1 2615   3.204   1.124   4.124
  572SOL    HW2 2616   3.198   1.055   4.272
  573SOL     OW 2617   0.514   0.865   5.313
  573SOL    HW1 2618   0.508   0.861   5.213
  573SOL    HW2 2619   0.566   0.786   5.346
  574SOL     OW 2620   2.018   1.031   6.250
  574SOL    HW1 2621   1.983   1.113   6.296
  574SOL    HW2 2622   2.013   1.043   6.151
  575SOL     OW 2623   3.849   3.699   0.388
  575SOL    HW1 2624   3.840   3.617   0.444
  575SOL    HW2 2625   3.893   3.771   0.442
  576SOL     OW 2626   0.964   1.099   3.094
  576SOL    HW1 2627   0.896   1.070   3.027
  576SOL    HW2 2628   0.918   1.122   3.180
  577SOL     OW 2629   0.319   0.141   2.008
  577SOL    HW1 2630   0.293   0.160   1.914
  577SOL    HW2 2631   0.338   0.227   2.055
  578SOL     OW 2632   4.286   6.763   0.065
  578SOL    HW1 2633   4.335   6.844   0.098
  578SOL    HW2 2634   4.211   6.791   0.006
  579SOL     OW 2635   0.863   4.149   1.919
  579SOL    HW1 2636   0.791   4.080   1.926
  579SOL    HW2 2637   0.858   4.211   1.997
  580SOL     OW 2638   4.720   5.183   4.536
  580SOL    HW1 2639   4.802   5.127   4.535
  580SOL    HW2 2640   4.639   5.124   4.540
  581SOL     OW 2641   1.796   2.557   4.153
  581SOL    HW1 2642   1.806   2.522   4.060
  581SOL    HW2 2643   1.735   2.635   4.153
  582SOL     OW 2644   5.525   4.281   5.342
  582SOL    HW1 2645   5.529   4.260   5.244
  582SOL    HW2 2646   5.453   4.349   5.357
  583SOL     OW 2647   3.195   6.118   5.708
  583SOL    HW1 2648   3.195   6.192   5.640
  583SOL    HW2 2649   3.216   6.031   5.662
  584SOL     OW 2650   3.916   0.895   4.787
  584SOL    HW1 2651   3.836   0.849   4.825
  584SOL    HW2 2652   3.999   0.849   4.818
  585SOL     OW 2653   3.609   6.690   1.515
  585SOL    HW1 2654   3.666   6.610   1.498
  585SOL    HW2 2655   3.514   6.662   1.526
  586SOL     OW 2656   3.600   0.178   0.436
  586SOL    HW1 2657   3.512   0.211   0.469
  586SOL    HW2 2658   3.600   0.174   0.336
  587SOL     OW 2659   5.021   1.617   2.601
  587SOL    HW1 2660   5.085   1.553   2.644
  587SOL    HW2 2661   5.030   1.611   2.502
  588SOL     OW 2662   2.364   4.361   2.920
  588SOL    HW1 2663   2.324   4.448   2.890
  588SOL    HW2 2664   2.356   4.293   2.847
  589SOL     OW 2665   3.429   5.081   0.341
  589SOL    HW1 2666   3.516   5.077   0.392
  589SOL    HW2 2667   3.386   5.170   0.356
  590SOL     OW 2668   2.647   2.094   6.381
  590SOL    HW1 2669   2.564   2.038   6.387
  590SOL    HW2 2670   2.666   2.116   6.285
  591SOL     OW 2671   2.377   6.749   3.654
  591SOL    HW1 2672   2.436   6.769   3.576
  591SOL    HW2 2673   2.383   6.824   3.720
  592SOL     OW 2674   4.861   2.620   4.937
  592SOL    HW1 2675   4.868   2.644   5.034
  592SOL    HW2 2676   4.766   2.627   4.907
  593SOL     OW 2677   2.041   0.864   6.694
  593SOL    HW1 2678   2.073   0.959   6.689
  593SOL    HW2 2679   1.990   0.850   6.778
  594SOL     OW 2680   3.679   1.093   4.136
  594SOL    HW1 2681   3.729   1.060   4.056
  594SOL    HW2 2682   3.734   1.161   4.184
  595SOL     OW 2683   6.287   3.925   2.184
  595SOL    HW1 2684   6.353   3.966   2.247
  595SOL    HW2 2685   6.335   3.891   2.103
  596SOL     OW 2686   5.744   4.602   4.360
  596SOL    HW1 2687   5.789   4.689   4.379
  596SOL    HW2 2688   5.763   4.574   4.266
  597SOL     OW 2689   3.059   1.869   6.761
  597SOL    HW1 2690   3.100   1.796   6.706
  597SOL    HW2 2691   3.053   1.953   6.707
  598SOL     OW 2692   3.221   3.432   3.271
  598SOL    HW1 2693   3.132   3.394   3.296
  598SOL    HW2 2694   3.254   3.389   3.187
  599SOL     OW 2695   1.918   4.987   1.204
  599SOL    HW1 2696   1.940   4.937   1.120
  599SOL    HW2 2697   2.001   5.028   1.241
  600SOL     OW 2698   0.260   3.833   4.918
  600SOL    HW1 2699   0.281   3.922   4.878
  600SOL    HW2 2700   0.342   3.777   4.919
  601SOL     OW 2701   0.286   6.721   6.015
  601SOL    HW1 2702   0.285   6.622   6.029
  601SOL    HW2 2703   0.368   6.748   5.965
  602SOL     OW 2704   1.376   1.364   3.521
  602SOL    HW1 2705   1.353   1.306   3.599
  602SOL    HW2 2706   1.381   1.309   3.438
  603SOL     OW 2707   1.574   1.750   3.938
  603SOL    HW1 2708   1.648   1.816   3.922
  603SOL    HW2 2709   1.545   1.755   4.034
  604SOL     OW 2710   5.340   2.700   1.017
  604SOL    HW1 2711   5.246   2.731   1.031
  604SOL    HW2 2712   5.351   2.609   1.058
  605SOL     OW 2713   5.772   6.280   1.257
  605SOL    HW1 2714   5.826   6.211   1.305
  605SOL    HW2 2715   5.695   6.236   1.210
  606SOL     OW 2716   3.396   6.375   4.987
  606SOL    HW1 2717   3.489   6.410   4.989
  606SOL    HW2 2718   3.338   6.437   4.933
  607SOL     OW 2719   1.601   2.770   6.012
  607SOL    HW1 2720   1.661   2.723   5.947
  607SOL    HW2 2721   1.517   2.798   5.966
  608SOL     OW 2722   3.328   1.373   6.948
  608SOL    HW1 2723   3.248   1.378   6.889
  608SOL    HW2 2724   3.367   1.281   6.944
  609SOL     OW 2725   3.664   3.189   2.193
  609SOL    HW1 2726   3.710   3.105   2.222
  609SOL    HW2 2727   3.565   3.179   2.202
  610SOL     OW 2728   4.872   3.443   1.940
  610SOL    HW1 2729   4.818   3.415   1.861
  610SOL    HW2 2730   4.847   3.537   1.966
  611SOL     OW 2731   3.801   1.146   2.301
  611SOL    HW1 2732   3.766   1.082   2.369
  611SOL    HW2 2733   3.724   1.188   2.252
  612SOL     OW 2734   4.776   4.574   4.273
  612SOL    HW1 2735   4.827   4.556   4.189
  612SOL    HW2 2736   4.840   4.582   4.349
  613SOL     OW 2737   3.934   5.243   6.376
  613SOL    HW1 2738   3.908   5.209   6.285
  613SOL    HW2 2739   3.997   5.320   6.366
  614SOL     OW 2740   3.144   6.682   6.650
  614SOL    HW1 2741   3.228   6.666   6.597
  614SOL    HW2 2742   3.080   6.737   6.595
  615SOL     OW 2743   0.021   5.021   2.992
  615SOL    HW1 2744   0.049   5.095   3.053
  615SOL    HW2 2745   6.966   5.054   2.932
  616SOL     OW 2746   6.341   2.941   4.025
  616SOL    HW1 2747   6.289   2.933   4.110
  616SOL    HW2 2748   6.279   2.963   3.950
  617SOL     OW 2749   2.545   0.398   5.838
  617SOL    HW1 2750   2.462   0.435   5.879
  617SOL    HW2 2751   2.613   0.381   5.909
  618SOL     OW 2752   1.996   0.850   3.886
  618SOL    HW1 2753   1.987   0.756   3.852
  618SOL    HW2 2754   2.084   0.859   3.933
  619SOL     OW 2755   1.043   2.295   6.979
  619SOL    HW1 2756   1.080   2.210   7.017
  619SOL    HW2 2757   0.961   2.321   0.011
  620SOL     OW 2758   4.906   3.616   0.502
  620SOL    HW1 2759   4.863   3.618   0.592
  620SOL    HW2 2760   4.981   3.681   0.500
  621SOL     OW 2761   0.026   5.609   0.756
  621SOL    HW1 2762   6.952   5.596   0.718
  621SOL    HW2 2763   0.021   5.606   0.855
  622SOL     OW 2764   0.359   0.889   0.148
  622SOL    HW1 2765   0.403   0.945   0.078
  622SOL    HW2 2766   0.418   0.881   0.228
  623SOL     OW 2767   0.366   4.828   5.168
  623SOL    HW1 2768   0.300   4.778   5.223
  623SOL    HW2 2769   0.325   4.853   5.081
  624SOL     OW 2770   0.528   1.626   1.250
  624SOL    HW1 2771   0.603   1.659   1.308
  624SOL    HW2 2772   0.536   1.528   1.237
  625SOL     OW 2773   1.629   1.334   2.582
  625SOL    HW1 2774   1.618   1.257   2.520
  625SOL    HW2 2775   1.696   1.310   2.653
  626SOL     OW 2776   3.165   5.729   5.025
  626SOL    HW1 2777   3.171   5.629   5.029
  626SOL    HW2 2778   3.178   5.759   4.930
  627SOL     OW 2779   4.824   6.381   6.711
  627SOL    HW1 2780   4.901   6.342   6.661
  627SOL    HW2 2781   4.855   6.413   6.800
  628SOL     OW 2782   5.913   4.186   2.879
  628SOL    HW1 2783   5.888   4.090   2.875
  628SOL    HW2 2784   6.012   4.195   2.892
  629SOL     OW 2785   1.443   0.436   1.002
  629SOL    HW1 2786   1.481   0.353   0.961
  629SOL    HW2 2787   1.439   0.508   0.934
  630SOL     OW 2788   2.805   1.328   1.358
  630SOL    HW1 2789   2.875   1.299   1.293
  630SOL    HW2 2790   2.725   1.361   1.308
  631SOL     OW 2791   2.861   0.742   4.431
  631SOL    HW1 2792   2.928   0.690   4.378
  631SOL    HW2 2793   2.796   0.680   4.472
  632SOL     OW 2794   2.966   0.674   0.769
  632SOL    HW1 2795   3.012   0.591   0.738
  632SOL    HW2 2796   3.002   0.701   0.858
  633SOL     OW 2797   2.349   0.194   5.332
  633SOL    HW1 2798   2.329   0.255   5.409
  633SOL    HW2 2799   2.289   0.114   5.336
  634SOL     OW 2800   2.529   6.014   1.833
  634SOL    HW1 2801   2.593   6.065   1.892
  634SOL    HW2 2802   2.579   5.971   1.759
  635SOL     OW 2803   3.198   6.893   3.075
  635SOL    HW1 2804   3.286   6.932   3.101
  635SOL    HW2 2805   3.147   6.959   3.020
  636SOL     OW 2806   4.679   5.375   6.338
  636SOL    HW1 2807   4.734   5.306   6.292
  636SOL    HW2 2808   4.696   5.373   6.436
  637SOL     OW 2809   5.693   5.248   6.540
  637SOL    HW1 2810   5.730   5.261   6.448
  637SOL    HW2 2811   5.743   5.173   6.585
  638SOL     OW 2812   5.477   1.898   3.420
  638SOL    HW1 2813   5.430   1.836   3.357
  638SOL    HW2 2814   5.576   1.889   3.407
  639SOL     OW 2815   4.700   3.670   1.732
  639SOL    HW1 2816   4.691   3.575   1.702
  639SOL    HW2 2817   4.642   3.728   1.676
  640SOL     OW 2818   2.403   3.212   5.361
  640SOL    HW1 2819   2.459   3.286   5.397
  640SOL    HW2 2820   2.460   3.150   5.306
  641SOL     OW 2821   6.964   5.792   4.966
  641SOL    HW1 2822   6.878   5.828   4.931
  641SOL    HW2 2823   6.956   5.776   5.064
  642SOL     OW 2824   1.611   4.481   6.354
  642SOL    HW1 2825   1.642   4.551   6.289
  642SOL    HW2 2826   1.528   4.438   6.319
  643SOL     OW 2827   5.925   6.014   4.837
  643SOL    HW1 2828   5.975   5.929   4.819
  643SOL    HW2 2829   5.930   6.074   4.757
  644SOL     OW 2830   2.281   6.542   1.456
  644SOL    HW1 2831   2.371   6.501   1.475
  644SOL    HW2 2832   2.291   6.615   1.389
  645SOL     OW 2833   0.344   2.750   3.119
  645SOL    HW1 2834   0.369   2.788   3.030
  645SOL    HW2 2835   0.284   2.813   3.168
  646SOL     OW 2836   1.344   3.262   4.707
  646SOL    HW1 2837   1.276   3.202   4.665
  646SOL    HW2 2838   1.303   3.351   4.724
  647SOL     OW 2839   5.404   3.394   0.601
  647SOL    HW1 2840   5.431   3.417   0.508
  647SOL    HW2 2841   5.479   3.417   0.664
  648SOL     OW 2842   4.530   2.342   4.269
  648SOL    HW1 2843   4.506   2.246   4.256
  648SOL    HW2 2844   4.506   2.370   4.362
  649SOL     OW 2845   4.574   4.481   1.764
  649SOL    HW1 2846   4.529   4.449   1.681
  649SOL    HW2 2847   4.554   4.418   1.839
  650SOL     OW 2848   5.219   4.930   0.735
  650SOL    HW1 2849   5.287   4.948   0.664
  650SOL    HW2 2850   5.260   4.947   0.825
  651SOL     OW 2851   1.301   5.799   6.488
  651SOL    HW1 2852   1.218   5.749   6.463
  651SOL    HW2 2853   1.353   5.822   6.406
  652SOL     OW 2854   4.883   1.944   2.432
  652SOL    HW1 2855   4.820   1.871   2.406
  652SOL    HW2 2856   4.847   1.993   2.511
  653SOL     OW 2857   3.657   4.971   2.909
  653SOL    HW1 2858   3.713   4.906   2.961
  653SOL    HW2 2859   3.675   4.959   2.812
  654SOL     OW 2860   6.775   5.278   6.374
  654SOL    HW1 2861   6.697   5.291   6.436
  654SOL    HW2 2862   6.768   5.342   6.298
  655SOL     OW 2863   0.987   1.816   6.961
  655SOL    HW1 2864   1.072   1.789   6.916
  655SOL    HW2 2865   0.999   1.905   7.005
  656SOL     OW 2866   1.945   6.219   1.220
  656SOL    HW1 2867   1.934   6.146   1.153
  656SOL    HW2 2868   1.855   6.250   1.251
  657SOL     OW 2869   4.137   0.746   0.070
  657SOL    HW1 2870   4.226   0.784   0.094
  657SOL    HW2 2871   4.098   0.798   7.012
  658SOL     OW 2872   3.688   5.450   6.759
  658SOL    HW1 2873   3.588   5.461   6.756
  658SOL    HW2 2874   3.731   5.532   6.723
  659SOL     OW 2875   3.715   0.508   5.895
  659SOL    HW1 2876   3.803   0.474   5.927
  659SOL    HW2 2877   3.714   0.608   5.900
  660SOL     OW 2878   3.906   6.029   3.252
  660SOL    HW1 2879   3.917   6.112   3.198
  660SOL    HW2 2880   3.902   6.053   3.349
  661SOL     OW 2881   5.769   4.926   2.669
  661SOL    HW1 2882   5.843   4.919   2.736
  661SOL    HW2 2883   5.681   4.936   2.717
  662SOL     OW 2884   4.175   1.518   0.248
  662SOL    HW1 2885   4.215   1.527   0.339
  662SOL    HW2 2886   4.248   1.499   0.182
  663SOL     OW 2887   1.442   4.026   4.627
  663SOL    HW1 2888   1.352   4.008   4.587
  663SOL    HW2 2889   1.464   4.123   4.618
  664SOL     OW 2890   5.980   0.314   6.088
  664SOL    HW1 2891   6.051   0.252   6.054
  664SOL    HW2 2892   5.907   0.321   6.020
  665SOL     OW 2893   0.830   4.386   1.487
  665SOL    HW1 2894   0.914   4.434   1.513
  665SOL    HW2 2895   0.844   4.342   1.398
  666SOL     OW 2896   4.576   1.279   1.959
  666SOL    HW1 2897   4.552   1.275   1.862
  666SOL    HW2 2898   4.506   1.232   2.013
  667SOL     OW 2899   0.903   0.063   2.351
  667SOL    HW1 2900   0.977   0.082   2.287
  667SOL    HW2 2901   0.852   0.147   2.369
  668SOL     OW 2902   5.902   3.359   6.964
  668SOL    HW1 2903   5.821   3.378   0.001
  668SOL    HW2 2904   5.932   3.265   6.979
  669SOL     OW 2905   5.317   1.722   3.273
  669SOL    HW1 2906   5.288   1.745   3.180
  669SOL    HW2 2907   5.335   1.624   3.280
  670SOL     OW 2908   3.802   2.112   2.405
  670SOL    HW1 2909   3.786   2.015   2.423
  670SOL    HW2 2910   3.715   2.156   2.382
  671SOL     OW 2911   2.066   6.260   2.328
  671SOL    HW1 2912   2.144   6.314   2.296
  671SOL    HW2 2913   1.981   6.307   2.303
  672SOL     OW 2914   0.667   0.175   1.854
  672SOL    HW1 2915   0.584   0.153   1.802
  672SOL    HW2 2916   0.723   0.092   1.864
  673SOL     OW 2917   6.044   6.603   6.577
  673SOL    HW1 2918   6.140   6.603   6.551
  673SOL    HW2 2919   6.035   6.619   6.675
  674SOL     OW 2920   5.270   0.255   4.080
  674SOL    HW1 2921   5.245   0.308   3.999
  674SOL    HW2 2922   5.187   0.215   4.120
  675SOL     OW 2923   0.401   3.858   2.473
  675SOL    HW1 2924   0.388   3.762   2.498
  675SOL    HW2 2925   0.487   3.891   2.513
  676SOL     OW 2926   2.803   6.016   6.783
  676SOL    HW1 2927   2.714   6.061   6.793
  676SOL    HW2 2928   2.872   6.084   6.759
  677SOL     OW 2929   5.928   1.429   1.237
  677SOL    HW1 2930   5.972   1.478   1.162
  677SOL    HW2 2931   5.923   1.332   1.215
  678SOL     OW 2932   1.115   5.323   4.063
  678SOL    HW1 2933   1.181   5.341   3.990
  678SOL    HW2 2934   1.025   5.307   4.023
  679SOL     OW 2935   4.670   1.790   5.174
  679SOL    HW1 2936   4.757   1.771   5.128
  679SOL    HW2 2937   4.670   1.746   5.264
  680SOL     OW 2938   6.169   6.553   3.791
  680SOL    HW1 2939   6.104   6.479   3.811
  680SOL    HW2 2940   6.119   6.635   3.766
  681SOL     OW 2941   4.572   4.761   2.831
  681SOL    HW1 2942   4.516   4.844   2.825
  681SOL    HW2 2943   4.614   4.742   2.742
  682SOL     OW 2944   7.013   1.791   3.082
  682SOL    HW1 2945   6.947   1.788   3.006
  682SOL    HW2 2946   0.087   1.788   3.045
  683SOL     OW 2947   3.350   4.185   0.699
  683SOL    HW1 2948   3.278   4.120   0.678
  683SOL    HW2 2949   3.357   4.197   0.798
  684SOL     OW 2950   6.368   1.442   5.748
  684SOL    HW1 2951   6.328   1.397   5.827
  684SOL    HW2 2952   6.417   1.375   5.692
  685SOL     OW 2953   3.050   6.677   2.940
  685SOL    HW1 2954   3.042   6.592   2.992
  685SOL    HW2 2955   3.102   6.744   2.994
  686SOL     OW 2956   4.064   0.597   5.358
  686SOL    HW1 2957   4.016   0.555   5.281
  686SOL    HW2 2958   4.058   0.537   5.437
  687SOL     OW 2959   0.185   1.210   4.467
  687SOL    HW1 2960   0.162   1.307   4.474
  687SOL    HW2 2961   0.119   1.156   4.519
  688SOL     OW 2962   5.806   2.078   0.329
  688SOL    HW1 2963   5.709   2.060   0.344
  688SOL    HW2 2964   5.825   2.175   0.343
  689SOL     OW 2965   1.980   5.558   0.138
  689SOL    HW1 2966   1.922   5.488   0.096
  689SOL    HW2 2967   2.074   5.547   0.107
  690SOL     OW 2968   5.596   3.656   3.569
  690SOL    HW1 2969   5.691   3.665   3.542
  690SOL    HW2 2970   5.590   3.646   3.669
  691SOL     OW 2971   5.690   1.177   1.556
  691SOL    HW1 2972   5.784   1.143   1.550
  691SOL    HW2 2973   5.669   1.203   1.650
  692SOL     OW 2974   1.519   1.333   3.804
  692SOL    HW1 2975   1.522   1.348   3.903
  692SOL    HW2 2976   1.583   1.395   3.760
  693SOL     OW 2977   5.798   4.755   3.278
  693SOL    HW1 2978   5.882   4.808   3.279
  693SOL    HW2 2979   5.808   4.675   3.337
  694SOL     OW 2980   3.983   5.656   4.248
  694SOL    HW1 2981   3.920   5.723   4.210
  694SOL    HW2 2982   4.008   5.590   4.177
  695SOL     OW 2983   4.874   6.606   3.765
  695SOL    HW1 2984   4.973   6.613   3.782
  695SOL    HW2 2985   4.824   6.621   3.850
  696SOL     OW 2986   5.898   4.022   2.124
  696SOL    HW1 2987   5.798   4.017   2.117
  696SOL    HW2 2988   5.937   3.931   2.115
  697SOL     OW 2989   0.357   6.472   2.878
  697SOL    HW1 2990   0.337   6.378   2.905
  697SOL    HW2 2991   0.413   6.516   2.948
  698SOL     OW 2992   5.459   6.348   6.140
  698SOL    HW1 2993   5.360   6.340   6.129
  698SOL    HW2 2994   5.505   6.284   6.079
  699SOL     OW 2995   4.181   3.987   0.687
  699SOL    HW1 2996   4.227   4.067   0.648
  699SOL    HW2 2997   4.202   3.981   0.785
  700SOL     OW 2998   3.621   6.558   5.289
  700SOL    HW1 2999   3.692   6.492   5.315
  700SOL    HW2 3000   3.655   6.617   5.216
  701SOL     OW 3001   4.845   5.017   1.803
  701SOL    HW1 3002   4.767   5.061   1.847
  701SOL    HW2 3003   4.837   5.029   1.703
  702SOL     OW 3004   4.258   0.385   4.859
  702SOL    HW1 3005   4.216   0.458   4.805
  702SOL    HW2 3006   4.261   0.413   4.955
  703SOL     OW 3007   3.373   3.144   6.973
  703SOL    HW1 3008   3.471   3.158   6.992
  703SOL    HW2 3009   3.341   3.217   6.912
  704SOL     OW 3010   3.522   1.094   6.067
  704SOL    HW1 3011   3.499   1.190   6.054
  704SOL    HW2 3012   3.465   1.037   6.008
  705SOL     OW 3013   0.122   6.478   5.942
  705SOL    HW1 3014   0.106   6.380   5.956
  705SOL    HW2 3015   0.208   6.490   5.891
  706SOL     OW 3016   3.481   0.811   4.758
  706SOL    HW1 3017   3.511   0.764   4.675
  706SOL    HW2 3018   3.399   0.865   4.739
  707SOL     OW 3019   3.335   5.331   4.402
  707SOL    HW1 3020   3.359   5.329   4.304
  707SOL    HW2 3021   3.336   5.238   4.438
  708SOL     OW 3022   3.440   5.875   3.790
  708SOL    HW1 3023   3.538   5.855   3.785
  708SOL    HW2 3024   3.427   5.973   3.799
  709SOL     OW 3025   2.506   0.130   1.833
  709SOL    HW1 3026   2.579   0.081   1.786
  709SOL    HW2 3027   2.451   0.066   1.886
  710SOL     OW 3028   5.004   3.783   2.723
  710SOL    HW1 3029   4.964   3.795   2.814
  710SOL    HW2 3030   4.949   3.830   2.655
  711SOL     OW 3031   0.759   1.733   0.559
  711SOL    HW1 3032   0.693   1.733   0.634
  711SOL    HW2 3033   0.784   1.827   0.537
  712SOL     OW 3034   5.449   3.869   6.813
  712SOL    HW1 3035   5.356   3.839   6.839
  712SOL    HW2 3036   5.448   3.901   6.719
  713SOL     OW 3037   4.176   3.187   6.116
  713SOL    HW1 3038   4.194   3.191   6.215
  713SOL    HW2 3039   4.161   3.279   6.081
  714SOL     OW 3040   5.029   6.606   2.975
  714SOL    HW1 3041   4.996   6.569   3.062
  714SOL    HW2 3042   4.963   6.674   2.942
  715SOL     OW 3043   5.786   4.946   4.807
  715SOL    HW1 3044   5.884   4.966   4.805
  715SOL    HW2 3045   5.755   4.944   4.902
  716SOL     OW 3046   3.203   2.105   3.747
  716SOL    HW1 3047   3.215   2.189   3.695
  716SOL    HW2 3048   3.220   2.026   3.687
  717SOL     OW 3049   5.104   5.337   3.572
  717SOL    HW1 3050   5.143   5.283   3.498
  717SOL    HW2 3051   5.053   5.278   3.634
  718SOL     OW 3052   6.069   2.081   5.211
  718SOL    HW1 3053   6.009   2.003   5.225
  718SOL    HW2 3054   6.063   2.112   5.116
  719SOL     OW 3055   4.552   6.270   2.933
  719SOL    HW1 3056   4.464   6.296   2.972
  719SOL    HW2 3057   4.552   6.173   2.911
  720SOL     OW 3058   3.014   1.462   1.483
  720SOL    HW1 3059   3.019   1.418   1.573
  720SOL    HW2 3060   2.944   1.418   1.428
  721SOL     OW 3061   6.685   3.097   1.926
  721SOL    HW1 3062   6.678   3.118   1.829
  721SOL    HW2 3063   6.714   3.002   1.937
  722SOL     OW 3064   5.214   6.327   1.437
  722SOL    HW1 3065   5.165   6.378   1.367
  722SOL    HW2 3066   5.236   6.236   1.403
  723SOL     OW 3067   2.378   1.028   4.332
  723SOL    HW1 3068   2.350   1.028   4.236
  723SOL    HW2 3069   2.437   1.107   4.349
  724SOL     OW 3070   1.178   2.652   4.253
  724SOL    HW1 3071   1.099   2.599   4.283
  724SOL    HW2 3072   1.151   2.715   4.180
  725SOL     OW 3073   1.528   4.458   2.867
  725SOL    HW1 3074   1.568   4.422   2.951
  725SOL    HW2 3075   1.473   4.539   2.888
  726SOL     OW 3076   2.184   3.973   0.407
  726SOL    HW1 3077   2.216   3.888   0.364
  726SOL    HW2 3078   2.153   3.954   0.500
  727SOL     OW 3079   3.396   5.510   4.872
  727SOL    HW1 3080   3.474   5.561   4.836
  727SOL    HW2 3081   3.428   5.438   4.933
  728SOL     OW 3082   6.774   3.087   3.797
  728SOL    HW1 3083   6.694   3.065   3.852
  728SOL    HW2 3084   6.839   3.011   3.801
  729SOL     OW 3085   0.774   4.510   0.591
  729SOL    HW1 3086   0.681   4.533   0.619
  729SOL    HW2 3087   0.796   4.558   0.506
  730SOL     OW 3088   4.614   1.593   3.282
  730SOL    HW1 3089   4.667   1.675   3.259
  730SOL    HW2 3090   4.555   1.570   3.205
  731SOL     OW 3091   4.627   4.725   4.463
  731SOL    HW1 3092   4.706   4.754   4.516
  731SOL    HW2 3093   4.655   4.659   4.393
  732SOL     OW 3094   4.100   0.492   4.158
  732SOL    HW1 3095   4.116   0.589   4.178
  732SOL    HW2 3096   4.098   0.440   4.243
  733SOL     OW 3097   6.462   5.109   3.883
  733SOL    HW1 3098   6.399   5.186   3.868
  733SOL    HW2 3099   6.530   5.107   3.810
  734SOL     OW 3100   6.121   6.771   2.782
  734SOL    HW1 3101   6.171   6.700   2.733
  734SOL    HW2 3102   6.086   6.838   2.717
  735SOL     OW 3103   3.918   0.340   2.449
  735SOL    HW1 3104   3.978   0.362   2.372
  735SOL    HW2 3105   3.884   0.424   2.491
  736SOL     OW 3106   1.855   1.838   3.456
  736SOL    HW1 3107   1.844   1.897   3.376
  736SOL    HW2 3108   1.889   1.893   3.533
  737SOL     OW 3109   3.284   0.994   5.957
  737SOL    HW1 3110   3.236   0.907   5.954
  737SOL    HW2 3111   3.220   1.068   5.935
  738SOL     OW 3112   1.689   4.869   0.212
  738SOL    HW1 3113   1.592   4.888   0.224
  738SOL    HW2 3114   1.717   4.894   0.119
  739SOL     OW 3115   1.474   0.317   3.685
  739SOL    HW1 3116   1.484   0.382   3.610
  739SOL    HW2 3117   1.485   0.364   3.772
  740SOL     OW 3118   5.121   3.346   3.398
  740SOL    HW1 3119   5.199   3.329   3.337
  740SOL    HW2 3120   5.156   3.371   3.489
  741SOL     OW 3121   3.032   1.044   2.914
  741SOL    HW1 3122   3.069   1.123   2.864
  741SOL    HW2 3123   2.948   1.072   2.961
  742SOL     OW 3124   1.633   6.989   2.192
  742SOL    HW1 3125   1.564   0.007   2.255
  742SOL    HW2 3126   1.715   0.028   2.195
  743SOL     OW 3127   0.337   6.082   3.147
  743SOL    HW1 3128   0.298   6.143   3.078
  743SOL    HW2 3129   0.268   6.058   3.215
  744SOL     OW 3130   4.804   1.510   0.961
  744SOL    HW1 3131   4.861   1.529   1.041
  744SOL    HW2 3132   4.814   1.585   0.896
  745SOL     OW 3133   2.181   6.553   5.155
  745SOL    HW1 3134   2.232   6.620   5.100
  745SOL    HW2 3135   2.168   6.469   5.102
  746SOL     OW 3136   6.939   5.024   4.886
  746SOL    HW1 3137   6.844   5.046   4.864
  746SOL    HW2 3138   6.973   4.955   4.821
  747SOL     OW 3139   4.442   5.308   2.898
  747SOL    HW1 3140   4.384   5.310   2.817
  747SOL    HW2 3141   4.508   5.383   2.894
  748SOL     OW 3142   5.877   4.531   1.292
  748SOL    HW1 3143   5.874   4.436   1.323
  748SOL    HW2 3144   5.925   4.536   1.204
  749SOL     OW 3145   4.815   4.561   5.493
  749SOL    HW1 3146   4.735   4.587   5.438
  749SOL    HW2 3147   4.800   4.470   5.532
  750SOL     OW 3148   2.229   1.993   3.061
  750SOL    HW1 3149   2.157   1.977   2.992
  750SOL    HW2 3150   2.318   1.995   3.016
  751SOL     OW 3151   3.736   0.902   0.554
  751SOL    HW1 3152   3.733   0.805   0.531
  751SOL    HW2 3153   3.811   0.946   0.503
  752SOL     OW 3154   3.556   2.843   4.875
  752SOL    HW1 3155   3.559   2.920   4.939
  752SOL    HW2 3156   3.546   2.758   4.927
  753SOL     OW 3157   3.873   4.004   3.779
  753SOL    HW1 3158   3.961   4.049   3.766
  753SOL    HW2 3159   3.851   3.951   3.697
  754SOL     OW 3160   4.945   0.194   6.742
  754SOL    HW1 3161   5.041   0.184   6.716
  754SOL    HW2 3162   4.924   0.291   6.754
  755SOL     OW 3163   4.579   4.630   5.081
  755SOL    HW1 3164   4.576   4.596   5.175
  755SOL    HW2 3165   4.496   4.602   5.033
  756SOL     OW 3166   3.089   5.243   6.208
  756SOL    HW1 3167   3.078   5.314   6.277
  756SOL    HW2 3168   3.019   5.173   6.220
  757SOL     OW 3169   1.379   6.985   2.047
  757SOL    HW1 3170   1.474   6.999   2.075
  757SOL    HW2 3171   1.359   6.887   2.042
  758SOL     OW 3172   4.162   1.346   4.038
  758SOL    HW1 3173   4.126   1.253   4.050
  758SOL    HW2 3174   4.173   1.389   4.127
  759SOL     OW 3175   6.919   3.490   4.076
  759SOL    HW1 3176   6.923   3.410   4.135
  759SOL    HW2 3177   6.983   3.479   4.000
  760SOL     OW 3178   6.360   5.662   3.744
  760SOL    HW1 3179   6.261   5.649   3.750
  760SOL    HW2 3180   6.384   5.687   3.650
  761SOL     OW 3181   4.811   4.961   6.061
  761SOL    HW1 3182   4.797   4.888   6.127
  761SOL    HW2 3183   4.778   4.931   5.971
  762SOL     OW 3184   3.723   5.402   3.972
  762SOL    HW1 3185   3.679   5.331   3.918
  762SOL    HW2 3186   3.765   5.360   4.053
  763SOL     OW 3187   5.480   0.506   0.611
  763SOL    HW1 3188   5.442   0.591   0.648
  763SOL    HW2 3189   5.533   0.459   0.682
  764SOL     OW 3190   5.134   6.484   5.223
  764SOL    HW1 3191   5.155   6.412   5.289
  764SOL    HW2 3192   5.217   6.533   5.199
  765SOL     OW 3193   5.589   6.018   0.636
  765SOL    HW1 3194   5.647   5.948   0.596
  765SOL    HW2 3195   5.603   6.021   0.734
  766SOL     OW 3196   2.421   2.026   4.326
  766SOL    HW1 3197   2.393   1.934   4.351
  766SOL    HW2 3198   2.413   2.039   4.227
  767SOL     OW 3199   6.706   5.895   3.791
  767SOL    HW1 3200   6.788   5.849   3.826
  767SOL    HW2 3201   6.733   5.975   3.738
  768SOL     OW 3202   2.207   5.713   2.194
  768SOL    HW1 3203   2.122   5.662   2.201
  768SOL    HW2 3204   2.228   5.731   2.098
  769SOL     OW 3205   3.322   1.762   5.077
  769SOL    HW1 3206   3.252   1.693   5.097
  769SOL    HW2 3207   3.340   1.817   5.159
  770SOL     OW 3208   1.298   4.979   5.618
  770SOL    HW1 3209   1.241   4.954   5.697
  770SOL    HW2 3210   1.251   4.952   5.534
  771SOL     OW 3211   1.182   4.946   2.060
  771SOL    HW1 3212   1.186   4.846   2.050
  771SOL    HW2 3213   1.158   4.968   2.155
  772SOL     OW 3214   5.801   5.114   0.579
  772SOL    HW1 3215   5.804   5.202   0.627
  772SOL    HW2 3216   5.719   5.110   0.521
  773SOL     OW 3217   2.401   4.511   3.572
  773SOL    HW1 3218   2.403   4.545   3.666
  773SOL    HW2 3219   2.420   4.585   3.509
  774SOL     OW 3220   2.213   1.930   3.600
  774SOL    HW1 3221   2.239   2.018   3.640
  774SOL    HW2 3222   2.213   1.937   3.501
  775SOL     OW 3223   1.271   4.226   2.451
  775SOL    HW1 3224   1.359   4.187   2.426
  775SOL    HW2 3225   1.270   4.246   2.549
  776SOL     OW 3226   3.006   5.011   6.363
  776SOL    HW1 3227   3.066   5.068   6.420
  776SOL    HW2 3228   3.059   4.935   6.326
  777SOL     OW 3229   2.073   3.775   6.683
  777SOL    HW1 3230   1.983   3.808   6.654
  777SOL    HW2 3231   2.091   3.807   6.777
  778SOL     OW 3232   3.356   5.740   6.580
  778SOL    HW1 3233   3.297   5.746   6.661
  778SOL    HW2 3234   3.423   5.813   6.583
  779SOL     OW 3235   6.199   1.754   3.126
  779SOL    HW1 3236   6.125   1.698   3.164
  779SOL    HW2 3237   6.260   1.783   3.200
  780SOL     OW 3238   6.658   1.568   4.470
  780SOL    HW1 3239   6.662   1.619   4.385
  780SOL    HW2 3240   6.609   1.482   4.455
  781SOL     OW 3241   0.460   4.626   6.420
  781SOL    HW1 3242   0.542   4.601   6.471
  781SOL    HW2 3243   0.479   4.622   6.322
  782SOL     OW 3244   2.587   4.113   5.317
  782SOL    HW1 3245   2.528   4.115   5.398
  782SOL    HW2 3246   2.530   4.118   5.235
  783SOL     OW 3247   6.864   4.990   6.445
  783SOL    HW1 3248   6.848   5.087   6.429
  783SOL    HW2 3249   6.921   4.979   6.527
  784SOL     OW 3250   1.945   5.529   0.406
  784SOL    HW1 3251   2.014   5.568   0.467
  784SOL    HW2 3252   1.971   5.546   0.311
  785SOL     OW 3253   0.428   0.346   4.587
  785SOL    HW1 3254   0.456   0.442   4.582
  785SOL    HW2 3255   0.408   0.322   4.682
  786SOL     OW 3256   6.002   0.760   4.245
  786SOL    HW1 3257   5.906   0.775   4.268
  786SOL    HW2 3258   6.017   0.779   4.148
  787SOL     OW 3259   1.845   6.515   1.426
  787SOL    HW1 3260   1.809   6.530   1.518
  787SOL    HW2 3261   1.798   6.436   1.385
  788SOL     OW 3262   2.098   3.096   2.359
  788SOL    HW1 3263   2.112   3.110   2.261
  788SOL    HW2 3264   2.006   3.125   2.385
  789SOL     OW 3265   4.157   5.391   2.505
  789SOL    HW1 3266   4.125   5.410   2.412
  789SOL    HW2 3267   4.171   5.293   2.516
  790SOL     OW 3268   0.551   3.146   2.429
  790SOL    HW1 3269   0.541   3.145   2.329
  790SOL    HW2 3270   0.625   3.084   2.455
  791SOL     OW 3271   3.180   0.523   3.618
  791SOL    HW1 3272   3.230   0.601   3.579
  791SOL    HW2 3273   3.200   0.517   3.716
  792SOL     OW 3274   2.721   0.700   1.122
  792SOL    HW1 3275   2.642   0.727   1.177
  792SOL    HW2 3276   2.700   0.616   1.073
  793SOL     OW 3277   1.986   5.823   4.707
  793SOL    HW1 3278   1.983   5.920   4.681
  793SOL    HW2 3279   1.926   5.808   4.785
  794SOL     OW 3280   3.142   3.480   2.757
  794SOL    HW1 3281   3.136   3.407   2.690
  794SOL    HW2 3282   3.051   3.501   2.792
  795SOL     OW 3283   4.904   0.510   5.186
  795SOL    HW1 3284   4.945   0.434   5.235
  795SOL    HW2 3285   4.929   0.596   5.232
  796SOL     OW 3286   1.079   2.034   0.078
  796SOL    HW1 3287   1.169   1.993   0.091
  796SOL    HW2 3288   1.029   2.034   0.164
  797SOL     OW 3289   3.631   6.876   1.312
  797SOL    HW1 3290   3.626   6.824   1.227
  797SOL    HW2 3291   3.609   6.815   1.389
  798SOL     OW 3292   4.914   4.283   1.500
  798SOL    HW1 3293   4.887   4.195   1.540
  798SOL    HW2 3294   4.833   4.339   1.484
  799SOL     OW 3295   2.695   2.373   6.179
  799SOL    HW1 3296   2.716   2.454   6.234
  799SOL    HW2 3297   2.771   2.308   6.185
  800SOL     OW 3298   5.303   3.052   3.101
  800SOL    HW1 3299   5.317   2.966   3.150
  800SOL    HW2 3300   5.286   3.034   3.004
  801SOL     OW 3301   1.849   5.687   6.669
  801SOL    HW1 3302   1.812   5.679   6.761
  801SOL    HW2 3303   1.879   5.781   6.653
  802SOL     OW 3304   4.557   2.409   6.279
  802SOL    HW1 3305   4.471   2.460   6.278
  802SOL    HW2 3306   4.563   2.356   6.364
  803SOL     OW 3307   2.398   2.387   3.845
  803SOL    HW1 3308   2.488   2.414   3.812
  803SOL    HW2 3309   2.365   2.456   3.910
  804SOL     OW 3310   4.893   0.482   3.030
  804SOL    HW1 3311   4.831   0.457   3.103
  804SOL    HW2 3312   4.937   0.399   2.993
  805SOL     OW 3313   3.620   1.180   3.796
  805SOL    HW1 3314   3.543   1.177   3.860
  805SOL    HW2 3315   3.625   1.270   3.754
  806SOL     OW 3316   3.176   6.193   5.970
  806SOL    HW1 3317   3.161   6.291   5.981
  806SOL    HW2 3318   3.164   6.168   5.873
  807SOL     OW 3319   1.085   5.998   6.134
  807SOL    HW1 3320   1.150   6.040   6.198
  807SOL    HW2 3321   1.039   6.070   6.082
  808SOL     OW 3322   5.308   2.640   5.941
  808SOL    HW1 3323   5.366   2.578   5.888
  808SOL    HW2 3324   5.297   2.604   6.034
  809SOL     OW 3325   3.056   6.379   6.907
  809SOL    HW1 3326   3.018   6.470   6.926
  809SOL    HW2 3327   3.155   6.381   6.921
  810SOL     OW 3328   3.517   3.807   6.927
  810SOL    HW1 3329   3.601   3.817   6.981
  810SOL    HW2 3330   3.467   3.893   6.928
  811SOL     OW 3331   5.342   5.593   4.074
  811SOL    HW1 3332   5.396   5.641   4.144
  811SOL    HW2 3333   5.353   5.494   4.085
  812SOL     OW 3334   0.823   3.422   1.556
  812SOL    HW1 3335   0.867   3.377   1.478
  812SOL    HW2 3336   0.774   3.503   1.524
  813SOL     OW 3337   2.733   1.658   4.682
  813SOL    HW1 3338   2.686   1.591   4.625
  813SOL    HW2 3339   2.691   1.661   4.773
  814SOL     OW 3340   0.349   4.644   1.661
  814SOL    HW1 3341   0.287   4.594   1.722
  814SOL    HW2 3342   0.319   4.632   1.566
  815SOL     OW 3343   4.648   2.095   4.133
  815SOL    HW1 3344   4.608   2.013   4.174
  815SOL    HW2 3345   4.610   2.110   4.042
  816SOL     OW 3346   5.035   3.850   6.214
  816SOL    HW1 3347   4.941   3.875   6.237
  816SOL    HW2 3348   5.086   3.834   6.298
  817SOL     OW 3349   0.157   4.831   6.349
  817SOL    HW1 3350   0.222   4.773   6.300
  817SOL    HW2 3351   0.200   4.868   6.431
  818SOL     OW 3352   0.004   1.469   5.005
  818SOL    HW1 3353   0.074   1.466   4.934
  818SOL    HW2 3354   7.009   1.564   5.034
  819SOL     OW 3355   5.593   3.230   1.495
  819SOL    HW1 3356   5.555   3.138   1.480
  819SOL    HW2 3357   5.602   3.247   1.593
  820SOL     OW 3358   2.458   2.024   4.896
  820SOL    HW1 3359   2.376   2.022   4.839
  820SOL    HW2 3360   2.521   1.953   4.865
  821SOL     OW 3361   4.702   3.892   6.907
  821SOL    HW1 3362   4.608   3.873   6.936
  821SOL    HW2 3363   4.737   3.814   6.854
  822SOL     OW 3364   7.011   5.057   3.760
  822SOL    HW1 3365   0.064   4.989   3.744
  822SOL    HW2 3366   6.921   5.017   3.745
  823SOL     OW 3367   1.943   2.933   4.304
  823SOL    HW1 3368   2.037   2.967   4.306
  823SOL    HW2 3369   1.879   3.009   4.318
  824SOL     OW 3370   5.173   0.468   6.832
  824SOL    HW1 3371   5.225   0.502   6.910
  824SOL    HW2 3372   5.157   0.542   6.766
  825SOL     OW 3373   6.108   5.651   0.563
  825SOL    HW1 3374   6.207   5.644   0.565
  825SOL    HW2 3375   6.073   5.608   0.480
  826SOL     OW 3376   3.783   1.863   0.349
  826SOL    HW1 3377   3.833   1.845   0.264
  826SOL    HW2 3378   3.720   1.940   0.334
  827SOL     OW 3379   3.443   3.973   4.829
  827SOL    HW1 3380   3.434   3.983   4.730
  827SOL    HW2 3381   3.522   4.024   4.861
  828SOL     OW 3382   0.737   6.483   6.512
  828SOL    HW1 3383   0.658   6.543   6.498
  828SOL    HW2 3384   0.709   6.403   6.566
  829SOL     OW 3385   3.862   3.414   1.789
  829SOL    HW1 3386   3.794   3.377   1.853
  829SOL    HW2 3387   3.815   3.447   1.707
  830SOL     OW 3388   6.700   4.376   6.093
  830SOL    HW1 3389   6.705   4.472   6.066
  830SOL    HW2 3390   6.785   4.330   6.068
  831SOL     OW 3391   5.714   1.233   3.170
  831SOL    HW1 3392   5.782   1.206   3.102
  831SOL    HW2 3393   5.642   1.286   3.125
  832SOL     OW 3394   3.310   1.790   4.454
  832SOL    HW1 3395   3.256   1.857   4.505
  832SOL    HW2 3396   3.321   1.821   4.359
  833SOL     OW 3397   3.978   2.982   0.205
  833SOL    HW1 3398   3.939   2.953   0.292
  833SOL    HW2 3399   3.976   3.082   0.199
  834SOL     OW 3400   5.356   2.926   0.249
  834SOL    HW1 3401   5.328   2.854   0.186
  834SOL    HW2 3402   5.276   2.956   0.303
  835SOL     OW 3403   6.953   0.069   4.745
  835SOL    HW1 3404   6.932   6.996   4.711
  835SOL    HW2 3405   6.877   0.103   4.800
  836SOL     OW 3406   5.540   0.267   4.034
  836SOL    HW1 3407   5.545   0.173   4.069
  836SOL    HW2 3408   5.446   0.299   4.040
  837SOL     OW 3409   1.527   0.434   6.772
  837SOL    HW1 3410   1.580   0.350   6.786
  837SOL    HW2 3411   1.524   0.485   6.858
  838SOL     OW 3412   2.244   5.584   3.494
  838SOL    HW1 3413   2.225   5.485   3.494
  838SOL    HW2 3414   2.231   5.620   3.587
  839SOL     OW 3415   1.422   2.317   0.193
  839SOL    HW1 3416   1.406   2.391   0.128
  839SOL    HW2 3417   1.377   2.339   0.280
  840SOL     OW 3418   3.897   5.326   0.713
  840SOL    HW1 3419   3.892   5.280   0.802
  840SOL    HW2 3420   3.805   5.349   0.682
  841SOL     OW 3421   2.419   5.469   6.739
  841SOL    HW1 3422   2.353   5.539   6.770
  841SOL    HW2 3423   2.494   5.514   6.690
  842SOL     OW 3424   4.536   6.533   0.717
  842SOL    HW1 3425   4.531   6.434   0.726
  842SOL    HW2 3426   4.600   6.557   0.644
  843SOL     OW 3427   1.488   0.788   1.838
  843SOL    HW1 3428   1.427   0.709   1.832
  843SOL    HW2 3429   1.543   0.781   1.922
  844SOL     OW 3430   6.807   0.089   1.292
  844SOL    HW1 3431   6.723   0.040   1.312
  844SOL    HW2 3432   6.849   0.052   1.209
  845SOL     OW 3433   3.907   1.626   2.002
  845SOL    HW1 3434   3.845   1.548   1.994
  845SOL    HW2 3435   3.859   1.702   2.044
  846SOL     OW 3436   1.756   2.082   0.889
  846SOL    HW1 3437   1.802   2.171   0.886
  846SOL    HW2 3438   1.777   2.038   0.976
  847SOL     OW 3439   2.511   3.617   1.432
  847SOL    HW1 3440   2.483   3.525   1.404
  847SOL    HW2 3441   2.434   3.680   1.419
  848SOL     OW 3442   6.564   5.997   0.045
  848SOL    HW1 3443   6.484   6.053   0.064
  848SOL    HW2 3444   6.585   5.940   0.124
  849SOL     OW 3445   5.783   2.826   6.717
  849SOL    HW1 3446   5.880   2.803   6.712
  849SOL    HW2 3447   5.760   2.857   6.809
  850SOL     OW 3448   1.619   1.001   4.546
  850SOL    HW1 3449   1.548   1.034   4.609
  850SOL    HW2 3450   1.697   0.969   4.599
  851SOL     OW 3451   5.093   2.488   6.385
  851SOL    HW1 3452   5.008   2.438   6.369
  851SOL    HW2 3453   5.119   2.537   6.302
  852SOL     OW 3454   6.768   4.778   1.912
  852SOL    HW1 3455   6.669   4.782   1.901
  852SOL    HW2 3456   6.812   4.784   1.822
  853SOL     OW 3457   3.099   3.200   0.537
  853SOL    HW1 3458   3.012   3.158   0.561
  853SOL    HW2 3459   3.152   3.217   0.621
  854SOL     OW 3460   6.635   0.016   5.181
  854SOL    HW1 3461   6.605   0.085   5.246
  854SOL    HW2 3462   6.696   6.969   5.227
  855SOL     OW 3463   4.661   2.233   0.559
  855SOL    HW1 3464   4.741   2.236   0.619
  855SOL    HW2 3465   4.602   2.312   0.578
  856SOL     OW 3466   1.939   5.416   1.970
  856SOL    HW1 3467   1.976   5.391   1.880
  856SOL    HW2 3468   1.889   5.503   1.962
  857SOL     OW 3469   6.708   5.668   4.778
  857SOL    HW1 3470   6.665   5.671   4.688
  857SOL    HW2 3471   6.778   5.739   4.783
  858SOL     OW 3472   4.273   4.142   0.208
  858SOL    HW1 3473   4.219   4.057   0.215
  858SOL    HW2 3474   4.364   4.127   0.245
  859SOL     OW 3475   5.077   5.481   5.180
  859SOL    HW1 3476   4.984   5.444   5.171
  859SOL    HW2 3477   5.098   5.497   5.276
  860SOL     OW 3478   4.716   3.188   5.686
  860SOL    HW1 3479   4.738   3.158   5.778
  860SOL    HW2 3480   4.677   3.280   5.689
  861SOL     OW 3481   1.276   5.679   2.910
  861SOL    HW1 3482   1.306   5.602   2.967
  861SOL    HW2 3483   1.320   5.672   2.820
  862SOL     OW 3484   1.236   4.219   3.686
  862SOL    HW1 3485   1.156   4.258   3.641
  862SOL    HW2 3486   1.272   4.283   3.754
  863SOL     OW 3487   6.146   0.508   1.575
  863SOL    HW1 3488   6.056   0.490   1.535
  863SOL    HW2 3489   6.167   0.605   1.566
  864SOL     OW 3490   6.002   6.151   2.700
  864SOL    HW1 3491   5.941   6.132   2.777
  864SOL    HW2 3492   6.096   6.132   2.727
  865SOL     OW 3493   1.383   5.526   4.648
  865SOL    HW1 3494   1.296   5.563   4.615
  865SOL    HW2 3495   1.365   5.445   4.705
  866SOL     OW 3496   3.120   0.349   1.612
  866SOL    HW1 3497   3.037   0.319   1.660
  866SOL    HW2 3498   3.101   0.434   1.563
  867SOL     OW 3499   5.979   3.488   5.623
  867SOL    HW1 3500   5.904   3.553   5.628
  867SOL    HW2 3501   5.987   3.453   5.530
  868SOL     OW 3502   0.660   2.023   1.817
  868SOL    HW1 3503   0.607   2.023   1.902
  868SOL    HW2 3504   0.745   2.074   1.831
  869SOL     OW 3505   6.862   3.542   3.060
  869SOL    HW1 3506   6.884   3.476   3.132
  869SOL    HW2 3507   6.907   3.516   2.975
  870SOL     OW 3508   3.696   5.163   2.091
  870SOL    HW1 3509   3.640   5.129   2.167
  870SOL    HW2 3510   3.718   5.088   2.029
  871SOL     OW 3511   5.018   1.879   4.151
  871SOL    HW1 3512   5.053   1.888   4.058
  871SOL    HW2 3513   4.993   1.969   4.187
  872SOL     OW 3514   1.295   1.899   5.051
  872SOL    HW1 3515   1.366   1.865   4.989
  872SOL    HW2 3516   1.326   1.985   5.092
  873SOL     OW 3517   4.176   0.216   6.423
  873SOL    HW1 3518   4.191   0.310   6.452
  873SOL    HW2 3519   4.222   0.154   6.488
  874SOL     OW 3520   5.722   3.649   1.839
  874SOL    HW1 3521   5.778   3.732   1.830
  874SOL    HW2 3522   5.782   3.570   1.847
  875SOL     OW 3523   5.233   5.851   1.978
  875SOL    HW1 3524   5.215   5.943   2.013
  875SOL    HW2 3525   5.328   5.846   1.945
  876SOL     OW 3526   5.500   0.633   6.575
  876SOL    HW1 3527   5.422   0.678   6.534
  876SOL    HW2 3528   5.525   0.553   6.521
  877SOL     OW 3529   1.090   3.420   6.846
  877SOL    HW1 3530   1.013   3.446   6.904
  877SOL    HW2 3531   1.173   3.416   6.901
  878SOL     OW 3532   3.867   6.522   4.386
  878SOL    HW1 3533   3.909   6.459   4.451
  878SOL    HW2 3534   3.842   6.607   4.432
  879SOL     OW 3535   5.732   6.637   6.802
  879SOL    HW1 3536   5.802   6.602   6.863
  879SOL    HW2 3537   5.766   6.718   6.755
  880SOL     OW 3538   2.855   3.490   3.177
  880SOL    HW1 3539   2.889   3.563   3.117
  880SOL    HW2 3540   2.862   3.519   3.272
  881SOL     OW 3541   4.297   2.205   0.568
  881SOL    HW1 3542   4.270   2.300   0.585
  881SOL    HW2 3543   4.371   2.180   0.630
  882SOL     OW 3544   1.894   3.076   3.322
  882SOL    HW1 3545   1.979   3.081   3.270
  882SOL    HW2 3546   1.819   3.114   3.268
  883SOL     OW 3547   2.371   6.891   3.213
  883SOL    HW1 3548   2.390   6.947   3.133
  883SOL    HW2 3549   2.343   6.799   3.184
  884SOL     OW 3550   2.713   3.613   5.707
  884SOL    HW1 3551   2.775   3.552   5.658
  884SOL    HW2 3552   2.709   3.586   5.804
  885SOL     OW 3553   4.607   2.684   6.230
  885SOL    HW1 3554   4.585   2.699   6.327
  885SOL    HW2 3555   4.628   2.587   6.215
  886SOL     OW 3556   3.719   1.604   6.735
  886SOL    HW1 3557   3.766   1.649   6.660
  886SOL    HW2 3558   3.622   1.592   6.712
  887SOL     OW 3559   5.297   1.171   5.105
  887SOL    HW1 3560   5.293   1.231   5.025
  887SOL    HW2 3561   5.376   1.197   5.161
  888SOL     OW 3562   6.740   6.191   1.842
  888SOL    HW1 3563   6.733   6.100   1.801
  888SOL    HW2 3564   6.826   6.198   1.893
  889SOL     OW 3565   0.359   3.181   6.993
  889SOL    HW1 3566   0.268   3.217   6.971
  889SOL    HW2 3567   0.351   3.117   0.051
  890SOL     OW 3568   2.553   6.260   4.298
  890SOL    HW1 3569   2.549   6.352   4.260
  890SOL    HW2 3570   2.484   6.202   4.256
  891SOL     OW 3571   5.358   4.836   2.336
  891SOL    HW1 3572   5.381   4.934   2.343
  891SOL    HW2 3573   5.338   4.801   2.428
  892SOL     OW 3574   2.339   4.974   0.915
  892SOL    HW1 3575   2.299   4.883   0.917
  892SOL    HW2 3576   2.335   5.010   0.821
  893SOL     OW 3577   1.159   5.224   2.694
  893SOL    HW1 3578   1.110   5.311   2.699
  893SOL    HW2 3579   1.219   5.216   2.774
  894SOL     OW 3580   1.161   4.311   0.708
  894SOL    HW1 3581   1.259   4.300   0.725
  894SOL    HW2 3582   1.117   4.222   0.711
  895SOL     OW 3583   6.871   5.684   4.353
  895SOL    HW1 3584   6.955   5.678   4.299
  895SOL    HW2 3585   6.794   5.649   4.299
  896SOL     OW 3586   0.762   0.816   6.637
  896SOL    HW1 3587   0.856   0.828   6.605
  896SOL    HW2 3588   0.761   0.760   6.720
  897SOL     OW 3589   4.737   1.183   0.356
  897SOL    HW1 3590   4.700   1.095   0.324
  897SOL    HW2 3591   4.713   1.255   0.291
  898SOL     OW 3592   4.060   0.771   3.030
  898SOL    HW1 3593   4.004   0.771   3.113
  898SOL    HW2 3594   4.045   0.686   2.979
  899SOL     OW 3595   6.858   5.793   0.235
  899SOL    HW1 3596   6.833   5.707   0.280
  899SOL    HW2 3597   6.796   5.865   0.266
  900SOL     OW 3598   5.249   5.400   0.834
  900SOL    HW1 3599   5.286   5.357   0.917
  900SOL    HW2 3600   5.172   5.458   0.859
  901SOL     OW 3601   1.519   0.221   3.038
  901SOL    HW1 3602   1.519   0.318   3.016
  901SOL    HW2 3603   1.498   0.209   3.135
  902SOL     OW 3604   6.612   2.689   1.490
  902SOL    HW1 3605   6.612   2.727   1.398
  902SOL    HW2 3606   6.696   2.637   1.505
  903SOL     OW 3607   0.106   1.470   0.804
  903SOL    HW1 3608   0.035   1.511   0.747
  903SOL    HW2 3609   0.070   1.388   0.848
  904SOL     OW 3610   2.237   0.955   2.830
  904SOL    HW1 3611   2.244   1.028   2.899
  904SOL    HW2 3612   2.328   0.919   2.811
  905SOL     OW 3613   5.800   2.020   6.655
  905SOL    HW1 3614   5.857   2.063   6.585
  905SOL    HW2 3615   5.764   1.933   6.621
  906SOL     OW 3616   5.264   2.736   0.052
  906SOL    HW1 3617   5.356   2.712   0.021
  906SOL    HW2 3618   5.213   2.653   0.075
  907SOL     OW 3619   5.365   4.420   6.754
  907SOL    HW1 3620   5.400   4.491   6.693
  907SOL    HW2 3621   5.313   4.353   6.700
  908SOL     OW 3622   1.157   4.422   2.655
  908SOL    HW1 3623   1.069   4.407   2.608
  908SOL    HW2 3624   1.140   4.460   2.746
  909SOL     OW 3625   5.171   5.535   6.033
  909SOL    HW1 3626   5.269   5.520   6.036
  909SOL    HW2 3627   5.127   5.493   6.112
  910SOL     OW 3628   2.756   4.657   0.643
  910SOL    HW1 3629   2.657   4.649   0.661
  910SOL    HW2 3630   2.790   4.572   0.605
  911SOL     OW 3631   1.155   4.619   5.861
  911SOL    HW1 3632   1.064   4.658   5.876
  911SOL    HW2 3633   1.224   4.691   5.866
  912SOL     OW 3634   4.970   1.714   4.710
  912SOL    HW1 3635   4.979   1.675   4.618
  912SOL    HW2 3636   5.058   1.748   4.741
  913SOL     OW 3637   5.249   6.499   2.914
  913SOL    HW1 3638   5.302   6.525   2.995
  913SOL    HW2 3639   5.164   6.551   2.911
  914SOL     OW 3640   3.357   6.685   6.499
  914SOL    HW1 3641   3.429   6.746   6.530
  914SOL    HW2 3642   3.359   6.680   6.399
  915SOL     OW 3643   4.907   5.933   1.517
  915SOL    HW1 3644   4.975   5.916   1.588
  915SOL    HW2 3645   4.949   5.920   1.427
  916SOL     OW 3646   1.582   3.192   2.679
  916SOL    HW1 3647   1.502   3.164   2.732
  916SOL    HW2 3648   1.653   3.123   2.688
  917SOL     OW 3649   0.132   6.611   6.919
  917SOL    HW1 3650   0.180   6.670   6.983
  917SOL    HW2 3651   0.069   6.666   6.864
  918SOL     OW 3652   3.273   6.450   0.293
  918SOL    HW1 3653   3.234   6.536   0.260
  918SOL    HW2 3654   3.253   6.439   0.390
  919SOL     OW 3655   4.882   1.283   5.737
  919SOL    HW1 3656   4.787   1.253   5.725
  919SOL    HW2 3657   4.888   1.345   5.815
  920SOL     OW 3658   3.050   5.076   1.926
  920SOL    HW1 3659   3.010   5.154   1.877
  920SOL    HW2 3660   3.079   5.007   1.860
  921SOL     OW 3661   5.143   5.265   4.923
  921SOL    HW1 3662   5.066   5.301   4.871
  921SOL    HW2 3663   5.142   5.302   5.016
  922SOL     OW 3664   3.151   3.031   3.767
  922SOL    HW1 3665   3.186   3.049   3.859
  922SOL    HW2 3666   3.222   2.986   3.713
  923SOL     OW 3667   2.325   3.504   5.601
  923SOL    HW1 3668   2.405   3.523   5.544
  923SOL    HW2 3669   2.346   3.530   5.696
  924SOL     OW 3670   0.112   3.248   1.574
  924SOL    HW1 3671   0.030   3.276   1.624
  924SOL    HW2 3672   0.190   3.246   1.637
  925SOL     OW 3673   0.877   1.694   0.269
  925SOL    HW1 3674   0.817   1.615   0.266
  925SOL    HW2 3675   0.922   1.699   0.359
  926SOL     OW 3676   1.853   1.689   1.702
  926SOL    HW1 3677   1.896   1.619   1.758
  926SOL    HW2 3678   1.822   1.649   1.615
  927SOL     OW 3679   0.011   3.879   4.169
  927SOL    HW1 3680   0.069   3.931   4.105
  927SOL    HW2 3681   6.947   3.849   4.122
  928SOL     OW 3682   3.251   4.676   5.997
  928SOL    HW1 3683   3.255   4.678   5.897
  928SOL    HW2 3684   3.333   4.632   6.033
  929SOL     OW 3685   0.511   1.565   4.247
  929SOL    HW1 3686   0.535   1.484   4.301
  929SOL    HW2 3687   0.456   1.627   4.303
  930SOL     OW 3688   5.476   5.347   4.402
  930SOL    HW1 3689   5.533   5.369   4.481
  930SOL    HW2 3690   5.471   5.426   4.341
  931SOL     OW 3691   6.140   0.765   3.336
  931SOL    HW1 3692   6.145   0.742   3.239
  931SOL    HW2 3693   6.204   0.706   3.387
  932SOL     OW 3694   3.611   0.753   3.728
  932SOL    HW1 3695   3.514   0.731   3.740
  932SOL    HW2 3696   3.620   0.844   3.688
  933SOL     OW 3697   1.479   5.621   1.939
  933SOL    HW1 3698   1.470   5.522   1.932
  933SOL    HW2 3699   1.392   5.663   1.912
  934SOL     OW 3700   1.741   3.510   0.708
  934SOL    HW1 3701   1.764   3.582   0.773
  934SOL    HW2 3702   1.779   3.423   0.740
  935SOL     OW 3703   5.893   2.845   5.446
  935SOL    HW1 3704   5.828   2.857   5.372
  935SOL    HW2 3705   5.982   2.882   5.419
  936SOL     OW 3706   2.124   0.786   6.030
  936SOL    HW1 3707   2.210   0.762   5.985
  936SOL    HW2 3708   2.106   0.884   6.018
  937SOL     OW 3709   3.493   2.021   6.141
  937SOL    HW1 3710   3.437   2.023   6.058
  937SOL    HW2 3711   3.586   2.050   6.119
  938SOL     OW 3712   5.125   6.067   4.541
  938SOL    HW1 3713   5.137   6.162   4.568
  938SOL    HW2 3714   5.177   6.049   4.458
  939SOL     OW 3715   1.290   0.290   5.727
  939SOL    HW1 3716   1.276   0.388   5.743
  939SOL    HW2 3717   1.354   0.254   5.795
  940SOL     OW 3718   1.599   5.177   0.802
  940SOL    HW1 3719   1.606   5.263   0.853
  940SOL    HW2 3720   1.637   5.103   0.858
  941SOL     OW 3721   3.678   0.102   0.803
  941SOL    HW1 3722   3.721   0.109   0.713
  941SOL    HW2 3723   3.743   0.130   0.873
  942SOL     OW 3724   6.503   4.455   0.116
  942SOL    HW1 3725   6.540   4.362   0.125
  942SOL    HW2 3726   6.411   4.450   0.075
  943SOL     OW 3727   3.716   5.641   1.225
  943SOL    HW1 3728   3.773   5.637   1.144
  943SOL    HW2 3729   3.641   5.575   1.217
  944SOL     OW 3730   6.644   5.998   3.380
  944SOL    HW1 3731   6.585   6.066   3.424
  944SOL    HW2 3732   6.683   5.938   3.449
  945SOL     OW 3733   0.311   5.523   6.266
  945SOL    HW1 3734   0.265   5.437   6.245
  945SOL    HW2 3735   0.242   5.592   6.291
  946SOL     OW 3736   6.064   2.283   4.339
  946SOL    HW1 3737   6.144   2.338   4.364
  946SOL    HW2 3738   6.054   2.283   4.239
  947SOL     OW 3739   3.882   3.997   3.280
  947SOL    HW1 3740   3.961   3.941   3.259
  947SOL    HW2 3741   3.851   4.044   3.197
  948SOL     OW 3742   3.306   1.218   3.688
  948SOL    HW1 3743   3.316   1.251   3.781
  948SOL    HW2 3744   3.382   1.253   3.632
  949SOL     OW 3745   2.939   0.395   5.731
  949SOL    HW1 3746   2.941   0.398   5.831
  949SOL    HW2 3747   2.946   0.488   5.695
  950SOL     OW 3748   0.067   0.272   2.237
  950SOL    HW1 3749   0.048   0.179   2.207
  950SOL    HW2 3750   0.166   0.286   2.243
  951SOL     OW 3751   1.535   0.207   3.335
  951SOL    HW1 3752   1.553   0.132   3.399
  951SOL    HW2 3753   1.622   0.252   3.313
  952SOL     OW 3754   3.895   1.817   3.679
  952SOL    HW1 3755   3.958   1.890   3.654
  952SOL    HW2 3756   3.895   1.806   3.779
  953SOL     OW 3757   0.652   5.118   5.773
  953SOL    HW1 3758   0.720   5.047   5.756
  953SOL    HW2 3759   0.627   5.162   5.687
  954SOL     OW 3760   4.869   6.893   2.425
  954SOL    HW1 3761   4.864   6.831   2.503
  954SOL    HW2 3762   4.916   6.847   2.349
  955SOL     OW 3763   2.412   5.462   1.216
  955SOL    HW1 3764   2.339   5.503   1.161
  955SOL    HW2 3765   2.494   5.518   1.210
  956SOL     OW 3766   4.081   0.621   1.300
  956SOL    HW1 3767   4.128   0.555   1.359
  956SOL    HW2 3768   4.041   0.574   1.222
  957SOL     OW 3769   5.951   6.780   3.020
  957SOL    HW1 3770   5.861   6.824   3.021
  957SOL    HW2 3771   5.976   6.759   2.926
  958SOL     OW 3772   5.066   6.333   1.665
  958SOL    HW1 3773   5.134   6.341   1.592
  958SOL    HW2 3774   5.110   6.348   1.753
  959SOL     OW 3775   5.148   0.179   3.249
  959SOL    HW1 3776   5.240   0.169   3.286
  959SOL    HW2 3777   5.086   0.211   3.320
  960SOL     OW 3778   1.733   6.555   6.279
  960SOL    HW1 3779   1.828   6.566   6.309
  960SOL    HW2 3780   1.706   6.460   6.292
  961SOL     OW 3781   3.973   1.498   3.145
  961SOL    HW1 3782   4.000   1.453   3.060
  961SOL    HW2 3783   3.964   1.431   3.218
  962SOL     OW 3784   0.154   0.243   4.724
  962SOL    HW1 3785   0.149   0.284   4.815
  962SOL    HW2 3786   0.068   0.197   4.703
  963SOL     OW 3787   5.794   2.769   1.107
  963SOL    HW1 3788   5.808   2.682   1.154
  963SOL    HW2 3789   5.831   2.843   1.162
  964SOL     OW 3790   3.648   6.426   5.037
  964SOL    HW1 3791   3.728   6.369   5.050
  964SOL    HW2 3792   3.662   6.514   5.082
  965SOL     OW 3793   5.256   2.480   3.870
  965SOL    HW1 3794   5.228   2.440   3.957
  965SOL    HW2 3795   5.189   2.550   3.842
  966SOL     OW 3796   5.177   1.255   4.290
  966SOL    HW1 3797   5.094   1.289   4.245
  966SOL    HW2 3798   5.161   1.160   4.320
  967SOL     OW 3799   4.219   5.261   6.483
  967SOL    HW1 3800   4.269   5.213   6.410
  967SOL    HW2 3801   4.274   5.338   6.516
  968SOL     OW 3802   3.693   0.419   1.248
  968SOL    HW1 3803   3.649   0.421   1.338
  968SOL    HW2 3804   3.628   0.450   1.179
  969SOL     OW 3805   2.752   3.690   6.385
  969SOL    HW1 3806   2.793   3.765   6.332
  969SOL    HW2 3807   2.687   3.728   6.451
  970SOL     OW 3808   5.047   6.820   5.407
  970SOL    HW1 3809   5.045   6.808   5.308
  970SOL    HW2 3810   5.105   6.750   5.448
  971SOL     OW 3811   5.248   3.519   3.601
  971SOL    HW1 3812   5.337   3.529   3.557
  971SOL    HW2 3813   5.212   3.609   3.624
  972SOL     OW 3814   0.277   2.637   0.628
  972SOL    HW1 3815   0.202   2.588   0.672
  972SOL    HW2 3816   0.315   2.703   0.693
  973SOL     OW 3817   7.008   2.542   4.916
  973SOL    HW1 3818   0.062   2.474   4.927
  973SOL    HW2 3819   6.921   2.495   4.900
  974SOL     OW 3820   0.880   4.034   2.372
  974SOL    HW1 3821   0.952   3.966   2.357
  974SOL    HW2 3822   0.911   4.123   2.338
  975SOL     OW 3823   3.059   0.374   2.602
  975SOL    HW1 3824   2.964   0.344   2.611
  975SOL    HW2 3825   3.120   0.306   2.642
  976SOL     OW 3826   0.235   3.136   3.755
  976SOL    HW1 3827   0.292   3.094   3.685
  976SOL    HW2 3828   0.218   3.070   3.828
  977SOL     OW 3829   6.409   1.507   2.079
  977SOL    HW1 3830   6.326   1.480   2.128
  977SOL    HW2 3831   6.422   1.448   1.999
  978SOL     OW 3832   4.836   2.978   0.398
  978SOL    HW1 3833   4.840   3.025   0.487
  978SOL    HW2 3834   4.742   2.950   0.379
  979SOL     OW 3835   0.326   4.808   6.571
  979SOL    HW1 3836   0.385   4.756   6.509
  979SOL    HW2 3837   0.363   4.900   6.582
  980SOL     OW 3838   4.406   1.158   4.345
  980SOL    HW1 3839   4.355   1.234   4.304
  980SOL    HW2 3840   4.445   1.188   4.432
  981SOL     OW 3841   0.829   6.432   5.445
  981SOL    HW1 3842   0.908   6.472   5.493
  981SOL    HW2 3843   0.765   6.395   5.511
  982SOL     OW 3844   0.183   1.194   6.729
  982SOL    HW1 3845   0.223   1.282   6.702
  982SOL    HW2 3846   0.197   1.179   6.827
  983SOL     OW 3847   0.469   3.942   3.117
  983SOL    HW1 3848   0.380   3.945   3.163
  983SOL    HW2 3849   0.457   3.964   3.020
  984SOL     OW 3850   0.579   3.658   4.058
  984SOL    HW1 3851   0.624   3.717   3.991
  984SOL    HW2 3852   0.627   3.571   4.063
  985SOL     OW 3853   5.953   5.979   5.101
  985SOL    HW1 3854   5.943   5.997   5.003
  985SOL    HW2 3855   6.019   5.905   5.115
  986SOL     OW 3856   4.221   5.223   1.110
  986SOL    HW1 3857   4.136   5.192   1.154
  986SOL    HW2 3858   4.273   5.144   1.079
  987SOL     OW 3859   4.744   4.672   4.834
  987SOL    HW1 3860   4.658   4.619   4.834
  987SOL    HW2 3861   4.815   4.619   4.786
  988SOL     OW 3862   2.984   4.885   2.121
  988SOL    HW1 3863   2.986   4.965   2.061
  988SOL    HW2 3864   2.946   4.807   2.071
  989SOL     OW 3865   0.367   2.930   1.048
  989SOL    HW1 3866   0.422   2.907   0.968
  989SOL    HW2 3867   0.427   2.954   1.124
  990SOL     OW 3868   3.852   0.318   4.971
  990SOL    HW1 3869   3.785   0.252   4.937
  990SOL    HW2 3870   3.927   0.270   5.017
  991SOL     OW 3871   1.087   5.816   4.371
  991SOL    HW1 3872   1.095   5.745   4.301
  991SOL    HW2 3873   0.991   5.825   4.398
  992SOL     OW 3874   6.656   2.718   0.222
  992SOL    HW1 3875   6.707   2.754   0.143
  992SOL    HW2 3876   6.670   2.620   0.229
  993SOL     OW 3877   1.714   4.371   0.100
  993SOL    HW1 3878   1.682   4.283   0.065
  993SOL    HW2 3879   1.684   4.444   0.039
  994SOL     OW 3880   2.925   0.105   1.119
  994SOL    HW1 3881   2.941   0.051   1.037
  994SOL    HW2 3882   2.827   0.112   1.136
  995SOL     OW 3883   6.172   3.940   5.288
  995SOL    HW1 3884   6.217   3.940   5.378
  995SOL    HW2 3885   6.174   3.848   5.250
  996SOL     OW 3886   4.138   6.546   4.967
  996SOL    HW1 3887   4.235   6.560   4.984
  996SOL    HW2 3888   4.103   6.479   5.033
  997SOL     OW 3889   1.711   6.108   3.351
  997SOL    HW1 3890   1.808   6.130   3.361
  997SOL    HW2 3891   1.659   6.192   3.337
  998SOL     OW 3892   4.533   0.395   6.735
  998SOL    HW1 3893   4.440   0.431   6.746
  998SOL    HW2 3894   4.595   0.468   6.707
  999SOL     OW 3895   5.550   2.814   2.755
  999SOL    HW1 3896   5.582   2.831   2.848
  999SOL    HW2 3897   5.617   2.758   2.706
 1000SOL     OW 3898   5.186   1.531   1.976
 1000SOL    HW1 3899   5.105   1.473   1.968
 1000SOL    HW2 3900   5.160   1.627   1.976
 1001SOL     OW 3901   2.582   6.654   2.985
 1001SOL    HW1 3902   2.586   6.725   2.915
 1001SOL    HW2 3903   2.674   6.623   3.007
 1002SOL     OW 3904   4.016   2.660   1.082
 1002SOL    HW1 3905   3.957   2.700   1.152
 1002SOL    HW2 3906   3.960   2.621   1.009
 1003SOL     OW 3907   0.945   0.320   2.938
 1003SOL    HW1 3908   0.857   0.304   2.981
 1003SOL    HW2 3909   0.931   0.349   2.843
 1004SOL     OW 3910   5.155   1.347   4.591
 1004SOL    HW1 3911   5.217   1.425   4.589
 1004SOL    HW2 3912   5.200   1.269   4.634
 1005SOL     OW 3913   0.825   5.020   1.755
 1005SOL    HW1 3914   0.776   4.933   1.762
 1005SOL    HW2 3915   0.920   5.008   1.785
 1006SOL     OW 3916   2.019   4.244   1.971
 1006SOL    HW1 3917   2.096   4.287   2.017
 1006SOL    HW2 3918   2.049   4.158   1.929
 1007SOL     OW 3919   4.504   0.632   6.474
 1007SOL    HW1 3920   4.473   0.574   6.398
 1007SOL    HW2 3921   4.505   0.727   6.444
 1008SOL     OW 3922   0.502   5.139   5.112
 1008SOL    HW1 3923   0.438   5.209   5.080
 1008SOL    HW2 3924   0.451   5.063   5.153
 1009SOL     OW 3925   6.810   5.875   6.043
 1009SOL    HW1 3926   6.843   5.911   6.130
 1009SOL    HW2 3927   6.710   5.869   6.045
 1010SOL     OW 3928   3.061   3.723   0.220
 1010SOL    HW1 3929   3.102   3.694   0.306
 1010SOL    HW2 3930   2.967   3.688   0.214
 1011SOL     OW 3931   6.684   4.881   2.455
 1011SOL    HW1 3932   6.745   4.908   2.529
 1011SOL    HW2 3933   6.626   4.805   2.485
 1012SOL     OW 3934   5.893   6.464   2.937
 1012SOL    HW1 3935   5.840   6.388   2.976
 1012SOL    HW2 3936   5.991   6.444   2.944
 1013SOL     OW 3937   0.177   0.308   6.052
 1013SOL    HW1 3938   0.150   0.252   5.974
 1013SOL    HW2 3939   0.277   0.314   6.055
 1014SOL     OW 3940   1.058   4.937   4.579
 1014SOL    HW1 3941   1.108   4.981   4.504
 1014SOL    HW2 3942   0.959   4.947   4.563
 1015SOL     OW 3943   1.914   6.416   0.163
 1015SOL    HW1 3944   1.943   6.364   0.082
 1015SOL    HW2 3945   1.982   6.405   0.236
 1016SOL     OW 3946   0.147   4.164   0.643
 1016SOL    HW1 3947   0.089   4.237   0.606
 1016SOL    HW2 3948   0.184   4.110   0.567
 1017SOL     OW 3949   2.491   1.298   2.644
 1017SOL    HW1 3950   2.483   1.346   2.731
 1017SOL    HW2 3951   2.400   1.268   2.615
 1018SOL     OW 3952   6.020   6.165   4.088
 1018SOL    HW1 3953   6.086   6.223   4.135
 1018SOL    HW2 3954   5.930   6.176   4.129
 1019SOL     OW 3955   5.912   3.960   1.300
 1019SOL    HW1 3956   6.006   3.991   1.282
 1019SOL    HW2 3957   5.849   4.008   1.239
 1020SOL     OW 3958   4.825   1.402   1.585
 1020SOL    HW1 3959   4.732   1.414   1.552
 1020SOL    HW2 3960   4.826   1.335   1.660
 1021SOL     OW 3961   0.919   6.834   0.818
 1021SOL    HW1 3962   0.857   6.826   0.895
 1021SOL    HW2 3963   0.924   6.930   0.789
 1022SOL     OW 3964   2.326   5.215   6.623
 1022SOL    HW1 3965   2.362   5.188   6.534
 1022SOL    HW2 3966   2.378   5.293   6.658
 1023SOL     OW 3967   0.903   1.718   2.286
 1023SOL    HW1 3968   0.814   1.761   2.273
 1023SOL    HW2 3969   0.929   1.722   2.383
 1024SOL     OW 3970   1.732   2.243   4.247
 1024SOL    HW1 3971   1.725   2.315   4.177
 1024SOL    HW2 3972   1.812   2.186   4.229
 1025SOL     OW 3973   4.715   4.512   0.985
 1025SOL    HW1 3974   4.764   4.550   0.906
 1025SOL    HW2 3975   4.687   4.587   1.045
 1026SOL     OW 3976   3.170   3.089   1.920
 1026SOL    HW1 3977   3.079   3.082   1.880
 1026SOL    HW2 3978   3.218   3.167   1.880
 1027SOL     OW 3979   6.590   6.428   0.105
 1027SOL    HW1 3980   6.545   6.387   0.025
 1027SOL    HW2 3981   6.670   6.479   0.075
 1028SOL     OW 3982   0.915   4.870   2.860
 1028SOL    HW1 3983   0.905   4.863   2.760
 1028SOL    HW2 3984   0.924   4.966   2.886
 1029SOL     OW 3985   1.190   0.807   5.062
 1029SOL    HW1 3986   1.281   0.797   5.101
 1029SOL    HW2 3987   1.129   0.849   5.129
 1030SOL     OW 3988   4.021   3.250   0.610
 1030SOL    HW1 3989   3.942   3.229   0.553
 1030SOL    HW2 3990   4.049   3.345   0.595
 1031SOL     OW 3991   4.664   3.718   0.443
 1031SOL    HW1 3992   4.727   3.655   0.488
 1031SOL    HW2 3993   4.699   3.812   0.452
 1032SOL     OW 3994   1.961   1.621   0.899
 1032SOL    HW1 3995   1.990   1.619   0.803
 1032SOL    HW2 3996   2.039   1.644   0.957
 1033SOL     OW 3997   0.141   0.785   1.793
 1033SOL    HW1 3998   0.196   0.702   1.800
 1033SOL    HW2 3999   0.191   0.861   1.835
 1034SOL     OW 4000   3.125   0.779   4.988
 1034SOL    HW1 4001   3.218   0.742   4.990
 1034SOL    HW2 4002   3.071   0.730   4.919
 1035SOL     OW 4003   1.473   0.362   0.445
 1035SOL    HW1 4004   1.412   0.440   0.427
 1035SOL    HW2 4005   1.504   0.366   0.540
 1036SOL     OW 4006   4.514   1.618   1.974
 1036SOL    HW1 4007   4.493   1.599   1.879
 1036SOL    HW2 4008   4.587   1.558   2.005
 1037SOL     OW 4009   1.483   3.492   2.629
 1037SOL    HW1 4010   1.549   3.422   2.657
 1037SOL    HW2 4011   1.533   3.573   2.598
 1038SOL     OW 4012   1.795   5.959   0.165
 1038SOL    HW1 4013   1.879   5.954   0.218
 1038SOL    HW2 4014   1.754   5.868   0.159
 1039SOL     OW 4015   3.325   3.692   3.335
 1039SOL    HW1 4016   3.299   3.598   3.310
 1039SOL    HW2 4017   3.258   3.756   3.298
 1040SOL     OW 4018   3.675   1.857   3.408
 1040SOL    HW1 4019   3.747   1.838   3.342
 1040SOL    HW2 4020   3.689   1.947   3.449
 1041SOL     OW 4021   6.627   6.577   6.342
 1041SOL    HW1 4022   6.688   6.625   6.405
 1041SOL    HW2 4023   6.570   6.513   6.393
 1042SOL     OW 4024   5.302   3.909   3.822
 1042SOL    HW1 4025   5.300   3.852   3.740
 1042SOL    HW2 4026   5.384   3.966   3.820
 1043SOL     OW 4027   2.540   1.770   3.907
 1043SOL    HW1 4028   2.636   1.786   3.930
 1043SOL    HW2 4029   2.498   1.717   3.981
 1044SOL     OW 4030   5.672   4.622   2.057
 1044SOL    HW1 4031   5.638   4.574   2.138
 1044SOL    HW2 4032   5.765   4.590   2.037
 1045SOL     OW 4033   2.009   0.352   2.484
 1045SOL    HW1 4034   2.077   0.409   2.437
 1045SOL    HW2 4035   2.028   0.351   2.582
 1046SOL     OW 4036   2.614   2.234   1.195
 1046SOL    HW1 4037   2.521   2.266   1.179
 1046SOL    HW2 4038   2.662   2.297   1.255
 1047SOL     OW 4039   4.085   0.590   3.419
 1047SOL    HW1 4040   4.145   0.537   3.478
 1047SOL    HW2 4041   4.083   0.550   3.328
 1048SOL     OW 4042   0.779   6.963   1.958
 1048SOL    HW1 4043   0.717   6.885   1.966
 1048SOL    HW2 4044   0.802   6.997   2.049
 1049SOL     OW 4045   4.014   6.531   0.175
 1049SOL    HW1 4046   4.089   6.597   0.173
 1049SOL    HW2 4047   3.979   6.517   0.083
 1050SOL     OW 4048   2.898   0.457   4.161
 1050SOL    HW1 4049   2.908   0.364   4.197
 1050SOL    HW2 4050   2.889   0.453   4.062
 1051SOL     OW 4051   1.930   1.442   5.411
 1051SOL    HW1 4052   1.897   1.489   5.493
 1051SOL    HW2 4053   1.979   1.507   5.353
 1052SOL     OW 4054   3.972   1.547   0.068
 1052SOL    HW1 4055   4.042   1.528   0.137
 1052SOL    HW2 4056   3.881   1.535   0.109
 1053SOL     OW 4057   5.088   2.506   4.694
 1053SOL    HW1 4058   5.187   2.495   4.691
 1053SOL    HW2 4059   5.060   2.533   4.786
 1054SOL     OW 4060   4.371   5.481   6.536
 1054SOL    HW1 4061   4.346   5.553   6.601
 1054SOL    HW2 4062   4.382   5.521   6.445
 1055SOL     OW 4063   4.766   5.710   6.649
 1055SOL    HW1 4064   4.822   5.788   6.676
 1055SOL    HW2 4065   4.673   5.742   6.628
 1056SOL     OW 4066   3.489   3.764   0.333
 1056SOL    HW1 4067   3.529   3.759   0.241
 1056SOL    HW2 4068   3.491   3.858   0.365
 1057SOL     OW 4069   3.102   2.902   6.363
 1057SOL    HW1 4070   3.144   2.908   6.272
 1057SOL    HW2 4071   3.136   2.978   6.419
 1058SOL     OW 4072   3.056   2.153   1.845
 1058SOL    HW1 4073   3.006   2.218   1.902
 1058SOL    HW2 4074   3.126   2.202   1.793
 1059SOL     OW 4075   2.504   6.269   2.429
 1059SOL    HW1 4076   2.512   6.275   2.529
 1059SOL    HW2 4077   2.591   6.294   2.387
 1060SOL     OW 4078   6.442   0.543   5.272
 1060SOL    HW1 4079   6.497   0.537   5.356
 1060SOL    HW2 4080   6.359   0.489   5.284
 1061SOL     OW 4081   0.158   3.156   6.212
 1061SOL    HW1 4082   0.176   3.158   6.310
 1061SOL    HW2 4083   0.240   3.184   6.162
 1062SOL     OW 4084   3.468   5.327   5.091
 1062SOL    HW1 4085   3.530   5.342   5.168
 1062SOL    HW2 4086   3.387   5.277   5.122
 1063SOL     OW 4087   2.888   6.644   4.000
 1063SOL    HW1 4088   2.937   6.689   3.925
 1063SOL    HW2 4089   2.856   6.554   3.969
 1064SOL     OW 4090   0.783   3.239   0.377
 1064SOL    HW1 4091   0.806   3.176   0.303
 1064SOL    HW2 4092   0.684   3.255   0.378
 1065SOL     OW 4093   6.043   0.825   4.745
 1065SOL    HW1 4094   6.036   0.742   4.690
 1065SOL    HW2 4095   6.006   0.902   4.694
 1066SOL     OW 4096   4.790   6.053   0.888
 1066SOL    HW1 4097   4.810   6.142   0.846
 1066SOL    HW2 4098   4.701   6.020   0.856
 1067SOL     OW 4099   2.629   1.647   0.472
 1067SOL    HW1 4100   2.612   1.741   0.445
 1067SOL    HW2 4101   2.628   1.640   0.572
 1068SOL     OW 4102   6.278   2.895   1.234
 1068SOL    HW1 4103   6.238   2.976   1.279
 1068SOL    HW2 4104   6.212   2.820   1.237
 1069SOL     OW 4105   6.543   2.491   2.590
 1069SOL    HW1 4106   6.488   2.428   2.536
 1069SOL    HW2 4107   6.628   2.512   2.540
 1070SOL     OW 4108   0.997   0.349   2.420
 1070SOL    HW1 4109   1.010   0.448   2.434
 1070SOL    HW2 4110   1.084   0.302   2.436
 1071SOL     OW 4111   0.719   2.833   5.931
 1071SOL    HW1 4112   0.704   2.918   5.881
 1071SOL    HW2 4113   0.650   2.766   5.904
 1072SOL     OW 4114   1.947   1.481   1.850
 1072SOL    HW1 4115   1.899   1.401   1.815
 1072SOL    HW2 4116   2.036   1.454   1.888
 1073SOL     OW 4117   5.231   2.420   3.133
 1073SOL    HW1 4118   5.215   2.491   3.202
 1073SOL    HW2 4119   5.245   2.332   3.179
 1074SOL     OW 4120   3.089   5.274   1.661
 1074SOL    HW1 4121   3.173   5.295   1.712
 1074SOL    HW2 4122   3.105   5.195   1.602
 1075SOL     OW 4123   6.823   3.994   5.079
 1075SOL    HW1 4124   6.918   4.002   5.107
 1075SOL    HW2 4125   6.767   4.055   5.134
 1076SOL     OW 4126   2.304   4.273   5.298
 1076SOL    HW1 4127   2.331   4.210   5.224
 1076SOL    HW2 4128   2.231   4.231   5.351
 1077SOL     OW 4129   6.894   6.223   0.150
 1077SOL    HW1 4130   6.837   6.234   0.231
 1077SOL    HW2 4131   6.955   6.301   0.141
 1078SOL     OW 4132   6.010   6.112   4.607
 1078SOL    HW1 4133   6.037   6.202   4.572
 1078SOL    HW2 4134   5.927   6.082   4.561
 1079SOL     OW 4135   0.802   6.499   1.085
 1079SOL    HW1 4136   0.873   6.525   1.151
 1079SOL    HW2 4137   0.844   6.452   1.007
 1080SOL     OW 4138   3.936   6.557   0.567
 1080SOL    HW1 4139   3.944   6.461   0.592
 1080SOL    HW2 4140   3.907   6.610   0.647
 1081SOL     OW 4141   6.845   6.724   3.673
 1081SOL    HW1 4142   6.804   6.812   3.648
 1081SOL    HW2 4143   6.905   6.693   3.600
 1082SOL     OW 4144   4.406   6.794   0.832
 1082SOL    HW1 4145   4.467   6.778   0.755
 1082SOL    HW2 4146   4.327   6.734   0.825
 1083SOL     OW 4147   6.027   3.778   2.112
 1083SOL    HW1 4148   6.122   3.808   2.105
 1083SOL    HW2 4149   6.020   3.704   2.180
 1084SOL     OW 4150   5.422   0.368   5.574
 1084SOL    HW1 4151   5.410   0.441   5.641
 1084SOL    HW2 4152   5.340   0.311   5.573
 1085SOL     OW 4153   2.081   3.463   4.992
 1085SOL    HW1 4154   2.128   3.412   5.064
 1085SOL    HW2 4155   2.074   3.559   5.019
 1086SOL     OW 4156   5.780   4.817   1.898
 1086SOL    HW1 4157   5.840   4.756   1.950
 1086SOL    HW2 4158   5.721   4.764   1.838
 1087SOL     OW 4159   4.007   0.253   5.750
 1087SOL    HW1 4160   3.921   0.304   5.748
 1087SOL    HW2 4161   4.032   0.234   5.846
 1088SOL     OW 4162   6.467   5.296   4.120
 1088SOL    HW1 4163   6.474   5.389   4.082
 1088SOL    HW2 4164   6.540   5.239   4.083
 1089SOL     OW 4165   5.407   5.371   3.837
 1089SOL    HW1 4166   5.492   5.423   3.846
 1089SOL    HW2 4167   5.379   5.337   3.927
 1090SOL     OW 4168   5.437   2.695   5.207
 1090SOL    HW1 4169   5.467   2.701   5.302
 1090SOL    HW2 4170   5.508   2.649   5.153
 1091SOL     OW 4171   2.116   3.406   3.277
 1091SOL    HW1 4172   2.027   3.407   3.323
 1091SOL    HW2 4173   2.120   3.480   3.210
 1092SOL     OW 4174   0.712   6.301   0.559
 1092SOL    HW1 4175   0.790   6.238   0.559
 1092SOL    HW2 4176   0.649   6.276   0.632
 1093SOL     OW 4177   1.389   0.815   3.515
 1093SOL    HW1 4178   1.361   0.908   3.540
 1093SOL    HW2 4179   1.376   0.802   3.417
 1094SOL     OW 4180   0.543   0.271   2.782
 1094SOL    HW1 4181   0.612   0.324   2.732
 1094SOL    HW2 4182   0.479   0.230   2.716
 1095SOL     OW 4183   5.882   4.069   0.457
 1095SOL    HW1 4184   5.799   4.015   0.472
 1095SOL    HW2 4185   5.945   4.055   0.534
 1096SOL     OW 4186   1.967   5.746   1.857
 1096SOL    HW1 4187   2.061   5.732   1.889
 1096SOL    HW2 4188   1.954   5.695   1.772
 1097SOL     OW 4189   3.205   6.475   4.751
 1097SOL    HW1 4190   3.229   6.412   4.677
 1097SOL    HW2 4191   3.135   6.434   4.808
 1098SOL     OW 4192   6.956   3.801   0.442
 1098SOL    HW1 4193   6.909   3.774   0.358
 1098SOL    HW2 4194   6.904   3.874   0.487
 1099SOL     OW 4195   5.260   0.317   6.616
 1099SOL    HW1 4196   5.229   0.329   6.710
 1099SOL    HW2 4197   5.347   0.364   6.603
 1100SOL     OW 4198   4.501   1.976   4.641
 1100SOL    HW1 4199   4.436   1.999   4.713
 1100SOL    HW2 4200   4.589   1.951   4.683
 1101SOL     OW 4201   5.062   2.758   6.542
 1101SOL    HW1 4202   5.005   2.791   6.466
 1101SOL    HW2 4203   5.091   2.664   6.523
 1102SOL     OW 4204   2.660   0.595   3.439
 1102SOL    HW1 4205   2.587   0.583   3.507
 1102SOL    HW2 4206   2.730   0.525   3.454
 1103SOL     OW 4207   3.465   5.814   1.144
 1103SOL    HW1 4208   3.405   5.891   1.166
 1103SOL    HW2 4209   3.469   5.751   1.222
 1104SOL     OW 4210   6.784   2.581   4.013
 1104SOL    HW1 4211   6.833   2.596   3.928
 1104SOL    HW2 4212   6.783   2.666   4.066
 1105SOL     OW 4213   4.935   1.003   6.703
 1105SOL    HW1 4214   4.965   0.977   6.611
 1105SOL    HW2 4215   4.890   0.925   6.747
 1106SOL     OW 4216   6.392   1.492   1.099
 1106SOL    HW1 4217   6.429   1.404   1.071
 1106SOL    HW2 4218   6.467   1.557   1.111
 1107SOL     OW 4219   0.917   1.286   7.009
 1107SOL    HW1 4220   0.863   1.312   6.929
 1107SOL    HW2 4221   0.952   1.368   0.036
 1108SOL     OW 4222   2.290   1.155   3.385
 1108SOL    HW1 4223   2.351   1.132   3.460
 1108SOL    HW2 4224   2.343   1.193   3.309
 1109SOL     OW 4225   4.595   2.042   5.106
 1109SOL    HW1 4226   4.577   2.085   5.195
 1109SOL    HW2 4227   4.629   1.949   5.121
 1110SOL     OW 4228   1.633   1.110   2.425
 1110SOL    HW1 4229   1.542   1.097   2.466
 1110SOL    HW2 4230   1.627   1.094   2.327
 1111SOL     OW 4231   5.670   3.374   6.456
 1111SOL    HW1 4232   5.584   3.338   6.492
 1111SOL    HW2 4233   5.678   3.350   6.359
 1112SOL     OW 4234   5.781   0.523   2.419
 1112SOL    HW1 4235   5.762   0.474   2.504
 1112SOL    HW2 4236   5.709   0.591   2.403
 1113SOL     OW 4237   6.707   2.872   2.627
 1113SOL    HW1 4238   6.616   2.831   2.626
 1113SOL    HW2 4239   6.705   2.959   2.577
 1114SOL     OW 4240   3.749   3.536   4.783
 1114SOL    HW1 4241   3.685   3.461   4.769
 1114SOL    HW2 4242   3.702   3.612   4.828
 1115SOL     OW 4243   2.139   4.876   5.687
 1115SOL    HW1 4244   2.141   4.900   5.784
 1115SOL    HW2 4245   2.230   4.886   5.648
 1116SOL     OW 4246   4.558   6.855   0.541
 1116SOL    HW1 4247   4.488   6.874   0.473
 1116SOL    HW2 4248   4.581   6.940   0.589
 1117SOL     OW 4249   1.949   2.341   1.838
 1117SOL    HW1 4250   2.033   2.381   1.875
 1117SOL    HW2 4251   1.921   2.391   1.757
 1118SOL     OW 4252   4.733   6.142   6.787
 1118SOL    HW1 4253   4.701   6.121   6.880
 1118SOL    HW2 4254   4.790   6.224   6.790
 1119SOL     OW 4255   3.670   4.901   3.768
 1119SOL    HW1 4256   3.721   4.879   3.851
 1119SOL    HW2 4257   3.574   4.873   3.779
 1120SOL     OW 4258   6.938   2.974   1.732
 1120SOL    HW1 4259   6.994   2.912   1.676
 1120SOL    HW2 4260   6.844   2.972   1.698
 1121SOL     OW 4261   6.527   4.560   5.394
 1121SOL    HW1 4262   6.590   4.632   5.425
 1121SOL    HW2 4263   6.434   4.583   5.420
 1122SOL     OW 4264   6.149   1.441   2.175
 1122SOL    HW1 4265   6.097   1.524   2.194
 1122SOL    HW2 4266   6.097   1.382   2.114
 1123SOL     OW 4267   3.922   1.654   4.649
 1123SOL    HW1 4268   3.873   1.694   4.571
 1123SOL    HW2 4269   3.855   1.617   4.714
 1124SOL     OW 4270   2.140   3.162   3.892
 1124SOL    HW1 4271   2.131   3.247   3.840
 1124SOL    HW2 4272   2.158   3.087   3.829
 1125SOL     OW 4273   1.166   3.446   3.451
 1125SOL    HW1 4274   1.112   3.513   3.399
 1125SOL    HW2 4275   1.167   3.359   3.402
 1126SOL     OW 4276   4.406   4.666   4.122
 1126SOL    HW1 4277   4.442   4.575   4.101
 1126SOL    HW2 4278   4.310   4.671   4.092
 1127SOL     OW 4279   6.590   6.655   1.723
 1127SOL    HW1 4280   6.573   6.751   1.744
 1127SOL    HW2 4281   6.509   6.614   1.682
 1128SOL     OW 4282   4.413   1.530   4.449
 1128SOL    HW1 4283   4.406   1.590   4.529
 1128SOL    HW2 4284   4.505   1.537   4.410
 1129SOL     OW 4285   1.331   0.388   0.065
 1129SOL    HW1 4286   1.256   0.447   0.095
 1129SOL    HW2 4287   1.415   0.442   0.056
 1130SOL     OW 4288   2.337   4.871   2.145
 1130SOL    HW1 4289   2.384   4.854   2.058
 1130SOL    HW2 4290   2.238   4.868   2.129
 1131SOL     OW 4291   2.370   5.485   3.951
 1131SOL    HW1 4292   2.377   5.521   4.044
 1131SOL    HW2 4293   2.319   5.550   3.894
 1132SOL     OW 4294   1.320   1.640   2.366
 1132SOL    HW1 4295   1.409   1.635   2.411
 1132SOL    HW2 4296   1.251   1.670   2.432
 1133SOL     OW 4297   1.247   6.376   6.398
 1133SOL    HW1 4298   1.301   6.372   6.314
 1133SOL    HW2 4299   1.179   6.302   6.399
 1134SOL     OW 4300   3.855   5.941   0.941
 1134SOL    HW1 4301   3.886   5.904   0.854
 1134SOL    HW2 4302   3.755   5.950   0.940
 1135SOL     OW 4303   1.447   6.764   3.064
 1135SOL    HW1 4304   1.439   6.712   3.148
 1135SOL    HW2 4305   1.533   6.814   3.064
 1136SOL     OW 4306   1.470   4.756   2.026
 1136SOL    HW1 4307   1.374   4.732   2.044
 1136SOL    HW2 4308   1.528   4.711   2.094
 1137SOL     OW 4309   1.375   5.996   4.553
 1137SOL    HW1 4310   1.392   5.954   4.464
 1137SOL    HW2 4311   1.301   5.947   4.600
 1138SOL     OW 4312   1.561   3.976   5.141
 1138SOL    HW1 4313   1.599   3.891   5.176
 1138SOL    HW2 4314   1.578   3.983   5.043
 1139SOL     OW 4315   2.573   5.315   4.707
 1139SOL    HW1 4316   2.600   5.316   4.611
 1139SOL    HW2 4317   2.611   5.395   4.753
 1140SOL     OW 4318   1.903   2.099   1.939
 1140SOL    HW1 4319   1.931   2.189   1.905
 1140SOL    HW2 4320   1.973   2.063   1.999
 1141SOL     OW 4321   6.854   4.945   5.802
 1141SOL    HW1 4322   6.885   4.999   5.724
 1141SOL    HW2 4323   6.798   5.002   5.862
 1142SOL     OW 4324   1.434   5.921   2.276
 1142SOL    HW1 4325   1.494   5.981   2.330
 1142SOL    HW2 4326   1.339   5.948   2.291
 1143SOL     OW 4327   7.006   3.930   1.573
 1143SOL    HW1 4328   7.002   3.840   1.528
 1143SOL    HW2 4329   0.017   3.999   1.507
 1144SOL     OW 4330   5.403   4.658   0.429
 1144SOL    HW1 4331   5.341   4.627   0.356
 1144SOL    HW2 4332   5.385   4.605   0.512
 1145SOL     OW 4333   5.600   6.982   0.107
 1145SOL    HW1 4334   5.628   7.018   0.018
 1145SOL    HW2 4335   5.635   0.023   0.180
 1146SOL     OW 4336   0.901   1.224   1.243
 1146SOL    HW1 4337   0.991   1.228   1.200
 1146SOL    HW2 4338   0.830   1.229   1.172
 1147SOL     OW 4339   1.930   6.120   0.954
 1147SOL    HW1 4340   2.021   6.080   0.955
 1147SOL    HW2 4341   1.900   6.133   0.860
 1148SOL     OW 4342   4.123   5.627   2.833
 1148SOL    HW1 4343   4.118   5.712   2.886
 1148SOL    HW2 4344   4.062   5.634   2.754
 1149SOL     OW 4345   4.911   2.953   1.842
 1149SOL    HW1 4346   4.868   3.007   1.771
 1149SOL    HW2 4347   4.878   2.982   1.932
 1150SOL     OW 4348   0.840   3.524   0.429
 1150SOL    HW1 4349   0.905   3.503   0.356
 1150SOL    HW2 4350   0.791   3.440   0.454
 1151SOL     OW 4351   5.705   5.379   4.280
 1151SOL    HW1 4352   5.646   5.311   4.324
 1151SOL    HW2 4353   5.785   5.334   4.241
 1152SOL     OW 4354   3.693   6.727   6.274
 1152SOL    HW1 4355   3.697   6.825   6.291
 1152SOL    HW2 4356   3.599   6.700   6.252
 1153SOL     OW 4357   5.988   6.815   1.533
 1153SOL    HW1 4358   5.939   6.744   1.583
 1153SOL    HW2 4359   6.083   6.817   1.561
 1154SOL     OW 4360   2.148   3.405   0.693
 1154SOL    HW1 4361   2.054   3.388   0.664
 1154SOL    HW2 4362   2.149   3.445   0.784
 1155SOL     OW 4363   3.653   5.660   3.972
 1155SOL    HW1 4364   3.646   5.713   3.888
 1155SOL    HW2 4365   3.687   5.568   3.951
 1156SOL     OW 4366   2.846   1.487   2.376
 1156SOL    HW1 4367   2.852   1.395   2.416
 1156SOL    HW2 4368   2.795   1.547   2.438
 1157SOL     OW 4369   3.029   1.470   0.536
 1157SOL    HW1 4370   3.033   1.371   0.546
 1157SOL    HW2 4371   3.005   1.493   0.442
 1158SOL     OW 4372   5.737   4.144   3.151
 1158SOL    HW1 4373   5.802   4.169   3.079
 1158SOL    HW2 4374   5.776   4.164   3.241
 1159SOL     OW 4375   6.002   4.895   0.293
 1159SOL    HW1 4376   5.984   4.907   0.391
 1159SOL    HW2 4377   6.100   4.885   0.279
 1160SOL     OW 4378   4.441   2.417   0.286
 1160SOL    HW1 4379   4.467   2.511   0.266
 1160SOL    HW2 4380   4.391   2.413   0.372
 1161SOL     OW 4381   6.483   5.485   1.156
 1161SOL    HW1 4382   6.476   5.580   1.125
 1161SOL    HW2 4383   6.510   5.428   1.079
 1162SOL     OW 4384   3.385   2.138   4.153
 1162SOL    HW1 4385   3.397   2.143   4.054
 1162SOL    HW2 4386   3.297   2.179   4.178
 1163SOL     OW 4387   6.041   2.136   1.714
 1163SOL    HW1 4388   6.096   2.190   1.778
 1163SOL    HW2 4389   5.952   2.118   1.755
 1164SOL     OW 4390   4.260   2.620   6.001
 1164SOL    HW1 4391   4.231   2.669   5.918
 1164SOL    HW2 4392   4.230   2.671   6.081
 1165SOL     OW 4393   4.729   6.863   3.504
 1165SOL    HW1 4394   4.704   6.950   3.461
 1165SOL    HW2 4395   4.826   6.864   3.526
 1166SOL     OW 4396   3.268   4.630   6.598
 1166SOL    HW1 4397   3.194   4.641   6.664
 1166SOL    HW2 4398   3.309   4.719   6.578
 1167SOL     OW 4399   4.650   4.275   2.900
 1167SOL    HW1 4400   4.670   4.248   2.806
 1167SOL    HW2 4401   4.599   4.361   2.900
 1168SOL     OW 4402   0.660   0.183   2.140
 1168SOL    HW1 4403   0.701   0.257   2.195
 1168SOL    HW2 4404   0.649   0.214   2.046
 1169SOL     OW 4405   4.610   1.274   5.678
 1169SOL    HW1 4406   4.611   1.374   5.680
 1169SOL    HW2 4407   4.551   1.240   5.751
 1170SOL     OW 4408   4.898   5.008   2.541
 1170SOL    HW1 4409   4.968   5.075   2.516
 1170SOL    HW2 4410   4.914   4.923   2.492
 1171SOL     OW 4411   0.222   5.787   0.779
 1171SOL    HW1 4412   0.189   5.824   0.866
 1171SOL    HW2 4413   0.153   5.726   0.740
 1172SOL     OW 4414   6.357   3.142   5.902
 1172SOL    HW1 4415   6.323   3.210   5.967
 1172SOL    HW2 4416   6.295   3.136   5.825
 1173SOL     OW 4417   3.411   2.559   0.563
 1173SOL    HW1 4418   3.344   2.598   0.627
 1173SOL    HW2 4419   3.503   2.582   0.594
 1174SOL     OW 4420   2.051   4.696   0.449
 1174SOL    HW1 4421   1.961   4.656   0.428
 1174SOL    HW2 4422   2.099   4.716   0.363
 1175SOL     OW 4423   3.236   2.946   4.334
 1175SOL    HW1 4424   3.177   3.025   4.351
 1175SOL    HW2 4425   3.204   2.869   4.389
 1176SOL     OW 4426   5.391   2.979   6.857
 1176SOL    HW1 4427   5.320   2.996   6.789
 1176SOL    HW2 4428   5.400   2.881   6.871
 1177SOL     OW 4429   1.212   1.537   4.350
 1177SOL    HW1 4430   1.307   1.556   4.371
 1177SOL    HW2 4431   1.192   1.564   4.256
 1178SOL     OW 4432   4.420   6.312   6.874
 1178SOL    HW1 4433   4.368   6.390   6.910
 1178SOL    HW2 4434   4.517   6.325   6.893
 1179SOL     OW 4435   0.625   5.757   0.175
 1179SOL    HW1 4436   0.668   5.847   0.169
 1179SOL    HW2 4437   0.537   5.758   0.128
 1180SOL     OW 4438   3.547   6.116   0.574
 1180SOL    HW1 4439   3.568   6.155   0.484
 1180SOL    HW2 4440   3.466   6.059   0.567
 1181SOL     OW 4441   6.303   6.627   6.509
 1181SOL    HW1 4442   6.374   6.577   6.558
 1181SOL    HW2 4443   6.338   6.717   6.483
 1182SOL     OW 4444   4.438   4.512   2.601
 1182SOL    HW1 4445   4.488   4.445   2.546
 1182SOL    HW2 4446   4.470   4.507   2.696
 1183SOL     OW 4447   1.755   4.040   6.475
 1183SOL    HW1 4448   1.843   4.087   6.486
 1183SOL    HW2 4449   1.713   4.067   6.389
 1184SOL     OW 4450   0.137   0.572   5.261
 1184SOL    HW1 4451   0.185   0.659   5.251
 1184SOL    HW2 4452   0.039   0.587   5.250
 1185SOL     OW 4453   6.383   1.282   0.102
 1185SOL    HW1 4454   6.343   1.194   0.080
 1185SOL    HW2 4455   6.439   1.273   0.185
 1186SOL     OW 4456   5.393   6.581   4.703
 1186SOL    HW1 4457   5.400   6.482   4.692
 1186SOL    HW2 4458   5.479   6.617   4.741
 1187SOL     OW 4459   6.313   1.129   5.803
 1187SOL    HW1 4460   6.357   1.109   5.715
 1187SOL    HW2 4461   6.229   1.076   5.811
 1188SOL     OW 4462   2.929   0.925   6.778
 1188SOL    HW1 4463   2.898   1.016   6.802
 1188SOL    HW2 4464   2.881   0.893   6.696
 1189SOL     OW 4465   5.334   3.496   3.882
 1189SOL    HW1 4466   5.294   3.575   3.929
 1189SOL    HW2 4467   5.293   3.488   3.791
 1190SOL     OW 4468   2.383   6.993   3.777
 1190SOL    HW1 4469   2.434   0.034   3.715
 1190SOL    HW2 4470   2.321   0.029   3.833
 1191SOL     OW 4471   4.178   6.664   2.605
 1191SOL    HW1 4472   4.148   6.679   2.699
 1191SOL    HW2 4473   4.149   6.741   2.548
 1192SOL     OW 4474   6.156   6.231   3.445
 1192SOL    HW1 4475   6.125   6.322   3.418
 1192SOL    HW2 4476   6.205   6.189   3.369
 1193SOL     OW 4477   0.186   5.714   4.515
 1193SOL    HW1 4478   0.274   5.667   4.512
 1193SOL    HW2 4479   0.197   5.808   4.483
 1194SOL     OW 4480   3.875   0.062   1.540
 1194SOL    HW1 4481   3.861   0.156   1.509
 1194SOL    HW2 4482   3.789   0.027   1.579
 1195SOL     OW 4483   5.027   2.535   3.679
 1195SOL    HW1 4484   4.969   2.601   3.632
 1195SOL    HW2 4485   5.085   2.488   3.613
 1196SOL     OW 4486   0.160   6.634   4.563
 1196SOL    HW1 4487   0.095   6.563   4.589
 1196SOL    HW2 4488   0.160   6.645   4.463
 1197SOL     OW 4489   1.951   6.156   0.472
 1197SOL    HW1 4490   1.870   6.204   0.438
 1197SOL    HW2 4491   1.975   6.082   0.409
 1198SOL     OW 4492   1.450   2.581   6.724
 1198SOL    HW1 4493   1.367   2.547   6.768
 1198SOL    HW2 4494   1.426   2.637   6.645
 1199SOL     OW 4495   6.502   3.402   1.616
 1199SOL    HW1 4496   6.420   3.351   1.592
 1199SOL    HW2 4497   6.504   3.489   1.567
 1200SOL     OW 4498   2.905   3.726   2.741
 1200SOL    HW1 4499   2.851   3.669   2.803
 1200SOL    HW2 4500   2.884   3.701   2.647
 1201SOL     OW 4501   1.436   1.768   4.868
 1201SOL    HW1 4502   1.401   1.720   4.788
 1201SOL    HW2 4503   1.456   1.702   4.940
 1202SOL     OW 4504   1.374   5.762   5.595
 1202SOL    HW1 4505   1.393   5.700   5.670
 1202SOL    HW2 4506   1.321   5.714   5.525
 1203SOL     OW 4507   3.086   5.717   5.530
 1203SOL    HW1 4508   3.186   5.721   5.527
 1203SOL    HW2 4509   3.053   5.660   5.455
 1204SOL     OW 4510   1.675   6.893   3.119
 1204SOL    HW1 4511   1.735   6.901   3.039
 1204SOL    HW2 4512   1.681   6.976   3.174
 1205SOL     OW 4513   5.630   3.922   2.150
 1205SOL    HW1 4514   5.617   3.824   2.166
 1205SOL    HW2 4515   5.555   3.957   2.093
 1206SOL     OW 4516   3.402   3.558   4.764
 1206SOL    HW1 4517   3.410   3.619   4.843
 1206SOL    HW2 4518   3.329   3.590   4.704
 1207SOL     OW 4519   1.046   5.767   2.846
 1207SOL    HW1 4520   1.130   5.729   2.883
 1207SOL    HW2 4521   1.055   5.781   2.748
 1208SOL     OW 4522   3.411   3.712   6.041
 1208SOL    HW1 4523   3.420   3.667   5.952
 1208SOL    HW2 4524   3.500   3.716   6.086
 1209SOL     OW 4525   3.734   6.551   5.714
 1209SOL    HW1 4526   3.644   6.571   5.675
 1209SOL    HW2 4527   3.724   6.513   5.805
 1210SOL     OW 4528   3.446   0.955   2.827
 1210SOL    HW1 4529   3.475   1.041   2.869
 1210SOL    HW2 4530   3.402   0.974   2.739
 1211SOL     OW 4531   1.078   2.739   0.249
 1211SOL    HW1 4532   1.024   2.768   0.170
 1211SOL    HW2 4533   1.057   2.644   0.270
 1212SOL     OW 4534   1.618   0.038   0.182
 1212SOL    HW1 4535   1.668   6.988   0.235
 1212SOL    HW2 4536   1.680   0.113   0.157
 1213SOL     OW 4537   5.518   2.964   1.439
 1213SOL    HW1 4538   5.426   2.953   1.478
 1213SOL    HW2 4539   5.521   2.921   1.349
 1214SOL     OW 4540   6.875   2.640   1.773
 1214SOL    HW1 4541   6.966   2.616   1.807
 1214SOL    HW2 4542   6.876   2.639   1.673
 1215SOL     OW 4543   1.620   5.841   3.490
 1215SOL    HW1 4544   1.651   5.928   3.451
 1215SOL    HW2 4545   1.560   5.795   3.425
 1216SOL     OW 4546   3.354   0.030   1.675
 1216SOL    HW1 4547   3.263   0.037   1.633
 1216SOL    HW2 4548   3.421   0.078   1.617
 1217SOL     OW 4549   2.948   4.700   0.078
 1217SOL    HW1 4550   3.029   4.759   0.072
 1217SOL    HW2 4551   2.867   4.756   0.092
 1218SOL     OW 4552   2.675   5.331   3.600
 1218SOL    HW1 4553   2.658   5.385   3.683
 1218SOL    HW2 4554   2.597   5.338   3.538
 1219SOL     OW 4555   3.591   6.550   2.179
 1219SOL    HW1 4556   3.530   6.480   2.217
 1219SOL    HW2 4557   3.594   6.628   2.241
 1220SOL     OW 4558   0.991   4.685   2.406
 1220SOL    HW1 4559   0.967   4.711   2.313
 1220SOL    HW2 4560   1.090   4.677   2.414
 1221SOL     OW 4561   4.714   4.786   6.727
 1221SOL    HW1 4562   4.699   4.719   6.654
 1221SOL    HW2 4563   4.811   4.785   6.754
 1222SOL     OW 4564   6.867   0.796   5.999
 1222SOL    HW1 4565   6.952   0.820   5.952
 1222SOL    HW2 4566   6.790   0.838   5.951
 1223SOL     OW 4567   3.450   6.606   0.997
 1223SOL    HW1 4568   3.465   6.523   1.050
 1223SOL    HW2 4569   3.457   6.585   0.899
 1224SOL     OW 4570   3.018   0.579   2.432
 1224SOL    HW1 4571   3.030   0.498   2.490
 1224SOL    HW2 4572   2.953   0.559   2.359
 1225SOL     OW 4573   3.024   3.960   5.717
 1225SOL    HW1 4574   3.095   3.945   5.785
 1225SOL    HW2 4575   2.953   4.020   5.755
 1226SOL     OW 4576   2.064   4.790   0.700
 1226SOL    HW1 4577   2.162   4.771   0.695
 1226SOL    HW2 4578   2.021   4.762   0.614
 1227SOL     OW 4579   0.931   3.326   5.831
 1227SOL    HW1 4580   0.989   3.246   5.847
 1227SOL    HW2 4581   0.900   3.325   5.735
 1228SOL     OW 4582   3.836   1.783   6.555
 1228SOL    HW1 4583   3.852   1.821   6.464
 1228SOL    HW2 4584   3.911   1.809   6.615
 1229SOL     OW 4585   2.966   4.271   6.598
 1229SOL    HW1 4586   2.948   4.306   6.690
 1229SOL    HW2 4587   3.055   4.226   6.596
 1230SOL     OW 4588   4.491   0.532   3.666
 1230SOL    HW1 4589   4.435   0.500   3.742
 1230SOL    HW2 4590   4.515   0.628   3.680
 1231SOL     OW 4591   1.042   4.256   4.631
 1231SOL    HW1 4592   1.103   4.319   4.680
 1231SOL    HW2 4593   1.057   4.163   4.662
 1232SOL     OW 4594   2.195   2.454   2.969
 1232SOL    HW1 4595   2.176   2.385   3.038
 1232SOL    HW2 4596   2.112   2.472   2.916
 1233SOL     OW 4597   0.946   3.115   4.507
 1233SOL    HW1 4598   1.013   3.089   4.437
 1233SOL    HW2 4599   0.893   3.194   4.475
 1234SOL     OW 4600   6.690   4.293   3.905
 1234SOL    HW1 4601   6.760   4.282   3.975
 1234SOL    HW2 4602   6.617   4.352   3.941
 1235SOL     OW 4603   6.365   5.834   4.201
 1235SOL    HW1 4604   6.382   5.875   4.111
 1235SOL    HW2 4605   6.435   5.864   4.266
 1236SOL     OW 4606   5.466   0.989   5.835
 1236SOL    HW1 4607   5.555   0.962   5.872
 1236SOL    HW2 4608   5.454   1.087   5.845
 1237SOL     OW 4609   2.646   4.943   6.597
 1237SOL    HW1 4610   2.701   5.018   6.560
 1237SOL    HW2 4611   2.707   4.876   6.641
 1238SOL     OW 4612   1.476   1.685   0.448
 1238SOL    HW1 4613   1.436   1.613   0.504
 1238SOL    HW2 4614   1.531   1.746   0.506
 1239SOL     OW 4615   0.667   0.033   5.690
 1239SOL    HW1 4616   0.649   0.129   5.672
 1239SOL    HW2 4617   0.764   0.019   5.708
 1240SOL     OW 4618   4.213   6.059   2.099
 1240SOL    HW1 4619   4.171   6.067   2.189
 1240SOL    HW2 4620   4.311   6.079   2.105
 1241SOL     OW 4621   0.515   2.356   4.286
 1241SOL    HW1 4622   0.495   2.446   4.324
 1241SOL    HW2 4623   0.561   2.367   4.198
 1242SOL     OW 4624   2.261   2.949   6.568
 1242SOL    HW1 4625   2.168   2.978   6.546
 1242SOL    HW2 4626   2.326   2.996   6.509
 1243SOL     OW 4627   2.511   5.182   5.430
 1243SOL    HW1 4628   2.413   5.185   5.453
 1243SOL    HW2 4629   2.542   5.273   5.402
 1244SOL     OW 4630   0.232   1.134   3.082
 1244SOL    HW1 4631   0.325   1.099   3.096
 1244SOL    HW2 4632   0.226   1.179   2.993
 1245SOL     OW 4633   3.033   3.160   5.686
 1245SOL    HW1 4634   3.069   3.153   5.593
 1245SOL    HW2 4635   2.991   3.249   5.699
 1246SOL     OW 4636   0.773   6.885   1.314
 1246SOL    HW1 4637   0.832   6.933   1.380
 1246SOL    HW2 4638   0.751   6.794   1.350
 1247SOL     OW 4639   1.389   6.703   6.559
 1247SOL    HW1 4640   1.442   6.718   6.475
 1247SOL    HW2 4641   1.298   6.743   6.548
 1248SOL     OW 4642   1.889   6.464   3.658
 1248SOL    HW1 4643   1.951   6.443   3.583
 1248SOL    HW2 4644   1.844   6.551   3.641
 1249SOL     OW 4645   5.801   2.916   3.410
 1249SOL    HW1 4646   5.864   2.993   3.422
 1249SOL    HW2 4647   5.748   2.903   3.495
 1250SOL     OW 4648   0.008   4.159   4.314
 1250SOL    HW1 4649   0.042   4.065   4.317
 1250SOL    HW2 4650   0.083   4.222   4.333
 1251SOL     OW 4651   3.312   0.046   6.174
 1251SOL    HW1 4652   3.360   6.997   6.231
 1251SOL    HW2 4653   3.329   0.138   6.211
 1252SOL     OW 4654   3.202   3.835   0.020
 1252SOL    HW1 4655   3.250   3.757   6.999
 1252SOL    HW2 4656   3.145   3.805   0.096
 1253SOL     OW 4657   4.015   0.061   2.596
 1253SOL    HW1 4658   3.945   7.010   2.615
 1253SOL    HW2 4659   3.972   0.141   2.554
 1254SOL     OW 4660   5.907   1.463   2.919
 1254SOL    HW1 4661   5.939   1.541   2.865
 1254SOL    HW2 4662   5.908   1.488   3.016
 1255SOL     OW 4663   6.186   0.394   0.381
 1255SOL    HW1 4664   6.219   0.418   0.472
 1255SOL    HW2 4665   6.237   0.446   0.313
 1256SOL     OW 4666   4.946   2.509   3.922
 1256SOL    HW1 4667   4.910   2.416   3.921
 1256SOL    HW2 4668   4.987   2.530   3.833
 1257SOL     OW 4669   6.050   1.212   3.702
 1257SOL    HW1 4670   5.976   1.146   3.693
 1257SOL    HW2 4671   6.014   1.304   3.687
 1258SOL     OW 4672   0.145   5.535   3.668
 1258SOL    HW1 4673   0.059   5.585   3.661
 1258SOL    HW2 4674   0.221   5.599   3.661
 1259SOL     OW 4675   4.487   2.404   4.901
 1259SOL    HW1 4676   4.388   2.418   4.895
 1259SOL    HW2 4677   4.521   2.375   4.811
 1260SOL     OW 4678   0.704   1.534   4.987
 1260SOL    HW1 4679   0.704   1.440   4.953
 1260SOL    HW2 4680   0.740   1.595   4.916
 1261SOL     OW 4681   6.613   3.829   0.979
 1261SOL    HW1 4682   6.701   3.875   0.997
 1261SOL    HW2 4683   6.613   3.793   0.886
 1262SOL     OW 4684   5.027   6.120   2.317
 1262SOL    HW1 4685   4.981   6.181   2.381
 1262SOL    HW2 4686   5.036   6.029   2.357
 1263SOL     OW 4687   0.015   2.370   3.791
 1263SOL    HW1 4688   0.053   2.353   3.882
 1263SOL    HW2 4689   0.025   2.287   3.735
 1264SOL     OW 4690   1.299   2.704   5.056
 1264SOL    HW1 4691   1.351   2.632   5.009
 1264SOL    HW2 4692   1.346   2.728   5.141
 1265SOL     OW 4693   5.495   0.097   5.446
 1265SOL    HW1 4694   5.461   0.191   5.447
 1265SOL    HW2 4695   5.506   0.065   5.540
 1266SOL     OW 4696   2.581   1.288   5.331
 1266SOL    HW1 4697   2.612   1.287   5.426
 1266SOL    HW2 4698   2.559   1.195   5.301
 1267SOL     OW 4699   3.410   0.394   2.522
 1267SOL    HW1 4700   3.497   0.360   2.487
 1267SOL    HW2 4701   3.427   0.457   2.598
 1268SOL     OW 4702   3.935   2.427   5.334
 1268SOL    HW1 4703   3.943   2.506   5.394
 1268SOL    HW2 4704   3.839   2.403   5.323
 1269SOL     OW 4705   6.032   1.930   3.623
 1269SOL    HW1 4706   5.979   2.010   3.653
 1269SOL    HW2 4707   6.013   1.853   3.684
 1270SOL     OW 4708   6.379   5.329   2.639
 1270SOL    HW1 4709   6.387   5.428   2.653
 1270SOL    HW2 4710   6.447   5.299   2.571
 1271SOL     OW 4711   2.491   1.377   1.164
 1271SOL    HW1 4712   2.524   1.450   1.224
 1271SOL    HW2 4713   2.436   1.313   1.217
 1272SOL     OW 4714   5.649   2.085   0.648
 1272SOL    HW1 4715   5.609   2.050   0.563
 1272SOL    HW2 4716   5.658   2.184   0.642
 1273SOL     OW 4717   2.116   4.425   5.926
 1273SOL    HW1 4718   2.181   4.349   5.924
 1273SOL    HW2 4719   2.137   4.488   5.851
 1274SOL     OW 4720   0.004   4.525   4.058
 1274SOL    HW1 4721   0.097   4.494   4.078
 1274SOL    HW2 4722   6.964   4.446   4.037
 1275SOL     OW 4723   2.171   1.671   2.645
 1275SOL    HW1 4724   2.236   1.698   2.716
 1275SOL    HW2 4725   2.108   1.747   2.629
 1276SOL     OW 4726   5.603   4.247   3.615
 1276SOL    HW1 4727   5.586   4.181   3.689
 1276SOL    HW2 4728   5.545   4.225   3.537
 1277SOL     OW 4729   0.986   6.239   6.696
 1277SOL    HW1 4730   0.975   6.335   6.721
 1277SOL    HW2 4731   1.067   6.202   6.740
 1278SOL     OW 4732   0.620   5.935   2.536
 1278SOL    HW1 4733   0.579   5.879   2.608
 1278SOL    HW2 4734   0.624   6.030   2.566
 1279SOL     OW 4735   2.624   3.413   0.892
 1279SOL    HW1 4736   2.692   3.355   0.848
 1279SOL    HW2 4737   2.546   3.425   0.831
 1280SOL     OW 4738   2.439   2.302   4.159
 1280SOL    HW1 4739   2.530   2.308   4.116
 1280SOL    HW2 4740   2.401   2.212   4.143
 1281SOL     OW 4741   5.607   6.284   4.553
 1281SOL    HW1 4742   5.537   6.245   4.613
 1281SOL    HW2 4743   5.655   6.357   4.600
 1282SOL     OW 4744   0.719   2.544   1.458
 1282SOL    HW1 4745   0.717   2.462   1.516
 1282SOL    HW2 4746   0.800   2.598   1.479
 1283SOL     OW 4747   0.097   1.478   4.020
 1283SOL    HW1 4748   0.119   1.574   4.033
 1283SOL    HW2 4749   0.029   1.449   4.088
 1284SOL     OW 4750   3.862   1.993   1.807
 1284SOL    HW1 4751   3.854   2.070   1.743
 1284SOL    HW2 4752   3.838   2.024   1.899
 1285SOL     OW 4753   4.732   1.317   4.336
 1285SOL    HW1 4754   4.698   1.410   4.345
 1285SOL    HW2 4755   4.780   1.291   4.420
 1286SOL     OW 4756   5.012   1.714   1.276
 1286SOL    HW1 4757   5.107   1.734   1.299
 1286SOL    HW2 4758   4.958   1.710   1.360
 1287SOL     OW 4759   5.087   5.108   5.297
 1287SOL    HW1 4760   5.098   5.035   5.365
 1287SOL    HW2 4761   5.139   5.188   5.325
 1288SOL     OW 4762   4.267   4.524   6.889
 1288SOL    HW1 4763   4.170   4.513   6.909
 1288SOL    HW2 4764   4.319   4.453   6.936
 1289SOL     OW 4765   6.616   6.848   0.492
 1289SOL    HW1 4766   6.541   6.799   0.449
 1289SOL    HW2 4767   6.582   6.895   0.574
 1290SOL     OW 4768   1.460   6.488   5.856
 1290SOL    HW1 4769   1.510   6.402   5.848
 1290SOL    HW2 4770   1.520   6.558   5.894
 1291SOL     OW 4771   5.910   5.331   3.858
 1291SOL    HW1 4772   5.997   5.364   3.821
 1291SOL    HW2 4773   5.886   5.244   3.815
 1292SOL     OW 4774   0.403   6.754   2.655
 1292SOL    HW1 4775   0.365   6.662   2.665
 1292SOL    HW2 4776   0.435   6.786   2.744
 1293SOL     OW 4777   4.816   0.999   0.962
 1293SOL    HW1 4778   4.804   1.089   0.920
 1293SOL    HW2 4779   4.902   0.998   1.014
 1294SOL     OW 4780   2.256   4.691   4.950
 1294SOL    HW1 4781   2.305   4.604   4.945
 1294SOL    HW2 4782   2.310   4.762   4.905
 1295SOL     OW 4783   0.072   4.341   0.228
 1295SOL    HW1 4784   0.003   4.406   0.261
 1295SOL    HW2 4785   0.153   4.347   0.286
 1296SOL     OW 4786   5.177   6.987   5.920
 1296SOL    HW1 4787   5.115   6.913   5.947
 1296SOL    HW2 4788   5.246   6.951   5.857
 1297SOL     OW 4789   6.558   6.648   0.285
 1297SOL    HW1 4790   6.525   6.568   0.235
 1297SOL    HW2 4791   6.652   6.633   0.314
 1298SOL     OW 4792   5.309   0.782   3.141
 1298SOL    HW1 4793   5.209   0.777   3.136
 1298SOL    HW2 4794   5.339   0.877   3.127
 1299SOL     OW 4795   1.283   3.528   4.811
 1299SOL    HW1 4796   1.323   3.613   4.845
 1299SOL    HW2 4797   1.225   3.488   4.881
 1300SOL     OW 4798   1.013   5.857   0.756
 1300SOL    HW1 4799   1.075   5.919   0.803
 1300SOL    HW2 4800   1.061   5.772   0.735
 1301SOL     OW 4801   6.858   0.452   0.226
 1301SOL    HW1 4802   6.868   0.545   0.192
 1301SOL    HW2 4803   6.774   0.412   0.190
 1302SOL     OW 4804   6.332   6.618   5.415
 1302SOL    HW1 4805   6.268   6.639   5.341
 1302SOL    HW2 4806   6.381   6.701   5.441
 1303SOL     OW 4807   2.979   6.588   2.139
 1303SOL    HW1 4808   3.059   6.627   2.092
 1303SOL    HW2 4809   2.896   6.616   2.091
 1304SOL     OW 4810   0.276   0.704   0.905
 1304SOL    HW1 4811   0.196   0.646   0.921
 1304SOL    HW2 4812   0.247   0.798   0.888
 1305SOL     OW 4813   4.199   4.516   6.325
 1305SOL    HW1 4814   4.230   4.423   6.306
 1305SOL    HW2 4815   4.208   4.534   6.423
 1306SOL     OW 4816   2.846   6.393   3.504
 1306SOL    HW1 4817   2.854   6.492   3.490
 1306SOL    HW2 4818   2.918   6.347   3.451
 1307SOL     OW 4819   1.750   3.112   4.352
 1307SOL    HW1 4820   1.741   3.156   4.263
 1307SOL    HW2 4821   1.678   3.145   4.413
 1308SOL     OW 4822   6.695   3.428   6.138
 1308SOL    HW1 4823   6.728   3.353   6.080
 1308SOL    HW2 4824   6.597   3.416   6.154
 1309SOL     OW 4825   5.658   3.639   6.397
 1309SOL    HW1 4826   5.575   3.674   6.440
 1309SOL    HW2 4827   5.674   3.545   6.426
 1310SOL     OW 4828   2.169   3.892   3.197
 1310SOL    HW1 4829   2.172   3.965   3.130
 1310SOL    HW2 4830   2.179   3.930   3.289
 1311SOL     OW 4831   5.607   5.386   0.422
 1311SOL    HW1 4832   5.596   5.292   0.389
 1311SOL    HW2 4833   5.544   5.446   0.372
 1312SOL     OW 4834   2.538   1.345   6.266
 1312SOL    HW1 4835   2.471   1.305   6.204
 1312SOL    HW2 4836   2.587   1.273   6.315
 1313SOL     OW 4837   5.862   5.444   1.321
 1313SOL    HW1 4838   5.900   5.537   1.318
 1313SOL    HW2 4839   5.909   5.392   1.392
 1314SOL     OW 4840   1.788   1.541   4.027
 1314SOL    HW1 4841   1.855   1.614   4.015
 1314SOL    HW2 4842   1.785   1.514   4.123
 1315SOL     OW 4843   6.159   1.074   2.870
 1315SOL    HW1 4844   6.228   1.138   2.903
 1315SOL    HW2 4845   6.168   0.987   2.918
 1316SOL     OW 4846   5.324   0.117   6.422
 1316SOL    HW1 4847   5.413   0.087   6.457
 1316SOL    HW2 4848   5.292   0.194   6.477
 1317SOL     OW 4849   2.982   2.905   5.322
 1317SOL    HW1 4850   2.980   2.816   5.366
 1317SOL    HW2 4851   3.055   2.908   5.253
 1318SOL     OW 4852   1.824   1.978   5.898
 1318SOL    HW1 4853   1.795   1.996   5.992
 1318SOL    HW2 4854   1.900   2.039   5.874
 1319SOL     OW 4855   0.155   0.770   0.014
 1319SOL    HW1 4856   0.183   0.677   7.008
 1319SOL    HW2 4857   0.235   0.821   0.049
 1320SOL     OW 4858   2.954   3.197   6.304
 1320SOL    HW1 4859   2.918   3.130   6.239
 1320SOL    HW2 4860   2.880   3.259   6.332
 1321SOL     OW 4861   0.005   2.653   0.995
 1321SOL    HW1 4862   0.021   2.575   0.935
 1321SOL    HW2 4863   6.988   2.730   0.942
 1322SOL     OW 4864   3.288   2.706   0.095
 1322SOL    HW1 4865   3.200   2.665   0.073
 1322SOL    HW2 4866   3.311   2.686   0.190
 1323SOL     OW 4867   4.185   0.343   1.545
 1323SOL    HW1 4868   4.106   0.337   1.606
 1323SOL    HW2 4869   4.156   0.322   1.451
 1324SOL     OW 4870   2.408   4.276   5.914
 1324SOL    HW1 4871   2.499   4.277   5.954
 1324SOL    HW2 4872   2.414   4.302   5.817
 1325SOL     OW 4873   3.572   5.980   5.145
 1325SOL    HW1 4874   3.593   5.929   5.228
 1325SOL    HW2 4875   3.597   5.926   5.065
 1326SOL     OW 4876   5.308   1.677   5.062
 1326SOL    HW1 4877   5.272   1.728   5.140
 1326SOL    HW2 4878   5.237   1.618   5.024
 1327SOL     OW 4879   4.637   5.305   2.572
 1327SOL    HW1 4880   4.653   5.379   2.507
 1327SOL    HW2 4881   4.714   5.301   2.636
 1328SOL     OW 4882   2.383   2.069   6.035
 1328SOL    HW1 4883   2.378   1.983   5.984
 1328SOL    HW2 4884   2.306   2.127   6.009
 1329SOL     OW 4885   1.326   3.186   3.776
 1329SOL    HW1 4886   1.415   3.175   3.732
 1329SOL    HW2 4887   1.264   3.115   3.742
 1330SOL     OW 4888   6.105   3.019   3.114
 1330SOL    HW1 4889   6.091   2.920   3.119
 1330SOL    HW2 4890   6.175   3.039   3.045
 1331SOL     OW 4891   4.575   2.327   3.808
 1331SOL    HW1 4892   4.607   2.237   3.839
 1331SOL    HW2 4893   4.547   2.381   3.887
 1332SOL     OW 4894   2.190   5.550   0.570
 1332SOL    HW1 4895   2.235   5.551   0.660
 1332SOL    HW2 4896   2.212   5.633   0.520
 1333SOL     OW 4897   3.271   3.711   2.698
 1333SOL    HW1 4898   3.226   3.756   2.775
 1333SOL    HW2 4899   3.253   3.612   2.702
 1334SOL     OW 4900   6.967   3.665   1.432
 1334SOL    HW1 4901   0.025   3.635   1.375
 1334SOL    HW2 4902   6.942   3.593   1.497
 1335SOL     OW 4903   0.241   3.724   3.651
 1335SOL    HW1 4904   0.158   3.780   3.659
 1335SOL    HW2 4905   0.220   3.629   3.672
 1336SOL     OW 4906   1.798   0.149   5.499
 1336SOL    HW1 4907   1.731   0.129   5.428
 1336SOL    HW2 4908   1.868   0.077   5.499
 1337SOL     OW 4909   0.499   6.974   2.097
 1337SOL    HW1 4910   0.415   0.005   2.120
 1337SOL    HW2 4911   0.577   0.019   2.101
 1338SOL     OW 4912   6.720   4.292   4.934
 1338SOL    HW1 4913   6.732   4.389   4.911
 1338SOL    HW2 4914   6.750   4.236   4.857
 1339SOL     OW 4915   5.792   1.158   6.737
 1339SOL    HW1 4916   5.853   1.235   6.718
 1339SOL    HW2 4917   5.845   1.073   6.736
 1340SOL     OW 4918   3.678   2.958   1.662
 1340SOL    HW1 4919   3.634   3.018   1.728
 1340SOL    HW2 4920   3.630   2.964   1.574
 1341SOL     OW 4921   4.997   5.251   6.691
 1341SOL    HW1 4922   4.998   5.267   6.790
 1341SOL    HW2 4923   4.986   5.153   6.673
 1342SOL     OW 4924   1.514   6.101   1.333
 1342SOL    HW1 4925   1.551   6.017   1.375
 1342SOL    HW2 4926   1.422   6.118   1.369
 1343SOL     OW 4927   4.786   5.819   2.835
 1343SOL    HW1 4928   4.847   5.818   2.914
 1343SOL    HW2 4929   4.692   5.800   2.865
 1344SOL     OW 4930   0.858   0.825   4.540
 1344SOL    HW1 4931   0.860   0.741   4.595
 1344SOL    HW2 4932   0.766   0.838   4.503
 1345SOL     OW 4933   1.499   6.699   6.263
 1345SOL    HW1 4934   1.541   6.750   6.189
 1345SOL    HW2 4935   1.568   6.641   6.307
 1346SOL     OW 4936   3.133   4.923   4.761
 1346SOL    HW1 4937   3.049   4.911   4.813
 1346SOL    HW2 4938   3.189   4.994   4.803
 1347SOL     OW 4939   1.857   0.448   6.637
 1347SOL    HW1 4940   1.849   0.454   6.736
 1347SOL    HW2 4941   1.821   0.531   6.595
 1348SOL     OW 4942   1.312   6.417   5.294
 1348SOL    HW1 4943   1.378   6.469   5.348
 1348SOL    HW2 4944   1.221   6.457   5.305
 1349SOL     OW 4945   5.386   3.952   4.096
 1349SOL    HW1 4946   5.405   3.904   4.011
 1349SOL    HW2 4947   5.466   4.005   4.124
 1350SOL     OW 4948   4.654   5.064   6.596
 1350SOL    HW1 4949   4.643   4.967   6.615
 1350SOL    HW2 4950   4.598   5.117   6.659
 1351SOL     OW 4951   0.027   2.425   5.972
 1351SOL    HW1 4952   6.977   2.437   6.044
 1351SOL    HW2 4953   7.000   2.421   5.883
 1352SOL     OW 4954   0.379   0.773   2.526
 1352SOL    HW1 4955   0.340   0.702   2.467
 1352SOL    HW2 4956   0.346   0.760   2.619
 1353SOL     OW 4957   6.781   1.397   6.792
 1353SOL    HW1 4958   6.859   1.369   6.848
 1353SOL    HW2 4959   6.809   1.474   6.734
 1354SOL     OW 4960   5.240   5.048   2.592
 1354SOL    HW1 4961   5.183   5.129   2.603
 1354SOL    HW2 4962   5.276   5.045   2.499
 1355SOL     OW 4963   4.467   3.664   5.311
 1355SOL    HW1 4964   4.519   3.649   5.227
 1355SOL    HW2 4965   4.455   3.577   5.359
 1356SOL     OW 4966   2.622   3.037   6.950
 1356SOL    HW1 4967   2.548   3.027   6.884
 1356SOL    HW2 4968   2.630   3.134   6.976
 1357SOL     OW 4969   1.382   2.561   5.577
 1357SOL    HW1 4970   1.470   2.514   5.575
 1357SOL    HW2 4971   1.309   2.496   5.555
 1358SOL     OW 4972   2.280   6.564   6.910
 1358SOL    HW1 4973   2.294   6.577   7.008
 1358SOL    HW2 4974   2.223   6.483   6.895
 1359SOL     OW 4975   6.035   4.039   0.716
 1359SOL    HW1 4976   6.088   4.114   0.755
 1359SOL    HW2 4977   6.083   3.952   0.735
 1360SOL     OW 4978   2.388   2.395   0.299
 1360SOL    HW1 4979   2.464   2.421   0.358
 1360SOL    HW2 4980   2.341   2.477   0.267
 1361SOL     OW 4981   6.655   4.771   5.014
 1361SOL    HW1 4982   6.560   4.781   4.982
 1361SOL    HW2 4983   6.665   4.819   5.101
 1362SOL     OW 4984   3.307   4.041   3.689
 1362SOL    HW1 4985   3.256   4.098   3.753
 1362SOL    HW2 4986   3.405   4.053   3.703
 1363SOL     OW 4987   0.835   6.422   4.144
 1363SOL    HW1 4988   0.782   6.405   4.228
 1363SOL    HW2 4989   0.835   6.520   4.125
 1364SOL     OW 4990   4.693   4.235   0.543
 1364SOL    HW1 4991   4.768   4.300   0.528
 1364SOL    HW2 4992   4.608   4.275   0.508
 1365SOL     OW 4993   6.024   2.707   6.726
 1365SOL    HW1 4994   6.062   2.666   6.643
 1365SOL    HW2 4995   6.095   2.708   6.798
 1366SOL     OW 4996   1.859   0.169   5.833
 1366SOL    HW1 4997   1.881   0.239   5.901
 1366SOL    HW2 4998   1.776   0.194   5.785
 1367SOL     OW 4999   3.088   1.940   2.234
 1367SOL    HW1 5000   3.032   2.022   2.226
 1367SOL    HW2 5001   3.155   1.938   2.159
 1368SOL     OW 5002   6.539   0.205   3.019
 1368SOL    HW1 5003   6.604   0.143   3.061
 1368SOL    HW2 5004   6.479   0.154   2.957
 1369SOL     OW 5005   0.917   0.251   2.665
 1369SOL    HW1 5006   0.841   0.310   2.693
 1369SOL    HW2 5007   0.958   0.286   2.581
 1370SOL     OW 5008   2.361   0.720   2.431
 1370SOL    HW1 5009   2.306   0.643   2.400
 1370SOL    HW2 5010   2.307   0.779   2.491
 1371SOL     OW 5011   3.577   0.569   6.241
 1371SOL    HW1 5012   3.530   0.616   6.316
 1371SOL    HW2 5013   3.557   0.616   6.155
 1372SOL     OW 5014   2.782   2.277   1.762
 1372SOL    HW1 5015   2.842   2.308   1.688
 1372SOL    HW2 5016   2.823   2.302   1.850
 1373SOL     OW 5017   1.509   6.017   6.979
 1373SOL    HW1 5018   1.476   6.111   6.987
 1373SOL    HW2 5019   1.560   6.007   6.894
 1374SOL     OW 5020   5.094   4.377   6.684
 1374SOL    HW1 5021   5.065   4.335   6.598
 1374SOL    HW2 5022   5.065   4.320   6.761
 1375SOL     OW 5023   0.778   4.290   4.683
 1375SOL    HW1 5024   0.746   4.196   4.671
 1375SOL    HW2 5025   0.878   4.292   4.673
 1376SOL     OW 5026   5.152   0.762   2.591
 1376SOL    HW1 5027   5.053   0.754   2.584
 1376SOL    HW2 5028   5.176   0.808   2.676
 1377SOL     OW 5029   0.728   4.731   4.560
 1377SOL    HW1 5030   0.659   4.754   4.491
 1377SOL    HW2 5031   0.712   4.786   4.642
 1378SOL     OW 5032   1.773   2.585   0.353
 1378SOL    HW1 5033   1.773   2.625   0.262
 1378SOL    HW2 5034   1.718   2.501   0.353
 1379SOL     OW 5035   3.758   6.118   1.114
 1379SOL    HW1 5036   3.768   6.088   1.209
 1379SOL    HW2 5037   3.820   6.064   1.056
 1380SOL     OW 5038   5.927   4.774   2.908
 1380SOL    HW1 5039   5.910   4.682   2.873
 1380SOL    HW2 5040   5.847   4.806   2.958
 1381SOL     OW 5041   5.495   6.742   2.310
 1381SOL    HW1 5042   5.557   6.696   2.246
 1381SOL    HW2 5043   5.402   6.740   2.274
 1382SOL     OW 5044   0.332   4.038   6.716
 1382SOL    HW1 5045   0.248   4.077   6.679
 1382SOL    HW2 5046   0.398   4.025   6.642
 1383SOL     OW 5047   2.436   0.226   0.892
 1383SOL    HW1 5048   2.414   0.139   0.848
 1383SOL    HW2 5049   2.483   0.286   0.826
 1384SOL     OW 5050   1.193   1.530   1.958
 1384SOL    HW1 5051   1.255   1.452   1.959
 1384SOL    HW2 5052   1.138   1.531   2.041
 1385SOL     OW 5053   5.199   3.468   4.257
 1385SOL    HW1 5054   5.280   3.414   4.279
 1385SOL    HW2 5055   5.224   3.565   4.252
 1386SOL     OW 5056   2.633   2.474   3.760
 1386SOL    HW1 5057   2.641   2.573   3.759
 1386SOL    HW2 5058   2.648   2.438   3.668
 1387SOL     OW 5059   3.275   0.584   4.123
 1387SOL    HW1 5060   3.200   0.580   4.189
 1387SOL    HW2 5061   3.361   0.595   4.173
 1388SOL     OW 5062   5.108   1.867   3.908
 1388SOL    HW1 5063   5.166   1.793   3.940
 1388SOL    HW2 5064   5.136   1.895   3.816
 1389SOL     OW 5065   6.868   0.388   3.327
 1389SOL    HW1 5066   6.860   0.347   3.417
 1389SOL    HW2 5067   6.949   0.352   3.281
 1390SOL     OW 5068   4.667   2.327   3.015
 1390SOL    HW1 5069   4.668   2.234   3.051
 1390SOL    HW2 5070   4.760   2.360   3.005
 1391SOL     OW 5071   5.703   0.728   4.803
 1391SOL    HW1 5072   5.754   0.814   4.802
 1391SOL    HW2 5073   5.616   0.742   4.851
 1392SOL     OW 5074   4.050   6.501   5.389
 1392SOL    HW1 5075   4.109   6.447   5.449
 1392SOL    HW2 5076   3.993   6.561   5.443
 1393SOL     OW 5077   4.785   0.176   0.005
 1393SOL    HW1 5078   4.817   0.111   6.955
 1393SOL    HW2 5079   4.863   0.216   0.053
 1394SOL     OW 5080   4.120   0.138   4.313
 1394SOL    HW1 5081   4.086   0.207   4.376
 1394SOL    HW2 5082   4.125   0.050   4.359
 1395SOL     OW 5083   0.174   5.243   2.334
 1395SOL    HW1 5084   0.264   5.270   2.298
 1395SOL    HW2 5085   0.143   5.161   2.287
 1396SOL     OW 5086   1.489   1.989   3.380
 1396SOL    HW1 5087   1.527   2.068   3.428
 1396SOL    HW2 5088   1.391   1.984   3.396
 1397SOL     OW 5089   1.871   4.960   5.120
 1397SOL    HW1 5090   1.924   4.900   5.061
 1397SOL    HW2 5091   1.929   5.034   5.153
 1398SOL     OW 5092   2.985   0.150   6.807
 1398SOL    HW1 5093   2.903   0.128   6.753
 1398SOL    HW2 5094   3.004   0.075   6.870
 1399SOL     OW 5095   3.774   0.087   0.040
 1399SOL    HW1 5096   3.854   0.145   0.049
 1399SOL    HW2 5097   3.783   0.007   0.100
 1400SOL     OW 5098   0.292   0.967   5.687
 1400SOL    HW1 5099   0.346   0.896   5.732
 1400SOL    HW2 5100   0.341   1.054   5.692
 1401SOL     OW 5101   5.198   0.084   2.149
 1401SOL    HW1 5102   5.227   0.085   2.053
 1401SOL    HW2 5103   5.098   0.084   2.153
 1402SOL     OW 5104   5.723   4.907   2.193
 1402SOL    HW1 5105   5.759   4.862   2.275
 1402SOL    HW2 5106   5.735   4.847   2.114
 1403SOL     OW 5107   2.915   3.519   6.803
 1403SOL    HW1 5108   3.008   3.547   6.829
 1403SOL    HW2 5109   2.912   3.421   6.789
 1404SOL     OW 5110   3.791   6.241   0.689
 1404SOL    HW1 5111   3.780   6.301   0.769
 1404SOL    HW2 5112   3.709   6.185   0.679
 1405SOL     OW 5113   0.861   3.473   6.987
 1405SOL    HW1 5114   0.804   3.406   0.017
 1405SOL    HW2 5115   0.827   3.565   7.006
 1406SOL     OW 5116   2.244   2.336   7.000
 1406SOL    HW1 5117   2.157   2.322   6.953
 1406SOL    HW2 5118   2.230   2.396   0.060
 1407SOL     OW 5119   0.287   2.601   1.723
 1407SOL    HW1 5120   0.380   2.627   1.698
 1407SOL    HW2 5121   0.256   2.527   1.663
 1408SOL     OW 5122   5.755   6.265   0.342
 1408SOL    HW1 5123   5.770   6.321   0.261
 1408SOL    HW2 5124   5.830   6.199   0.351
 1409SOL     OW 5125   6.286   1.877   5.827
 1409SOL    HW1 5126   6.346   1.826   5.889
 1409SOL    HW2 5127   6.197   1.832   5.823
 1410SOL     OW 5128   2.972   0.842   0.237
 1410SOL    HW1 5129   2.884   0.825   0.192
 1410SOL    HW2 5130   2.965   0.923   0.295
 1411SOL     OW 5131   3.573   6.144   6.776
 1411SOL    HW1 5132   3.590   6.234   6.816
 1411SOL    HW2 5133   3.496   6.101   6.824
 1412SOL     OW 5134   2.540   1.928   0.511
 1412SOL    HW1 5135   2.526   2.024   0.488
 1412SOL    HW2 5136   2.453   1.889   0.544
 1413SOL     OW 5137   2.320   1.659   4.987
 1413SOL    HW1 5138   2.384   1.592   4.950
 1413SOL    HW2 5139   2.299   1.637   5.082
 1414SOL     OW 5140   0.478   5.343   2.296
 1414SOL    HW1 5141   0.492   5.299   2.207
 1414SOL    HW2 5142   0.511   5.437   2.292
 1415SOL     OW 5143   3.925   1.949   5.126
 1415SOL    HW1 5144   3.867   1.992   5.057
 1415SOL    HW2 5145   3.873   1.877   5.172
 1416SOL     OW 5146   4.840   0.430   4.943
 1416SOL    HW1 5147   4.842   0.471   5.034
 1416SOL    HW2 5148   4.895   0.347   4.942
 1417SOL     OW 5149   3.861   3.603   4.547
 1417SOL    HW1 5150   3.797   3.563   4.614
 1417SOL    HW2 5151   3.940   3.641   4.595
 1418SOL     OW 5152   2.896   3.864   5.099
 1418SOL    HW1 5153   2.938   3.922   5.029
 1418SOL    HW2 5154   2.871   3.776   5.058
 1419SOL     OW 5155   0.788   5.769   1.896
 1419SOL    HW1 5156   0.784   5.696   1.828
 1419SOL    HW2 5157   0.800   5.857   1.850
 1420SOL     OW 5158   2.939   6.136   3.371
 1420SOL    HW1 5159   3.039   6.134   3.377
 1420SOL    HW2 5160   2.911   6.103   3.281
 1421SOL     OW 5161   1.663   5.446   0.868
 1421SOL    HW1 5162   1.756   5.480   0.851
 1421SOL    HW2 5163   1.658   5.408   0.961
 1422SOL     OW 5164   1.660   3.612   6.605
 1422SOL    HW1 5165   1.736   3.667   6.639
 1422SOL    HW2 5166   1.655   3.526   6.656
 1423SOL     OW 5167   5.049   0.914   4.696
 1423SOL    HW1 5168   5.082   0.946   4.785
 1423SOL    HW2 5169   4.950   0.920   4.692
 1424SOL     OW 5170   6.893   2.600   1.506
 1424SOL    HW1 5171   6.859   2.506   1.515
 1424SOL    HW2 5172   6.936   2.612   1.417
 1425SOL     OW 5173   5.659   6.575   3.066
 1425SOL    HW1 5174   5.740   6.572   3.007
 1425SOL    HW2 5175   5.608   6.490   3.057
 1426SOL     OW 5176   3.616   1.089   0.704
 1426SOL    HW1 5177   3.641   1.092   0.801
 1426SOL    HW2 5178   3.684   1.036   0.654
 1427SOL     OW 5179   0.731   0.382   4.057
 1427SOL    HW1 5180   0.718   0.291   4.097
 1427SOL    HW2 5181   0.641   0.424   4.041
 1428SOL     OW 5182   2.320   4.254   3.692
 1428SOL    HW1 5183   2.347   4.239   3.787
 1428SOL    HW2 5184   2.375   4.329   3.654
 1429SOL     OW 5185   6.559   0.126   2.050
 1429SOL    HW1 5186   6.556   0.171   1.961
 1429SOL    HW2 5187   6.538   0.192   2.122
 1430SOL     OW 5188   2.226   4.092   4.372
 1430SOL    HW1 5189   2.184   4.027   4.435
 1430SOL    HW2 5190   2.294   4.147   4.420
 1431SOL     OW 5191   3.520   2.067   0.431
 1431SOL    HW1 5192   3.482   2.040   0.343
 1431SOL    HW2 5193   3.463   2.139   0.471
 1432SOL     OW 5194   4.275   0.310   3.167
 1432SOL    HW1 5195   4.310   0.344   3.080
 1432SOL    HW2 5196   4.189   0.356   3.188
 1433SOL     OW 5197   2.881   2.202   4.105
 1433SOL    HW1 5198   2.887   2.121   4.164
 1433SOL    HW2 5199   2.935   2.187   4.022
 1434SOL     OW 5200   5.140   3.348   0.480
 1434SOL    HW1 5201   5.146   3.405   0.398
 1434SOL    HW2 5202   5.222   3.361   0.535
 1435SOL     OW 5203   0.340   6.171   3.982
 1435SOL    HW1 5204   0.346   6.077   4.014
 1435SOL    HW2 5205   0.409   6.187   3.910
 1436SOL     OW 5206   5.269   0.881   0.276
 1436SOL    HW1 5207   5.309   0.920   0.360
 1436SOL    HW2 5208   5.329   0.902   0.199
 1437SOL     OW 5209   4.455   1.713   0.796
 1437SOL    HW1 5210   4.476   1.765   0.878
 1437SOL    HW2 5211   4.394   1.766   0.738
 1438SOL     OW 5212   2.255   0.061   2.967
 1438SOL    HW1 5213   2.278   0.013   2.882
 1438SOL    HW2 5214   2.160   0.041   2.992
 1439SOL     OW 5215   0.517   5.424   5.183
 1439SOL    HW1 5216   0.582   5.485   5.137
 1439SOL    HW2 5217   0.451   5.390   5.116
 1440SOL     OW 5218   3.519   3.488   2.121
 1440SOL    HW1 5219   3.438   3.443   2.159
 1440SOL    HW2 5220   3.578   3.519   2.195
 1441SOL     OW 5221   0.150   1.978   5.943
 1441SOL    HW1 5222   0.219   2.050   5.950
 1441SOL    HW2 5223   0.064   2.017   5.913
 1442SOL     OW 5224   5.273   5.726   0.381
 1442SOL    HW1 5225   5.342   5.657   0.357
 1442SOL    HW2 5226   5.192   5.681   0.416
 1443SOL     OW 5227   1.559   2.954   3.597
 1443SOL    HW1 5228   1.534   2.952   3.500
 1443SOL    HW2 5229   1.557   3.049   3.630
 1444SOL     OW 5230   5.058   6.682   4.455
 1444SOL    HW1 5231   5.065   6.589   4.419
 1444SOL    HW2 5232   4.995   6.683   4.532
 1445SOL     OW 5233   6.956   2.208   0.224
 1445SOL    HW1 5234   6.948   2.232   0.128
 1445SOL    HW2 5235   6.957   2.109   0.235
 1446SOL     OW 5236   3.738   5.976   2.386
 1446SOL    HW1 5237   3.755   6.044   2.315
 1446SOL    HW2 5238   3.639   5.968   2.402
 1447SOL     OW 5239   6.860   0.444   4.563
 1447SOL    HW1 5240   6.899   0.530   4.530
 1447SOL    HW2 5241   6.858   0.444   4.663
 1448SOL     OW 5242   5.044   0.549   0.347
 1448SOL    HW1 5243   5.051   0.551   0.447
 1448SOL    HW2 5244   5.114   0.489   0.310
 1449SOL     OW 5245   4.425   5.417   0.147
 1449SOL    HW1 5246   4.451   5.327   0.112
 1449SOL    HW2 5247   4.344   5.408   0.205
 1450SOL     OW 5248   5.841   1.584   3.456
 1450SOL    HW1 5249   5.933   1.614   3.479
 1450SOL    HW2 5250   5.796   1.653   3.400
 1451SOL     OW 5251   0.983   7.003   1.774
 1451SOL    HW1 5252   1.083   6.996   1.776
 1451SOL    HW2 5253   0.946   6.979   1.863
 1452SOL     OW 5254   2.722   0.333   6.051
 1452SOL    HW1 5255   2.738   0.241   6.016
 1452SOL    HW2 5256   2.806   0.387   6.041
 1453SOL     OW 5257   5.264   4.087   4.414
 1453SOL    HW1 5258   5.286   4.003   4.464
 1453SOL    HW2 5259   5.348   4.133   4.387
 1454SOL     OW 5260   5.563   3.862   1.153
 1454SOL    HW1 5261   5.631   3.794   1.180
 1454SOL    HW2 5262   5.479   3.848   1.205
 1455SOL     OW 5263   1.656   1.966   1.522
 1455SOL    HW1 5264   1.687   1.969   1.617
 1455SOL    HW2 5265   1.557   1.976   1.519
 1456SOL     OW 5266   5.830   5.450   5.507
 1456SOL    HW1 5267   5.797   5.355   5.508
 1456SOL    HW2 5268   5.785   5.500   5.433
 1457SOL     OW 5269   1.753   0.787   4.447
 1457SOL    HW1 5270   1.697   0.704   4.449
 1457SOL    HW2 5271   1.694   0.868   4.449
 1458SOL     OW 5272   0.232   5.433   6.594
 1458SOL    HW1 5273   0.159   5.404   6.532
 1458SOL    HW2 5274   0.293   5.356   6.613
 1459SOL     OW 5275   2.450   6.876   1.668
 1459SOL    HW1 5276   2.450   6.910   1.574
 1459SOL    HW2 5277   2.540   6.889   1.709
 1460SOL     OW 5278   0.304   0.018   6.923
 1460SOL    HW1 5279   0.354   0.076   6.988
 1460SOL    HW2 5280   0.336   0.037   6.830
 1461SOL     OW 5281   5.098   4.977   2.300
 1461SOL    HW1 5282   5.054   4.897   2.341
 1461SOL    HW2 5283   5.068   4.987   2.205
 1462SOL     OW 5284   5.392   0.003   5.183
 1462SOL    HW1 5285   5.469   0.005   5.247
 1462SOL    HW2 5286   5.348   0.092   5.180
 1463SOL     OW 5287   0.855   2.329   5.444
 1463SOL    HW1 5288   0.863   2.366   5.536
 1463SOL    HW2 5289   0.853   2.229   5.447
 1464SOL     OW 5290   0.672   1.012   1.311
 1464SOL    HW1 5291   0.728   1.090   1.282
 1464SOL    HW2 5292   0.678   1.001   1.410
 1465SOL     OW 5293   1.652   0.947   3.436
 1465SOL    HW1 5294   1.575   0.917   3.492
 1465SOL    HW2 5295   1.736   0.947   3.491
 1466SOL     OW 5296   5.515   5.651   4.272
 1466SOL    HW1 5297   5.614   5.643   4.273
 1466SOL    HW2 5298   5.484   5.686   4.360
 1467SOL     OW 5299   6.665   3.895   3.875
 1467SOL    HW1 5300   6.708   3.807   3.891
 1467SOL    HW2 5301   6.705   3.964   3.935
 1468SOL     OW 5302   4.659   0.471   2.602
 1468SOL    HW1 5303   4.671   0.546   2.667
 1468SOL    HW2 5304   4.575   0.486   2.549
 1469SOL     OW 5305   0.740   0.606   2.140
 1469SOL    HW1 5306   0.717   0.701   2.158
 1469SOL    HW2 5307   0.739   0.589   2.042
 1470SOL     OW 5308   0.293   6.999   2.964
 1470SOL    HW1 5309   0.357   6.925   2.982
 1470SOL    HW2 5310   0.201   6.962   2.954
 1471SOL     OW 5311   6.295   0.819   1.208
 1471SOL    HW1 5312   6.278   0.741   1.148
 1471SOL    HW2 5313   6.213   0.838   1.262
 1472SOL     OW 5314   4.646   5.242   4.801
 1472SOL    HW1 5315   4.666   5.253   4.704
 1472SOL    HW2 5316   4.658   5.330   4.848
 1473SOL     OW 5317   6.669   3.734   3.640
 1473SOL    HW1 5318   6.664   3.804   3.712
 1473SOL    HW2 5319   6.586   3.678   3.643
 1474SOL     OW 5320   4.269   5.952   2.901
 1474SOL    HW1 5321   4.202   5.930   2.972
 1474SOL    HW2 5322   4.266   6.049   2.880
 1475SOL     OW 5323   6.297   6.876   2.989
 1475SOL    HW1 5324   6.338   6.953   2.941
 1475SOL    HW2 5325   6.231   6.831   2.929
 1476SOL     OW 5326   0.871   2.169   1.707
 1476SOL    HW1 5327   0.957   2.218   1.724
 1476SOL    HW2 5328   0.890   2.077   1.673
 1477SOL     OW 5329   2.679   6.663   4.458
 1477SOL    HW1 5330   2.760   6.630   4.411
 1477SOL    HW2 5331   2.599   6.654   4.398
 1478SOL     OW 5332   0.040   3.310   1.201
 1478SOL    HW1 5333   7.005   3.332   1.283
 1478SOL    HW2 5334   0.133   3.286   1.227
 1479SOL     OW 5335   1.180   5.618   0.104
 1479SOL    HW1 5336   1.188   5.680   0.026
 1479SOL    HW2 5337   1.084   5.592   0.116
 1480SOL     OW 5338   2.902   1.135   6.957
 1480SOL    HW1 5339   2.823   1.075   6.964
 1480SOL    HW2 5340   2.970   1.109   0.007
 1481SOL     OW 5341   0.109   3.228   6.963
 1481SOL    HW1 5342   0.073   3.286   0.017
 1481SOL    HW2 5343   0.090   3.269   6.874
 1482SOL     OW 5344   5.856   0.425   6.323
 1482SOL    HW1 5345   5.892   0.380   6.405
 1482SOL    HW2 5346   5.885   0.375   6.242
 1483SOL     OW 5347   6.367   2.012   6.622
 1483SOL    HW1 5348   6.341   2.027   6.718
 1483SOL    HW2 5349   6.285   2.000   6.567
 1484SOL     OW 5350   5.769   0.040   2.771
 1484SOL    HW1 5351   5.671   0.056   2.780
 1484SOL    HW2 5352   5.820   0.115   2.813
 1485SOL     OW 5353   5.511   3.340   4.056
 1485SOL    HW1 5354   5.606   3.343   4.023
 1485SOL    HW2 5355   5.453   3.395   3.996
 1486SOL     OW 5356   5.250   2.485   1.958
 1486SOL    HW1 5357   5.312   2.526   1.891
 1486SOL    HW2 5358   5.203   2.407   1.916
 1487SOL     OW 5359   0.167   0.080   5.558
 1487SOL    HW1 5360   0.128   0.130   5.481
 1487SOL    HW2 5361   0.259   0.049   5.534
 1488SOL     OW 5362   5.181   2.064   4.827
 1488SOL    HW1 5363   5.233   2.135   4.873
 1488SOL    HW2 5364   5.088   2.096   4.811
 1489SOL     OW 5365   3.315   5.115   4.868
 1489SOL    HW1 5366   3.279   5.208   4.869
 1489SOL    HW2 5367   3.394   5.110   4.808
 1490SOL     OW 5368   2.318   2.371   1.211
 1490SOL    HW1 5369   2.270   2.457   1.229
 1490SOL    HW2 5370   2.277   2.325   1.132
 1491SOL     OW 5371   0.517   2.225   4.841
 1491SOL    HW1 5372   0.485   2.284   4.916
 1491SOL    HW2 5373   0.511   2.275   4.755
 1492SOL     OW 5374   0.022   2.250   1.681
 1492SOL    HW1 5375   0.051   2.158   1.707
 1492SOL    HW2 5376   7.003   2.297   1.761
 1493SOL     OW 5377   5.959   2.593   5.282
 1493SOL    HW1 5378   5.905   2.534   5.342
 1493SOL    HW2 5379   5.975   2.681   5.327
 1494SOL     OW 5380   5.365   1.628   4.299
 1494SOL    HW1 5381   5.460   1.659   4.294
 1494SOL    HW2 5382   5.344   1.600   4.393
 1495SOL     OW 5383   1.316   3.776   2.515
 1495SOL    HW1 5384   1.403   3.726   2.509
 1495SOL    HW2 5385   1.322   3.845   2.587
 1496SOL     OW 5386   1.477   0.452   2.081
 1496SOL    HW1 5387   1.479   0.467   2.180
 1496SOL    HW2 5388   1.382   0.453   2.050
 1497SOL     OW 5389   5.952   5.061   5.613
 1497SOL    HW1 5390   5.879   5.117   5.573
 1497SOL    HW2 5391   6.022   5.120   5.651
 1498SOL     OW 5392   2.664   5.496   0.705
 1498SOL    HW1 5393   2.702   5.404   0.716
 1498SOL    HW2 5394   2.713   5.544   0.632
 1499SOL     OW 5395   0.787   4.107   4.364
 1499SOL    HW1 5396   0.751   4.092   4.456
 1499SOL    HW2 5397   0.778   4.203   4.339
 1500SOL     OW 5398   3.741   6.827   5.949
 1500SOL    HW1 5399   3.649   6.818   5.912
 1500SOL    HW2 5400   3.770   6.922   5.943
 1501SOL     OW 5401   3.353   0.348   0.799
 1501SOL    HW1 5402   3.429   0.409   0.823
 1501SOL    HW2 5403   3.342   0.279   0.871
 1502SOL     OW 5404   0.697   0.312   5.873
 1502SOL    HW1 5405   0.761   0.373   5.825
 1502SOL    HW2 5406   0.747   0.259   5.941
 1503SOL     OW 5407   3.348   3.914   5.065
 1503SOL    HW1 5408   3.272   3.972   5.096
 1503SOL    HW2 5409   3.369   3.935   4.970
 1504SOL     OW 5410   2.613   6.547   3.662
 1504SOL    HW1 5411   2.563   6.633   3.668
 1504SOL    HW2 5412   2.699   6.562   3.614
 1505SOL     OW 5413   5.164   6.840   2.779
 1505SOL    HW1 5414   5.068   6.820   2.759
 1505SOL    HW2 5415   5.184   6.936   2.759
 1506SOL     OW 5416   1.038   6.233   4.131
 1506SOL    HW1 5417   1.033   6.183   4.044
 1506SOL    HW2 5418   0.956   6.290   4.140
 1507SOL     OW 5419   2.055   1.671   6.946
 1507SOL    HW1 5420   2.092   1.595   6.892
 1507SOL    HW2 5421   2.000   1.730   6.886
 1508SOL     OW 5422   4.450   6.817   1.479
 1508SOL    HW1 5423   4.479   6.746   1.415
 1508SOL    HW2 5424   4.508   6.898   1.467
 1509SOL     OW 5425   5.788   1.471   6.528
 1509SOL    HW1 5426   5.705   1.435   6.572
 1509SOL    HW2 5427   5.822   1.404   6.462
 1510SOL     OW 5428   6.543   1.531   2.803
 1510SOL    HW1 5429   6.581   1.607   2.750
 1510SOL    HW2 5430   6.444   1.542   2.811
 1511SOL     OW 5431   0.908   2.808   0.032
 1511SOL    HW1 5432   0.990   2.827   6.996
 1511SOL    HW2 5433   0.848   2.747   7.000
 1512SOL     OW 5434   7.003   1.102   1.661
 1512SOL    HW1 5435   7.011   1.178   1.726
 1512SOL    HW2 5436   6.975   1.019   1.711
 1513SOL     OW 5437   2.488   0.837   2.776
 1513SOL    HW1 5438   2.495   0.743   2.742
 1513SOL    HW2 5439   2.576   0.883   2.765
 1514SOL     OW 5440   4.293   1.152   5.686
 1514SOL    HW1 5441   4.202   1.194   5.694
 1514SOL    HW2 5442   4.361   1.214   5.724
 1515SOL     OW 5443   5.277   5.290   5.363
 1515SOL    HW1 5444   5.298   5.301   5.265
 1515SOL    HW2 5445   5.253   5.379   5.401
 1516SOL     OW 5446   6.964   1.593   0.610
 1516SOL    HW1 5447   7.009   1.663   0.554
 1516SOL    HW2 5448   6.865   1.603   0.601
 1517SOL     OW 5449   3.277   5.321   2.346
 1517SOL    HW1 5450   3.264   5.326   2.445
 1517SOL    HW2 5451   3.352   5.382   2.319
 1518SOL     OW 5452   0.380   4.811   0.746
 1518SOL    HW1 5453   0.431   4.844   0.667
 1518SOL    HW2 5454   0.282   4.827   0.731
 1519SOL     OW 5455   0.348   4.134   1.013
 1519SOL    HW1 5456   0.335   4.078   0.931
 1519SOL    HW2 5457   0.346   4.231   0.988
 1520SOL     OW 5458   1.150   3.209   2.796
 1520SOL    HW1 5459   1.142   3.208   2.895
 1520SOL    HW2 5460   1.108   3.292   2.760
 1521SOL     OW 5461   2.550   4.611   5.405
 1521SOL    HW1 5462   2.605   4.685   5.366
 1521SOL    HW2 5463   2.592   4.523   5.383
 1522SOL     OW 5464   1.422   1.468   6.233
 1522SOL    HW1 5465   1.501   1.507   6.185
 1522SOL    HW2 5466   1.338   1.503   6.191
 1523SOL     OW 5467   5.712   1.506   1.388
 1523SOL    HW1 5468   5.648   1.434   1.412
 1523SOL    HW2 5469   5.784   1.468   1.330
 1524SOL     OW 5470   0.405   1.353   0.839
 1524SOL    HW1 5471   0.355   1.364   0.925
 1524SOL    HW2 5472   0.344   1.373   0.762
 1525SOL     OW 5473   5.108   1.827   5.816
 1525SOL    HW1 5474   5.152   1.913   5.788
 1525SOL    HW2 5475   5.021   1.817   5.768
 1526SOL     OW 5476   5.690   1.732   0.364
 1526SOL    HW1 5477   5.782   1.738   0.325
 1526SOL    HW2 5478   5.696   1.698   0.457
 1527SOL     OW 5479   3.042   1.237   6.034
 1527SOL    HW1 5480   2.956   1.227   5.984
 1527SOL    HW2 5481   3.030   1.203   6.127
 1528SOL     OW 5482   5.008   5.841   3.586
 1528SOL    HW1 5483   4.944   5.764   3.580
 1528SOL    HW2 5484   5.029   5.874   3.495
 1529SOL     OW 5485   1.977   6.677   5.285
 1529SOL    HW1 5486   1.937   6.588   5.306
 1529SOL    HW2 5487   2.068   6.664   5.244
 1530SOL     OW 5488   2.639   6.636   1.232
 1530SOL    HW1 5489   2.590   6.573   1.172
 1530SOL    HW2 5490   2.582   6.715   1.252
 1531SOL     OW 5491   5.557   0.776   6.301
 1531SOL    HW1 5492   5.472   0.819   6.271
 1531SOL    HW2 5493   5.589   0.820   6.385
 1532SOL     OW 5494   2.723   2.143   5.248
 1532SOL    HW1 5495   2.626   2.123   5.233
 1532SOL    HW2 5496   2.777   2.110   5.171
 1533SOL     OW 5497   4.511   3.365   6.882
 1533SOL    HW1 5498   4.460   3.363   6.967
 1533SOL    HW2 5499   4.464   3.423   6.816
 1534SOL     OW 5500   6.642   0.228   0.793
 1534SOL    HW1 5501   6.548   0.242   0.762
 1534SOL    HW2 5502   6.698   0.195   0.717
 1535SOL     OW 5503   4.947   4.476   4.736
 1535SOL    HW1 5504   4.965   4.407   4.665
 1535SOL    HW2 5505   4.886   4.438   4.805
 1536SOL     OW 5506   3.504   6.543   3.272
 1536SOL    HW1 5507   3.484   6.491   3.189
 1536SOL    HW2 5508   3.488   6.485   3.352
 1537SOL     OW 5509   2.923   5.817   4.598
 1537SOL    HW1 5510   2.957   5.732   4.638
 1537SOL    HW2 5511   2.933   5.891   4.664
 1538SOL     OW 5512   3.423   6.098   0.269
 1538SOL    HW1 5513   3.510   6.145   0.282
 1538SOL    HW2 5514   3.354   6.163   0.235
 1539SOL     OW 5515   2.661   6.476   1.903
 1539SOL    HW1 5516   2.694   6.469   1.809
 1539SOL    HW2 5517   2.573   6.430   1.911
 1540SOL     OW 5518   6.144   6.752   5.265
 1540SOL    HW1 5519   6.129   6.758   5.167
 1540SOL    HW2 5520   6.131   6.842   5.306
 1541SOL     OW 5521   5.398   1.432   1.766
 1541SOL    HW1 5522   5.353   1.478   1.841
 1541SOL    HW2 5523   5.356   1.459   1.679
 1542SOL     OW 5524   6.933   6.215   1.008
 1542SOL    HW1 5525   6.922   6.136   1.068
 1542SOL    HW2 5526   6.969   6.185   0.920
 1543SOL     OW 5527   3.229   3.350   3.003
 1543SOL    HW1 5528   3.314   3.307   2.972
 1543SOL    HW2 5529   3.191   3.405   2.928
 1544SOL     OW 5530   3.635   3.672   1.964
 1544SOL    HW1 5531   3.608   3.764   1.994
 1544SOL    HW2 5532   3.587   3.604   2.019
 1545SOL     OW 5533   0.143   6.727   4.817
 1545SOL    HW1 5534   0.149   6.712   4.719
 1545SOL    HW2 5535   0.156   6.640   4.865
 1546SOL     OW 5536   6.845   6.271   6.495
 1546SOL    HW1 5537   6.847   6.370   6.505
 1546SOL    HW2 5538   6.915   6.243   6.429
 1547SOL     OW 5539   3.531   5.821   0.228
 1547SOL    HW1 5540   3.495   5.913   0.242
 1547SOL    HW2 5541   3.583   5.818   0.143
 1548SOL     OW 5542   6.914   4.181   3.113
 1548SOL    HW1 5543   6.889   4.088   3.088
 1548SOL    HW2 5544   6.899   4.242   3.035
 1549SOL     OW 5545   6.478   2.355   0.798
 1549SOL    HW1 5546   6.409   2.426   0.810
 1549SOL    HW2 5547   6.538   2.352   0.878
 1550SOL     OW 5548   2.657   5.049   2.118
 1550SOL    HW1 5549   2.581   5.112   2.137
 1550SOL    HW2 5550   2.675   4.993   2.199
 1551SOL     OW 5551   0.657   2.348   1.641
 1551SOL    HW1 5552   0.740   2.295   1.655
 1551SOL    HW2 5553   0.582   2.286   1.615
 1552SOL     OW 5554   1.496   6.510   2.153
 1552SOL    HW1 5555   1.542   6.561   2.226
 1552SOL    HW2 5556   1.426   6.451   2.193
 1553SOL     OW 5557   5.849   1.371   5.780
 1553SOL    HW1 5558   5.756   1.392   5.750
 1553SOL    HW2 5559   5.868   1.274   5.765
 1554SOL     OW 5560   2.736   2.652   0.703
 1554SOL    HW1 5561   2.685   2.566   0.702
 1554SOL    HW2 5562   2.734   2.693   0.612
 1555SOL     OW 5563   4.094   1.286   0.629
 1555SOL    HW1 5564   4.118   1.222   0.557
 1555SOL    HW2 5565   3.995   1.281   0.646
 1556SOL     OW 5566   3.136   2.411   0.245
 1556SOL    HW1 5567   3.206   2.463   0.293
 1556SOL    HW2 5568   3.080   2.473   0.189
 1557SOL     OW 5569   1.172   2.909   0.823
 1557SOL    HW1 5570   1.143   2.936   0.731
 1557SOL    HW2 5571   1.173   2.809   0.830
 1558SOL     OW 5572   5.347   2.736   6.622
 1558SOL    HW1 5573   5.361   2.656   6.680
 1558SOL    HW2 5574   5.265   2.723   6.566
 1559SOL     OW 5575   2.555   6.310   3.521
 1559SOL    HW1 5576   2.486   6.342   3.586
 1559SOL    HW2 5577   2.646   6.330   3.556
 1560SOL     OW 5578   4.687   3.011   1.434
 1560SOL    HW1 5579   4.620   2.948   1.475
 1560SOL    HW2 5580   4.717   2.974   1.346
 1561SOL     OW 5581   5.495   6.147   0.407
 1561SOL    HW1 5582   5.526   6.087   0.480
 1561SOL    HW2 5583   5.573   6.176   0.351
 1562SOL     OW 5584   2.682   6.966   2.558
 1562SOL    HW1 5585   2.582   6.969   2.547
 1562SOL    HW2 5586   2.705   6.911   2.639
 1563SOL     OW 5587   2.174   4.022   3.780
 1563SOL    HW1 5588   2.245   4.068   3.727
 1563SOL    HW2 5589   2.217   3.961   3.846
 1564SOL     OW 5590   1.071   1.727   2.523
 1564SOL    HW1 5591   1.119   1.815   2.516
 1564SOL    HW2 5592   1.039   1.715   2.617
 1565SOL     OW 5593   4.886   1.744   5.021
 1565SOL    HW1 5594   4.985   1.751   5.009
 1565SOL    HW2 5595   4.851   1.666   4.970
 1566SOL     OW 5596   0.724   3.608   3.784
 1566SOL    HW1 5597   0.779   3.688   3.808
 1566SOL    HW2 5598   0.777   3.525   3.802
 1567SOL     OW 5599   5.502   0.270   4.840
 1567SOL    HW1 5600   5.552   0.354   4.864
 1567SOL    HW2 5601   5.407   0.293   4.819
 1568SOL     OW 5602   2.261   4.684   0.884
 1568SOL    HW1 5603   2.188   4.620   0.861
 1568SOL    HW2 5604   2.349   4.636   0.885
 1569SOL     OW 5605   2.218   1.033   2.331
 1569SOL    HW1 5606   2.123   1.025   2.299
 1569SOL    HW2 5607   2.265   1.105   2.280
 1570SOL     OW 5608   3.030   6.191   6.348
 1570SOL    HW1 5609   2.932   6.184   6.370
 1570SOL    HW2 5610   3.070   6.268   6.398
 1571SOL     OW 5611   0.102   1.768   4.032
 1571SOL    HW1 5612   0.153   1.853   4.043
 1571SOL    HW2 5613   0.040   1.775   3.954
 1572SOL     OW 5614   1.992   6.194   3.358
 1572SOL    HW1 5615   2.051   6.114   3.345
 1572SOL    HW2 5616   2.044   6.268   3.400
 1573SOL     OW 5617   5.726   5.833   0.502
 1573SOL    HW1 5618   5.797   5.790   0.446
 1573SOL    HW2 5619   5.651   5.864   0.444
 1574SOL     OW 5620   0.310   4.267   3.256
 1574SOL    HW1 5621   0.348   4.174   3.259
 1574SOL    HW2 5622   0.383   4.333   3.277
 1575SOL     OW 5623   0.010   2.116   0.731
 1575SOL    HW1 5624   0.080   2.139   0.799
 1575SOL    HW2 5625   0.043   2.041   0.673
 1576SOL     OW 5626   1.607   6.088   2.384
 1576SOL    HW1 5627   1.564   6.172   2.418
 1576SOL    HW2 5628   1.705   6.092   2.400
 1577SOL     OW 5629   4.403   5.778   4.119
 1577SOL    HW1 5630   4.367   5.709   4.181
 1577SOL    HW2 5631   4.495   5.804   4.147
 1578SOL     OW 5632   5.772   2.012   1.733
 1578SOL    HW1 5633   5.678   1.979   1.742
 1578SOL    HW2 5634   5.801   2.005   1.637
 1579SOL     OW 5635   1.690   3.069   1.899
 1579SOL    HW1 5636   1.631   3.076   1.818
 1579SOL    HW2 5637   1.636   3.084   1.981
 1580SOL     OW 5638   3.321   4.074   3.400
 1580SOL    HW1 5639   3.410   4.114   3.378
 1580SOL    HW2 5640   3.300   4.089   3.496
 1581SOL     OW 5641   4.899   4.863   5.111
 1581SOL    HW1 5642   4.954   4.929   5.060
 1581SOL    HW2 5643   4.924   4.865   5.208
 1582SOL     OW 5644   4.423   6.172   4.626
 1582SOL    HW1 5645   4.463   6.261   4.603
 1582SOL    HW2 5646   4.384   6.131   4.543
 1583SOL     OW 5647   1.143   4.938   5.389
 1583SOL    HW1 5648   1.130   4.839   5.390
 1583SOL    HW2 5649   1.155   4.969   5.294
 1584SOL     OW 5650   0.244   3.573   0.046
 1584SOL    HW1 5651   0.289   3.661   0.062
 1584SOL    HW2 5652   0.204   3.573   6.973
 1585SOL     OW 5653   5.071   6.330   4.612
 1585SOL    HW1 5654   5.100   6.375   4.528
 1585SOL    HW2 5655   5.095   6.387   4.691
 1586SOL     OW 5656   2.535   5.904   3.646
 1586SOL    HW1 5657   2.517   5.839   3.573
 1586SOL    HW2 5658   2.597   5.975   3.613
 1587SOL     OW 5659   3.782   6.479   0.324
 1587SOL    HW1 5660   3.804   6.474   0.421
 1587SOL    HW2 5661   3.866   6.482   0.270
 1588SOL     OW 5662   6.269   2.024   3.541
 1588SOL    HW1 5663   6.185   1.987   3.581
 1588SOL    HW2 5664   6.258   2.030   3.442
 1589SOL     OW 5665   6.841   2.012   4.369
 1589SOL    HW1 5666   6.934   1.977   4.380
 1589SOL    HW2 5667   6.809   1.993   4.276
 1590SOL     OW 5668   5.052   0.615   4.077
 1590SOL    HW1 5669   5.110   0.687   4.114
 1590SOL    HW2 5670   5.041   0.628   3.978
 1591SOL     OW 5671   0.577   5.641   0.402
 1591SOL    HW1 5672   0.616   5.673   0.316
 1591SOL    HW2 5673   0.479   5.625   0.390
 1592SOL     OW 5674   0.041   4.029   4.780
 1592SOL    HW1 5675   0.100   4.037   4.700
 1592SOL    HW2 5676   0.025   3.932   4.801
 1593SOL     OW 5677   3.847   5.824   1.409
 1593SOL    HW1 5678   3.941   5.810   1.380
 1593SOL    HW2 5679   3.785   5.782   1.342
 1594SOL     OW 5680   4.965   0.952   2.935
 1594SOL    HW1 5681   4.905   0.923   2.861
 1594SOL    HW2 5682   4.911   0.976   3.015
 1595SOL     OW 5683   0.564   3.592   6.801
 1595SOL    HW1 5684   0.592   3.534   6.725
 1595SOL    HW2 5685   0.611   3.564   6.884
 1596SOL     OW 5686   5.138   4.099   4.147
 1596SOL    HW1 5687   5.219   4.052   4.112
 1596SOL    HW2 5688   5.134   4.090   4.246
 1597SOL     OW 5689   4.250   6.304   0.716
 1597SOL    HW1 5690   4.301   6.253   0.647
 1597SOL    HW2 5691   4.176   6.248   0.752
 1598SOL     OW 5692   1.264   4.454   6.086
 1598SOL    HW1 5693   1.236   4.524   6.020
 1598SOL    HW2 5694   1.183   4.403   6.117
 1599SOL     OW 5695   4.629   5.732   3.803
 1599SOL    HW1 5696   4.532   5.712   3.817
 1599SOL    HW2 5697   4.683   5.680   3.868
 1600SOL     OW 5698   4.740   0.552   1.465
 1600SOL    HW1 5699   4.653   0.584   1.429
 1600SOL    HW2 5700   4.776   0.619   1.530
 1601SOL     OW 5701   6.294   0.817   4.968
 1601SOL    HW1 5702   6.280   0.723   4.937
 1601SOL    HW2 5703   6.206   0.857   4.994
 1602SOL     OW 5704   4.280   5.482   3.417
 1602SOL    HW1 5705   4.243   5.417   3.350
 1602SOL    HW2 5706   4.365   5.521   3.383
 1603SOL     OW 5707   3.417   5.101   1.883
 1603SOL    HW1 5708   3.450   5.146   1.966
 1603SOL    HW2 5709   3.356   5.026   1.907
 1604SOL     OW 5710   4.477   5.214   2.259
 1604SOL    HW1 5711   4.419   5.295   2.245
 1604SOL    HW2 5712   4.474   5.187   2.355
 1605SOL     OW 5713   4.712   4.990   0.517
 1605SOL    HW1 5714   4.651   4.957   0.445
 1605SOL    HW2 5715   4.769   5.064   0.482
 1606SOL     OW 5716   3.369   5.732   5.514
 1606SOL    HW1 5717   3.341   5.809   5.457
 1606SOL    HW2 5718   3.404   5.767   5.602
 1607SOL     OW 5719   4.941   3.612   3.870
 1607SOL    HW1 5720   4.904   3.658   3.951
 1607SOL    HW2 5721   4.931   3.513   3.881
 1608SOL     OW 5722   5.766   2.837   3.667
 1608SOL    HW1 5723   5.689   2.824   3.730
 1608SOL    HW2 5724   5.824   2.911   3.700
 1609SOL     OW 5725   1.770   6.981   0.881
 1609SOL    HW1 5726   1.798   7.015   0.970
 1609SOL    HW2 5727   1.731   6.889   0.890
 1610SOL     OW 5728   5.593   6.152   1.074
 1610SOL    HW1 5729   5.496   6.170   1.056
 1610SOL    HW2 5730   5.634   6.106   0.996
 1611SOL     OW 5731   0.571   3.973   6.979
 1611SOL    HW1 5732   0.563   4.066   6.943
 1611SOL    HW2 5733   0.658   3.963   0.010
 1612SOL     OW 5734   4.872   1.181   1.808
 1612SOL    HW1 5735   4.813   1.223   1.877
 1612SOL    HW2 5736   4.911   1.096   1.844
 1613SOL     OW 5737   0.297   6.080   2.640
 1613SOL    HW1 5738   0.232   6.104   2.569
 1613SOL    HW2 5739   0.370   6.147   2.643
 1614SOL     OW 5740   6.423   1.791   5.220
 1614SOL    HW1 5741   6.378   1.776   5.132
 1614SOL    HW2 5742   6.386   1.728   5.288
 1615SOL     OW 5743   0.010   3.346   5.000
 1615SOL    HW1 5744   6.987   3.437   5.005
 1615SOL    HW2 5745   0.020   3.320   4.904
 1616SOL     OW 5746   0.758   1.274   3.254
 1616SOL    HW1 5747   0.660   1.293   3.255
 1616SOL    HW2 5748   0.788   1.244   3.344
 1617SOL     OW 5749   6.664   5.535   4.240
 1617SOL    HW1 5750   6.568   5.535   4.267
 1617SOL    HW2 5751   6.709   5.454   4.277
 1618SOL     OW 5752   3.308   5.711   2.986
 1618SOL    HW1 5753   3.253   5.646   2.933
 1618SOL    HW2 5754   3.288   5.699   3.084
 1619SOL     OW 5755   1.086   3.684   6.533
 1619SOL    HW1 5756   1.169   3.705   6.586
 1619SOL    HW2 5757   1.006   3.717   6.583
 1620SOL     OW 5758   3.088   6.738   4.546
 1620SOL    HW1 5759   3.135   6.651   4.528
 1620SOL    HW2 5760   3.134   6.812   4.498
 1621SOL     OW 5761   5.378   4.671   0.989
 1621SOL    HW1 5762   5.379   4.702   1.084
 1621SOL    HW2 5763   5.304   4.604   0.976
 1622SOL     OW 5764   6.352   4.210   3.337
 1622SOL    HW1 5765   6.431   4.151   3.350
 1622SOL    HW2 5766   6.381   4.296   3.295
 1623SOL     OW 5767   0.867   2.551   3.821
 1623SOL    HW1 5768   0.912   2.557   3.911
 1623SOL    HW2 5769   0.909   2.477   3.768
 1624SOL     OW 5770   3.871   2.934   0.693
 1624SOL    HW1 5771   3.887   2.866   0.621
 1624SOL    HW2 5772   3.890   3.026   0.657
 1625SOL     OW 5773   0.829   6.505   0.412
 1625SOL    HW1 5774   0.785   6.428   0.458
 1625SOL    HW2 5775   0.871   6.565   0.480
 1626SOL     OW 5776   2.530   1.834   2.078
 1626SOL    HW1 5777   2.529   1.792   1.988
 1626SOL    HW2 5778   2.589   1.914   2.077
 1627SOL     OW 5779   4.385   1.616   5.870
 1627SOL    HW1 5780   4.297   1.604   5.916
 1627SOL    HW2 5781   4.451   1.552   5.908
 1628SOL     OW 5782   5.314   6.215   1.125
 1628SOL    HW1 5783   5.251   6.192   1.051
 1628SOL    HW2 5784   5.288   6.165   1.207
 1629SOL     OW 5785   1.504   6.972   3.485
 1629SOL    HW1 5786   1.420   7.002   3.531
 1629SOL    HW2 5787   1.583   7.012   3.532
 1630SOL     OW 5788   0.707   4.225   6.266
 1630SOL    HW1 5789   0.731   4.133   6.236
 1630SOL    HW2 5790   0.762   4.292   6.216
 1631SOL     OW 5791   5.342   3.607   0.178
 1631SOL    HW1 5792   5.342   3.617   0.079
 1631SOL    HW2 5793   5.249   3.587   0.209
 1632SOL     OW 5794   5.995   6.400   2.237
 1632SOL    HW1 5795   5.990   6.484   2.291
 1632SOL    HW2 5796   5.923   6.400   2.168
 1633SOL     OW 5797   5.721   3.620   4.662
 1633SOL    HW1 5798   5.626   3.592   4.648
 1633SOL    HW2 5799   5.779   3.539   4.669
 1634SOL     OW 5800   1.294   3.504   5.980
 1634SOL    HW1 5801   1.330   3.587   6.023
 1634SOL    HW2 5802   1.350   3.479   5.901
 1635SOL     OW 5803   2.242   0.268   3.663
 1635SOL    HW1 5804   2.258   0.220   3.577
 1635SOL    HW2 5805   2.159   0.232   3.705
 1636SOL     OW 5806   0.231   6.021   1.660
 1636SOL    HW1 5807   0.243   6.059   1.752
 1636SOL    HW2 5808   0.243   6.092   1.592
 1637SOL     OW 5809   1.573   1.590   2.493
 1637SOL    HW1 5810   1.585   1.491   2.485
 1637SOL    HW2 5811   1.574   1.617   2.589
 1638SOL     OW 5812   5.577   2.591   3.319
 1638SOL    HW1 5813   5.492   2.574   3.369
 1638SOL    HW2 5814   5.574   2.543   3.232
 1639SOL     OW 5815   4.727   2.257   1.707
 1639SOL    HW1 5816   4.656   2.305   1.656
 1639SOL    HW2 5817   4.750   2.309   1.790
 1640SOL     OW 5818   6.146   0.536   6.812
 1640SOL    HW1 5819   6.118   0.535   6.909
 1640SOL    HW2 5820   6.083   0.595   6.760
 1641SOL     OW 5821   5.749   1.056   3.382
 1641SOL    HW1 5822   5.737   1.113   3.301
 1641SOL    HW2 5823   5.846   1.044   3.401
 1642SOL     OW 5824   0.058   3.308   5.723
 1642SOL    HW1 5825   0.053   3.282   5.820
 1642SOL    HW2 5826   6.984   3.320   5.687
 1643SOL     OW 5827   2.329   5.330   3.664
 1643SOL    HW1 5828   2.241   5.327   3.713
 1643SOL    HW2 5829   2.403   5.341   3.730
 1644SOL     OW 5830   6.103   1.436   1.794
 1644SOL    HW1 5831   6.086   1.534   1.782
 1644SOL    HW2 5832   6.176   1.407   1.733
 1645SOL     OW 5833   2.592   0.934   4.702
 1645SOL    HW1 5834   2.536   0.939   4.620
 1645SOL    HW2 5835   2.565   0.855   4.756
 1646SOL     OW 5836   0.143   5.169   1.625
 1646SOL    HW1 5837   0.048   5.167   1.656
 1646SOL    HW2 5838   0.189   5.249   1.665
 1647SOL     OW 5839   6.512   3.544   4.916
 1647SOL    HW1 5840   6.600   3.550   4.870
 1647SOL    HW2 5841   6.494   3.629   4.966
 1648SOL     OW 5842   5.491   6.311   1.542
 1648SOL    HW1 5843   5.400   6.306   1.502
 1648SOL    HW2 5844   5.520   6.220   1.571
 1649SOL     OW 5845   3.533   1.218   2.867
 1649SOL    HW1 5846   3.520   1.254   2.775
 1649SOL    HW2 5847   3.622   1.248   2.902
 1650SOL     OW 5848   2.363   2.715   4.951
 1650SOL    HW1 5849   2.347   2.806   4.989
 1650SOL    HW2 5850   2.457   2.709   4.917
 1651SOL     OW 5851   0.933   2.199   4.054
 1651SOL    HW1 5852   0.888   2.131   3.996
 1651SOL    HW2 5853   0.919   2.290   4.016
 1652SOL     OW 5854   0.142   3.994   1.816
 1652SOL    HW1 5855   0.069   3.982   1.748
 1652SOL    HW2 5856   0.115   3.952   1.902
 1653SOL     OW 5857   6.607   4.536   1.833
 1653SOL    HW1 5858   6.675   4.463   1.820
 1653SOL    HW2 5859   6.567   4.559   1.744
 1654SOL     OW 5860   0.524   4.263   1.373
 1654SOL    HW1 5861   0.583   4.240   1.450
 1654SOL    HW2 5862   0.543   4.201   1.297
 1655SOL     OW 5863   0.088   0.874   5.843
 1655SOL    HW1 5864   0.154   0.843   5.912
 1655SOL    HW2 5865   0.135   0.926   5.773
 1656SOL     OW 5866   1.881   4.042   3.299
 1656SOL    HW1 5867   1.872   3.944   3.282
 1656SOL    HW2 5868   1.935   4.057   3.383
 1657SOL     OW 5869   0.960   0.567   6.151
 1657SOL    HW1 5870   0.971   0.586   6.248
 1657SOL    HW2 5871   0.900   0.488   6.139
 1658SOL     OW 5872   5.399   6.616   5.948
 1658SOL    HW1 5873   5.481   6.633   6.003
 1658SOL    HW2 5874   5.422   6.551   5.875
 1659SOL     OW 5875   3.670   0.079   5.855
 1659SOL    HW1 5876   3.612   0.160   5.861
 1659SOL    HW2 5877   3.705   0.070   5.761
 1660SOL     OW 5878   2.410   0.575   1.960
 1660SOL    HW1 5879   2.443   0.648   1.900
 1660SOL    HW2 5880   2.371   0.616   2.043
 1661SOL     OW 5881   5.078   3.967   3.097
 1661SOL    HW1 5882   5.141   3.958   3.020
 1661SOL    HW2 5883   4.984   3.976   3.062
 1662SOL     OW 5884   0.347   1.582   3.383
 1662SOL    HW1 5885   0.297   1.498   3.361
 1662SOL    HW2 5886   0.282   1.659   3.385
 1663SOL     OW 5887   5.257   3.902   1.188
 1663SOL    HW1 5888   5.247   3.941   1.097
 1663SOL    HW2 5889   5.188   3.941   1.249
 1664SOL     OW 5890   1.112   1.110   6.322
 1664SOL    HW1 5891   1.114   1.121   6.421
 1664SOL    HW2 5892   1.149   1.192   6.278
 1665SOL     OW 5893   2.277   3.888   6.537
 1665SOL    HW1 5894   2.257   3.959   6.470
 1665SOL    HW2 5895   2.192   3.846   6.568
 1666SOL     OW 5896   5.608   6.215   5.926
 1666SOL    HW1 5897   5.691   6.167   5.953
 1666SOL    HW2 5898   5.631   6.309   5.898
 1667SOL     OW 5899   0.052   5.286   1.050
 1667SOL    HW1 5900   7.008   5.213   1.021
 1667SOL    HW2 5901   0.135   5.245   1.089
 1668SOL     OW 5902   5.922   3.049   2.289
 1668SOL    HW1 5903   5.951   3.003   2.373
 1668SOL    HW2 5904   5.984   3.024   2.215
 1669SOL     OW 5905   6.406   2.746   5.364
 1669SOL    HW1 5906   6.445   2.830   5.324
 1669SOL    HW2 5907   6.431   2.668   5.308
 1670SOL     OW 5908   3.361   4.424   5.630
 1670SOL    HW1 5909   3.310   4.509   5.646
 1670SOL    HW2 5910   3.346   4.395   5.535
 1671SOL     OW 5911   5.245   1.972   0.773
 1671SOL    HW1 5912   5.194   2.035   0.714
 1671SOL    HW2 5913   5.224   1.991   0.869
 1672SOL     OW 5914   0.370   1.988   1.540
 1672SOL    HW1 5915   0.354   1.967   1.444
 1672SOL    HW2 5916   0.413   2.078   1.548
 1673SOL     OW 5917   1.790   0.258   4.935
 1673SOL    HW1 5918   1.770   0.162   4.912
 1673SOL    HW2 5919   1.705   0.304   4.961
 1674SOL     OW 5920   4.896   2.268   3.849
 1674SOL    HW1 5921   4.836   2.193   3.876
 1674SOL    HW2 5922   4.983   2.231   3.815
 1675SOL     OW 5923   5.521   0.260   2.090
 1675SOL    HW1 5924   5.490   0.353   2.105
 1675SOL    HW2 5925   5.449   0.206   2.046
 1676SOL     OW 5926   1.021   2.462   3.360
 1676SOL    HW1 5927   1.093   2.523   3.394
 1676SOL    HW2 5928   1.032   2.371   3.401
 1677SOL     OW 5929   3.012   3.269   3.158
 1677SOL    HW1 5930   2.950   3.345   3.141
 1677SOL    HW2 5931   3.100   3.285   3.112
 1678SOL     OW 5932   0.189   6.399   6.757
 1678SOL    HW1 5933   0.270   6.398   6.698
 1678SOL    HW2 5934   0.191   6.481   6.814
 1679SOL     OW 5935   5.974   1.744   0.578
 1679SOL    HW1 5936   5.988   1.809   0.503
 1679SOL    HW2 5937   6.062   1.709   0.610
 1680SOL     OW 5938   6.165   2.806   2.793
 1680SOL    HW1 5939   6.216   2.753   2.861
 1680SOL    HW2 5940   6.201   2.900   2.791
 1681SOL     OW 5941   3.315   6.035   4.771
 1681SOL    HW1 5942   3.398   6.012   4.718
 1681SOL    HW2 5943   3.280   5.952   4.814
 1682SOL     OW 5944   4.348   0.901   4.454
 1682SOL    HW1 5945   4.424   0.839   4.435
 1682SOL    HW2 5946   4.370   0.992   4.419
 1683SOL     OW 5947   0.824   2.573   3.086
 1683SOL    HW1 5948   0.834   2.485   3.133
 1683SOL    HW2 5949   0.754   2.628   3.132
 1684SOL     OW 5950   2.819   5.530   1.432
 1684SOL    HW1 5951   2.802   5.563   1.524
 1684SOL    HW2 5952   2.771   5.443   1.418
 1685SOL     OW 5953   0.105   1.213   5.563
 1685SOL    HW1 5954   0.055   1.134   5.528
 1685SOL    HW2 5955   0.203   1.197   5.551
 1686SOL     OW 5956   3.951   5.431   1.855
 1686SOL    HW1 5957   3.869   5.468   1.811
 1686SOL    HW2 5958   3.991   5.361   1.797
 1687SOL     OW 5959   5.182   3.756   0.623
 1687SOL    HW1 5960   5.160   3.763   0.525
 1687SOL    HW2 5961   5.148   3.837   0.671
 1688SOL     OW 5962   2.874   0.174   2.836
 1688SOL    HW1 5963   2.912   0.141   2.749
 1688SOL    HW2 5964   2.781   0.138   2.847
 1689SOL     OW 5965   3.858   0.778   1.986
 1689SOL    HW1 5966   3.778   0.836   1.972
 1689SOL    HW2 5967   3.829   0.683   1.998
 1690SOL     OW 5968   6.542   4.996   4.369
 1690SOL    HW1 5969   6.555   4.987   4.270
 1690SOL    HW2 5970   6.465   5.058   4.387
 1691SOL     OW 5971   4.042   2.711   5.362
 1691SOL    HW1 5972   3.993   2.778   5.306
 1691SOL    HW2 5973   4.098   2.653   5.302
 1692SOL     OW 5974   6.050   5.246   1.925
 1692SOL    HW1 5975   6.051   5.162   1.978
 1692SOL    HW2 5976   5.968   5.299   1.947
 1693SOL     OW 5977   5.351   6.853   5.786
 1693SOL    HW1 5978   5.375   6.784   5.855
 1693SOL    HW2 5979   5.377   6.820   5.695
 1694SOL     OW 5980   4.648   1.196   6.364
 1694SOL    HW1 5981   4.682   1.230   6.452
 1694SOL    HW2 5982   4.726   1.178   6.303
 1695SOL     OW 5983   4.062   0.190   5.105
 1695SOL    HW1 5984   4.112   0.252   5.166
 1695SOL    HW2 5985   4.025   0.114   5.157
 1696SOL     OW 5986   4.984   6.998   0.979
 1696SOL    HW1 5987   5.009   6.913   1.024
 1696SOL    HW2 5988   4.932   0.037   1.042
 1697SOL     OW 5989   4.523   2.748   1.827
 1697SOL    HW1 5990   4.567   2.837   1.840
 1697SOL    HW2 5991   4.581   2.676   1.865
 1698SOL     OW 5992   4.049   1.347   1.697
 1698SOL    HW1 5993   4.100   1.411   1.639
 1698SOL    HW2 5994   3.991   1.399   1.760
 1699SOL     OW 5995   1.910   0.561   0.992
 1699SOL    HW1 5996   1.825   0.512   0.972
 1699SOL    HW2 5997   1.913   0.646   0.938
 1700SOL     OW 5998   5.542   3.322   2.821
 1700SOL    HW1 5999   5.561   3.240   2.875
 1700SOL    HW2 6000   5.447   3.319   2.789
 1701SOL     OW 6001   1.132   5.683   4.947
 1701SOL    HW1 6002   1.043   5.726   4.937
 1701SOL    HW2 6003   1.122   5.584   4.953
 1702SOL     OW 6004   1.766   2.631   6.516
 1702SOL    HW1 6005   1.846   2.579   6.487
 1702SOL    HW2 6006   1.703   2.643   6.439
 1703SOL     OW 6007   1.324   1.824   2.036
 1703SOL    HW1 6008   1.285   1.861   2.121
 1703SOL    HW2 6009   1.287   1.733   2.019
 1704SOL     OW 6010   2.920   2.868   6.884
 1704SOL    HW1 6011   2.855   2.942   6.870
 1704SOL    HW2 6012   2.919   2.841   6.980
 1705SOL     OW 6013   5.297   3.073   0.497
 1705SOL    HW1 6014   5.338   3.094   0.586
 1705SOL    HW2 6015   5.275   3.159   0.450
 1706SOL     OW 6016   5.363   1.135   6.225
 1706SOL    HW1 6017   5.405   1.201   6.288
 1706SOL    HW2 6018   5.319   1.184   6.150
 1707SOL     OW 6019   3.640   1.054   1.703
 1707SOL    HW1 6020   3.713   1.018   1.644
 1707SOL    HW2 6021   3.643   1.154   1.700
 1708SOL     OW 6022   2.540   4.574   2.029
 1708SOL    HW1 6023   2.639   4.568   2.018
 1708SOL    HW2 6024   2.508   4.665   2.003
 1709SOL     OW 6025   5.147   4.472   1.483
 1709SOL    HW1 6026   5.165   4.524   1.400
 1709SOL    HW2 6027   5.072   4.408   1.467
 1710SOL     OW 6028   4.833   2.985   2.311
 1710SOL    HW1 6029   4.792   3.020   2.227
 1710SOL    HW2 6030   4.885   3.058   2.356
 1711SOL     OW 6031   4.038   5.505   0.097
 1711SOL    HW1 6032   4.066   5.599   0.115
 1711SOL    HW2 6033   3.948   5.488   0.137
 1712SOL     OW 6034   0.323   1.640   1.940
 1712SOL    HW1 6035   0.317   1.556   1.994
 1712SOL    HW2 6036   0.380   1.624   1.860
 1713SOL     OW 6037   3.038   1.457   2.174
 1713SOL    HW1 6038   2.950   1.444   2.219
 1713SOL    HW2 6039   3.037   1.544   2.124
 1714SOL     OW 6040   2.542   4.696   0.976
 1714SOL    HW1 6041   2.543   4.771   1.042
 1714SOL    HW2 6042   2.633   4.654   0.971
 1715SOL     OW 6043   0.942   6.140   1.196
 1715SOL    HW1 6044   0.852   6.114   1.230
 1715SOL    HW2 6045   0.973   6.074   1.128
 1716SOL     OW 6046   5.297   1.764   3.011
 1716SOL    HW1 6047   5.249   1.852   3.015
 1716SOL    HW2 6048   5.272   1.717   2.926
 1717SOL     OW 6049   4.029   6.521   3.776
 1717SOL    HW1 6050   4.064   6.440   3.822
 1717SOL    HW2 6051   4.041   6.511   3.677
 1718SOL     OW 6052   1.808   3.517   1.984
 1718SOL    HW1 6053   1.857   3.465   1.914
 1718SOL    HW2 6054   1.791   3.610   1.952
 1719SOL     OW 6055   1.132   5.222   3.113
 1719SOL    HW1 6056   1.065   5.189   3.046
 1719SOL    HW2 6057   1.130   5.163   3.194
 1720SOL     OW 6058   1.032   2.814   5.442
 1720SOL    HW1 6059   0.933   2.809   5.434
 1720SOL    HW2 6060   1.058   2.856   5.529
 1721SOL     OW 6061   2.030   2.478   0.390
 1721SOL    HW1 6062   2.044   2.444   0.483
 1721SOL    HW2 6063   1.938   2.514   0.380
 1722SOL     OW 6064   2.819   2.331   3.436
 1722SOL    HW1 6065   2.842   2.271   3.513
 1722SOL    HW2 6066   2.851   2.291   3.351
 1723SOL     OW 6067   6.330   4.455   1.427
 1723SOL    HW1 6068   6.257   4.431   1.491
 1723SOL    HW2 6069   6.331   4.389   1.352
 1724SOL     OW 6070   5.699   3.065   0.986
 1724SOL    HW1 6071   5.664   3.015   0.906
 1724SOL    HW2 6072   5.778   3.017   1.024
 1725SOL     OW 6073   1.935   6.333   5.683
 1725SOL    HW1 6074   2.022   6.327   5.634
 1725SOL    HW2 6075   1.915   6.428   5.706
 1726SOL     OW 6076   4.564   4.682   3.497
 1726SOL    HW1 6077   4.639   4.669   3.562
 1726SOL    HW2 6078   4.477   4.679   3.545
 1727SOL     OW 6079   3.569   3.107   3.131
 1727SOL    HW1 6080   3.654   3.056   3.143
 1727SOL    HW2 6081   3.507   3.089   3.207
 1728SOL     OW 6082   5.612   1.957   4.395
 1728SOL    HW1 6083   5.556   1.924   4.471
 1728SOL    HW2 6084   5.565   2.032   4.349
 1729SOL     OW 6085   1.057   2.890   2.774
 1729SOL    HW1 6086   1.144   2.877   2.725
 1729SOL    HW2 6087   1.022   2.982   2.755
 1730SOL     OW 6088   2.420   0.328   4.617
 1730SOL    HW1 6089   2.382   0.414   4.651
 1730SOL    HW2 6090   2.505   0.307   4.665
 1731SOL     OW 6091   5.196   4.502   3.651
 1731SOL    HW1 6092   5.200   4.408   3.684
 1731SOL    HW2 6093   5.263   4.515   3.578
 1732SOL     OW 6094   3.893   3.314   5.113
 1732SOL    HW1 6095   3.829   3.244   5.082
 1732SOL    HW2 6096   3.934   3.359   5.034
 1733SOL     OW 6097   1.529   2.107   6.529
 1733SOL    HW1 6098   1.566   2.199   6.540
 1733SOL    HW2 6099   1.431   2.112   6.513
 1734SOL     OW 6100   0.794   4.173   0.961
 1734SOL    HW1 6101   0.867   4.156   0.896
 1734SOL    HW2 6102   0.753   4.262   0.944
 1735SOL     OW 6103   2.856   5.279   6.032
 1735SOL    HW1 6104   2.928   5.260   5.965
 1735SOL    HW2 6105   2.885   5.353   6.092
 1736SOL     OW 6106   5.303   2.051   6.480
 1736SOL    HW1 6107   5.328   1.974   6.540
 1736SOL    HW2 6108   5.383   2.082   6.430
 1737SOL     OW 6109   2.685   0.969   6.144
 1737SOL    HW1 6110   2.739   0.905   6.090
 1737SOL    HW2 6111   2.729   0.984   6.233
 1738SOL     OW 6112   1.362   4.307   2.159
 1738SOL    HW1 6113   1.322   4.217   2.142
 1738SOL    HW2 6114   1.457   4.307   2.128
 1739SOL     OW 6115   4.865   5.351   2.717
 1739SOL    HW1 6116   4.892   5.448   2.721
 1739SOL    HW2 6117   4.842   5.319   2.809
 1740SOL     OW 6118   6.792   2.415   4.848
 1740SOL    HW1 6119   6.787   2.441   4.751
 1740SOL    HW2 6120   6.734   2.476   4.902
 1741SOL     OW 6121   1.189   2.884   4.684
 1741SOL    HW1 6122   1.279   2.886   4.728
 1741SOL    HW2 6123   1.201   2.896   4.585
 1742SOL     OW 6124   6.119   6.985   6.910
 1742SOL    HW1 6125   6.101   0.065   6.897
 1742SOL    HW2 6126   6.054   6.932   6.855
 1743SOL     OW 6127   1.447   2.182   1.711
 1743SOL    HW1 6128   1.499   2.264   1.688
 1743SOL    HW2 6129   1.497   2.130   1.780
 1744SOL     OW 6130   2.989   2.247   5.327
 1744SOL    HW1 6131   2.913   2.216   5.270
 1744SOL    HW2 6132   3.067   2.270   5.268
 1745SOL     OW 6133   6.680   6.274   0.368
 1745SOL    HW1 6134   6.629   6.301   0.286
 1745SOL    HW2 6135   6.626   6.294   0.449
 1746SOL     OW 6136   2.781   5.017   2.418
 1746SOL    HW1 6137   2.693   5.060   2.398
 1746SOL    HW2 6138   2.782   4.987   2.514
 1747SOL     OW 6139   3.159   0.323   2.302
 1747SOL    HW1 6140   3.218   0.364   2.372
 1747SOL    HW2 6141   3.105   0.250   2.342
 1748SOL     OW 6142   6.876   1.754   3.841
 1748SOL    HW1 6143   6.854   1.832   3.782
 1748SOL    HW2 6144   6.823   1.674   3.812
 1749SOL     OW 6145   6.180   5.658   2.316
 1749SOL    HW1 6146   6.185   5.654   2.216
 1749SOL    HW2 6147   6.085   5.669   2.345
 1750SOL     OW 6148   3.254   1.995   0.756
 1750SOL    HW1 6149   3.266   2.021   0.660
 1750SOL    HW2 6150   3.169   1.942   0.766
 1751SOL     OW 6151   6.050   4.218   4.622
 1751SOL    HW1 6152   6.009   4.295   4.574
 1751SOL    HW2 6153   6.135   4.247   4.667
 1752SOL     OW 6154   6.061   0.586   2.399
 1752SOL    HW1 6155   5.962   0.578   2.389
 1752SOL    HW2 6156   6.082   0.651   2.472
 1753SOL     OW 6157   6.954   1.741   1.556
 1753SOL    HW1 6158   0.029   1.713   1.579
 1753SOL    HW2 6159   6.924   1.812   1.619
 1754SOL     OW 6160   2.848   5.729   3.579
 1754SOL    HW1 6161   2.842   5.807   3.516
 1754SOL    HW2 6162   2.758   5.711   3.618
 1755SOL     OW 6163   6.280   6.647   4.859
 1755SOL    HW1 6164   6.195   6.653   4.911
 1755SOL    HW2 6165   6.333   6.731   4.871
 1756SOL     OW 6166   4.319   6.135   1.522
 1756SOL    HW1 6167   4.354   6.086   1.602
 1756SOL    HW2 6168   4.350   6.230   1.524
 1757SOL     OW 6169   2.888   5.131   5.006
 1757SOL    HW1 6170   2.842   5.043   5.001
 1757SOL    HW2 6171   2.899   5.157   5.102
 1758SOL     OW 6172   1.007   6.123   3.900
 1758SOL    HW1 6173   1.090   6.086   3.858
 1758SOL    HW2 6174   0.932   6.121   3.834
 1759SOL     OW 6175   1.632   5.061   6.358
 1759SOL    HW1 6176   1.676   5.106   6.279
 1759SOL    HW2 6177   1.533   5.070   6.350
 1760SOL     OW 6178   6.115   1.844   3.903
 1760SOL    HW1 6179   6.096   1.879   3.995
 1760SOL    HW2 6180   6.179   1.768   3.909
 1761SOL     OW 6181   5.132   2.166   3.735
 1761SOL    HW1 6182   5.138   2.072   3.703
 1761SOL    HW2 6183   5.162   2.228   3.662
 1762SOL     OW 6184   0.760   1.280   5.843
 1762SOL    HW1 6185   0.815   1.316   5.919
 1762SOL    HW2 6186   0.675   1.333   5.836
 1763SOL     OW 6187   1.964   4.999   3.621
 1763SOL    HW1 6188   1.915   4.944   3.554
 1763SOL    HW2 6189   1.919   4.989   3.711
 1764SOL     OW 6190   1.269   6.252   3.379
 1764SOL    HW1 6191   1.291   6.291   3.290
 1764SOL    HW2 6192   1.171   6.237   3.387
 1765SOL     OW 6193   5.160   3.597   2.095
 1765SOL    HW1 6194   5.105   3.515   2.112
 1765SOL    HW2 6195   5.100   3.674   2.072
 1766SOL     OW 6196   4.750   4.856   3.951
 1766SOL    HW1 6197   4.828   4.803   3.985
 1766SOL    HW2 6198   4.729   4.929   4.016
 1767SOL     OW 6199   1.089   4.147   1.762
 1767SOL    HW1 6200   1.053   4.074   1.704
 1767SOL    HW2 6201   1.021   4.172   1.830
 1768SOL     OW 6202   3.857   4.890   2.729
 1768SOL    HW1 6203   3.948   4.852   2.742
 1768SOL    HW2 6204   3.817   4.856   2.644
 1769SOL     OW 6205   5.409   0.450   0.902
 1769SOL    HW1 6206   5.363   0.518   0.845
 1769SOL    HW2 6207   5.452   0.495   0.980
 1770SOL     OW 6208   2.188   5.105   1.112
 1770SOL    HW1 6209   2.111   5.156   1.074
 1770SOL    HW2 6210   2.246   5.070   1.038
 1771SOL     OW 6211   1.210   2.590   6.156
 1771SOL    HW1 6212   1.204   2.576   6.057
 1771SOL    HW2 6213   1.212   2.688   6.176
 1772SOL     OW 6214   2.050   4.204   2.877
 1772SOL    HW1 6215   2.057   4.265   2.798
 1772SOL    HW2 6216   2.139   4.162   2.894
 1773SOL     OW 6217   2.172   6.318   5.005
 1773SOL    HW1 6218   2.125   6.236   4.972
 1773SOL    HW2 6219   2.252   6.292   5.058
 1774SOL     OW 6220   5.478   5.795   1.802
 1774SOL    HW1 6221   5.477   5.714   1.861
 1774SOL    HW2 6222   5.491   5.766   1.707
 1775SOL     OW 6223   1.326   6.319   0.736
 1775SOL    HW1 6224   1.400   6.354   0.793
 1775SOL    HW2 6225   1.339   6.351   0.642
 1776SOL     OW 6226   4.516   3.435   6.046
 1776SOL    HW1 6227   4.544   3.406   5.955
 1776SOL    HW2 6228   4.548   3.528   6.062
 1777SOL     OW 6229   4.414   6.149   0.196
 1777SOL    HW1 6230   4.475   6.225   0.216
 1777SOL    HW2 6231   4.319   6.180   0.199
 1778SOL     OW 6232   6.679   0.015   3.160
 1778SOL    HW1 6233   6.631   0.030   3.246
 1778SOL    HW2 6234   6.777   0.003   3.178
 1779SOL     OW 6235   6.258   0.061   4.737
 1779SOL    HW1 6236   6.278   0.007   4.655
 1779SOL    HW2 6237   6.164   0.046   4.765
 1780SOL     OW 6238   3.341   6.135   5.077
 1780SOL    HW1 6239   3.364   6.216   5.024
 1780SOL    HW2 6240   3.426   6.089   5.105
 1781SOL     OW 6241   4.549   1.487   6.043
 1781SOL    HW1 6242   4.473   1.530   6.090
 1781SOL    HW2 6243   4.634   1.507   6.092
 1782SOL     OW 6244   5.171   0.498   2.537
 1782SOL    HW1 6245   5.176   0.593   2.567
 1782SOL    HW2 6246   5.227   0.441   2.596
 1783SOL     OW 6247   1.463   3.311   6.927
 1783SOL    HW1 6248   1.373   3.302   6.970
 1783SOL    HW2 6249   1.468   3.253   6.846
 1784SOL     OW 6250   2.173   6.391   1.224
 1784SOL    HW1 6251   2.080   6.356   1.217
 1784SOL    HW2 6252   2.184   6.439   1.311
 1785SOL     OW 6253   1.620   6.104   4.512
 1785SOL    HW1 6254   1.537   6.075   4.561
 1785SOL    HW2 6255   1.628   6.053   4.427
 1786SOL     OW 6256   0.546   5.971   1.747
 1786SOL    HW1 6257   0.643   5.980   1.723
 1786SOL    HW2 6258   0.491   6.017   1.677
 1787SOL     OW 6259   1.737   2.450   5.912
 1787SOL    HW1 6260   1.638   2.446   5.929
 1787SOL    HW2 6261   1.762   2.381   5.845
 1788SOL     OW 6262   3.538   3.973   0.787
 1788SOL    HW1 6263   3.613   3.939   0.729
 1788SOL    HW2 6264   3.459   3.995   0.730
 1789SOL     OW 6265   5.914   3.028   1.897
 1789SOL    HW1 6266   5.855   3.090   1.947
 1789SOL    HW2 6267   5.995   3.006   1.952
 1790SOL     OW 6268   2.210   1.439   4.421
 1790SOL    HW1 6269   2.223   1.449   4.322
 1790SOL    HW2 6270   2.297   1.453   4.468
 1791SOL     OW 6271   6.233   0.438   3.686
 1791SOL    HW1 6272   6.188   0.349   3.694
 1791SOL    HW2 6273   6.165   0.511   3.698
 1792SOL     OW 6274   0.128   2.509   6.403
 1792SOL    HW1 6275   0.128   2.432   6.467
 1792SOL    HW2 6276   0.192   2.491   6.329
 1793SOL     OW 6277   0.412   1.294   4.556
 1793SOL    HW1 6278   0.455   1.250   4.635
 1793SOL    HW2 6279   0.338   1.236   4.522
 1794SOL     OW 6280   6.917   1.795   6.830
 1794SOL    HW1 6281   6.939   1.876   6.776
 1794SOL    HW2 6282   6.934   1.814   6.927
 1795SOL     OW 6283   5.572   5.096   0.415
 1795SOL    HW1 6284   5.480   5.058   0.409
 1795SOL    HW2 6285   5.635   5.039   0.362
 1796SOL     OW 6286   6.010   6.615   0.153
 1796SOL    HW1 6287   6.027   6.565   0.238
 1796SOL    HW2 6288   5.920   6.590   0.117
 1797SOL     OW 6289   2.727   6.160   5.325
 1797SOL    HW1 6290   2.734   6.239   5.265
 1797SOL    HW2 6291   2.819   6.130   5.353
 1798SOL     OW 6292   2.547   3.833   5.853
 1798SOL    HW1 6293   2.641   3.852   5.824
 1798SOL    HW2 6294   2.522   3.893   5.929
 1799SOL     OW 6295   3.481   1.373   2.056
 1799SOL    HW1 6296   3.507   1.431   2.134
 1799SOL    HW2 6297   3.390   1.398   2.025
 1800SOL     OW 6298   6.432   2.615   5.792
 1800SOL    HW1 6299   6.348   2.562   5.779
 1800SOL    HW2 6300   6.427   2.699   5.737
 1801SOL     OW 6301   0.072   0.948   2.529
 1801SOL    HW1 6302   0.064   0.850   2.513
 1801SOL    HW2 6303   0.024   0.998   2.457
 1802SOL     OW 6304   6.132   4.616   4.117
 1802SOL    HW1 6305   6.176   4.580   4.035
 1802SOL    HW2 6306   6.174   4.576   4.198
 1803SOL     OW 6307   0.210   6.419   3.881
 1803SOL    HW1 6308   0.211   6.351   3.953
 1803SOL    HW2 6309   0.150   6.388   3.806
 1804SOL     OW 6310   0.950   2.848   6.376
 1804SOL    HW1 6311   0.918   2.844   6.282
 1804SOL    HW2 6312   0.871   2.847   6.438
 1805SOL     OW 6313   5.993   4.702   6.209
 1805SOL    HW1 6314   6.013   4.679   6.304
 1805SOL    HW2 6315   5.997   4.801   6.197
 1806SOL     OW 6316   0.714   1.769   1.363
 1806SOL    HW1 6317   0.703   1.811   1.453
 1806SOL    HW2 6318   0.765   1.830   1.303
 1807SOL     OW 6319   6.378   2.671   2.222
 1807SOL    HW1 6320   6.395   2.763   2.258
 1807SOL    HW2 6321   6.464   2.620   2.219
 1808SOL     OW 6322   5.988   0.654   6.641
 1808SOL    HW1 6323   5.959   0.746   6.614
 1808SOL    HW2 6324   5.908   0.597   6.658
 1809SOL     OW 6325   5.285   0.243   5.182
 1809SOL    HW1 6326   5.346   0.309   5.137
 1809SOL    HW2 6327   5.243   0.286   5.262
 1810SOL     OW 6328   1.222   1.168   4.529
 1810SOL    HW1 6329   1.271   1.149   4.443
 1810SOL    HW2 6330   1.257   1.253   4.568
 1811SOL     OW 6331   3.357   5.736   2.113
 1811SOL    HW1 6332   3.410   5.762   2.032
 1811SOL    HW2 6333   3.271   5.786   2.114
 1812SOL     OW 6334   4.170   0.480   6.445
 1812SOL    HW1 6335   4.096   0.536   6.483
 1812SOL    HW2 6336   4.166   0.483   6.345
 1813SOL     OW 6337   5.356   3.115   2.148
 1813SOL    HW1 6338   5.280   3.090   2.089
 1813SOL    HW2 6339   5.328   3.106   2.244
 1814SOL     OW 6340   6.378   5.618   0.669
 1814SOL    HW1 6341   6.436   5.660   0.739
 1814SOL    HW2 6342   6.381   5.519   0.679
 1815SOL     OW 6343   6.101   5.070   1.153
 1815SOL    HW1 6344   6.059   5.161   1.154
 1815SOL    HW2 6345   6.036   5.004   1.115
 1816SOL     OW 6346   3.593   5.031   4.759
 1816SOL    HW1 6347   3.553   4.970   4.691
 1816SOL    HW2 6348   3.619   5.117   4.715
 1817SOL     OW 6349   6.873   3.016   3.556
 1817SOL    HW1 6350   6.961   2.977   3.580
 1817SOL    HW2 6351   6.819   3.032   3.639
 1818SOL     OW 6352   2.121   1.523   1.244
 1818SOL    HW1 6353   2.168   1.556   1.163
 1818SOL    HW2 6354   2.097   1.600   1.303
 1819SOL     OW 6355   0.916   3.996   1.233
 1819SOL    HW1 6356   0.825   3.968   1.263
 1819SOL    HW2 6357   0.960   3.920   1.185
 1820SOL     OW 6358   3.900   6.974   5.160
 1820SOL    HW1 6359   3.969   6.907   5.188
 1820SOL    HW2 6360   3.910   6.992   5.062
 1821SOL     OW 6361   4.007   1.766   2.677
 1821SOL    HW1 6362   3.985   1.735   2.769
 1821SOL    HW2 6363   3.928   1.754   2.617
 1822SOL     OW 6364   1.714   4.242   4.290
 1822SOL    HW1 6365   1.808   4.208   4.295
 1822SOL    HW2 6366   1.715   4.342   4.298
 1823SOL     OW 6367   3.649   6.953   3.697
 1823SOL    HW1 6368   3.601   6.915   3.776
 1823SOL    HW2 6369   3.583   6.972   3.624
 1824SOL     OW 6370   4.746   2.744   2.084
 1824SOL    HW1 6371   4.719   2.840   2.077
 1824SOL    HW2 6372   4.842   2.734   2.060
 1825SOL     OW 6373   1.264   3.658   0.218
 1825SOL    HW1 6374   1.356   3.677   0.185
 1825SOL    HW2 6375   1.220   3.744   0.244
 1826SOL     OW 6376   3.591   3.047   0.665
 1826SOL    HW1 6377   3.618   3.087   0.753
 1826SOL    HW2 6378   3.657   2.977   0.639
 1827SOL     OW 6379   5.144   4.657   0.709
 1827SOL    HW1 6380   5.172   4.752   0.694
 1827SOL    HW2 6381   5.208   4.596   0.662
 1828SOL     OW 6382   2.817   4.817   4.597
 1828SOL    HW1 6383   2.765   4.896   4.630
 1828SOL    HW2 6384   2.888   4.848   4.534
 1829SOL     OW 6385   2.112   6.140   1.981
 1829SOL    HW1 6386   2.119   6.221   1.922
 1829SOL    HW2 6387   2.020   6.134   2.019
 1830SOL     OW 6388   4.297   1.454   6.460
 1830SOL    HW1 6389   4.249   1.373   6.493
 1830SOL    HW2 6390   4.354   1.492   6.534
 1831SOL     OW 6391   3.790   4.754   0.761
 1831SOL    HW1 6392   3.888   4.735   0.770
 1831SOL    HW2 6393   3.769   4.780   0.667
 1832SOL     OW 6394   2.066   3.638   5.660
 1832SOL    HW1 6395   2.159   3.670   5.674
 1832SOL    HW2 6396   2.022   3.692   5.588
 1833SOL     OW 6397   5.944   1.119   0.116
 1833SOL    HW1 6398   6.012   1.071   0.171
 1833SOL    HW2 6399   5.930   1.070   0.030
 1834SOL     OW 6400   1.798   3.881   6.143
 1834SOL    HW1 6401   1.735   3.958   6.129
 1834SOL    HW2 6402   1.785   3.814   6.070
 1835SOL     OW 6403   6.075   6.757   0.641
 1835SOL    HW1 6404   6.135   6.696   0.693
 1835SOL    HW2 6405   6.130   6.808   0.574
 1836SOL     OW 6406   6.366   2.015   4.077
 1836SOL    HW1 6407   6.357   2.074   3.996
 1836SOL    HW2 6408   6.276   1.996   4.115
 1837SOL     OW 6409   1.296   1.822   0.229
 1837SOL    HW1 6410   1.384   1.841   0.271
 1837SOL    HW2 6411   1.229   1.799   0.300
 1838SOL     OW 6412   5.118   0.521   1.133
 1838SOL    HW1 6413   5.161   0.444   1.086
 1838SOL    HW2 6414   5.054   0.487   1.202
 1839SOL     OW 6415   6.600   1.258   6.469
 1839SOL    HW1 6416   6.553   1.288   6.552
 1839SOL    HW2 6417   6.566   1.310   6.390
 1840SOL     OW 6418   3.383   0.038   5.193
 1840SOL    HW1 6419   3.483   0.045   5.194
 1840SOL    HW2 6420   3.344   0.113   5.246
 1841SOL     OW 6421   2.126   0.476   1.792
 1841SOL    HW1 6422   2.090   0.386   1.813
 1841SOL    HW2 6423   2.224   0.478   1.811
 1842SOL     OW 6424   6.690   4.903   1.100
 1842SOL    HW1 6425   6.682   4.828   1.035
 1842SOL    HW2 6426   6.648   4.986   1.062
 1843SOL     OW 6427   3.126   1.333   6.770
 1843SOL    HW1 6428   3.035   1.357   6.805
 1843SOL    HW2 6429   3.150   1.241   6.801
 1844SOL     OW 6430   4.896   3.387   0.756
 1844SOL    HW1 6431   4.864   3.475   0.790
 1844SOL    HW2 6432   4.907   3.391   0.657
 1845SOL     OW 6433   1.297   2.817   4.438
 1845SOL    HW1 6434   1.254   2.749   4.377
 1845SOL    HW2 6435   1.332   2.893   4.384
 1846SOL     OW 6436   3.511   1.566   2.296
 1846SOL    HW1 6437   3.427   1.620   2.283
 1846SOL    HW2 6438   3.588   1.614   2.254
 1847SOL     OW 6439   2.451   5.699   0.244
 1847SOL    HW1 6440   2.411   5.765   0.308
 1847SOL    HW2 6441   2.525   5.743   0.193
 1848SOL     OW 6442   3.429   5.985   4.458
 1848SOL    HW1 6443   3.341   5.988   4.411
 1848SOL    HW2 6444   3.449   6.076   4.496
 1849SOL     OW 6445   4.768   2.876   2.740
 1849SOL    HW1 6446   4.727   2.788   2.717
 1849SOL    HW2 6447   4.803   2.873   2.834
 1850SOL     OW 6448   4.464   1.858   1.009
 1850SOL    HW1 6449   4.536   1.798   1.041
 1850SOL    HW2 6450   4.389   1.860   1.075
 1851SOL     OW 6451   0.825   5.014   4.460
 1851SOL    HW1 6452   0.775   5.085   4.410
 1851SOL    HW2 6453   0.783   4.925   4.443
 1852SOL     OW 6454   0.471   6.803   3.517
 1852SOL    HW1 6455   0.562   6.839   3.499
 1852SOL    HW2 6456   0.461   6.785   3.615
 1853SOL     OW 6457   0.775   1.820   5.718
 1853SOL    HW1 6458   0.808   1.910   5.746
 1853SOL    HW2 6459   0.675   1.821   5.713
 1854SOL     OW 6460   0.290   6.997   4.335
 1854SOL    HW1 6461   0.263   0.064   4.381
 1854SOL    HW2 6462   0.329   6.934   4.402
 1855SOL     OW 6463   6.558   1.358   4.747
 1855SOL    HW1 6464   6.501   1.408   4.812
 1855SOL    HW2 6465   6.503   1.290   4.699
 1856SOL     OW 6466   4.944   4.108   6.636
 1856SOL    HW1 6467   4.976   4.138   6.546
 1856SOL    HW2 6468   4.950   4.009   6.641
 1857SOL     OW 6469   4.144   0.907   6.569
 1857SOL    HW1 6470   4.183   0.944   6.484
 1857SOL    HW2 6471   4.071   0.968   6.601
 1858SOL     OW 6472   5.552   1.959   5.101
 1858SOL    HW1 6473   5.575   1.862   5.092
 1858SOL    HW2 6474   5.470   1.969   5.157
 1859SOL     OW 6475   6.735   6.680   2.565
 1859SOL    HW1 6476   6.796   6.718   2.496
 1859SOL    HW2 6477   6.767   6.707   2.656
 1860SOL     OW 6478   2.649   1.184   6.476
 1860SOL    HW1 6479   2.575   1.143   6.529
 1860SOL    HW2 6480   2.727   1.122   6.474
 1861SOL     OW 6481   6.637   6.467   5.256
 1861SOL    HW1 6482   6.682   6.379   5.242
 1861SOL    HW2 6483   6.540   6.459   5.230
 1862SOL     OW 6484   3.671   6.005   5.960
 1862SOL    HW1 6485   3.757   5.998   6.009
 1862SOL    HW2 6486   3.604   6.054   6.017
 1863SOL     OW 6487   6.870   1.170   1.264
 1863SOL    HW1 6488   6.948   1.115   1.236
 1863SOL    HW2 6489   6.901   1.244   1.324
 1864SOL     OW 6490   2.137   6.452   2.724
 1864SOL    HW1 6491   2.154   6.426   2.819
 1864SOL    HW2 6492   2.084   6.380   2.678
 1865SOL     OW 6493   6.497   1.895   6.368
 1865SOL    HW1 6494   6.458   1.803   6.366
 1865SOL    HW2 6495   6.502   1.927   6.463
 1866SOL     OW 6496   6.848   4.504   4.464
 1866SOL    HW1 6497   6.869   4.587   4.412
 1866SOL    HW2 6498   6.871   4.519   4.560
 1867SOL     OW 6499   1.125   1.136   1.432
 1867SOL    HW1 6500   1.123   1.234   1.411
 1867SOL    HW2 6501   1.056   1.116   1.502
 1868SOL     OW 6502   4.920   3.871   5.953
 1868SOL    HW1 6503   4.847   3.918   6.003
 1868SOL    HW2 6504   5.001   3.866   6.010
 1869SOL     OW 6505   5.060   0.838   5.104
 1869SOL    HW1 6506   5.012   0.765   5.055
 1869SOL    HW2 6507   4.998   0.881   5.169
 1870SOL     OW 6508   6.259   0.205   6.059
 1870SOL    HW1 6509   6.343   0.223   6.111
 1870SOL    HW2 6510   6.261   0.110   6.027
 1871SOL     OW 6511   1.857   5.354   0.025
 1871SOL    HW1 6512   1.851   5.254   0.023
 1871SOL    HW2 6513   1.875   5.388   6.951
 1872SOL     OW 6514   2.476   3.563   1.091
 1872SOL    HW1 6515   2.468   3.497   1.166
 1872SOL    HW2 6516   2.523   3.521   1.014
 1873SOL     OW 6517   5.846   1.753   2.482
 1873SOL    HW1 6518   5.922   1.798   2.527
 1873SOL    HW2 6519   5.783   1.822   2.445
 1874SOL     OW 6520   1.677   5.551   6.499
 1874SOL    HW1 6521   1.732   5.594   6.571
 1874SOL    HW2 6522   1.655   5.619   6.429
 1875SOL     OW 6523   1.046   6.454   2.310
 1875SOL    HW1 6524   1.013   6.391   2.380
 1875SOL    HW2 6525   1.124   6.506   2.346
 1876SOL     OW 6526   0.972   4.691   0.199
 1876SOL    HW1 6527   0.963   4.780   0.153
 1876SOL    HW2 6528   1.069   4.675   0.220
 1877SOL     OW 6529   1.179   1.025   3.261
 1877SOL    HW1 6530   1.249   1.096   3.254
 1877SOL    HW2 6531   1.105   1.045   3.197
 1878SOL     OW 6532   5.708   4.036   4.273
 1878SOL    HW1 6533   5.801   4.021   4.307
 1878SOL    HW2 6534   5.649   3.963   4.306
 1879SOL     OW 6535   4.104   6.360   5.151
 1879SOL    HW1 6536   4.094   6.419   5.231
 1879SOL    HW2 6537   4.133   6.269   5.179
 1880SOL     OW 6538   1.377   3.002   4.270
 1880SOL    HW1 6539   1.372   3.096   4.302
 1880SOL    HW2 6540   1.470   2.982   4.237
 1881SOL     OW 6541   2.044   1.641   3.438
 1881SOL    HW1 6542   2.087   1.626   3.528
 1881SOL    HW2 6543   1.958   1.692   3.450
 1882SOL     OW 6544   3.704   5.700   0.712
 1882SOL    HW1 6545   3.644   5.718   0.791
 1882SOL    HW2 6546   3.690   5.771   0.644
 1883SOL     OW 6547   2.130   3.521   2.391
 1883SOL    HW1 6548   2.160   3.449   2.328
 1883SOL    HW2 6549   2.031   3.536   2.379
 1884SOL     OW 6550   5.056   0.779   0.143
 1884SOL    HW1 6551   4.998   0.705   0.177
 1884SOL    HW2 6552   5.127   0.799   0.209
 1885SOL     OW 6553   0.210   1.351   0.574
 1885SOL    HW1 6554   0.210   1.403   0.488
 1885SOL    HW2 6555   0.174   1.408   0.648
 1886SOL     OW 6556   3.159   3.156   5.429
 1886SOL    HW1 6557   3.237   3.192   5.378
 1886SOL    HW2 6558   3.090   3.122   5.364
 1887SOL     OW 6559   0.831   5.957   5.072
 1887SOL    HW1 6560   0.735   5.962   5.100
 1887SOL    HW2 6561   0.886   5.917   5.146
 1888SOL     OW 6562   2.033   1.507   6.249
 1888SOL    HW1 6563   2.051   1.588   6.305
 1888SOL    HW2 6564   2.102   1.501   6.176
 1889SOL     OW 6565   3.651   3.249   6.974
 1889SOL    HW1 6566   3.678   3.318   6.908
 1889SOL    HW2 6567   3.705   3.166   6.960
 1890SOL     OW 6568   6.094   5.771   6.504
 1890SOL    HW1 6569   6.067   5.866   6.492
 1890SOL    HW2 6570   6.048   5.714   6.436
 1891SOL     OW 6571   5.072   3.627   6.464
 1891SOL    HW1 6572   5.115   3.608   6.376
 1891SOL    HW2 6573   4.979   3.661   6.449
 1892SOL     OW 6574   4.674   0.401   3.208
 1892SOL    HW1 6575   4.655   0.388   3.306
 1892SOL    HW2 6576   4.630   0.486   3.178
 1893SOL     OW 6577   2.983   1.364   6.476
 1893SOL    HW1 6578   2.891   1.397   6.495
 1893SOL    HW2 6579   3.045   1.397   6.546
 1894SOL     OW 6580   4.989   3.133   0.608
 1894SOL    HW1 6581   5.043   3.195   0.550
 1894SOL    HW2 6582   5.051   3.075   0.661
 1895SOL     OW 6583   4.565   5.525   3.349
 1895SOL    HW1 6584   4.608   5.550   3.263
 1895SOL    HW2 6585   4.588   5.594   3.418
 1896SOL     OW 6586   6.319   1.807   4.984
 1896SOL    HW1 6587   6.404   1.860   4.992
 1896SOL    HW2 6588   6.309   1.777   4.889
 1897SOL     OW 6589   4.912   5.309   3.284
 1897SOL    HW1 6590   4.992   5.252   3.306
 1897SOL    HW2 6591   4.829   5.257   3.301
 1898SOL     OW 6592   5.440   6.327   6.929
 1898SOL    HW1 6593   5.348   6.359   6.906
 1898SOL    HW2 6594   5.506   6.369   6.868
 1899SOL     OW 6595   2.474   2.699   3.511
 1899SOL    HW1 6596   2.392   2.726   3.459
 1899SOL    HW2 6597   2.456   2.709   3.609
 1900SOL     OW 6598   2.816   5.721   2.137
 1900SOL    HW1 6599   2.835   5.623   2.141
 1900SOL    HW2 6600   2.837   5.756   2.046
 1901SOL     OW 6601   1.393   0.934   5.512
 1901SOL    HW1 6602   1.489   0.920   5.538
 1901SOL    HW2 6603   1.371   1.032   5.518
 1902SOL     OW 6604   0.997   2.871   4.134
 1902SOL    HW1 6605   1.033   2.953   4.179
 1902SOL    HW2 6606   0.906   2.850   4.170
 1903SOL     OW 6607   6.479   4.949   4.100
 1903SOL    HW1 6608   6.470   4.994   4.011
 1903SOL    HW2 6609   6.394   4.902   4.122
 1904SOL     OW 6610   0.800   0.754   4.201
 1904SOL    HW1 6611   0.863   0.822   4.164
 1904SOL    HW2 6612   0.748   0.713   4.126
 1905SOL     OW 6613   6.185   3.113   5.187
 1905SOL    HW1 6614   6.098   3.127   5.139
 1905SOL    HW2 6615   6.228   3.201   5.206
 1906SOL     OW 6616   2.192   6.939   5.546
 1906SOL    HW1 6617   2.130   6.906   5.475
 1906SOL    HW2 6618   2.150   7.016   5.594
 1907SOL     OW 6619   4.287   7.000   3.042
 1907SOL    HW1 6620   4.255   6.966   2.954
 1907SOL    HW2 6621   4.208   7.016   3.102
 1908SOL     OW 6622   4.773   5.519   0.689
 1908SOL    HW1 6623   4.750   5.515   0.592
 1908SOL    HW2 6624   4.748   5.433   0.733
 1909SOL     OW 6625   5.607   5.332   3.652
 1909SOL    HW1 6626   5.513   5.299   3.645
 1909SOL    HW2 6627   5.632   5.341   3.748
 1910SOL     OW 6628   4.949   3.711   4.467
 1910SOL    HW1 6629   4.916   3.690   4.558
 1910SOL    HW2 6630   4.918   3.641   4.403
 1911SOL     OW 6631   0.916   2.422   5.700
 1911SOL    HW1 6632   0.861   2.410   5.782
 1911SOL    HW2 6633   1.012   2.404   5.722
 1912SOL     OW 6634   3.426   6.365   3.074
 1912SOL    HW1 6635   3.347   6.360   3.013
 1912SOL    HW2 6636   3.510   6.370   3.021
 1913SOL     OW 6637   2.840   3.890   6.209
 1913SOL    HW1 6638   2.935   3.922   6.201
 1913SOL    HW2 6639   2.779   3.969   6.209
 1914SOL     OW 6640   4.641   1.464   4.753
 1914SOL    HW1 6641   4.605   1.557   4.740
 1914SOL    HW2 6642   4.569   1.405   4.790
 1915SOL     OW 6643   2.761   6.907   5.768
 1915SOL    HW1 6644   2.816   6.845   5.712
 1915SOL    HW2 6645   2.807   6.921   5.856
 1916SOL     OW 6646   3.323   6.113   2.694
 1916SOL    HW1 6647   3.395   6.139   2.631
 1916SOL    HW2 6648   3.323   6.013   2.707
 1917SOL     OW 6649   3.689   3.834   3.983
 1917SOL    HW1 6650   3.707   3.911   4.044
 1917SOL    HW2 6651   3.759   3.831   3.911
 1918SOL     OW 6652   0.316   6.582   5.385
 1918SOL    HW1 6653   0.386   6.600   5.316
 1918SOL    HW2 6654   0.350   6.607   5.475
 1919SOL     OW 6655   5.868   0.932   2.419
 1919SOL    HW1 6656   5.916   0.916   2.332
 1919SOL    HW2 6657   5.929   0.980   2.482
 1920SOL     OW 6658   6.312   6.378   4.779
 1920SOL    HW1 6659   6.298   6.471   4.814
 1920SOL    HW2 6660   6.402   6.344   4.807
 1921SOL     OW 6661   2.443   6.629   0.263
 1921SOL    HW1 6662   2.508   6.680   0.207
 1921SOL    HW2 6663   2.350   6.658   0.241
 1922SOL     OW 6664   3.871   4.245   0.516
 1922SOL    HW1 6665   3.779   4.230   0.479
 1922SOL    HW2 6666   3.865   4.275   0.611
 1923SOL     OW 6667   1.779   3.060   0.865
 1923SOL    HW1 6668   1.822   3.002   0.934
 1923SOL    HW2 6669   1.704   3.111   0.906
 1924SOL     OW 6670   0.375   3.463   1.029
 1924SOL    HW1 6671   0.412   3.384   1.078
 1924SOL    HW2 6672   0.423   3.473   0.942
 1925SOL     OW 6673   3.085   4.276   0.106
 1925SOL    HW1 6674   3.115   4.230   0.190
 1925SOL    HW2 6675   3.046   4.209   0.043
 1926SOL     OW 6676   0.558   1.117   3.853
 1926SOL    HW1 6677   0.478   1.072   3.893
 1926SOL    HW2 6678   0.605   1.171   3.923
 1927SOL     OW 6679   5.311   3.238   1.294
 1927SOL    HW1 6680   5.297   3.139   1.294
 1927SOL    HW2 6681   5.331   3.268   1.387
 1928SOL     OW 6682   0.417   5.572   4.487
 1928SOL    HW1 6683   0.379   5.544   4.575
 1928SOL    HW2 6684   0.436   5.490   4.432
 1929SOL     OW 6685   0.785   5.455   3.273
 1929SOL    HW1 6686   0.695   5.451   3.317
 1929SOL    HW2 6687   0.776   5.496   3.183
 1930SOL     OW 6688   6.983   5.233   5.988
 1930SOL    HW1 6689   6.908   5.283   5.945
 1930SOL    HW2 6690   6.953   5.140   6.011
 1931SOL     OW 6691   0.877   2.070   4.294
 1931SOL    HW1 6692   0.863   1.973   4.314
 1931SOL    HW2 6693   0.914   2.080   4.201
 1932SOL     OW 6694   6.031   3.564   2.781
 1932SOL    HW1 6695   5.998   3.592   2.692
 1932SOL    HW2 6696   5.954   3.534   2.838
 1933SOL     OW 6697   2.924   5.250   0.363
 1933SOL    HW1 6698   2.988   5.173   0.366
 1933SOL    HW2 6699   2.831   5.216   0.352
 1934SOL     OW 6700   0.078   5.850   2.948
 1934SOL    HW1 6701   0.041   5.914   2.881
 1934SOL    HW2 6702   0.177   5.862   2.954
 1935SOL     OW 6703   1.434   1.228   3.266
 1935SOL    HW1 6704   1.463   1.302   3.206
 1935SOL    HW2 6705   1.459   1.140   3.226
 1936SOL     OW 6706   0.060   6.068   5.017
 1936SOL    HW1 6707   0.032   6.163   5.008
 1936SOL    HW2 6708   0.059   6.024   4.927
 1937SOL     OW 6709   4.062   1.423   2.884
 1937SOL    HW1 6710   4.082   1.334   2.845
 1937SOL    HW2 6711   4.108   1.495   2.831
 1938SOL     OW 6712   5.788   6.895   4.681
 1938SOL    HW1 6713   5.750   6.840   4.607
 1938SOL    HW2 6714   5.730   6.975   4.697
 1939SOL     OW 6715   3.223   0.189   4.182
 1939SOL    HW1 6716   3.282   0.242   4.121
 1939SOL    HW2 6717   3.221   0.232   4.272
 1940SOL     OW 6718   6.474   6.380   6.499
 1940SOL    HW1 6719   6.384   6.339   6.488
 1940SOL    HW2 6720   6.524   6.332   6.571
 1941SOL     OW 6721   4.719   5.098   2.177
 1941SOL    HW1 6722   4.640   5.145   2.217
 1941SOL    HW2 6723   4.688   5.038   2.103
 1942SOL     OW 6724   0.429   3.597   2.639
 1942SOL    HW1 6725   0.448   3.511   2.592
 1942SOL    HW2 6726   0.356   3.582   2.707
 1943SOL     OW 6727   2.768   5.890   3.367
 1943SOL    HW1 6728   2.797   5.980   3.398
 1943SOL    HW2 6729   2.731   5.896   3.275
 1944SOL     OW 6730   0.118   6.468   1.673
 1944SOL    HW1 6731   0.029   6.484   1.716
 1944SOL    HW2 6732   0.171   6.405   1.729
 1945SOL     OW 6733   3.071   4.901   2.907
 1945SOL    HW1 6734   3.120   4.843   2.971
 1945SOL    HW2 6735   2.977   4.869   2.898
 1946SOL     OW 6736   1.566   6.761   6.805
 1946SOL    HW1 6737   1.528   6.834   6.748
 1946SOL    HW2 6738   1.509   6.679   6.797
 1947SOL     OW 6739   4.706   0.160   3.087
 1947SOL    HW1 6740   4.639   0.093   3.119
 1947SOL    HW2 6741   4.688   0.249   3.129
 1948SOL     OW 6742   6.045   3.479   5.340
 1948SOL    HW1 6743   6.055   3.571   5.303
 1948SOL    HW2 6744   5.975   3.430   5.289
 1949SOL     OW 6745   4.341   4.237   6.591
 1949SOL    HW1 6746   4.385   4.178   6.659
 1949SOL    HW2 6747   4.273   4.185   6.540
 1950SOL     OW 6748   3.627   5.102   0.531
 1950SOL    HW1 6749   3.585   5.173   0.588
 1950SOL    HW2 6750   3.722   5.089   0.558
 1951SOL     OW 6751   6.261   2.173   0.413
 1951SOL    HW1 6752   6.201   2.171   0.333
 1951SOL    HW2 6753   6.213   2.217   0.489
 1952SOL     OW 6754   3.528   2.876   4.321
 1952SOL    HW1 6755   3.562   2.871   4.415
 1952SOL    HW2 6756   3.431   2.898   4.322
 1953SOL     OW 6757   0.408   2.827   4.460
 1953SOL    HW1 6758   0.447   2.912   4.423
 1953SOL    HW2 6759   0.468   2.791   4.532
 1954SOL     OW 6760   2.086   1.848   4.258
 1954SOL    HW1 6761   2.050   1.942   4.267
 1954SOL    HW2 6762   2.123   1.819   4.346
 1955SOL     OW 6763   5.747   5.626   2.178
 1955SOL    HW1 6764   5.682   5.561   2.217
 1955SOL    HW2 6765   5.698   5.693   2.122
 1956SOL     OW 6766   4.883   6.340   2.834
 1956SOL    HW1 6767   4.883   6.244   2.806
 1956SOL    HW2 6768   4.868   6.345   2.933
 1957SOL     OW 6769   1.776   6.479   4.777
 1957SOL    HW1 6770   1.680   6.502   4.760
 1957SOL    HW2 6771   1.820   6.455   4.690
 1958SOL     OW 6772   3.717   3.638   5.828
 1958SOL    HW1 6773   3.632   3.587   5.817
 1958SOL    HW2 6774   3.774   3.593   5.897
 1959SOL     OW 6775   2.447   0.715   0.537
 1959SOL    HW1 6776   2.483   0.784   0.474
 1959SOL    HW2 6777   2.518   0.692   0.604
 1960SOL     OW 6778   5.076   5.919   2.915
 1960SOL    HW1 6779   5.138   5.991   2.945
 1960SOL    HW2 6780   5.080   5.843   2.980
 1961SOL     OW 6781   5.573   5.242   5.288
 1961SOL    HW1 6782   5.568   5.294   5.203
 1961SOL    HW2 6783   5.480   5.219   5.318
 1962SOL     OW 6784   0.031   6.595   4.008
 1962SOL    HW1 6785   6.972   6.616   3.947
 1962SOL    HW2 6786   0.110   6.568   3.953
 1963SOL     OW 6787   2.257   0.826   3.634
 1963SOL    HW1 6788   2.227   0.876   3.553
 1963SOL    HW2 6789   2.296   0.738   3.607
 1964SOL     OW 6790   6.268   3.210   2.549
 1964SOL    HW1 6791   6.367   3.202   2.539
 1964SOL    HW2 6792   6.232   3.125   2.589
 1965SOL     OW 6793   2.017   6.649   3.328
 1965SOL    HW1 6794   2.051   6.742   3.345
 1965SOL    HW2 6795   1.940   6.653   3.264
 1966SOL     OW 6796   6.483   0.247   6.846
 1966SOL    HW1 6797   6.427   0.211   6.920
 1966SOL    HW2 6798   6.554   0.307   6.884
 1967SOL     OW 6799   5.571   3.408   4.874
 1967SOL    HW1 6800   5.576   3.485   4.938
 1967SOL    HW2 6801   5.479   3.404   4.835
 1968SOL     OW 6802   4.070   5.289   4.677
 1968SOL    HW1 6803   4.105   5.382   4.691
 1968SOL    HW2 6804   4.139   5.234   4.630
 1969SOL     OW 6805   6.988   1.443   1.921
 1969SOL    HW1 6806   6.931   1.365   1.945
 1969SOL    HW2 6807   6.953   1.525   1.965
 1970SOL     OW 6808   1.472   0.760   3.781
 1970SOL    HW1 6809   1.436   0.762   3.688
 1970SOL    HW2 6810   1.518   0.846   3.801
 1971SOL     OW 6811   0.389   1.792   6.476
 1971SOL    HW1 6812   0.397   1.887   6.506
 1971SOL    HW2 6813   0.304   1.753   6.510
 1972SOL     OW 6814   1.497   0.492   3.904
 1972SOL    HW1 6815   1.547   0.473   3.989
 1972SOL    HW2 6816   1.526   0.581   3.868
 1973SOL     OW 6817   2.348   3.484   0.382
 1973SOL    HW1 6818   2.430   3.436   0.351
 1973SOL    HW2 6819   2.371   3.543   0.459
 1974SOL     OW 6820   6.013   6.624   4.529
 1974SOL    HW1 6821   6.009   6.692   4.455
 1974SOL    HW2 6822   5.921   6.586   4.544
 1975SOL     OW 6823   2.500   0.249   3.094
 1975SOL    HW1 6824   2.567   0.239   3.168
 1975SOL    HW2 6825   2.409   0.263   3.133
 1976SOL     OW 6826   6.541   3.808   6.386
 1976SOL    HW1 6827   6.549   3.906   6.405
 1976SOL    HW2 6828   6.453   3.775   6.421
 1977SOL     OW 6829   3.373   2.341   5.380
 1977SOL    HW1 6830   3.316   2.348   5.299
 1977SOL    HW2 6831   3.320   2.369   5.461
 1978SOL     OW 6832   6.922   2.715   5.116
 1978SOL    HW1 6833   6.932   2.811   5.091
 1978SOL    HW2 6834   6.965   2.657   5.046
 1979SOL     OW 6835   6.629   3.996   2.323
 1979SOL    HW1 6836   6.627   4.094   2.301
 1979SOL    HW2 6837   6.622   3.943   2.239
 1980SOL     OW 6838   2.538   0.599   2.656
 1980SOL    HW1 6839   2.509   0.522   2.598
 1980SOL    HW2 6840   2.601   0.565   2.726
 1981SOL     OW 6841   5.072   2.892   2.234
 1981SOL    HW1 6842   4.982   2.930   2.253
 1981SOL    HW2 6843   5.141   2.938   2.290
 1982SOL     OW 6844   7.007   6.799   5.055
 1982SOL    HW1 6845   6.958   6.722   5.096
 1982SOL    HW2 6846   0.017   6.774   4.962
 1983SOL     OW 6847   0.746   4.567   2.157
 1983SOL    HW1 6848   0.669   4.630   2.154
 1983SOL    HW2 6849   0.714   4.473   2.144
 1984SOL     OW 6850   5.032   0.628   4.924
 1984SOL    HW1 6851   4.997   0.544   4.966
 1984SOL    HW2 6852   4.973   0.655   4.848
 1985SOL     OW 6853   1.386   6.236   1.121
 1985SOL    HW1 6854   1.431   6.302   1.061
 1985SOL    HW2 6855   1.455   6.174   1.159
 1986SOL     OW 6856   6.913   2.493   0.299
 1986SOL    HW1 6857   6.964   2.410   0.277
 1986SOL    HW2 6858   6.818   2.482   0.270
 1987SOL     OW 6859   2.725   3.996   6.547
 1987SOL    HW1 6860   2.675   3.919   6.508
 1987SOL    HW2 6861   2.776   3.965   6.627
 1988SOL     OW 6862   4.594   3.387   0.609
 1988SOL    HW1 6863   4.587   3.401   0.510
 1988SOL    HW2 6864   4.503   3.379   0.648
 1989SOL     OW 6865   1.908   2.184   4.008
 1989SOL    HW1 6866   2.002   2.165   3.978
 1989SOL    HW2 6867   1.879   2.272   3.971
 1990SOL     OW 6868   1.470   0.485   2.993
 1990SOL    HW1 6869   1.525   0.495   3.077
 1990SOL    HW2 6870   1.393   0.548   2.996
 1991SOL     OW 6871   4.703   6.561   2.876
 1991SOL    HW1 6872   4.616   6.543   2.922
 1991SOL    HW2 6873   4.730   6.481   2.822
 1992SOL     OW 6874   2.298   6.126   5.446
 1992SOL    HW1 6875   2.368   6.074   5.396
 1992SOL    HW2 6876   2.285   6.085   5.536
 1993SOL     OW 6877   3.022   3.129   4.317
 1993SOL    HW1 6878   2.949   3.109   4.252
 1993SOL    HW2 6879   2.994   3.100   4.409
 1994SOL     OW 6880   6.621   2.538   2.208
 1994SOL    HW1 6881   6.678   2.509   2.131
 1994SOL    HW2 6882   6.643   2.483   2.288
 1995SOL     OW 6883   3.768   2.239   1.410
 1995SOL    HW1 6884   3.710   2.160   1.389
 1995SOL    HW2 6885   3.810   2.226   1.499
 1996SOL     OW 6886   2.688   4.362   5.346
 1996SOL    HW1 6887   2.650   4.278   5.308
 1996SOL    HW2 6888   2.755   4.400   5.283
 1997SOL     OW 6889   5.735   6.301   3.449
 1997SOL    HW1 6890   5.637   6.307   3.430
 1997SOL    HW2 6891   5.748   6.292   3.548
 1998SOL     OW 6892   3.361   4.708   5.473
 1998SOL    HW1 6893   3.281   4.653   5.448
 1998SOL    HW2 6894   3.374   4.780   5.404
 1999SOL     OW 6895   2.178   1.679   1.806
 1999SOL    HW1 6896   2.253   1.629   1.850
 1999SOL    HW2 6897   2.144   1.625   1.729
 2000SOL     OW 6898   3.209   1.159   5.244
 2000SOL    HW1 6899   3.276   1.233   5.253
 2000SOL    HW2 6900   3.122   1.187   5.286
 2001SOL     OW 6901   2.373   3.178   0.160
 2001SOL    HW1 6902   2.321   3.242   0.104
 2001SOL    HW2 6903   2.328   3.089   0.161
 2002SOL     OW 6904   1.393   5.232   4.782
 2002SOL    HW1 6905   1.329   5.159   4.759
 2002SOL    HW2 6906   1.394   5.246   4.881
 2003SOL     OW 6907   6.726   4.321   3.231
 2003SOL    HW1 6908   6.799   4.260   3.201
 2003SOL    HW2 6909   6.713   4.394   3.164
 2004SOL     OW 6910   3.457   0.024   6.428
 2004SOL    HW1 6911   3.382   0.067   6.478
 2004SOL    HW2 6912   3.489   6.962   6.478
 2005SOL     OW 6913   2.623   6.420   5.185
 2005SOL    HW1 6914   2.703   6.428   5.125
 2005SOL    HW2 6915   2.632   6.485   5.261
 2006SOL     OW 6916   4.820   6.627   3.336
 2006SOL    HW1 6917   4.787   6.692   3.267
 2006SOL    HW2 6918   4.876   6.675   3.403
 2007SOL     OW 6919   6.580   5.241   6.556
 2007SOL    HW1 6920   6.598   5.143   6.555
 2007SOL    HW2 6921   6.608   5.279   6.644
 2008SOL     OW 6922   0.290   6.044   5.748
 2008SOL    HW1 6923   0.205   5.997   5.724
 2008SOL    HW2 6924   0.277   6.143   5.737
 2009SOL     OW 6925   1.201   0.277   6.864
 2009SOL    HW1 6926   1.260   0.300   6.942
 2009SOL    HW2 6927   1.110   0.316   6.879
 2010SOL     OW 6928   2.081   0.823   1.057
 2010SOL    HW1 6929   2.075   0.737   1.109
 2010SOL    HW2 6930   1.991   0.846   1.021
 2011SOL     OW 6931   0.376   1.951   4.950
 2011SOL    HW1 6932   0.395   2.018   4.878
 2011SOL    HW2 6933   0.282   1.920   4.943
 2012SOL     OW 6934   6.800   2.912   1.136
 2012SOL    HW1 6935   6.794   3.002   1.092
 2012SOL    HW2 6936   6.822   2.842   1.069
 2013SOL     OW 6937   4.137   2.179   1.985
 2013SOL    HW1 6938   4.134   2.279   1.992
 2013SOL    HW2 6939   4.067   2.139   2.044
 2014SOL     OW 6940   3.371   5.685   3.449
 2014SOL    HW1 6941   3.379   5.612   3.381
 2014SOL    HW2 6942   3.350   5.644   3.538
 2015SOL     OW 6943   3.390   6.566   0.722
 2015SOL    HW1 6944   3.460   6.637   0.715
 2015SOL    HW2 6945   3.433   6.478   0.740
 2016SOL     OW 6946   6.108   5.835   4.134
 2016SOL    HW1 6947   6.199   5.831   4.176
 2016SOL    HW2 6948   6.116   5.875   4.042
 2017SOL     OW 6949   2.300   5.137   2.177
 2017SOL    HW1 6950   2.261   5.136   2.269
 2017SOL    HW2 6951   2.323   5.043   2.150
 2018SOL     OW 6952   0.717   3.729   6.460
 2018SOL    HW1 6953   0.689   3.661   6.528
 2018SOL    HW2 6954   0.640   3.747   6.398
 2019SOL     OW 6955   5.453   1.501   3.047
 2019SOL    HW1 6956   5.367   1.466   3.085
 2019SOL    HW2 6957   5.498   1.559   3.114
 2020SOL     OW 6958   1.921   5.498   3.112
 2020SOL    HW1 6959   1.835   5.448   3.124
 2020SOL    HW2 6960   1.902   5.587   3.070
 2021SOL     OW 6961   2.268   6.662   1.699
 2021SOL    HW1 6962   2.329   6.740   1.709
 2021SOL    HW2 6963   2.297   6.607   1.621
 2022SOL     OW 6964   3.181   5.386   0.998
 2022SOL    HW1 6965   3.214   5.291   0.995
 2022SOL    HW2 6966   3.182   5.418   1.093
 2023SOL     OW 6967   6.315   1.692   6.337
 2023SOL    HW1 6968   6.248   1.732   6.399
 2023SOL    HW2 6969   6.268   1.638   6.267
 2024SOL     OW 6970   6.096   0.676   3.035
 2024SOL    HW1 6971   6.077   0.585   3.073
 2024SOL    HW2 6972   6.039   0.691   2.954
 2025SOL     OW 6973   6.186   0.632   1.048
 2025SOL    HW1 6974   6.095   0.636   1.006
 2025SOL    HW2 6975   6.243   0.567   0.998
 2026SOL     OW 6976   1.961   1.950   4.974
 2026SOL    HW1 6977   1.939   1.973   4.880
 2026SOL    HW2 6978   1.896   1.883   5.009
 2027SOL     OW 6979   0.085   0.687   2.215
 2027SOL    HW1 6980   0.112   0.783   2.204
 2027SOL    HW2 6981   7.004   0.681   2.217
 2028SOL     OW 6982   3.636   4.352   6.043
 2028SOL    HW1 6983   3.620   4.294   5.964
 2028SOL    HW2 6984   3.657   4.295   6.122
 2029SOL     OW 6985   1.882   0.425   0.494
 2029SOL    HW1 6986   1.863   0.505   0.551
 2029SOL    HW2 6987   1.957   0.372   0.534
 2030SOL     OW 6988   1.808   2.546   3.041
 2030SOL    HW1 6989   1.837   2.571   2.949
 2030SOL    HW2 6990   1.884   2.559   3.105
 2031SOL     OW 6991   5.906   0.238   2.905
 2031SOL    HW1 6992   5.886   0.206   2.997
 2031SOL    HW2 6993   6.005   0.232   2.888
 2032SOL     OW 6994   4.483   6.312   1.926
 2032SOL    HW1 6995   4.390   6.347   1.939
 2032SOL    HW2 6996   4.519   6.279   2.013
 2033SOL     OW 6997   6.949   4.974   6.704
 2033SOL    HW1 6998   0.002   5.027   6.749
 2033SOL    HW2 6999   6.930   4.891   6.756
 2034SOL     OW 7000   2.146   6.181   3.675
 2034SOL    HW1 7001   2.188   6.195   3.586
 2034SOL    HW2 7002   2.047   6.196   3.667
 2035SOL     OW 7003   0.571   2.110   2.087
 2035SOL    HW1 7004   0.494   2.162   2.049
 2035SOL    HW2 7005   0.557   2.098   2.185
 2036SOL     OW 7006   0.712   4.910   0.767
 2036SOL    HW1 7007   0.788   4.904   0.831
 2036SOL    HW2 7008   0.733   4.857   0.685
 2037SOL     OW 7009   0.404   1.822   6.965
 2037SOL    HW1 7010   0.432   1.908   7.008
 2037SOL    HW2 7011   0.360   1.763   0.016
 2038SOL     OW 7012   1.282   0.005   4.803
 2038SOL    HW1 7013   1.324   6.936   4.826
 2038SOL    HW2 7014   1.238   0.044   4.883
 2039SOL     OW 7015   1.346   5.385   1.905
 2039SOL    HW1 7016   1.264   5.415   1.954
 2039SOL    HW2 7017   1.326   5.381   1.807
 2040SOL     OW 7018   3.866   3.939   4.241
 2040SOL    HW1 7019   3.791   3.905   4.298
 2040SOL    HW2 7020   3.949   3.889   4.262
 2041SOL     OW 7021   5.589   2.876   6.534
 2041SOL    HW1 7022   5.676   2.856   6.577
 2041SOL    HW2 7023   5.514   2.844   6.592
 2042SOL     OW 7024   3.335   5.963   0.534
 2042SOL    HW1 7025   3.243   5.938   0.565
 2042SOL    HW2 7026   3.328   6.017   0.450
 2043SOL     OW 7027   4.547   5.082   2.497
 2043SOL    HW1 7028   4.626   5.021   2.491
 2043SOL    HW2 7029   4.571   5.163   2.550
 2044SOL     OW 7030   6.575   0.694   2.042
 2044SOL    HW1 7031   6.543   0.658   2.130
 2044SOL    HW2 7032   6.596   0.618   1.981
 2045SOL     OW 7033   3.104   6.414   6.539
 2045SOL    HW1 7034   3.091   6.495   6.597
 2045SOL    HW2 7035   3.200   6.387   6.541
 2046SOL     OW 7036   6.346   6.982   5.796
 2046SOL    HW1 7037   6.292   0.001   5.720
 2046SOL    HW2 7038   6.443   6.997   5.777
 2047SOL     OW 7039   4.934   2.720   6.982
 2047SOL    HW1 7040   4.860   2.716   6.915
 2047SOL    HW2 7041   4.966   2.815   6.990
 2048SOL     OW 7042   4.816   6.251   5.767
 2048SOL    HW1 7043   4.903   6.299   5.774
 2048SOL    HW2 7044   4.828   6.156   5.794
 2049SOL     OW 7045   4.924   5.972   0.118
 2049SOL    HW1 7046   4.864   5.952   0.195
 2049SOL    HW2 7047   4.946   5.886   0.071
 2050SOL     OW 7048   5.795   0.292   3.922
 2050SOL    HW1 7049   5.827   0.381   3.956
 2050SOL    HW2 7050   5.699   0.279   3.949
 2051SOL     OW 7051   2.920   5.250   0.992
 2051SOL    HW1 7052   2.940   5.322   0.926
 2051SOL    HW2 7053   3.005   5.204   1.018
 2052SOL     OW 7054   1.267   3.162   0.739
 2052SOL    HW1 7055   1.256   3.080   0.796
 2052SOL    HW2 7056   1.268   3.136   0.643
 2053SOL     OW 7057   4.970   1.512   0.671
 2053SOL    HW1 7058   4.880   1.475   0.646
 2053SOL    HW2 7059   5.003   1.465   0.753
 2054SOL     OW 7060   0.209   3.503   1.416
 2054SOL    HW1 7061   0.281   3.456   1.365
 2054SOL    HW2 7062   0.187   3.449   1.498
 2055SOL     OW 7063   6.204   1.565   3.893
 2055SOL    HW1 7064   6.217   1.524   3.983
 2055SOL    HW2 7065   6.292   1.567   3.845
 2056SOL     OW 7066   1.143   6.828   2.196
 2056SOL    HW1 7067   1.050   6.793   2.212
 2056SOL    HW2 7068   1.199   6.812   2.277
 2057SOL     OW 7069   5.360   2.639   4.458
 2057SOL    HW1 7070   5.364   2.606   4.552
 2057SOL    HW2 7071   5.446   2.684   4.435
 2058SOL     OW 7072   0.416   1.529   1.539
 2058SOL    HW1 7073   0.509   1.528   1.503
 2058SOL    HW2 7074   0.376   1.438   1.529
 2059SOL     OW 7075   1.439   0.521   6.406
 2059SOL    HW1 7076   1.380   0.537   6.485
 2059SOL    HW2 7077   1.500   0.444   6.425
 2060SOL     OW 7078   0.040   5.484   2.409
 2060SOL    HW1 7079   0.096   5.537   2.345
 2060SOL    HW2 7080   0.087   5.398   2.430
 2061SOL     OW 7081   1.079   0.953   1.217
 2061SOL    HW1 7082   1.090   1.010   1.299
 2061SOL    HW2 7083   1.102   1.008   1.137
 2062SOL     OW 7084   4.057   0.187   4.026
 2062SOL    HW1 7085   4.134   0.212   4.085
 2062SOL    HW2 7086   3.975   0.174   4.082
 2063SOL     OW 7087   2.175   1.946   0.775
 2063SOL    HW1 7088   2.273   1.936   0.789
 2063SOL    HW2 7089   2.158   2.021   0.711
 2064SOL     OW 7090   1.126   1.750   0.451
 2064SOL    HW1 7091   1.117   1.818   0.523
 2064SOL    HW2 7092   1.214   1.703   0.461
 2065SOL     OW 7093   6.903   3.829   2.923
 2065SOL    HW1 7094   6.992   3.874   2.925
 2065SOL    HW2 7095   6.914   3.733   2.952
 2066SOL     OW 7096   1.328   6.368   3.152
 2066SOL    HW1 7097   1.369   6.388   3.062
 2066SOL    HW2 7098   1.286   6.452   3.188
 2067SOL     OW 7099   0.228   6.632   0.375
 2067SOL    HW1 7100   0.240   6.540   0.338
 2067SOL    HW2 7101   0.317   6.668   0.403
 2068SOL     OW 7102   2.257   1.558   5.235
 2068SOL    HW1 7103   2.172   1.586   5.279
 2068SOL    HW2 7104   2.279   1.464   5.262
 2069SOL     OW 7105   1.195   2.187   1.550
 2069SOL    HW1 7106   1.289   2.212   1.576
 2069SOL    HW2 7107   1.197   2.105   1.493
 2070SOL     OW 7108   0.852   1.172   2.652
 2070SOL    HW1 7109   0.914   1.251   2.648
 2070SOL    HW2 7110   0.758   1.203   2.643
 2071SOL     OW 7111   2.394   6.253   5.167
 2071SOL    HW1 7112   2.377   6.260   5.265
 2071SOL    HW2 7113   2.478   6.303   5.145
 2072SOL     OW 7114   5.009   4.675   2.131
 2072SOL    HW1 7115   5.102   4.710   2.120
 2072SOL    HW2 7116   5.013   4.580   2.162
 2073SOL     OW 7117   3.346   6.504   5.320
 2073SOL    HW1 7118   3.442   6.479   5.335
 2073SOL    HW2 7119   3.335   6.534   5.225
 2074SOL     OW 7120   5.984   2.618   2.706
 2074SOL    HW1 7121   6.066   2.666   2.738
 2074SOL    HW2 7122   6.011   2.542   2.647
 2075SOL     OW 7123   3.411   3.573   5.793
 2075SOL    HW1 7124   3.433   3.478   5.814
 2075SOL    HW2 7125   3.413   3.587   5.694
 2076SOL     OW 7126   5.334   0.071   0.922
 2076SOL    HW1 7127   5.427   0.094   0.896
 2076SOL    HW2 7128   5.282   0.043   0.842
 2077SOL     OW 7129   5.042   1.544   3.785
 2077SOL    HW1 7130   5.129   1.497   3.797
 2077SOL    HW2 7131   4.967   1.479   3.797
 2078SOL     OW 7132   4.018   5.464   4.971
 2078SOL    HW1 7133   4.072   5.478   4.887
 2078SOL    HW2 7134   4.041   5.375   5.011
 2079SOL     OW 7135   5.852   0.407   3.647
 2079SOL    HW1 7136   5.813   0.374   3.733
 2079SOL    HW2 7137   5.893   0.497   3.662
 2080SOL     OW 7138   3.063   1.679   3.898
 2080SOL    HW1 7139   3.115   1.697   3.814
 2080SOL    HW2 7140   2.979   1.631   3.876
 2081SOL     OW 7141   1.494   6.362   4.147
 2081SOL    HW1 7142   1.510   6.264   4.142
 2081SOL    HW2 7143   1.512   6.404   4.058
 2082SOL     OW 7144   4.763   0.371   2.137
 2082SOL    HW1 7145   4.706   0.336   2.063
 2082SOL    HW2 7146   4.734   0.329   2.223
 2083SOL     OW 7147   4.002   4.340   5.967
 2083SOL    HW1 7148   4.032   4.318   5.874
 2083SOL    HW2 7149   3.983   4.437   5.974
 2084SOL     OW 7150   6.846   2.315   2.669
 2084SOL    HW1 7151   6.938   2.315   2.708
 2084SOL    HW2 7152   6.842   2.250   2.593
 2085SOL     OW 7153   5.580   6.123   6.338
 2085SOL    HW1 7154   5.520   6.182   6.285
 2085SOL    HW2 7155   5.658   6.176   6.372
 2086SOL     OW 7156   3.570   5.371   0.052
 2086SOL    HW1 7157   3.606   5.394   6.980
 2086SOL    HW2 7158   3.624   5.298   0.093
 2087SOL     OW 7159   6.103   5.805   3.570
 2087SOL    HW1 7160   6.097   5.797   3.470
 2087SOL    HW2 7161   6.026   5.759   3.612
 2088SOL     OW 7162   2.378   6.978   1.429
 2088SOL    HW1 7163   2.280   6.995   1.414
 2088SOL    HW2 7164   2.430   0.041   1.405
 2089SOL     OW 7165   2.620   1.112   0.184
 2089SOL    HW1 7166   2.672   1.164   0.251
 2089SOL    HW2 7167   2.523   1.138   0.188
 2090SOL     OW 7168   2.975   3.221   3.935
 2090SOL    HW1 7169   2.977   3.289   3.862
 2090SOL    HW2 7170   3.009   3.134   3.900
 2091SOL     OW 7171   2.528   4.933   1.110
 2091SOL    HW1 7172   2.534   5.009   1.175
 2091SOL    HW2 7173   2.454   4.950   1.045
 2092SOL     OW 7174   0.125   5.844   1.037
 2092SOL    HW1 7175   0.040   5.889   1.065
 2092SOL    HW2 7176   0.107   5.747   1.019
 2093SOL     OW 7177   0.960   3.065   1.468
 2093SOL    HW1 7178   0.900   3.062   1.388
 2093SOL    HW2 7179   0.999   2.975   1.485
 2094SOL     OW 7180   6.428   0.380   1.784
 2094SOL    HW1 7181   6.433   0.342   1.691
 2094SOL    HW2 7182   6.358   0.451   1.787
 2095SOL     OW 7183   6.673   5.043   4.848
 2095SOL    HW1 7184   6.660   5.123   4.908
 2095SOL    HW2 7185   6.608   4.972   4.873
 2096SOL     OW 7186   5.061   3.718   3.662
 2096SOL    HW1 7187   5.002   3.677   3.731
 2096SOL    HW2 7188   5.036   3.815   3.651
 2097SOL     OW 7189   6.284   3.683   6.516
 2097SOL    HW1 7190   6.251   3.723   6.602
 2097SOL    HW2 7191   6.207   3.673   6.452
 2098SOL     OW 7192   3.881   6.828   3.966
 2098SOL    HW1 7193   3.785   6.841   3.990
 2098SOL    HW2 7194   3.917   6.749   4.016
 2099SOL     OW 7195   2.912   1.937   3.093
 2099SOL    HW1 7196   3.009   1.920   3.073
 2099SOL    HW2 7197   2.856   1.873   3.041
 2100SOL     OW 7198   3.675   4.836   0.123
 2100SOL    HW1 7199   3.652   4.802   0.032
 2100SOL    HW2 7200   3.600   4.891   0.159
 2101SOL     OW 7201   0.092   0.353   1.903
 2101SOL    HW1 7202   0.161   0.407   1.855
 2101SOL    HW2 7203   0.102   0.365   2.002
 2102SOL     OW 7204   6.907   5.358   1.791
 2102SOL    HW1 7205   6.958   5.403   1.864
 2102SOL    HW2 7206   6.848   5.287   1.830
 2103SOL     OW 7207   3.416   3.253   6.136
 2103SOL    HW1 7208   3.448   3.285   6.046
 2103SOL    HW2 7209   3.321   3.221   6.129
 2104SOL     OW 7210   1.618   4.203   5.587
 2104SOL    HW1 7211   1.681   4.248   5.524
 2104SOL    HW2 7212   1.568   4.131   5.538
 2105SOL     OW 7213   5.567   6.103   1.695
 2105SOL    HW1 7214   5.473   6.070   1.705
 2105SOL    HW2 7215   5.623   6.031   1.654
 2106SOL     OW 7216   5.854   5.582   6.533
 2106SOL    HW1 7217   5.789   5.658   6.537
 2106SOL    HW2 7218   5.880   5.565   6.438
 2107SOL     OW 7219   2.633   4.950   0.535
 2107SOL    HW1 7220   2.637   4.975   0.632
 2107SOL    HW2 7221   2.726   4.946   0.498
 2108SOL     OW 7222   5.481   4.464   6.375
 2108SOL    HW1 7223   5.494   4.535   6.444
 2108SOL    HW2 7224   5.503   4.501   6.284
 2109SOL     OW 7225   5.490   5.872   2.972
 2109SOL    HW1 7226   5.558   5.889   3.044
 2109SOL    HW2 7227   5.413   5.822   3.011
 2110SOL     OW 7228   1.601   5.110   5.007
 2110SOL    HW1 7229   1.601   5.210   5.002
 2110SOL    HW2 7230   1.695   5.077   5.012
 2111SOL     OW 7231   2.025   2.775   0.024
 2111SOL    HW1 7232   1.940   2.746   0.069
 2111SOL    HW2 7233   2.013   2.769   6.943
 2112SOL     OW 7234   5.474   3.416   0.319
 2112SOL    HW1 7235   5.479   3.495   0.258
 2112SOL    HW2 7236   5.401   3.354   0.289
 2113SOL     OW 7237   6.652   1.608   3.092
 2113SOL    HW1 7238   6.616   1.683   3.148
 2113SOL    HW2 7239   6.588   1.589   3.018
 2114SOL     OW 7240   1.978   3.332   0.193
 2114SOL    HW1 7241   2.006   3.237   0.177
 2114SOL    HW2 7242   1.901   3.355   0.133
 2115SOL     OW 7243   3.378   5.594   1.705
 2115SOL    HW1 7244   3.336   5.670   1.655
 2115SOL    HW2 7245   3.399   5.520   1.642
 2116SOL     OW 7246   0.922   4.221   3.926
 2116SOL    HW1 7247   0.830   4.253   3.948
 2116SOL    HW2 7248   0.948   4.253   3.835
 2117SOL     OW 7249   0.159   5.859   6.058
 2117SOL    HW1 7250   0.097   5.798   6.008
 2117SOL    HW2 7251   0.146   5.953   6.026
 2118SOL     OW 7252   0.190   3.293   2.290
 2118SOL    HW1 7253   0.134   3.210   2.299
 2118SOL    HW2 7254   0.252   3.283   2.212
 2119SOL     OW 7255   3.887   6.663   0.891
 2119SOL    HW1 7256   3.977   6.673   0.933
 2119SOL    HW2 7257   3.849   6.574   0.915
 2120SOL     OW 7258   6.417   4.679   2.178
 2120SOL    HW1 7259   6.335   4.622   2.183
 2120SOL    HW2 7260   6.497   4.620   2.170
 2121SOL     OW 7261   0.587   3.974   4.920
 2121SOL    HW1 7262   0.593   3.915   5.000
 2121SOL    HW2 7263   0.491   3.993   4.900
 2122SOL     OW 7264   4.462   5.142   5.435
 2122SOL    HW1 7265   4.417   5.061   5.399
 2122SOL    HW2 7266   4.494   5.199   5.360
 2123SOL     OW 7267   4.528   4.699   3.843
 2123SOL    HW1 7268   4.585   4.630   3.800
 2123SOL    HW2 7269   4.573   4.732   3.926
 2124SOL     OW 7270   3.126   2.155   1.435
 2124SOL    HW1 7271   3.226   2.159   1.430
 2124SOL    HW2 7272   3.094   2.075   1.385
 2125SOL     OW 7273   4.987   6.376   0.574
 2125SOL    HW1 7274   4.993   6.287   0.529
 2125SOL    HW2 7275   4.960   6.445   0.507
 2126SOL     OW 7276   2.985   1.288   1.703
 2126SOL    HW1 7277   2.950   1.352   1.772
 2126SOL    HW2 7278   3.013   1.204   1.749
 2127SOL     OW 7279   5.664   3.161   4.980
 2127SOL    HW1 7280   5.653   3.238   4.917
 2127SOL    HW2 7281   5.616   3.180   5.066
 2128SOL     OW 7282   0.587   4.403   4.498
 2128SOL    HW1 7283   0.664   4.385   4.437
 2128SOL    HW2 7284   0.607   4.363   4.588
 2129SOL     OW 7285   4.214   2.365   5.499
 2129SOL    HW1 7286   4.291   2.339   5.558
 2129SOL    HW2 7287   4.159   2.434   5.544
 2130SOL     OW 7288   5.319   0.824   3.423
 2130SOL    HW1 7289   5.281   0.766   3.350
 2130SOL    HW2 7290   5.326   0.918   3.389
 2131SOL     OW 7291   5.444   1.857   6.619
 2131SOL    HW1 7292   5.423   1.794   6.694
 2131SOL    HW2 7293   5.539   1.846   6.592
 2132SOL     OW 7294   1.770   3.698   1.323
 2132SOL    HW1 7295   1.811   3.727   1.237
 2132SOL    HW2 7296   1.804   3.755   1.398
 2133SOL     OW 7297   2.280   4.127   6.093
 2133SOL    HW1 7298   2.334   4.186   6.033
 2133SOL    HW2 7299   2.257   4.042   6.045
 2134SOL     OW 7300   0.128   6.464   0.883
 2134SOL    HW1 7301   0.049   6.466   0.823
 2134SOL    HW2 7302   0.098   6.455   0.978
 2135SOL     OW 7303   6.730   4.445   5.222
 2135SOL    HW1 7304   6.817   4.463   5.267
 2135SOL    HW2 7305   6.656   4.485   5.277
 2136SOL     OW 7306   1.569   5.410   0.191
 2136SOL    HW1 7307   1.510   5.468   0.247
 2136SOL    HW2 7308   1.566   5.316   0.226
 2137SOL     OW 7309   1.525   6.392   3.763
 2137SOL    HW1 7310   1.519   6.307   3.814
 2137SOL    HW2 7311   1.588   6.455   3.810
 2138SOL     OW 7312   5.165   1.932   2.431
 2138SOL    HW1 7313   5.175   2.023   2.472
 2138SOL    HW2 7314   5.068   1.913   2.415
 2139SOL     OW 7315   2.652   6.977   5.458
 2139SOL    HW1 7316   2.616   0.029   5.397
 2139SOL    HW2 7317   2.581   6.909   5.476
 2140SOL     OW 7318   2.401   1.566   4.069
 2140SOL    HW1 7319   2.461   1.576   4.148
 2140SOL    HW2 7320   2.312   1.532   4.099
 2141SOL     OW 7321   6.741   3.499   3.341
 2141SOL    HW1 7322   6.786   3.416   3.309
 2141SOL    HW2 7323   6.642   3.483   3.346
 2142SOL     OW 7324   1.380   2.593   2.411
 2142SOL    HW1 7325   1.364   2.566   2.316
 2142SOL    HW2 7326   1.477   2.582   2.432
 2143SOL     OW 7327   0.102   5.411   5.729
 2143SOL    HW1 7328   0.051   5.491   5.696
 2143SOL    HW2 7329   0.132   5.357   5.651
 2144SOL     OW 7330   6.306   4.655   2.886
 2144SOL    HW1 7331   6.277   4.708   2.806
 2144SOL    HW2 7332   6.267   4.563   2.881
 2145SOL     OW 7333   4.301   1.306   3.229
 2145SOL    HW1 7334   4.258   1.395   3.212
 2145SOL    HW2 7335   4.367   1.315   3.304
 2146SOL     OW 7336   2.209   2.227   6.328
 2146SOL    HW1 7337   2.152   2.261   6.253
 2146SOL    HW2 7338   2.265   2.301   6.364
 2147SOL     OW 7339   5.883   6.687   4.269
 2147SOL    HW1 7340   5.937   6.631   4.206
 2147SOL    HW2 7341   5.808   6.730   4.218
 2148SOL     OW 7342   0.007   2.253   5.402
 2148SOL    HW1 7343   6.959   2.237   5.475
 2148SOL    HW2 7344   0.031   2.350   5.400
 2149SOL     OW 7345   0.821   6.584   6.857
 2149SOL    HW1 7346   0.839   6.622   6.948
 2149SOL    HW2 7347   0.730   6.614   6.826
 2150SOL     OW 7348   1.556   3.193   0.913
 2150SOL    HW1 7349   1.523   3.286   0.929
 2150SOL    HW2 7350   1.480   3.129   0.922
 2151SOL     OW 7351   0.680   4.662   6.983
 2151SOL    HW1 7352   0.776   4.662   6.958
 2151SOL    HW2 7353   0.628   4.610   6.915
 2152SOL     OW 7354   5.365   6.164   3.599
 2152SOL    HW1 7355   5.356   6.069   3.567
 2152SOL    HW2 7356   5.392   6.163   3.695
 2153SOL     OW 7357   5.156   6.822   4.245
 2153SOL    HW1 7358   5.112   6.774   4.321
 2153SOL    HW2 7359   5.143   6.770   4.161
 2154SOL     OW 7360   2.443   6.697   2.411
 2154SOL    HW1 7361   2.479   6.769   2.470
 2154SOL    HW2 7362   2.362   6.656   2.453
 2155SOL     OW 7363   4.180   0.857   0.893
 2155SOL    HW1 7364   4.154   0.953   0.884
 2155SOL    HW2 7365   4.224   0.842   0.982
 2156SOL     OW 7366   5.675   2.606   5.050
 2156SOL    HW1 7367   5.726   2.552   5.116
 2156SOL    HW2 7368   5.672   2.558   4.962
 2157SOL     OW 7369   3.957   6.160   4.807
 2157SOL    HW1 7370   3.940   6.112   4.893
 2157SOL    HW2 7371   4.047   6.205   4.811
 2158SOL     OW 7372   2.900   6.845   0.637
 2158SOL    HW1 7373   2.974   6.839   0.705
 2158SOL    HW2 7374   2.933   6.894   0.557
 2159SOL     OW 7375   0.600   1.072   5.731
 2159SOL    HW1 7376   0.589   1.071   5.632
 2159SOL    HW2 7377   0.662   1.147   5.757
 2160SOL     OW 7378   5.517   0.379   6.510
 2160SOL    HW1 7379   5.564   0.308   6.563
 2160SOL    HW2 7380   5.545   0.371   6.414
 2161SOL     OW 7381   1.807   3.799   0.830
 2161SOL    HW1 7382   1.730   3.858   0.804
 2161SOL    HW2 7383   1.881   3.810   0.764
 2162SOL     OW 7384   1.910   0.402   1.250
 2162SOL    HW1 7385   1.926   0.494   1.215
 2162SOL    HW2 7386   1.922   0.336   1.176
 2163SOL     OW 7387   1.445   3.222   3.297
 2163SOL    HW1 7388   1.534   3.263   3.316
 2163SOL    HW2 7389   1.442   3.130   3.335
 2164SOL     OW 7390   2.157   3.689   2.176
 2164SOL    HW1 7391   2.157   3.629   2.096
 2164SOL    HW2 7392   2.178   3.635   2.257
 2165SOL     OW 7393   6.300   1.065   4.693
 2165SOL    HW1 7394   6.327   1.104   4.781
 2165SOL    HW2 7395   6.224   1.119   4.655
 2166SOL     OW 7396   6.866   3.167   2.104
 2166SOL    HW1 7397   6.800   3.125   2.042
 2166SOL    HW2 7398   6.907   3.246   2.059
 2167SOL     OW 7399   1.756   2.252   2.791
 2167SOL    HW1 7400   1.661   2.277   2.810
 2167SOL    HW2 7401   1.760   2.157   2.762
 2168SOL     OW 7402   2.075   2.174   3.396
 2168SOL    HW1 7403   1.986   2.189   3.439
 2168SOL    HW2 7404   2.089   2.075   3.383
 2169SOL     OW 7405   6.605   6.935   1.358
 2169SOL    HW1 7406   6.577   6.940   1.262
 2169SOL    HW2 7407   6.547   6.997   1.413
 2170SOL     OW 7408   1.419   3.677   6.186
 2170SOL    HW1 7409   1.492   3.673   6.254
 2170SOL    HW2 7410   1.428   3.760   6.131
 2171SOL     OW 7411   6.797   5.917   0.880
 2171SOL    HW1 7412   6.843   5.997   0.918
 2171SOL    HW2 7413   6.796   5.844   0.948
 2172SOL     OW 7414   2.607   1.907   4.662
 2172SOL    HW1 7415   2.653   1.981   4.613
 2172SOL    HW2 7416   2.674   1.837   4.689
 2173SOL     OW 7417   4.585   0.756   4.713
 2173SOL    HW1 7418   4.676   0.725   4.742
 2173SOL    HW2 7419   4.556   0.705   4.632
 2174SOL     OW 7420   5.793   0.601   5.935
 2174SOL    HW1 7421   5.870   0.626   5.994
 2174SOL    HW2 7422   5.767   0.506   5.951
 2175SOL     OW 7423   3.548   3.833   5.671
 2175SOL    HW1 7424   3.562   3.766   5.598
 2175SOL    HW2 7425   3.454   3.867   5.667
 2176SOL     OW 7426   5.967   2.261   3.286
 2176SOL    HW1 7427   6.039   2.204   3.245
 2176SOL    HW2 7428   5.926   2.319   3.216
 2177SOL     OW 7429   1.226   1.155   4.941
 2177SOL    HW1 7430   1.221   1.179   4.844
 2177SOL    HW2 7431   1.184   1.065   4.956
 2178SOL     OW 7432   1.149   2.593   2.591
 2178SOL    HW1 7433   1.079   2.527   2.562
 2178SOL    HW2 7434   1.213   2.609   2.515
 2179SOL     OW 7435   1.462   3.708   6.810
 2179SOL    HW1 7436   1.523   3.670   6.741
 2179SOL    HW2 7437   1.378   3.655   6.813
 2180SOL     OW 7438   0.623   5.656   2.768
 2180SOL    HW1 7439   0.679   5.613   2.696
 2180SOL    HW2 7440   0.535   5.684   2.729
 2181SOL     OW 7441   4.181   4.867   4.328
 2181SOL    HW1 7442   4.242   4.942   4.302
 2181SOL    HW2 7443   4.231   4.800   4.383
 2182SOL     OW 7444   0.191   6.500   1.417
 2182SOL    HW1 7445   0.149   6.466   1.500
 2182SOL    HW2 7446   0.122   6.508   1.345
 2183SOL     OW 7447   3.337   2.882   6.628
 2183SOL    HW1 7448   3.396   2.878   6.708
 2183SOL    HW2 7449   3.247   2.917   6.654
 2184SOL     OW 7450   6.424   1.236   0.755
 2184SOL    HW1 7451   6.428   1.199   0.848
 2184SOL    HW2 7452   6.373   1.173   0.696
 2185SOL     OW 7453   0.920   1.000   6.031
 2185SOL    HW1 7454   0.968   1.060   5.967
 2185SOL    HW2 7455   0.987   0.944   6.080
 2186SOL     OW 7456   6.670   6.067   5.388
 2186SOL    HW1 7457   6.712   6.154   5.412
 2186SOL    HW2 7458   6.574   6.082   5.364
 2187SOL     OW 7459   5.480   4.806   1.985
 2187SOL    HW1 7460   5.505   4.874   2.055
 2187SOL    HW2 7461   5.538   4.725   1.996
 2188SOL     OW 7462   2.911   1.111   0.817
 2188SOL    HW1 7463   2.917   1.195   0.872
 2188SOL    HW2 7464   2.909   1.032   0.877
 2189SOL     OW 7465   1.857   0.526   2.067
 2189SOL    HW1 7466   1.811   0.540   1.979
 2189SOL    HW2 7467   1.955   0.512   2.052
 2190SOL     OW 7468   6.505   4.778   1.921
 2190SOL    HW1 7469   6.529   4.681   1.930
 2190SOL    HW2 7470   6.454   4.808   2.002
 2191SOL     OW 7471   3.163   0.441   0.053
 2191SOL    HW1 7472   3.090   0.377   0.075
 2191SOL    HW2 7473   3.251   0.393   0.053
 2192SOL     OW 7474   5.125   1.805   2.022
 2192SOL    HW1 7475   5.054   1.852   1.970
 2192SOL    HW2 7476   5.091   1.784   2.114
 2193SOL     OW 7477   2.255   0.532   4.884
 2193SOL    HW1 7478   2.301   0.473   4.951
 2193SOL    HW2 7479   2.166   0.492   4.860
 2194SOL     OW 7480   0.476   3.988   6.093
 2194SOL    HW1 7481   0.465   3.957   5.999
 2194SOL    HW2 7482   0.573   4.004   6.112
 2195SOL     OW 7483   0.250   4.032   4.592
 2195SOL    HW1 7484   0.180   4.016   4.523
 2195SOL    HW2 7485   0.340   4.013   4.554
 2196SOL     OW 7486   3.713   0.750   6.991
 2196SOL    HW1 7487   3.801   0.794   7.012
 2196SOL    HW2 7488   3.638   0.805   0.011
 2197SOL     OW 7489   3.435   5.622   6.120
 2197SOL    HW1 7490   3.337   5.613   6.105
 2197SOL    HW2 7491   3.463   5.716   6.106
 2198SOL     OW 7492   1.325   1.045   6.855
 2198SOL    HW1 7493   1.290   1.124   6.804
 2198SOL    HW2 7494   1.336   0.968   6.793
 2199SOL     OW 7495   4.128   6.768   3.725
 2199SOL    HW1 7496   4.087   6.684   3.761
 2199SOL    HW2 7497   4.138   6.835   3.798
 2200SOL     OW 7498   2.207   2.454   4.186
 2200SOL    HW1 7499   2.166   2.453   4.277
 2200SOL    HW2 7500   2.299   2.416   4.190
 2201SOL     OW 7501   5.816   3.819   5.145
 2201SOL    HW1 7502   5.815   3.805   5.046
 2201SOL    HW2 7503   5.764   3.902   5.168
 2202SOL     OW 7504   3.286   6.757   3.287
 2202SOL    HW1 7505   3.324   6.666   3.274
 2202SOL    HW2 7506   3.274   6.801   3.198
 2203SOL     OW 7507   2.157   5.586   1.164
 2203SOL    HW1 7508   2.186   5.661   1.223
 2203SOL    HW2 7509   2.060   5.567   1.179
 2204SOL     OW 7510   5.878   2.351   1.058
 2204SOL    HW1 7511   5.903   2.294   1.136
 2204SOL    HW2 7512   5.939   2.330   0.981
 2205SOL     OW 7513   6.063   5.821   1.181
 2205SOL    HW1 7514   5.973   5.777   1.179
 2205SOL    HW2 7515   6.102   5.820   1.089
 2206SOL     OW 7516   3.593   2.492   5.857
 2206SOL    HW1 7517   3.661   2.541   5.801
 2206SOL    HW2 7518   3.620   2.397   5.867
 2207SOL     OW 7519   4.860   5.775   1.905
 2207SOL    HW1 7520   4.770   5.762   1.948
 2207SOL    HW2 7521   4.932   5.755   1.971
 2208SOL     OW 7522   0.196   6.538   3.218
 2208SOL    HW1 7523   0.294   6.521   3.218
 2208SOL    HW2 7524   0.178   6.629   3.255
 2209SOL     OW 7525   3.065   5.588   3.456
 2209SOL    HW1 7526   3.099   5.560   3.546
 2209SOL    HW2 7527   2.993   5.656   3.468
 2210SOL     OW 7528   5.383   6.942   1.626
 2210SOL    HW1 7529   5.415   6.853   1.594
 2210SOL    HW2 7530   5.310   6.929   1.694
 2211SOL     OW 7531   1.488   1.848   1.061
 2211SOL    HW1 7532   1.477   1.939   1.021
 2211SOL    HW2 7533   1.472   1.779   0.991
 2212SOL     OW 7534   2.812   5.957   6.379
 2212SOL    HW1 7535   2.788   5.913   6.292
 2212SOL    HW2 7536   2.838   5.887   6.445
 2213SOL     OW 7537   3.450   1.435   4.906
 2213SOL    HW1 7538   3.415   1.486   4.827
 2213SOL    HW2 7539   3.500   1.497   4.966
 2214SOL     OW 7540   3.961   4.265   6.582
 2214SOL    HW1 7541   3.874   4.217   6.581
 2214SOL    HW2 7542   3.995   4.273   6.676
 2215SOL     OW 7543   5.006   6.024   0.652
 2215SOL    HW1 7544   5.059   5.963   0.593
 2215SOL    HW2 7545   5.060   6.052   0.730
 2216SOL     OW 7546   0.697   5.996   7.002
 2216SOL    HW1 7547   0.608   6.040   6.990
 2216SOL    HW2 7548   0.722   5.946   6.918
 2217SOL     OW 7549   4.385   1.332   3.490
 2217SOL    HW1 7550   4.448   1.357   3.564
 2217SOL    HW2 7551   4.302   1.386   3.497
 2218SOL     OW 7552   6.551   5.242   5.538
 2218SOL    HW1 7553   6.645   5.213   5.553
 2218SOL    HW2 7554   6.550   5.339   5.511
 2219SOL     OW 7555   5.063   1.130   0.749
 2219SOL    HW1 7556   5.002   1.192   0.798
 2219SOL    HW2 7557   5.153   1.174   0.737
 2220SOL     OW 7558   6.758   6.042   4.149
 2220SOL    HW1 7559   6.679   6.087   4.107
 2220SOL    HW2 7560   6.800   5.981   4.082
 2221SOL     OW 7561   5.715   0.817   4.251
 2221SOL    HW1 7562   5.646   0.889   4.242
 2221SOL    HW2 7563   5.695   0.744   4.186
 2222SOL     OW 7564   4.028   0.478   3.174
 2222SOL    HW1 7565   3.994   0.497   3.082
 2222SOL    HW2 7566   3.980   0.399   3.212
 2223SOL     OW 7567   0.950   0.074   5.361
 2223SOL    HW1 7568   0.957   0.135   5.282
 2223SOL    HW2 7569   0.965   0.127   5.445
 2224SOL     OW 7570   5.116   4.557   6.899
 2224SOL    HW1 7571   5.100   4.492   6.973
 2224SOL    HW2 7572   5.137   4.508   6.814
 2225SOL     OW 7573   6.839   6.506   1.351
 2225SOL    HW1 7574   6.800   6.591   1.387
 2225SOL    HW2 7575   6.839   6.437   1.423
 2226SOL     OW 7576   2.581   3.901   6.960
 2226SOL    HW1 7577   2.621   3.825   7.011
 2226SOL    HW2 7578   2.650   3.942   6.900
 2227SOL     OW 7579   3.913   2.122   2.144
 2227SOL    HW1 7580   3.833   2.158   2.095
 2227SOL    HW2 7581   3.897   2.128   2.242
 2228SOL     OW 7582   5.697   5.799   6.609
 2228SOL    HW1 7583   5.750   5.786   6.693
 2228SOL    HW2 7584   5.645   5.884   6.616
 2229SOL     OW 7585   3.048   3.360   4.148
 2229SOL    HW1 7586   3.019   3.319   4.062
 2229SOL    HW2 7587   3.068   3.288   4.214
 2230SOL     OW 7588   6.191   0.465   6.515
 2230SOL    HW1 7589   6.149   0.533   6.575
 2230SOL    HW2 7590   6.276   0.432   6.557
 2231SOL     OW 7591   1.565   0.270   6.137
 2231SOL    HW1 7592   1.655   0.226   6.133
 2231SOL    HW2 7593   1.576   0.369   6.143
 2232SOL     OW 7594   1.925   0.659   6.195
 2232SOL    HW1 7595   1.885   0.740   6.236
 2232SOL    HW2 7596   1.993   0.686   6.126
 2233SOL     OW 7597   3.032   4.915   1.137
 2233SOL    HW1 7598   3.018   4.909   1.039
 2233SOL    HW2 7599   2.961   4.862   1.184
 2234SOL     OW 7600   5.004   2.061   1.759
 2234SOL    HW1 7601   4.942   2.072   1.837
 2234SOL    HW2 7602   4.969   1.988   1.699
 2235SOL     OW 7603   0.663   1.899   2.560
 2235SOL    HW1 7604   0.753   1.927   2.526
 2235SOL    HW2 7605   0.652   1.929   2.654
 2236SOL     OW 7606   2.415   4.948   5.646
 2236SOL    HW1 7607   2.429   5.022   5.581
 2236SOL    HW2 7608   2.456   4.971   5.734
 2237SOL     OW 7609   6.600   6.398   5.827
 2237SOL    HW1 7610   6.502   6.418   5.816
 2237SOL    HW2 7611   6.653   6.476   5.794
 2238SOL     OW 7612   6.293   3.451   2.305
 2238SOL    HW1 7613   6.203   3.420   2.335
 2238SOL    HW2 7614   6.306   3.546   2.332
 2239SOL     OW 7615   4.655   6.949   2.831
 2239SOL    HW1 7616   4.616   0.015   2.866
 2239SOL    HW2 7617   4.626   6.935   2.737
 2240SOL     OW 7618   5.113   5.280   2.592
 2240SOL    HW1 7619   5.180   5.305   2.662
 2240SOL    HW2 7620   5.022   5.276   2.632
 2241SOL     OW 7621   0.587   1.649   2.644
 2241SOL    HW1 7622   0.595   1.732   2.590
 2241SOL    HW2 7623   0.497   1.608   2.630
 2242SOL     OW 7624   5.057   2.372   4.456
 2242SOL    HW1 7625   5.050   2.433   4.377
 2242SOL    HW2 7626   5.047   2.424   4.540
 2243SOL     OW 7627   2.288   6.803   0.566
 2243SOL    HW1 7628   2.259   6.897   0.580
 2243SOL    HW2 7629   2.207   6.746   0.549
 2244SOL     OW 7630   2.217   1.663   1.040
 2244SOL    HW1 7631   2.258   1.643   0.951
 2244SOL    HW2 7632   2.194   1.760   1.045
 2245SOL     OW 7633   0.470   0.400   0.206
 2245SOL    HW1 7634   0.549   0.400   0.268
 2245SOL    HW2 7635   0.476   0.478   0.145
 2246SOL     OW 7636   4.195   1.730   5.450
 2246SOL    HW1 7637   4.097   1.727   5.468
 2246SOL    HW2 7638   4.220   1.821   5.415
 2247SOL     OW 7639   2.924   3.198   2.237
 2247SOL    HW1 7640   2.890   3.125   2.178
 2247SOL    HW2 7641   2.898   3.287   2.199
 2248SOL     OW 7642   5.183   3.810   5.102
 2248SOL    HW1 7643   5.084   3.824   5.113
 2248SOL    HW2 7644   5.200   3.755   5.020
 2249SOL     OW 7645   2.236   6.506   3.679
 2249SOL    HW1 7646   2.301   6.578   3.704
 2249SOL    HW2 7647   2.204   6.460   3.762
 2250SOL     OW 7648   4.241   6.142   6.357
 2250SOL    HW1 7649   4.198   6.089   6.284
 2250SOL    HW2 7650   4.195   6.124   6.444
 2251SOL     OW 7651   4.811   6.090   4.970
 2251SOL    HW1 7652   4.730   6.031   4.966
 2251SOL    HW2 7653   4.871   6.071   4.893
 2252SOL     OW 7654   3.830   0.595   2.514
 2252SOL    HW1 7655   3.769   0.587   2.593
 2252SOL    HW2 7656   3.777   0.617   2.432
 2253SOL     OW 7657   0.265   3.491   1.932
 2253SOL    HW1 7658   0.331   3.562   1.906
 2253SOL    HW2 7659   0.261   3.420   1.862
 2254SOL     OW 7660   4.113   3.265   2.650
 2254SOL    HW1 7661   4.123   3.171   2.682
 2254SOL    HW2 7662   4.143   3.328   2.721
 2255SOL     OW 7663   1.566   2.352   6.287
 2255SOL    HW1 7664   1.649   2.406   6.274
 2255SOL    HW2 7665   1.571   2.269   6.230
 2256SOL     OW 7666   5.604   0.313   1.230
 2256SOL    HW1 7667   5.600   0.215   1.213
 2256SOL    HW2 7668   5.690   0.350   1.195
 2257SOL     OW 7669   6.869   0.608   5.323
 2257SOL    HW1 7670   6.829   0.517   5.313
 2257SOL    HW2 7671   6.882   0.628   5.420
 2258SOL     OW 7672   2.183   6.848   4.197
 2258SOL    HW1 7673   2.216   6.917   4.132
 2258SOL    HW2 7674   2.109   6.796   4.154
 2259SOL     OW 7675   6.040   1.507   4.687
 2259SOL    HW1 7676   6.051   1.414   4.722
 2259SOL    HW2 7677   5.971   1.507   4.614
 2260SOL     OW 7678   0.928   3.690   0.981
 2260SOL    HW1 7679   0.853   3.637   1.020
 2260SOL    HW2 7680   0.892   3.755   0.913
 2261SOL     OW 7681   5.395   4.251   7.011
 2261SOL    HW1 7682   5.400   4.346   6.980
 2261SOL    HW2 7683   5.472   4.200   6.974
 2262SOL     OW 7684   6.618   6.512   4.202
 2262SOL    HW1 7685   6.714   6.497   4.224
 2262SOL    HW2 7686   6.603   6.609   4.178
 2263SOL     OW 7687   1.984   4.218   6.485
 2263SOL    HW1 7688   1.948   4.311   6.480
 2263SOL    HW2 7689   1.994   4.191   6.580
 2264SOL     OW 7690   2.216   0.340   5.520
 2264SOL    HW1 7691   2.150   0.413   5.504
 2264SOL    HW2 7692   2.168   0.258   5.551
 2265SOL     OW 7693   6.826   6.288   3.863
 2265SOL    HW1 7694   6.818   6.388   3.868
 2265SOL    HW2 7695   6.737   6.246   3.883
 2266SOL     OW 7696   4.341   2.895   6.785
 2266SOL    HW1 7697   4.424   2.917   6.835
 2266SOL    HW2 7698   4.265   2.882   6.850
 2267SOL     OW 7699   5.504   2.895   4.587
 2267SOL    HW1 7700   5.564   2.854   4.519
 2267SOL    HW2 7701   5.553   2.902   4.675
 2268SOL     OW 7702   1.422   6.566   4.962
 2268SOL    HW1 7703   1.345   6.519   4.918
 2268SOL    HW2 7704   1.497   6.502   4.976
 2269SOL     OW 7705   1.645   2.397   5.528
 2269SOL    HW1 7706   1.724   2.440   5.483
 2269SOL    HW2 7707   1.677   2.338   5.602
 2270SOL     OW 7708   4.847   1.159   6.153
 2270SOL    HW1 7709   4.915   1.182   6.083
 2270SOL    HW2 7710   4.768   1.116   6.109
 2271SOL     OW 7711   4.089   5.694   5.404
 2271SOL    HW1 7712   4.085   5.755   5.325
 2271SOL    HW2 7713   4.068   5.600   5.375
 2272SOL     OW 7714   5.461   1.274   5.852
 2272SOL    HW1 7715   5.496   1.328   5.775
 2272SOL    HW2 7716   5.398   1.330   5.906
 2273SOL     OW 7717   1.149   3.014   3.670
 2273SOL    HW1 7718   1.107   2.978   3.753
 2273SOL    HW2 7719   1.137   2.948   3.595
 2274SOL     OW 7720   1.309   1.030   0.133
 2274SOL    HW1 7721   1.239   0.971   0.173
 2274SOL    HW2 7722   1.287   1.050   0.038
 2275SOL     OW 7723   5.353   3.950   2.990
 2275SOL    HW1 7724   5.404   4.036   2.991
 2275SOL    HW2 7725   5.360   3.906   3.080
 2276SOL     OW 7726   1.835   1.860   1.045
 2276SOL    HW1 7727   1.813   1.842   1.141
 2276SOL    HW2 7728   1.826   1.776   0.993
 2277SOL     OW 7729   4.064   3.191   3.278
 2277SOL    HW1 7730   4.152   3.180   3.231
 2277SOL    HW2 7731   4.014   3.268   3.238
 2278SOL     OW 7732   0.447   2.806   4.021
 2278SOL    HW1 7733   0.353   2.800   3.987
 2278SOL    HW2 7734   0.509   2.826   3.945
 2279SOL     OW 7735   1.103   5.335   6.101
 2279SOL    HW1 7736   1.203   5.345   6.108
 2279SOL    HW2 7737   1.059   5.412   6.146
 2280SOL     OW 7738   4.856   1.833   5.680
 2280SOL    HW1 7739   4.828   1.928   5.666
 2280SOL    HW2 7740   4.800   1.791   5.752
 2281SOL     OW 7741   5.529   6.949   2.474
 2281SOL    HW1 7742   5.569   7.011   2.406
 2281SOL    HW2 7743   5.509   6.861   2.431
 2282SOL     OW 7744   3.262   5.909   6.167
 2282SOL    HW1 7745   3.287   5.979   6.100
 2282SOL    HW2 7746   3.257   5.951   6.258
 2283SOL     OW 7747   0.212   0.639   4.394
 2283SOL    HW1 7748   0.191   0.594   4.308
 2283SOL    HW2 7749   0.310   0.658   4.400
 2284SOL     OW 7750   1.113   3.062   6.436
 2284SOL    HW1 7751   1.081   3.122   6.509
 2284SOL    HW2 7752   1.046   2.991   6.418
 2285SOL     OW 7753   1.857   4.037   6.902
 2285SOL    HW1 7754   1.835   4.129   6.871
 2285SOL    HW2 7755   1.780   3.999   6.953
 2286SOL     OW 7756   4.526   5.053   2.923
 2286SOL    HW1 7757   4.599   5.048   2.991
 2286SOL    HW2 7758   4.505   5.148   2.903
 2287SOL     OW 7759   1.128   1.550   4.053
 2287SOL    HW1 7760   1.043   1.591   4.088
 2287SOL    HW2 7761   1.173   1.614   3.991
 2288SOL     OW 7762   6.825   5.480   2.751
 2288SOL    HW1 7763   6.888   5.430   2.810
 2288SOL    HW2 7764   6.752   5.519   2.807
 2289SOL     OW 7765   0.800   5.669   0.646
 2289SOL    HW1 7766   0.813   5.747   0.707
 2289SOL    HW2 7767   0.884   5.613   0.645
 2290SOL     OW 7768   1.099   4.927   6.784
 2290SOL    HW1 7769   1.125   4.855   6.719
 2290SOL    HW2 7770   1.168   4.933   6.856
 2291SOL     OW 7771   2.259   1.511   6.770
 2291SOL    HW1 7772   2.283   1.602   6.804
 2291SOL    HW2 7773   2.170   1.515   6.725
 2292SOL     OW 7774   2.436   1.301   4.211
 2292SOL    HW1 7775   2.347   1.264   4.184
 2292SOL    HW2 7776   2.479   1.345   4.132
 2293SOL     OW 7777   5.626   3.641   2.557
 2293SOL    HW1 7778   5.681   3.659   2.639
 2293SOL    HW2 7779   5.529   3.643   2.582
 2294SOL     OW 7780   4.188   6.306   0.266
 2294SOL    HW1 7781   4.133   6.360   0.202
 2294SOL    HW2 7782   4.152   6.319   0.359
 2295SOL     OW 7783   0.600   1.833   1.634
 2295SOL    HW1 7784   0.511   1.836   1.588
 2295SOL    HW2 7785   0.611   1.914   1.691
 2296SOL     OW 7786   3.005   6.883   0.905
 2296SOL    HW1 7787   2.969   6.847   0.991
 2296SOL    HW2 7788   3.104   6.887   0.909
 2297SOL     OW 7789   4.321   6.230   6.627
 2297SOL    HW1 7790   4.316   6.291   6.548
 2297SOL    HW2 7791   4.352   6.282   6.707
 2298SOL     OW 7792   4.291   2.881   6.407
 2298SOL    HW1 7793   4.327   2.797   6.448
 2298SOL    HW2 7794   4.356   2.955   6.422
 2299SOL     OW 7795   4.379   0.079   0.145
 2299SOL    HW1 7796   4.424   0.013   0.084
 2299SOL    HW2 7797   4.403   0.172   0.116
 2300SOL     OW 7798   1.030   4.450   0.960
 2300SOL    HW1 7799   1.119   4.474   0.999
 2300SOL    HW2 7800   1.040   4.369   0.902
 2301SOL     OW 7801   4.126   3.452   1.874
 2301SOL    HW1 7802   4.148   3.544   1.907
 2301SOL    HW2 7803   4.029   3.447   1.852
 2302SOL     OW 7804   2.215   5.364   3.031
 2302SOL    HW1 7805   2.253   5.434   3.092
 2302SOL    HW2 7806   2.155   5.304   3.084
 2303SOL     OW 7807   0.173   3.078   5.004
 2303SOL    HW1 7808   0.241   3.005   5.012
 2303SOL    HW2 7809   0.207   3.161   5.047
 2304SOL     OW 7810   2.575   1.256   4.463
 2304SOL    HW1 7811   2.525   1.283   4.381
 2304SOL    HW2 7812   2.669   1.231   4.438
 2305SOL     OW 7813   4.136   4.669   1.862
 2305SOL    HW1 7814   4.174   4.747   1.811
 2305SOL    HW2 7815   4.154   4.585   1.812
 2306SOL     OW 7816   6.969   4.094   0.313
 2306SOL    HW1 7817   7.012   4.180   0.284
 2306SOL    HW2 7818   0.021   4.035   0.354
 2307SOL     OW 7819   0.125   1.479   2.801
 2307SOL    HW1 7820   0.045   1.453   2.856
 2307SOL    HW2 7821   0.149   1.574   2.821
 2308SOL     OW 7822   0.115   6.919   0.288
 2308SOL    HW1 7823   0.159   6.996   0.335
 2308SOL    HW2 7824   0.138   6.834   0.334
 2309SOL     OW 7825   3.608   5.074   5.860
 2309SOL    HW1 7826   3.642   5.133   5.933
 2309SOL    HW2 7827   3.620   4.978   5.887
 2310SOL     OW 7828   5.626   1.698   2.760
 2310SOL    HW1 7829   5.645   1.600   2.761
 2310SOL    HW2 7830   5.573   1.721   2.679
 2311SOL     OW 7831   2.503   0.192   2.682
 2311SOL    HW1 7832   2.562   0.263   2.643
 2311SOL    HW2 7833   2.419   0.185   2.628
 2312SOL     OW 7834   2.664   1.142   2.514
 2312SOL    HW1 7835   2.619   1.088   2.443
 2312SOL    HW2 7836   2.598   1.204   2.556
 2313SOL     OW 7837   4.989   3.769   1.771
 2313SOL    HW1 7838   5.074   3.719   1.789
 2313SOL    HW2 7839   4.915   3.703   1.757
 2314SOL     OW 7840   6.800   6.624   3.181
 2314SOL    HW1 7841   6.869   6.564   3.141
 2314SOL    HW2 7842   6.743   6.663   3.108
 2315SOL     OW 7843   4.291   5.965   4.449
 2315SOL    HW1 7844   4.281   5.927   4.541
 2315SOL    HW2 7845   4.346   5.903   4.393
 2316SOL     OW 7846   2.951   1.734   5.837
 2316SOL    HW1 7847   3.035   1.753   5.888
 2316SOL    HW2 7848   2.938   1.803   5.766
 2317SOL     OW 7849   0.101   5.487   2.924
 2317SOL    HW1 7850   0.104   5.585   2.942
 2317SOL    HW2 7851   0.029   5.446   2.979
 2318SOL     OW 7852   1.210   4.559   5.504
 2318SOL    HW1 7853   1.308   4.562   5.520
 2318SOL    HW2 7854   1.190   4.585   5.409
 2319SOL     OW 7855   1.827   4.913   3.416
 2319SOL    HW1 7856   1.842   4.844   3.344
 2319SOL    HW2 7857   1.841   5.004   3.378
 2320SOL     OW 7858   0.964   2.001   5.110
 2320SOL    HW1 7859   1.016   1.954   5.181
 2320SOL    HW2 7860   0.994   1.969   5.020
 2321SOL     OW 7861   2.395   4.747   5.857
 2321SOL    HW1 7862   2.443   4.714   5.938
 2321SOL    HW2 7863   2.315   4.688   5.839
 2322SOL     OW 7864   1.553   3.990   1.634
 2322SOL    HW1 7865   1.501   3.926   1.691
 2322SOL    HW2 7866   1.490   4.055   1.592
 2323SOL     OW 7867   2.597   5.281   1.004
 2323SOL    HW1 7868   2.598   5.350   1.077
 2323SOL    HW2 7869   2.689   5.241   0.996
 2324SOL     OW 7870   6.723   5.132   3.000
 2324SOL    HW1 7871   6.650   5.089   3.053
 2324SOL    HW2 7872   6.696   5.139   2.904
 2325SOL     OW 7873   6.459   5.524   1.754
 2325SOL    HW1 7874   6.501   5.437   1.729
 2325SOL    HW2 7875   6.360   5.512   1.764
 2326SOL     OW 7876   2.026   0.589   0.102
 2326SOL    HW1 7877   1.975   0.601   0.187
 2326SOL    HW2 7878   2.122   0.572   0.122
 2327SOL     OW 7879   0.162   7.008   2.524
 2327SOL    HW1 7880   0.149   6.985   2.428
 2327SOL    HW2 7881   0.225   6.944   2.566
 2328SOL     OW 7882   2.163   3.355   2.930
 2328SOL    HW1 7883   2.205   3.377   3.018
 2328SOL    HW2 7884   2.081   3.412   2.917
 2329SOL     OW 7885   0.604   5.170   2.792
 2329SOL    HW1 7886   0.545   5.202   2.718
 2329SOL    HW2 7887   0.697   5.206   2.780
 2330SOL     OW 7888   6.146   3.233   0.973
 2330SOL    HW1 7889   6.054   3.203   0.946
 2330SOL    HW2 7890   6.178   3.304   0.909
 2331SOL     OW 7891   4.550   6.002   1.205
 2331SOL    HW1 7892   4.628   5.949   1.237
 2331SOL    HW2 7893   4.485   6.014   1.280
 2332SOL     OW 7894   5.843   6.756   5.982
 2332SOL    HW1 7895   5.856   6.796   6.073
 2332SOL    HW2 7896   5.858   6.826   5.912
 2333SOL     OW 7897   0.420   4.539   2.381
 2333SOL    HW1 7898   0.401   4.609   2.312
 2333SOL    HW2 7899   0.380   4.452   2.353
 2334SOL     OW 7900   2.684   1.729   6.255
 2334SOL    HW1 7901   2.717   1.823   6.265
 2334SOL    HW2 7902   2.706   1.696   6.163
 2335SOL     OW 7903   6.595   1.055   3.368
 2335SOL    HW1 7904   6.654   0.976   3.384
 2335SOL    HW2 7905   6.628   1.106   3.288
 2336SOL     OW 7906   1.861   1.484   2.949
 2336SOL    HW1 7907   1.800   1.469   3.027
 2336SOL    HW2 7908   1.956   1.469   2.977
 2337SOL     OW 7909   4.545   1.816   1.628
 2337SOL    HW1 7910   4.548   1.899   1.684
 2337SOL    HW2 7911   4.526   1.738   1.686
 2338SOL     OW 7912   0.401   3.815   3.452
 2338SOL    HW1 7913   0.359   3.788   3.539
 2338SOL    HW2 7914   0.422   3.733   3.398
 2339SOL     OW 7915   3.593   2.992   2.827
 2339SOL    HW1 7916   3.669   3.007   2.764
 2339SOL    HW2 7917   3.615   3.031   2.916
 2340SOL     OW 7918   2.123   4.902   6.493
 2340SOL    HW1 7919   2.047   4.903   6.559
 2340SOL    HW2 7920   2.189   4.973   6.519
 2341SOL     OW 7921   2.478   4.726   3.384
 2341SOL    HW1 7922   2.416   4.663   3.337
 2341SOL    HW2 7923   2.425   4.796   3.431
 2342SOL     OW 7924   3.136   0.450   3.906
 2342SOL    HW1 7925   3.193   0.492   3.976
 2342SOL    HW2 7926   3.167   0.356   3.890
 2343SOL     OW 7927   1.040   0.273   1.761
 2343SOL    HW1 7928   0.972   0.319   1.704
 2343SOL    HW2 7929   1.020   0.175   1.763
 2344SOL     OW 7930   5.527   3.822   0.620
 2344SOL    HW1 7931   5.560   3.842   0.712
 2344SOL    HW2 7932   5.429   3.803   0.623
 2345SOL     OW 7933   2.721   5.526   4.860
 2345SOL    HW1 7934   2.786   5.534   4.935
 2345SOL    HW2 7935   2.681   5.616   4.840
 2346SOL     OW 7936   3.972   3.694   6.813
 2346SOL    HW1 7937   3.908   3.734   6.748
 2346SOL    HW2 7938   4.058   3.744   6.811
 2347SOL     OW 7939   1.117   1.839   1.777
 2347SOL    HW1 7940   1.122   1.741   1.755
 2347SOL    HW2 7941   1.176   1.859   1.855
 2348SOL     OW 7942   0.238   5.140   2.629
 2348SOL    HW1 7943   0.331   5.110   2.651
 2348SOL    HW2 7944   0.227   5.143   2.530
 2349SOL     OW 7945   0.567   4.473   5.478
 2349SOL    HW1 7946   0.566   4.416   5.560
 2349SOL    HW2 7947   0.618   4.427   5.406
 2350SOL     OW 7948   6.007   3.508   6.740
 2350SOL    HW1 7949   5.997   3.450   6.659
 2350SOL    HW2 7950   5.996   3.452   6.822
 2351SOL     OW 7951   2.997   5.210   2.433
 2351SOL    HW1 7952   2.913   5.157   2.422
 2351SOL    HW2 7953   3.055   5.198   2.353
 2352SOL     OW 7954   0.224   2.728   3.809
 2352SOL    HW1 7955   0.202   2.796   3.740
 2352SOL    HW2 7956   0.286   2.659   3.770
 2353SOL     OW 7957   3.409   5.309   4.651
 2353SOL    HW1 7958   3.437   5.380   4.716
 2353SOL    HW2 7959   3.399   5.349   4.560
 2354SOL     OW 7960   1.941   2.780   3.371
 2354SOL    HW1 7961   1.908   2.731   3.452
 2354SOL    HW2 7962   1.901   2.871   3.369
 2355SOL     OW 7963   2.459   5.982   5.137
 2355SOL    HW1 7964   2.483   5.959   5.231
 2355SOL    HW2 7965   2.444   6.080   5.130
 2356SOL     OW 7966   6.325   2.935   6.976
 2356SOL    HW1 7967   6.248   2.988   6.940
 2356SOL    HW2 7968   6.320   2.932   0.057
 2357SOL     OW 7969   2.478   6.381   2.705
 2357SOL    HW1 7970   2.415   6.455   2.678
 2357SOL    HW2 7971   2.512   6.400   2.797
 2358SOL     OW 7972   3.778   5.041   6.530
 2358SOL    HW1 7973   3.733   5.005   6.449
 2358SOL    HW2 7974   3.710   5.063   6.599
 2359SOL     OW 7975   1.726   0.020   4.736
 2359SOL    HW1 7976   1.790   6.981   4.686
 2359SOL    HW2 7977   1.644   0.034   4.682
 2360SOL     OW 7978   6.901   3.537   0.123
 2360SOL    HW1 7979   6.860   3.608   0.180
 2360SOL    HW2 7980   6.916   3.572   0.031
 2361SOL     OW 7981   3.422   1.140   6.674
 2361SOL    HW1 7982   3.352   1.103   6.734
 2361SOL    HW2 7983   3.411   1.101   6.582
 2362SOL     OW 7984   3.217   5.552   3.206
 2362SOL    HW1 7985   3.187   5.460   3.180
 2362SOL    HW2 7986   3.152   5.592   3.271
 2363SOL     OW 7987   3.804   0.588   4.129
 2363SOL    HW1 7988   3.816   0.678   4.169
 2363SOL    HW2 7989   3.891   0.538   4.133
 2364SOL     OW 7990   0.864   2.401   0.720
 2364SOL    HW1 7991   0.883   2.495   0.748
 2364SOL    HW2 7992   0.920   2.378   0.640
 2365SOL     OW 7993   5.615   2.390   6.544
 2365SOL    HW1 7994   5.561   2.307   6.559
 2365SOL    HW2 7995   5.635   2.433   6.632
 2366SOL     OW 7996   4.058   5.557   0.713
 2366SOL    HW1 7997   4.010   5.476   0.678
 2366SOL    HW2 7998   4.140   5.528   0.763
 2367SOL     OW 7999   2.353   3.386   6.093
 2367SOL    HW1 8000   2.269   3.348   6.132
 2367SOL    HW2 8001   2.375   3.337   6.008
 2368SOL     OW 8002   6.396   6.179   2.470
 2368SOL    HW1 8003   6.401   6.277   2.456
 2368SOL    HW2 8004   6.302   6.148   2.457
 2369SOL     OW 8005   2.318   1.004   3.107
 2369SOL    HW1 8006   2.355   0.911   3.112
 2369SOL    HW2 8007   2.394   1.070   3.104
 2370SOL     OW 8008   6.308   2.038   6.889
 2370SOL    HW1 8009   6.220   2.010   6.927
 2370SOL    HW2 8010   6.381   2.013   6.952
 2371SOL     OW 8011   2.686   6.501   1.628
 2371SOL    HW1 8012   2.735   6.586   1.609
 2371SOL    HW2 8013   2.616   6.487   1.558
 2372SOL     OW 8014   6.571   3.414   2.844
 2372SOL    HW1 8015   6.638   3.476   2.804
 2372SOL    HW2 8016   6.482   3.427   2.800
 2373SOL     OW 8017   2.238   3.508   6.534
 2373SOL    HW1 8018   2.157   3.460   6.568
 2373SOL    HW2 8019   2.217   3.548   6.444
 2374SOL     OW 8020   5.804   3.160   4.692
 2374SOL    HW1 8021   5.748   3.101   4.750
 2374SOL    HW2 8022   5.879   3.107   4.653
 2375SOL     OW 8023   2.951   6.615   5.260
 2375SOL    HW1 8024   2.862   6.624   5.216
 2375SOL    HW2 8025   2.982   6.520   5.256
 2376SOL     OW 8026   6.417   3.347   4.545
 2376SOL    HW1 8027   6.429   3.346   4.644
 2376SOL    HW2 8028   6.497   3.307   4.501
 2377SOL     OW 8029   3.691   3.401   3.849
 2377SOL    HW1 8030   3.614   3.386   3.786
 2377SOL    HW2 8031   3.749   3.474   3.815
 2378SOL     OW 8032   5.492   2.713   6.916
 2378SOL    HW1 8033   5.497   2.615   6.895
 2378SOL    HW2 8034   5.559   2.735   6.987
 2379SOL     OW 8035   6.771   6.651   7.017
 2379SOL    HW1 8036   6.743   6.747   0.001
 2379SOL    HW2 8037   6.792   6.620   0.092
 2380SOL     OW 8038   6.184   1.892   2.227
 2380SOL    HW1 8039   6.272   1.863   2.190
 2380SOL    HW2 8040   6.186   1.886   2.327
 2381SOL     OW 8041   1.530   6.687   3.332
 2381SOL    HW1 8042   1.482   6.626   3.395
 2381SOL    HW2 8043   1.568   6.765   3.383
 2382SOL     OW 8044   1.254   3.609   5.288
 2382SOL    HW1 8045   1.330   3.550   5.315
 2382SOL    HW2 8046   1.281   3.664   5.209
 2383SOL     OW 8047   5.970   5.925   1.566
 2383SOL    HW1 8048   5.874   5.925   1.594
 2383SOL    HW2 8049   6.028   5.952   1.643
 2384SOL     OW 8050   4.559   2.028   1.772
 2384SOL    HW1 8051   4.512   2.045   1.859
 2384SOL    HW2 8052   4.610   2.109   1.745
 2385SOL     OW 8053   0.626   2.035   6.447
 2385SOL    HW1 8054   0.549   2.020   6.508
 2385SOL    HW2 8055   0.642   2.134   6.438
 2386SOL     OW 8056   4.512   5.266   4.141
 2386SOL    HW1 8057   4.547   5.354   4.175
 2386SOL    HW2 8058   4.565   5.237   4.062
 2387SOL     OW 8059   2.096   1.203   3.584
 2387SOL    HW1 8060   2.156   1.203   3.505
 2387SOL    HW2 8061   2.016   1.261   3.565
 2388SOL     OW 8062   6.325   1.471   4.138
 2388SOL    HW1 8063   6.351   1.559   4.178
 2388SOL    HW2 8064   6.297   1.408   4.211
 2389SOL     OW 8065   4.010   5.811   2.604
 2389SOL    HW1 8066   4.090   5.790   2.547
 2389SOL    HW2 8067   3.976   5.902   2.581
 2390SOL     OW 8068   3.096   4.508   1.493
 2390SOL    HW1 8069   3.187   4.548   1.500
 2390SOL    HW2 8070   3.033   4.574   1.453
 2391SOL     OW 8071   3.853   5.033   5.559
 2391SOL    HW1 8072   3.941   5.053   5.515
 2391SOL    HW2 8073   3.833   4.936   5.550
 2392SOL     OW 8074   3.922   1.167   6.896
 2392SOL    HW1 8075   3.885   1.257   6.877
 2392SOL    HW2 8076   4.009   1.176   6.945
 2393SOL     OW 8077   4.086   5.082   5.435
 2393SOL    HW1 8078   4.144   5.002   5.417
 2393SOL    HW2 8079   4.131   5.142   5.500
 2394SOL     OW 8080   0.186   4.835   5.414
 2394SOL    HW1 8081   0.211   4.931   5.403
 2394SOL    HW2 8082   0.247   4.791   5.480
 2395SOL     OW 8083   4.018   0.147   6.018
 2395SOL    HW1 8084   3.949   0.126   6.087
 2395SOL    HW2 8085   4.100   0.093   6.037
 2396SOL     OW 8086   4.033   4.329   0.921
 2396SOL    HW1 8087   4.130   4.309   0.909
 2396SOL    HW2 8088   4.017   4.362   1.014
 2397SOL     OW 8089   0.211   3.966   3.920
 2397SOL    HW1 8090   0.266   4.038   3.878
 2397SOL    HW2 8091   0.138   3.939   3.857
 2398SOL     OW 8092   4.213   4.567   5.794
 2398SOL    HW1 8093   4.119   4.580   5.827
 2398SOL    HW2 8094   4.232   4.469   5.786
 2399SOL     OW 8095   4.267   2.089   1.704
 2399SOL    HW1 8096   4.215   2.122   1.784
 2399SOL    HW2 8097   4.309   2.001   1.726
 2400SOL     OW 8098   2.380   5.454   1.491
 2400SOL    HW1 8099   2.381   5.436   1.392
 2400SOL    HW2 8100   2.389   5.368   1.541
 2401SOL     OW 8101   0.075   6.211   6.382
 2401SOL    HW1 8102   0.132   6.155   6.442
 2401SOL    HW2 8103   0.129   6.242   6.303
 2402SOL     OW 8104   6.908   6.496   4.209
 2402SOL    HW1 8105   6.934   6.540   4.123
 2402SOL    HW2 8106   6.927   6.398   4.202
 2403SOL     OW 8107   0.215   1.458   4.841
 2403SOL    HW1 8108   0.269   1.542   4.848
 2403SOL    HW2 8109   0.195   1.439   4.744
 2404SOL     OW 8110   1.291   0.553   0.380
 2404SOL    HW1 8111   1.214   0.549   0.316
 2404SOL    HW2 8112   1.323   0.647   0.388
 2405SOL     OW 8113   3.048   4.217   1.432
 2405SOL    HW1 8114   3.012   4.218   1.338
 2405SOL    HW2 8115   3.068   4.310   1.462
 2406SOL     OW 8116   4.496   0.901   1.345
 2406SOL    HW1 8117   4.483   0.803   1.357
 2406SOL    HW2 8118   4.486   0.924   1.249
 2407SOL     OW 8119   4.760   0.749   4.012
 2407SOL    HW1 8120   4.828   0.680   4.038
 2407SOL    HW2 8121   4.711   0.718   3.930
 2408SOL     OW 8122   4.506   4.448   2.166
 2408SOL    HW1 8123   4.452   4.524   2.130
 2408SOL    HW2 8124   4.525   4.383   2.093
 2409SOL     OW 8125   1.282   4.109   0.374
 2409SOL    HW1 8126   1.380   4.120   0.357
 2409SOL    HW2 8127   1.242   4.199   0.394
 2410SOL     OW 8128   3.247   2.956   2.504
 2410SOL    HW1 8129   3.160   2.920   2.471
 2410SOL    HW2 8130   3.263   2.924   2.597
 2411SOL     OW 8131   4.493   6.656   4.246
 2411SOL    HW1 8132   4.479   6.612   4.157
 2411SOL    HW2 8133   4.508   6.754   4.233
 2412SOL     OW 8134   4.357   3.521   0.977
 2412SOL    HW1 8135   4.420   3.579   1.029
 2412SOL    HW2 8136   4.264   3.552   0.992
 2413SOL     OW 8137   4.883   6.752   2.806
 2413SOL    HW1 8138   4.826   6.832   2.827
 2413SOL    HW2 8139   4.831   6.669   2.827
 2414SOL     OW 8140   5.742   3.623   4.070
 2414SOL    HW1 8141   5.832   3.667   4.080
 2414SOL    HW2 8142   5.683   3.653   4.145
 2415SOL     OW 8143   4.547   1.095   3.174
 2415SOL    HW1 8144   4.520   1.096   3.270
 2415SOL    HW2 8145   4.484   1.038   3.122
 2416SOL     OW 8146   5.727   1.811   6.520
 2416SOL    HW1 8147   5.693   1.825   6.427
 2416SOL    HW2 8148   5.770   1.721   6.527
 2417SOL     OW 8149   3.372   4.156   4.451
 2417SOL    HW1 8150   3.348   4.248   4.421
 2417SOL    HW2 8151   3.453   4.161   4.510
 2418SOL     OW 8152   3.361   2.852   2.790
 2418SOL    HW1 8153   3.437   2.916   2.789
 2418SOL    HW2 8154   3.384   2.771   2.736
 2419SOL     OW 8155   0.293   0.268   2.994
 2419SOL    HW1 8156   0.276   0.170   3.003
 2419SOL    HW2 8157   0.363   0.283   2.923
 2420SOL     OW 8158   2.056   0.035   1.882
 2420SOL    HW1 8159   1.991   6.977   1.885
 2420SOL    HW2 8160   2.140   0.009   1.929
 2421SOL     OW 8161   3.461   1.725   3.754
 2421SOL    HW1 8162   3.362   1.717   3.742
 2421SOL    HW2 8163   3.493   1.811   3.713
 2422SOL     OW 8164   4.525   1.443   0.794
 2422SOL    HW1 8165   4.616   1.482   0.808
 2422SOL    HW2 8166   4.456   1.514   0.806
 2423SOL     OW 8167   1.911   5.016   2.340
 2423SOL    HW1 8168   1.843   4.943   2.346
 2423SOL    HW2 8169   1.872   5.101   2.374
 2424SOL     OW 8170   6.062   0.010   0.890
 2424SOL    HW1 8171   6.048   0.072   0.967
 2424SOL    HW2 8172   5.975   7.014   0.843
 2425SOL     OW 8173   7.014   6.721   4.300
 2425SOL    HW1 8174   6.965   6.666   4.233
 2425SOL    HW2 8175   0.083   6.752   4.260
 2426SOL     OW 8176   2.684   4.657   4.366
 2426SOL    HW1 8177   2.729   4.683   4.451
 2426SOL    HW2 8178   2.645   4.565   4.375
 2427SOL     OW 8179   6.117   0.250   5.712
 2427SOL    HW1 8180   6.084   0.298   5.630
 2427SOL    HW2 8181   6.053   0.176   5.734
 2428SOL     OW 8182   6.092   0.721   0.764
 2428SOL    HW1 8183   6.177   0.776   0.767
 2428SOL    HW2 8184   6.015   0.781   0.743
 2429SOL     OW 8185   5.216   5.364   2.070
 2429SOL    HW1 8186   5.157   5.298   2.117
 2429SOL    HW2 8187   5.166   5.405   1.995
 2430SOL     OW 8188   5.262   0.006   2.561
 2430SOL    HW1 8189   5.362   0.003   2.554
 2430SOL    HW2 8190   5.226   0.065   2.489
 2431SOL     OW 8191   4.415   0.288   2.382
 2431SOL    HW1 8192   4.378   0.210   2.434
 2431SOL    HW2 8193   4.361   0.301   2.299
 2432SOL     OW 8194   2.476   5.921   2.723
 2432SOL    HW1 8195   2.415   5.846   2.746
 2432SOL    HW2 8196   2.544   5.932   2.796
 2433SOL     OW 8197   4.722   0.327   1.067
 2433SOL    HW1 8198   4.672   0.263   1.009
 2433SOL    HW2 8199   4.789   0.277   1.122
 2434SOL     OW 8200   3.830   3.063   5.029
 2434SOL    HW1 8201   3.868   2.995   5.091
 2434SOL    HW2 8202   3.827   3.026   4.936
 2435SOL     OW 8203   6.576   5.883   5.821
 2435SOL    HW1 8204   6.491   5.926   5.793
 2435SOL    HW2 8205   6.597   5.807   5.760
 2436SOL     OW 8206   2.972   4.874   0.887
 2436SOL    HW1 8207   3.035   4.825   0.827
 2436SOL    HW2 8208   2.881   4.876   0.846
 2437SOL     OW 8209   6.973   0.492   5.740
 2437SOL    HW1 8210   6.937   0.494   5.833
 2437SOL    HW2 8211   6.956   0.580   5.695
 2438SOL     OW 8212   2.886   3.304   0.806
 2438SOL    HW1 8213   2.887   3.204   0.808
 2438SOL    HW2 8214   2.964   3.339   0.857
 2439SOL     OW 8215   5.786   4.467   5.692
 2439SOL    HW1 8216   5.871   4.467   5.744
 2439SOL    HW2 8217   5.741   4.379   5.700
 2440SOL     OW 8218   5.598   4.888   5.634
 2440SOL    HW1 8219   5.693   4.856   5.633
 2440SOL    HW2 8220   5.587   4.957   5.705
 2441SOL     OW 8221   6.173   2.316   0.992
 2441SOL    HW1 8222   6.223   2.370   0.925
 2441SOL    HW2 8223   6.178   2.361   1.081
 2442SOL     OW 8224   0.210   2.128   5.526
 2442SOL    HW1 8225   0.216   2.041   5.477
 2442SOL    HW2 8226   0.141   2.186   5.483
 2443SOL     OW 8227   2.784   4.745   5.302
 2443SOL    HW1 8228   2.787   4.682   5.225
 2443SOL    HW2 8229   2.878   4.767   5.330
 2444SOL     OW 8230   3.165   2.771   5.559
 2444SOL    HW1 8231   3.208   2.719   5.633
 2444SOL    HW2 8232   3.150   2.712   5.480
 2445SOL     OW 8233   0.796   0.127   0.797
 2445SOL    HW1 8234   0.802   0.120   0.697
 2445SOL    HW2 8235   0.881   0.165   0.832
 2446SOL     OW 8236   5.142   2.878   6.115
 2446SOL    HW1 8237   5.180   2.909   6.202
 2446SOL    HW2 8238   5.188   2.925   6.040
 2447SOL     OW 8239   0.575   2.993   6.385
 2447SOL    HW1 8240   0.556   3.006   6.288
 2447SOL    HW2 8241   0.540   2.904   6.414
 2448SOL     OW 8242   0.126   6.965   4.108
 2448SOL    HW1 8243   0.164   6.971   4.200
 2448SOL    HW2 8244   0.142   0.033   4.060
 2449SOL     OW 8245   0.747   3.098   5.023
 2449SOL    HW1 8246   0.819   3.051   5.075
 2449SOL    HW2 8247   0.789   3.156   4.954
 2450SOL     OW 8248   2.022   2.719   1.630
 2450SOL    HW1 8249   2.029   2.811   1.592
 2450SOL    HW2 8250   1.954   2.719   1.704
 2451SOL     OW 8251   2.119   6.293   4.265
 2451SOL    HW1 8252   2.039   6.244   4.229
 2451SOL    HW2 8253   2.202   6.251   4.229
 2452SOL     OW 8254   2.545   2.566   4.549
 2452SOL    HW1 8255   2.454   2.554   4.509
 2452SOL    HW2 8256   2.613   2.519   4.492
 2453SOL     OW 8257   0.568   3.683   1.181
 2453SOL    HW1 8258   0.493   3.659   1.120
 2453SOL    HW2 8259   0.564   3.627   1.263
 2454SOL     OW 8260   2.038   0.234   1.706
 2454SOL    HW1 8261   2.055   0.142   1.742
 2454SOL    HW2 8262   2.070   0.239   1.611
 2455SOL     OW 8263   5.480   3.483   1.239
 2455SOL    HW1 8264   5.515   3.551   1.304
 2455SOL    HW2 8265   5.515   3.393   1.264
 2456SOL     OW 8266   2.658   7.004   1.094
 2456SOL    HW1 8267   2.674   6.994   0.996
 2456SOL    HW2 8268   2.561   0.003   1.110
 2457SOL     OW 8269   5.590   5.928   1.216
 2457SOL    HW1 8270   5.585   6.013   1.165
 2457SOL    HW2 8271   5.502   5.881   1.211
 2458SOL     OW 8272   0.248   6.313   1.845
 2458SOL    HW1 8273   0.292   6.377   1.908
 2458SOL    HW2 8274   0.275   6.219   1.867
 2459SOL     OW 8275   1.055   1.424   0.363
 2459SOL    HW1 8276   1.037   1.435   0.266
 2459SOL    HW2 8277   1.154   1.428   0.380
 2460SOL     OW 8278   2.902   4.684   1.433
 2460SOL    HW1 8279   2.875   4.685   1.529
 2460SOL    HW2 8280   2.836   4.737   1.379
 2461SOL     OW 8281   4.749   1.178   2.684
 2461SOL    HW1 8282   4.744   1.255   2.747
 2461SOL    HW2 8283   4.827   1.190   2.623
 2462SOL     OW 8284   2.547   4.016   6.080
 2462SOL    HW1 8285   2.513   3.951   6.148
 2462SOL    HW2 8286   2.518   4.109   6.105
 2463SOL     OW 8287   0.703   2.439   5.017
 2463SOL    HW1 8288   0.745   2.378   5.085
 2463SOL    HW2 8289   0.735   2.414   4.926
 2464SOL     OW 8290   1.225   3.185   0.465
 2464SOL    HW1 8291   1.295   3.257   0.465
 2464SOL    HW2 8292   1.172   3.190   0.380
 2465SOL     OW 8293   5.933   5.049   2.106
 2465SOL    HW1 8294   5.870   4.980   2.140
 2465SOL    HW2 8295   5.892   5.140   2.114
 2466SOL     OW 8296   3.618   1.318   1.694
 2466SOL    HW1 8297   3.667   1.343   1.611
 2466SOL    HW2 8298   3.542   1.382   1.708
 2467SOL     OW 8299   0.727   1.191   4.563
 2467SOL    HW1 8300   0.785   1.272   4.558
 2467SOL    HW2 8301   0.680   1.188   4.651
 2468SOL     OW 8302   6.215   4.445   0.051
 2468SOL    HW1 8303   6.216   4.402   6.978
 2468SOL    HW2 8304   6.126   4.490   0.065
 2469SOL     OW 8305   2.883   2.526   5.647
 2469SOL    HW1 8306   2.950   2.478   5.704
 2469SOL    HW2 8307   2.819   2.460   5.608
 2470SOL     OW 8308   5.440   2.799   0.727
 2470SOL    HW1 8309   5.418   2.719   0.671
 2470SOL    HW2 8310   5.434   2.775   0.824
 2471SOL     OW 8311   0.224   1.228   2.795
 2471SOL    HW1 8312   0.202   1.326   2.796
 2471SOL    HW2 8313   0.261   1.204   2.705
 2472SOL     OW 8314   5.850   0.981   3.706
 2472SOL    HW1 8315   5.761   0.955   3.667
 2472SOL    HW2 8316   5.922   0.963   3.639
 2473SOL     OW 8317   0.577   6.276   5.476
 2473SOL    HW1 8318   0.524   6.204   5.521
 2473SOL    HW2 8319   0.580   6.257   5.377
 2474SOL     OW 8320   6.295   6.667   4.272
 2474SOL    HW1 8321   6.302   6.611   4.355
 2474SOL    HW2 8322   6.336   6.757   4.289
 2475SOL     OW 8323   4.277   1.948   6.281
 2475SOL    HW1 8324   4.183   1.972   6.257
 2475SOL    HW2 8325   4.330   2.032   6.295
 2476SOL     OW 8326   0.489   1.306   3.320
 2476SOL    HW1 8327   0.398   1.331   3.289
 2476SOL    HW2 8328   0.495   1.316   3.419
 2477SOL     OW 8329   4.430   4.853   2.432
 2477SOL    HW1 8330   4.456   4.946   2.457
 2477SOL    HW2 8331   4.483   4.788   2.487
 2478SOL     OW 8332   0.134   6.877   2.296
 2478SOL    HW1 8333   0.101   6.931   2.219
 2478SOL    HW2 8334   0.177   6.793   2.262
 2479SOL     OW 8335   0.748   2.641   6.886
 2479SOL    HW1 8336   0.715   2.554   6.922
 2479SOL    HW2 8337   0.805   2.626   6.806
 2480SOL     OW 8338   6.597   5.279   1.660
 2480SOL    HW1 8339   6.544   5.282   1.575
 2480SOL    HW2 8340   6.693   5.259   1.638
 2481SOL     OW 8341   3.902   5.149   2.334
 2481SOL    HW1 8342   3.912   5.154   2.433
 2481SOL    HW2 8343   3.906   5.241   2.295
 2482SOL     OW 8344   4.323   2.161   5.138
 2482SOL    HW1 8345   4.293   2.242   5.088
 2482SOL    HW2 8346   4.383   2.188   5.214
 2483SOL     OW 8347   0.712   3.037   6.926
 2483SOL    HW1 8348   0.624   3.032   6.878
 2483SOL    HW2 8349   0.786   3.044   6.860
 2484SOL     OW 8350   3.717   3.985   5.785
 2484SOL    HW1 8351   3.663   3.903   5.767
 2484SOL    HW2 8352   3.659   4.054   5.829
 2485SOL     OW 8353   0.958   6.088   0.042
 2485SOL    HW1 8354   0.951   6.090   0.142
 2485SOL    HW2 8355   0.869   6.062   0.004
 2486SOL     OW 8356   0.557   5.549   3.710
 2486SOL    HW1 8357   0.488   5.478   3.695
 2486SOL    HW2 8358   0.611   5.526   3.790
 2487SOL     OW 8359   3.543   1.604   1.557
 2487SOL    HW1 8360   3.526   1.632   1.463
 2487SOL    HW2 8361   3.635   1.631   1.584
 2488SOL     OW 8362   3.274   6.123   6.651
 2488SOL    HW1 8363   3.316   6.212   6.632
 2488SOL    HW2 8364   3.299   6.093   6.742
 2489SOL     OW 8365   0.211   5.946   4.388
 2489SOL    HW1 8366   0.238   5.917   4.295
 2489SOL    HW2 8367   0.149   6.023   4.382
 2490SOL     OW 8368   5.828   2.947   1.295
 2490SOL    HW1 8369   5.775   3.032   1.295
 2490SOL    HW2 8370   5.831   2.911   1.389
 2491SOL     OW 8371   0.097   4.450   3.376
 2491SOL    HW1 8372   0.036   4.456   3.297
 2491SOL    HW2 8373   0.178   4.397   3.351
 2492SOL     OW 8374   4.291   1.546   6.180
 2492SOL    HW1 8375   4.225   1.567   6.108
 2492SOL    HW2 8376   4.250   1.483   6.246
 2493SOL     OW 8377   6.317   0.441   5.008
 2493SOL    HW1 8378   6.346   0.375   4.939
 2493SOL    HW2 8379   6.390   0.452   5.076
 2494SOL     OW 8380   4.398   5.024   1.035
 2494SOL    HW1 8381   4.381   4.955   0.965
 2494SOL    HW2 8382   4.493   5.056   1.028
 2495SOL     OW 8383   6.766   0.981   2.466
 2495SOL    HW1 8384   6.693   0.925   2.425
 2495SOL    HW2 8385   6.748   0.992   2.563
 2496SOL     OW 8386   2.161   5.292   0.824
 2496SOL    HW1 8387   2.078   5.279   0.879
 2496SOL    HW2 8388   2.136   5.300   0.727
 2497SOL     OW 8389   5.406   0.540   6.253
 2497SOL    HW1 8390   5.466   0.460   6.252
 2497SOL    HW2 8391   5.462   0.622   6.265
 2498SOL     OW 8392   0.849   3.334   4.840
 2498SOL    HW1 8393   0.831   3.361   4.745
 2498SOL    HW2 8394   0.896   3.245   4.841
 2499SOL     OW 8395   5.308   0.997   0.535
 2499SOL    HW1 8396   5.280   1.092   0.550
 2499SOL    HW2 8397   5.371   0.969   0.607
 2500SOL     OW 8398   4.498   3.790   6.413
 2500SOL    HW1 8399   4.508   3.784   6.313
 2500SOL    HW2 8400   4.552   3.866   6.447
 2501SOL     OW 8401   6.676   4.869   0.782
 2501SOL    HW1 8402   6.709   4.808   0.710
 2501SOL    HW2 8403   6.630   4.948   0.740
 2502SOL     OW 8404   0.526   0.801   3.647
 2502SOL    HW1 8405   0.433   0.832   3.628
 2502SOL    HW2 8406   0.523   0.712   3.692
 2503SOL     OW 8407   5.612   6.565   4.129
 2503SOL    HW1 8408   5.626   6.662   4.109
 2503SOL    HW2 8409   5.575   6.555   4.221
 2504SOL     OW 8410   2.539   4.492   3.075
 2504SOL    HW1 8411   2.633   4.461   3.059
 2504SOL    HW2 8412   2.475   4.428   3.032
 2505SOL     OW 8413   4.763   4.111   5.037
 2505SOL    HW1 8414   4.768   4.168   4.956
 2505SOL    HW2 8415   4.822   4.031   5.026
 2506SOL     OW 8416   0.766   0.862   0.589
 2506SOL    HW1 8417   0.785   0.845   0.686
 2506SOL    HW2 8418   0.726   0.953   0.578
 2507SOL     OW 8419   6.185   6.357   6.868
 2507SOL    HW1 8420   6.285   6.355   6.869
 2507SOL    HW2 8421   6.150   6.265   6.851
 2508SOL     OW 8422   1.659   2.137   2.070
 2508SOL    HW1 8423   1.604   2.076   2.012
 2508SOL    HW2 8424   1.756   2.124   2.050
 2509SOL     OW 8425   5.885   0.676   3.739
 2509SOL    HW1 8426   5.883   0.682   3.639
 2509SOL    HW2 8427   5.802   0.718   3.776
 2510SOL     OW 8428   4.131   6.437   2.440
 2510SOL    HW1 8429   4.203   6.369   2.442
 2510SOL    HW2 8430   4.149   6.507   2.510
 2511SOL     OW 8431   0.764   6.445   3.851
 2511SOL    HW1 8432   0.770   6.402   3.941
 2511SOL    HW2 8433   0.856   6.449   3.811
 2512SOL     OW 8434   5.997   3.686   4.173
 2512SOL    HW1 8435   6.083   3.671   4.222
 2512SOL    HW2 8436   5.984   3.784   4.157
 2513SOL     OW 8437   0.035   4.643   0.710
 2513SOL    HW1 8438   6.953   4.646   0.715
 2513SOL    HW2 8439   0.070   4.737   0.708
 2514SOL     OW 8440   0.008   2.113   3.650
 2514SOL    HW1 8441   0.042   2.184   3.588
 2514SOL    HW2 8442   0.042   2.024   3.620
 2515SOL     OW 8443   1.084   4.522   6.581
 2515SOL    HW1 8444   1.008   4.571   6.539
 2515SOL    HW2 8445   1.140   4.586   6.634
 2516SOL     OW 8446   5.378   6.628   3.845
 2516SOL    HW1 8447   5.364   6.668   3.936
 2516SOL    HW2 8448   5.291   6.626   3.796
 2517SOL     OW 8449   1.901   5.566   0.793
 2517SOL    HW1 8450   1.995   5.582   0.825
 2517SOL    HW2 8451   1.861   5.652   0.763
 2518SOL     OW 8452   2.573   2.585   0.118
 2518SOL    HW1 8453   2.592   2.506   0.177
 2518SOL    HW2 8454   2.517   2.651   0.168
 2519SOL     OW 8455   5.717   4.078   5.208
 2519SOL    HW1 8456   5.664   4.143   5.153
 2519SOL    HW2 8457   5.758   4.126   5.286
 2520SOL     OW 8458   3.421   5.376   1.522
 2520SOL    HW1 8459   3.331   5.333   1.529
 2520SOL    HW2 8460   3.474   5.330   1.452
 2521SOL     OW 8461   5.735   6.446   5.756
 2521SOL    HW1 8462   5.827   6.455   5.794
 2521SOL    HW2 8463   5.689   6.536   5.758
 2522SOL     OW 8464   2.241   5.084   4.991
 2522SOL    HW1 8465   2.321   5.077   5.051
 2522SOL    HW2 8466   2.162   5.044   5.037
 2523SOL     OW 8467   0.951   1.598   5.787
 2523SOL    HW1 8468   0.885   1.674   5.784
 2523SOL    HW2 8469   1.020   1.611   5.717
 2524SOL     OW 8470   1.673   0.004   4.307
 2524SOL    HW1 8471   1.771   7.018   4.286
 2524SOL    HW2 8472   1.661   0.016   4.405
 2525SOL     OW 8473   2.742   4.743   2.236
 2525SOL    HW1 8474   2.824   4.800   2.233
 2525SOL    HW2 8475   2.745   4.676   2.162
 2526SOL     OW 8476   1.321   2.568   4.590
 2526SOL    HW1 8477   1.281   2.650   4.550
 2526SOL    HW2 8478   1.406   2.592   4.638
 2527SOL     OW 8479   0.127   6.961   3.749
 2527SOL    HW1 8480   0.074   6.988   3.829
 2527SOL    HW2 8481   0.139   6.861   3.750
 2528SOL     OW 8482   5.048   5.695   0.549
 2528SOL    HW1 8483   5.049   5.691   0.649
 2528SOL    HW2 8484   4.967   5.744   0.518
 2529SOL     OW 8485   5.227   4.426   5.514
 2529SOL    HW1 8486   5.186   4.440   5.423
 2529SOL    HW2 8487   5.179   4.483   5.581
 2530SOL     OW 8488   0.988   6.380   3.340
 2530SOL    HW1 8489   0.962   6.290   3.305
 2530SOL    HW2 8490   1.058   6.420   3.281
 2531SOL     OW 8491   5.598   1.679   6.958
 2531SOL    HW1 8492   5.685   1.631   6.948
 2531SOL    HW2 8493   5.561   1.701   6.868
 2532SOL     OW 8494   0.850   5.095   5.513
 2532SOL    HW1 8495   0.766   5.048   5.486
 2532SOL    HW2 8496   0.898   5.128   5.431
 2533SOL     OW 8497   5.803   0.482   5.163
 2533SOL    HW1 8498   5.773   0.395   5.202
 2533SOL    HW2 8499   5.903   0.481   5.152
 2534SOL     OW 8500   6.410   1.265   3.678
 2534SOL    HW1 8501   6.430   1.294   3.771
 2534SOL    HW2 8502   6.492   1.273   3.621
 2535SOL     OW 8503   2.749   1.163   2.108
 2535SOL    HW1 8504   2.847   1.158   2.085
 2535SOL    HW2 8505   2.707   1.240   2.060
 2536SOL     OW 8506   0.162   0.517   4.112
 2536SOL    HW1 8507   0.099   0.439   4.105
 2536SOL    HW2 8508   0.193   0.542   4.020
 2537SOL     OW 8509   3.098   6.207   2.590
 2537SOL    HW1 8510   3.173   6.150   2.623
 2537SOL    HW2 8511   3.034   6.150   2.538
 2538SOL     OW 8512   0.494   5.125   5.464
 2538SOL    HW1 8513   0.556   5.202   5.451
 2538SOL    HW2 8514   0.545   5.040   5.461
 2539SOL     OW 8515   1.917   0.539   5.778
 2539SOL    HW1 8516   1.961   0.623   5.746
 2539SOL    HW2 8517   1.904   0.477   5.701
 2540SOL     OW 8518   4.776   2.146   2.631
 2540SOL    HW1 8519   4.695   2.136   2.689
 2540SOL    HW2 8520   4.753   2.202   2.551
 2541SOL     OW 8521   1.272   1.525   6.784
 2541SOL    HW1 8522   1.275   1.573   6.872
 2541SOL    HW2 8523   1.272   1.591   6.710
 2542SOL     OW 8524   3.885   1.601   3.462
 2542SOL    HW1 8525   3.875   1.639   3.370
 2542SOL    HW2 8526   3.882   1.675   3.529
 2543SOL     OW 8527   5.965   0.274   5.454
 2543SOL    HW1 8528   5.883   0.323   5.483
 2543SOL    HW2 8529   5.939   0.193   5.401
 2544SOL     OW 8530   0.044   6.940   1.011
 2544SOL    HW1 8531   0.129   6.924   0.961
 2544SOL    HW2 8532   0.037   6.876   1.087
 2545SOL     OW 8533   6.963   1.365   6.990
 2545SOL    HW1 8534   6.962   1.409   0.061
 2545SOL    HW2 8535   7.010   1.278   6.996
 2546SOL     OW 8536   6.297   3.705   2.383
 2546SOL    HW1 8537   6.258   3.743   2.467
 2546SOL    HW2 8538   6.245   3.738   2.304
 2547SOL     OW 8539   5.531   3.277   0.969
 2547SOL    HW1 8540   5.568   3.340   0.902
 2547SOL    HW2 8541   5.603   3.215   1.000
 2548SOL     OW 8542   6.515   0.221   5.319
 2548SOL    HW1 8543   6.463   0.195   5.400
 2548SOL    HW2 8544   6.538   0.318   5.324
 2549SOL     OW 8545   2.795   5.221   0.656
 2549SOL    HW1 8546   2.892   5.246   0.655
 2549SOL    HW2 8547   2.760   5.223   0.562
 2550SOL     OW 8548   3.790   0.091   1.179
 2550SOL    HW1 8549   3.727   0.019   1.206
 2550SOL    HW2 8550   3.738   0.173   1.152
 2551SOL     OW 8551   3.852   4.531   1.483
 2551SOL    HW1 8552   3.925   4.466   1.502
 2551SOL    HW2 8553   3.879   4.592   1.409
 2552SOL     OW 8554   2.479   4.736   1.653
 2552SOL    HW1 8555   2.463   4.639   1.669
 2552SOL    HW2 8556   2.559   4.747   1.594
 2553SOL     OW 8557   4.802   1.463   0.256
 2553SOL    HW1 8558   4.848   1.552   0.258
 2553SOL    HW2 8559   4.710   1.473   0.293
 2554SOL     OW 8560   0.708   5.425   0.899
 2554SOL    HW1 8561   0.797   5.431   0.853
 2554SOL    HW2 8562   0.656   5.509   0.882
 2555SOL     OW 8563   0.730   6.841   5.240
 2555SOL    HW1 8564   0.778   6.871   5.322
 2555SOL    HW2 8565   0.795   6.798   5.177
 2556SOL     OW 8566   5.186   6.975   0.706
 2556SOL    HW1 8567   5.091   6.989   0.736
 2556SOL    HW2 8568   5.198   6.881   0.676
 2557SOL     OW 8569   2.655   1.395   0.062
 2557SOL    HW1 8570   2.732   1.453   0.084
 2557SOL    HW2 8571   2.642   1.327   0.134
 2558SOL     OW 8572   5.075   2.020   1.425
 2558SOL    HW1 8573   5.152   2.070   1.384
 2558SOL    HW2 8574   5.109   1.938   1.470
 2559SOL     OW 8575   6.074   5.123   3.533
 2559SOL    HW1 8576   6.088   5.026   3.517
 2559SOL    HW2 8577   5.989   5.137   3.584
 2560SOL     OW 8578   4.430   2.372   2.074
 2560SOL    HW1 8579   4.408   2.427   1.993
 2560SOL    HW2 8580   4.516   2.404   2.112
 2561SOL     OW 8581   3.359   0.146   4.739
 2561SOL    HW1 8582   3.362   0.246   4.741
 2561SOL    HW2 8583   3.281   0.114   4.793
 2562SOL     OW 8584   1.716   6.649   5.109
 2562SOL    HW1 8585   1.736   6.623   5.203
 2562SOL    HW2 8586   1.653   6.583   5.069
 2563SOL     OW 8587   4.184   2.701   6.241
 2563SOL    HW1 8588   4.145   2.628   6.296
 2563SOL    HW2 8589   4.233   2.765   6.301
 2564SOL     OW 8590   1.452   1.211   0.704
 2564SOL    HW1 8591   1.521   1.184   0.636
 2564SOL    HW2 8592   1.421   1.130   0.753
 2565SOL     OW 8593   0.434   0.665   1.145
 2565SOL    HW1 8594   0.373   0.673   1.066
 2565SOL    HW2 8595   0.394   0.713   1.223
 2566SOL     OW 8596   3.136   1.693   0.916
 2566SOL    HW1 8597   3.156   1.658   0.824
 2566SOL    HW2 8598   3.204   1.658   0.980
 2567SOL     OW 8599   1.861   0.708   6.542
 2567SOL    HW1 8600   1.928   0.764   6.589
 2567SOL    HW2 8601   1.869   0.721   6.443
 2568SOL     OW 8602   2.572   5.952   1.061
 2568SOL    HW1 8603   2.563   6.050   1.041
 2568SOL    HW2 8604   2.662   5.920   1.031
 2569SOL     OW 8605   1.882   6.443   6.645
 2569SOL    HW1 8606   1.883   6.539   6.617
 2569SOL    HW2 8607   1.912   6.385   6.569
 2570SOL     OW 8608   0.472   6.796   3.819
 2570SOL    HW1 8609   0.567   6.778   3.843
 2570SOL    HW2 8610   0.416   6.792   3.902
 2571SOL     OW 8611   3.754   3.522   2.566
 2571SOL    HW1 8612   3.803   3.439   2.539
 2571SOL    HW2 8613   3.721   3.512   2.660
 2572SOL     OW 8614   2.194   5.760   2.640
 2572SOL    HW1 8615   2.169   5.817   2.562
 2572SOL    HW2 8616   2.258   5.689   2.610
 2573SOL     OW 8617   6.962   1.154   3.203
 2573SOL    HW1 8618   6.975   1.111   3.291
 2573SOL    HW2 8619   0.027   1.147   3.148
 2574SOL     OW 8620   0.339   3.790   2.186
 2574SOL    HW1 8621   0.350   3.856   2.261
 2574SOL    HW2 8622   0.276   3.717   2.214
 2575SOL     OW 8623   4.539   3.896   5.488
 2575SOL    HW1 8624   4.462   3.868   5.545
 2575SOL    HW2 8625   4.547   3.833   5.410
 2576SOL     OW 8626   0.737   0.231   3.120
 2576SOL    HW1 8627   0.825   0.249   3.164
 2576SOL    HW2 8628   0.667   0.292   3.159
 2577SOL     OW 8629   1.792   4.542   1.110
 2577SOL    HW1 8630   1.855   4.577   1.180
 2577SOL    HW2 8631   1.755   4.619   1.058
 2578SOL     OW 8632   4.601   2.767   5.087
 2578SOL    HW1 8633   4.617   2.787   4.990
 2578SOL    HW2 8634   4.680   2.797   5.140
 2579SOL     OW 8635   0.316   1.090   6.466
 2579SOL    HW1 8636   0.338   1.168   6.407
 2579SOL    HW2 8637   0.388   1.022   6.461
 2580SOL     OW 8638   1.915   2.031   5.297
 2580SOL    HW1 8639   1.881   1.978   5.375
 2580SOL    HW2 8640   2.012   2.013   5.285
 2581SOL     OW 8641   5.732   6.650   4.497
 2581SOL    HW1 8642   5.645   6.619   4.459
 2581SOL    HW2 8643   5.795   6.670   4.423
 2582SOL     OW 8644   6.665   4.555   3.107
 2582SOL    HW1 8645   6.653   4.584   3.012
 2582SOL    HW2 8646   6.708   4.629   3.159
 2583SOL     OW 8647   3.117   1.152   0.118
 2583SOL    HW1 8648   3.193   1.114   0.172
 2583SOL    HW2 8649   3.101   1.247   0.145
 2584SOL     OW 8650   4.297   0.808   3.298
 2584SOL    HW1 8651   4.299   0.851   3.388
 2584SOL    HW2 8652   4.259   0.716   3.306
 2585SOL     OW 8653   3.681   0.669   2.293
 2585SOL    HW1 8654   3.681   0.729   2.213
 2585SOL    HW2 8655   3.634   0.584   2.271
 2586SOL     OW 8656   0.648   1.688   4.009
 2586SOL    HW1 8657   0.580   1.649   4.072
 2586SOL    HW2 8658   0.601   1.732   3.933
 2587SOL     OW 8659   6.632   5.074   2.734
 2587SOL    HW1 8660   6.542   5.037   2.755
 2587SOL    HW2 8661   6.628   5.127   2.650
 2588SOL     OW 8662   3.783   6.589   2.577
 2588SOL    HW1 8663   3.741   6.608   2.665
 2588SOL    HW2 8664   3.779   6.670   2.519
 2589SOL     OW 8665   4.439   6.387   1.549
 2589SOL    HW1 8666   4.405   6.399   1.456
 2589SOL    HW2 8667   4.485   6.471   1.579
 2590SOL     OW 8668   3.766   6.088   3.904
 2590SOL    HW1 8669   3.710   6.170   3.901
 2590SOL    HW2 8670   3.827   6.092   3.984
 2591SOL     OW 8671   6.044   0.162   0.389
 2591SOL    HW1 8672   5.963   0.158   0.448
 2591SOL    HW2 8673   6.085   0.253   0.394
 2592SOL     OW 8674   2.799   4.764   1.685
 2592SOL    HW1 8675   2.742   4.794   1.761
 2592SOL    HW2 8676   2.851   4.683   1.712
 2593SOL     OW 8677   3.035   6.845   3.496
 2593SOL    HW1 8678   3.123   6.816   3.459
 2593SOL    HW2 8679   3.040   6.942   3.522
 2594SOL     OW 8680   1.808   6.137   6.982
 2594SOL    HW1 8681   1.790   6.054   0.015
 2594SOL    HW2 8682   1.749   6.211   7.016
 2595SOL     OW 8683   0.087   3.226   4.420
 2595SOL    HW1 8684   0.062   3.130   4.414
 2595SOL    HW2 8685   0.181   3.238   4.386
 2596SOL     OW 8686   4.264   1.888   1.208
 2596SOL    HW1 8687   4.306   1.936   1.284
 2596SOL    HW2 8688   4.217   1.806   1.241
 2597SOL     OW 8689   2.413   2.385   6.175
 2597SOL    HW1 8690   2.510   2.369   6.162
 2597SOL    HW2 8691   2.366   2.299   6.195
 2598SOL     OW 8692   0.060   1.001   2.804
 2598SOL    HW1 8693   0.102   1.091   2.818
 2598SOL    HW2 8694   0.067   0.976   2.708
 2599SOL     OW 8695   4.977   5.658   6.346
 2599SOL    HW1 8696   4.934   5.630   6.432
 2599SOL    HW2 8697   5.061   5.606   6.333
 2600SOL     OW 8698   0.762   2.673   4.440
 2600SOL    HW1 8699   0.671   2.662   4.482
 2600SOL    HW2 8700   0.829   2.694   4.511
 2601SOL     OW 8701   3.921   3.440   5.368
 2601SOL    HW1 8702   3.898   3.411   5.275
 2601SOL    HW2 8703   3.838   3.462   5.418
 2602SOL     OW 8704   5.980   6.331   6.206
 2602SOL    HW1 8705   5.998   6.347   6.303
 2602SOL    HW2 8706   5.962   6.234   6.191
 2603SOL     OW 8707   1.490   1.843   6.621
 2603SOL    HW1 8708   1.512   1.939   6.601
 2603SOL    HW2 8709   1.460   1.835   6.716
 2604SOL     OW 8710   5.317   1.611   1.032
 2604SOL    HW1 8711   5.350   1.653   1.117
 2604SOL    HW2 8712   5.248   1.671   0.990
 2605SOL     OW 8713   5.684   3.291   4.477
 2605SOL    HW1 8714   5.737   3.254   4.553
 2605SOL    HW2 8715   5.587   3.276   4.493
 2606SOL     OW 8716   6.490   4.613   1.588
 2606SOL    HW1 8717   6.445   4.700   1.609
 2606SOL    HW2 8718   6.434   4.560   1.526
 2607SOL     OW 8719   0.898   1.160   3.936
 2607SOL    HW1 8720   0.866   1.255   3.938
 2607SOL    HW2 8721   0.826   1.101   3.901
 2608SOL     OW 8722   4.771   0.359   0.619
 2608SOL    HW1 8723   4.713   0.400   0.548
 2608SOL    HW2 8724   4.847   0.421   0.639
 2609SOL     OW 8725   0.813   3.432   3.379
 2609SOL    HW1 8726   0.819   3.382   3.465
 2609SOL    HW2 8727   0.805   3.530   3.398
 2610SOL     OW 8728   5.243   5.847   4.690
 2610SOL    HW1 8729   5.213   5.768   4.637
 2610SOL    HW2 8730   5.167   5.912   4.699
 2611SOL     OW 8731   3.101   5.556   2.357
 2611SOL    HW1 8732   3.050   5.508   2.285
 2611SOL    HW2 8733   3.196   5.525   2.357
 2612SOL     OW 8734   0.356   0.293   5.398
 2612SOL    HW1 8735   0.406   0.232   5.460
 2612SOL    HW2 8736   0.318   0.370   5.450
 2613SOL     OW 8737   4.510   0.880   0.418
 2613SOL    HW1 8738   4.580   0.899   0.487
 2613SOL    HW2 8739   4.553   0.842   0.336
 2614SOL     OW 8740   6.196   5.826   6.819
 2614SOL    HW1 8741   6.189   5.736   6.776
 2614SOL    HW2 8742   6.291   5.854   6.823
 2615SOL     OW 8743   6.061   3.733   1.564
 2615SOL    HW1 8744   6.081   3.685   1.649
 2615SOL    HW2 8745   5.994   3.805   1.581
 2616SOL     OW 8746   4.097   3.691   2.007
 2616SOL    HW1 8747   4.031   3.639   2.062
 2616SOL    HW2 8748   4.051   3.771   1.968
 2617SOL     OW 8749   2.230   6.572   1.008
 2617SOL    HW1 8750   2.195   6.514   1.082
 2617SOL    HW2 8751   2.154   6.601   0.950
 2618SOL     OW 8752   1.529   6.548   0.187
 2618SOL    HW1 8753   1.547   6.562   0.285
 2618SOL    HW2 8754   1.553   6.631   0.137
 2619SOL     OW 8755   6.392   1.383   1.667
 2619SOL    HW1 8756   6.368   1.310   1.731
 2619SOL    HW2 8757   6.438   1.344   1.587
 2620SOL     OW 8758   1.455   5.953   4.297
 2620SOL    HW1 8759   1.365   5.977   4.260
 2620SOL    HW2 8760   1.468   5.854   4.291
 2621SOL     OW 8761   0.784   5.617   4.541
 2621SOL    HW1 8762   0.808   5.711   4.516
 2621SOL    HW2 8763   0.837   5.554   4.485
 2622SOL     OW 8764   2.314   2.487   4.791
 2622SOL    HW1 8765   2.404   2.478   4.749
 2622SOL    HW2 8766   2.312   2.565   4.853
 2623SOL     OW 8767   3.366   0.309   6.227
 2623SOL    HW1 8768   3.272   0.342   6.212
 2623SOL    HW2 8769   3.399   0.343   6.315
 2624SOL     OW 8770   5.910   2.135   4.044
 2624SOL    HW1 8771   5.968   2.141   3.962
 2624SOL    HW2 8772   5.820   2.101   4.019
 2625SOL     OW 8773   2.985   0.389   6.010
 2625SOL    HW1 8774   3.004   0.292   6.018
 2625SOL    HW2 8775   3.041   0.439   6.076
 2626SOL     OW 8776   1.508   0.014   2.683
 2626SOL    HW1 8777   1.457   6.967   2.626
 2626SOL    HW2 8778   1.483   0.001   2.779
 2627SOL     OW 8779   0.300   6.925   4.948
 2627SOL    HW1 8780   0.239   6.874   4.888
 2627SOL    HW2 8781   0.249   6.961   5.026
 2628SOL     OW 8782   4.129   6.061   0.381
 2628SOL    HW1 8783   4.123   6.028   0.286
 2628SOL    HW2 8784   4.168   5.989   0.438
 2629SOL     OW 8785   2.897   3.725   1.895
 2629SOL    HW1 8786   2.956   3.806   1.893
 2629SOL    HW2 8787   2.891   3.691   1.989
 2630SOL     OW 8788   3.174   2.009   2.719
 2630SOL    HW1 8789   3.131   2.062   2.792
 2630SOL    HW2 8790   3.187   2.067   2.638
 2631SOL     OW 8791   3.993   6.335   4.540
 2631SOL    HW1 8792   4.078   6.302   4.499
 2631SOL    HW2 8793   3.941   6.257   4.574
 2632SOL     OW 8794   5.010   1.448   1.154
 2632SOL    HW1 8795   5.010   1.517   1.227
 2632SOL    HW2 8796   4.990   1.358   1.194
 2633SOL     OW 8797   6.792   2.563   6.699
 2633SOL    HW1 8798   6.755   2.475   6.669
 2633SOL    HW2 8799   6.788   2.628   6.623
 2634SOL     OW 8800   3.431   4.833   0.665
 2634SOL    HW1 8801   3.419   4.820   0.567
 2634SOL    HW2 8802   3.524   4.807   0.691
 2635SOL     OW 8803   6.056   4.837   3.526
 2635SOL    HW1 8804   6.077   4.747   3.487
 2635SOL    HW2 8805   5.989   4.826   3.601
 2636SOL     OW 8806   6.103   5.887   5.555
 2636SOL    HW1 8807   6.032   5.935   5.606
 2636SOL    HW2 8808   6.186   5.943   5.552
 2637SOL     OW 8809   4.935   6.619   2.579
 2637SOL    HW1 8810   4.920   6.643   2.675
 2637SOL    HW2 8811   5.021   6.569   2.570
 2638SOL     OW 8812   4.625   5.689   1.234
 2638SOL    HW1 8813   4.677   5.686   1.320
 2638SOL    HW2 8814   4.669   5.752   1.171
 2639SOL     OW 8815   6.937   6.361   6.793
 2639SOL    HW1 8816   0.013   6.381   6.768
 2639SOL    HW2 8817   6.936   6.302   6.874
 2640SOL     OW 8818   6.548   6.856   6.312
 2640SOL    HW1 8819   6.597   6.916   6.249
 2640SOL    HW2 8820   6.614   6.799   6.362
 2641SOL     OW 8821   6.805   5.672   0.478
 2641SOL    HW1 8822   6.877   5.738   0.496
 2641SOL    HW2 8823   6.781   5.624   0.562
 2642SOL     OW 8824   6.603   0.551   3.775
 2642SOL    HW1 8825   6.669   0.548   3.850
 2642SOL    HW2 8826   6.539   0.626   3.791
 2643SOL     OW 8827   2.305   0.096   2.386
 2643SOL    HW1 8828   2.288   0.142   2.298
 2643SOL    HW2 8829   2.223   0.045   2.413
 2644SOL     OW 8830   0.092   6.033   4.749
 2644SOL    HW1 8831   0.017   6.098   4.757
 2644SOL    HW2 8832   0.060   5.949   4.706
 2645SOL     OW 8833   6.003   6.056   6.261
 2645SOL    HW1 8834   6.102   6.044   6.267
 2645SOL    HW2 8835   5.959   6.018   6.342
 2646SOL     OW 8836   5.903   6.164   6.699
 2646SOL    HW1 8837   5.850   6.128   6.776
 2646SOL    HW2 8838   6.000   6.147   6.716
 2647SOL     OW 8839   3.257   3.348   6.816
 2647SOL    HW1 8840   3.241   3.316   6.723
 2647SOL    HW2 8841   3.281   3.445   6.815
 2648SOL     OW 8842   4.160   1.511   3.461
 2648SOL    HW1 8843   4.063   1.529   3.443
 2648SOL    HW2 8844   4.214   1.591   3.436
 2649SOL     OW 8845   2.832   3.450   5.250
 2649SOL    HW1 8846   2.837   3.351   5.262
 2649SOL    HW2 8847   2.895   3.479   5.178
 2650SOL     OW 8848   0.213   6.549   2.658
 2650SOL    HW1 8849   0.274   6.522   2.733
 2650SOL    HW2 8850   0.189   6.468   2.604
 2651SOL     OW 8851   0.949   0.560   3.390
 2651SOL    HW1 8852   0.985   0.562   3.297
 2651SOL    HW2 8853   1.025   0.557   3.456
 2652SOL     OW 8854   3.020   3.199   2.694
 2652SOL    HW1 8855   3.009   3.156   2.784
 2652SOL    HW2 8856   3.117   3.201   2.670
 2653SOL     OW 8857   0.026   5.810   0.492
 2653SOL    HW1 8858   0.007   5.886   0.429
 2653SOL    HW2 8859   0.108   5.761   0.462
 2654SOL     OW 8860   6.538   1.769   5.930
 2654SOL    HW1 8861   6.558   1.685   5.979
 2654SOL    HW2 8862   6.589   1.845   5.970
 2655SOL     OW 8863   5.325   5.150   4.486
 2655SOL    HW1 8864   5.376   5.223   4.442
 2655SOL    HW2 8865   5.367   5.062   4.465
 2656SOL     OW 8866   5.990   3.488   4.950
 2656SOL    HW1 8867   6.087   3.494   4.927
 2656SOL    HW2 8868   5.936   3.475   4.867
 2657SOL     OW 8869   3.754   2.053   6.043
 2657SOL    HW1 8870   3.749   2.133   5.984
 2657SOL    HW2 8871   3.838   2.058   6.098
 2658SOL     OW 8872   5.948   4.142   5.025
 2658SOL    HW1 8873   5.905   4.075   5.085
 2658SOL    HW2 8874   6.047   4.130   5.028
 2659SOL     OW 8875   6.728   1.517   3.766
 2659SOL    HW1 8876   6.723   1.525   3.667
 2659SOL    HW2 8877   6.762   1.426   3.791
 2660SOL     OW 8878   0.333   2.306   3.272
 2660SOL    HW1 8879   0.360   2.395   3.234
 2660SOL    HW2 8880   0.263   2.265   3.213
 2661SOL     OW 8881   3.415   0.039   3.170
 2661SOL    HW1 8882   3.456   0.084   3.249
 2661SOL    HW2 8883   3.402   0.106   3.097
 2662SOL     OW 8884   3.584   1.013   3.607
 2662SOL    HW1 8885   3.618   1.070   3.682
 2662SOL    HW2 8886   3.491   1.040   3.584
 2663SOL     OW 8887   0.319   4.405   3.019
 2663SOL    HW1 8888   0.309   4.328   3.082
 2663SOL    HW2 8889   0.415   4.416   2.994
 2664SOL     OW 8890   4.434   4.124   1.590
 2664SOL    HW1 8891   4.405   4.155   1.681
 2664SOL    HW2 8892   4.420   4.198   1.524
 2665SOL     OW 8893   4.668   6.700   4.908
 2665SOL    HW1 8894   4.613   6.778   4.878
 2665SOL    HW2 8895   4.611   6.618   4.906
 2666SOL     OW 8896   4.572   6.138   1.744
 2666SOL    HW1 8897   4.491   6.081   1.757
 2666SOL    HW2 8898   4.557   6.228   1.785
 2667SOL     OW 8899   2.120   5.239   3.254
 2667SOL    HW1 8900   2.136   5.157   3.310
 2667SOL    HW2 8901   2.115   5.319   3.313
 2668SOL     OW 8902   6.562   2.517   5.320
 2668SOL    HW1 8903   6.541   2.429   5.362
 2668SOL    HW2 8904   6.661   2.530   5.318
 2669SOL     OW 8905   4.163   5.776   5.101
 2669SOL    HW1 8906   4.114   5.708   5.046
 2669SOL    HW2 8907   4.198   5.848   5.042
 2670SOL     OW 8908   2.866   6.557   4.308
 2670SOL    HW1 8909   2.952   6.507   4.309
 2670SOL    HW2 8910   2.849   6.592   4.216
 2671SOL     OW 8911   3.327   4.207   6.331
 2671SOL    HW1 8912   3.333   4.189   6.233
 2671SOL    HW2 8913   3.305   4.304   6.346
 2672SOL     OW 8914   0.668   4.282   0.111
 2672SOL    HW1 8915   0.749   4.335   0.088
 2672SOL    HW2 8916   0.630   4.240   0.028
 2673SOL     OW 8917   3.543   2.119   3.522
 2673SOL    HW1 8918   3.501   2.155   3.439
 2673SOL    HW2 8919   3.641   2.142   3.523
 2674SOL     OW 8920   6.570   5.571   5.203
 2674SOL    HW1 8921   6.645   5.553   5.140
 2674SOL    HW2 8922   6.530   5.660   5.183
 2675SOL     OW 8923   0.239   4.730   5.917
 2675SOL    HW1 8924   0.300   4.806   5.940
 2675SOL    HW2 8925   0.290   4.662   5.863
 2676SOL     OW 8926   4.590   0.269   1.961
 2676SOL    HW1 8927   4.518   0.322   1.915
 2676SOL    HW2 8928   4.558   0.176   1.977
 2677SOL     OW 8929   2.404   4.467   2.504
 2677SOL    HW1 8930   2.346   4.527   2.559
 2677SOL    HW2 8931   2.498   4.502   2.504
 2678SOL     OW 8932   0.647   6.250   6.603
 2678SOL    HW1 8933   0.670   6.202   6.519
 2678SOL    HW2 8934   0.628   6.184   6.676
 2679SOL     OW 8935   2.675   5.396   1.927
 2679SOL    HW1 8936   2.733   5.343   1.865
 2679SOL    HW2 8937   2.714   5.395   2.019
 2680SOL     OW 8938   0.977   2.744   1.048
 2680SOL    HW1 8939   1.035   2.679   1.000
 2680SOL    HW2 8940   0.942   2.703   1.132
 2681SOL     OW 8941   1.908   1.732   1.977
 2681SOL    HW1 8942   1.990   1.777   2.014
 2681SOL    HW2 8943   1.936   1.663   1.910
 2682SOL     OW 8944   6.533   2.794   4.271
 2682SOL    HW1 8945   6.531   2.874   4.331
 2682SOL    HW2 8946   6.628   2.775   4.243
 2683SOL     OW 8947   1.676   6.828   0.358
 2683SOL    HW1 8948   1.615   6.796   0.286
 2683SOL    HW2 8949   1.754   6.766   0.366
 2684SOL     OW 8950   2.345   5.470   2.614
 2684SOL    HW1 8951   2.428   5.512   2.579
 2684SOL    HW2 8952   2.369   5.394   2.675
 2685SOL     OW 8953   5.385   5.537   5.706
 2685SOL    HW1 8954   5.299   5.581   5.729
 2685SOL    HW2 8955   5.420   5.574   5.620
 2686SOL     OW 8956   1.224   3.136   5.147
 2686SOL    HW1 8957   1.274   3.100   5.226
 2686SOL    HW2 8958   1.288   3.160   5.075
 2687SOL     OW 8959   4.403   4.919   3.327
 2687SOL    HW1 8960   4.489   4.897   3.283
 2687SOL    HW2 8961   4.354   4.835   3.350
 2688SOL     OW 8962   3.698   4.595   5.951
 2688SOL    HW1 8963   3.700   4.527   6.024
 2688SOL    HW2 8964   3.667   4.553   5.866
 2689SOL     OW 8965   6.410   2.839   4.667
 2689SOL    HW1 8966   6.345   2.771   4.701
 2689SOL    HW2 8967   6.387   2.929   4.704
 2690SOL     OW 8968   3.296   3.283   3.606
 2690SOL    HW1 8969   3.221   3.264   3.544
 2690SOL    HW2 8970   3.293   3.220   3.684
 2691SOL     OW 8971   1.498   6.171   1.897
 2691SOL    HW1 8972   1.545   6.213   1.820
 2691SOL    HW2 8973   1.522   6.074   1.902
 2692SOL     OW 8974   0.045   4.952   3.430
 2692SOL    HW1 8975   0.012   5.013   3.357
 2692SOL    HW2 8976   0.103   4.881   3.391
 2693SOL     OW 8977   1.800   3.586   3.035
 2693SOL    HW1 8978   1.831   3.657   2.972
 2693SOL    HW2 8979   1.793   3.499   2.988
 2694SOL     OW 8980   2.068   1.442   2.576
 2694SOL    HW1 8981   1.998   1.484   2.518
 2694SOL    HW2 8982   2.130   1.513   2.610
 2695SOL     OW 8983   4.065   2.097   2.745
 2695SOL    HW1 8984   4.128   2.019   2.742
 2695SOL    HW2 8985   4.062   2.140   2.656
 2696SOL     OW 8986   3.845   3.821   5.412
 2696SOL    HW1 8987   3.912   3.875   5.463
 2696SOL    HW2 8988   3.852   3.843   5.315
 2697SOL     OW 8989   2.474   1.074   4.959
 2697SOL    HW1 8990   2.431   0.994   5.001
 2697SOL    HW2 8991   2.468   1.067   4.859
 2698SOL     OW 8992   1.922   2.300   6.585
 2698SOL    HW1 8993   1.982   2.352   6.524
 2698SOL    HW2 8994   1.831   2.341   6.584
 2699SOL     OW 8995   1.538   5.773   3.215
 2699SOL    HW1 8996   1.558   5.688   3.167
 2699SOL    HW2 8997   1.591   5.848   3.174
 2700SOL     OW 8998   1.863   4.512   3.134
 2700SOL    HW1 8999   1.787   4.457   3.098
 2700SOL    HW2 9000   1.896   4.472   3.219
 2701SOL     OW 9001   3.282   0.572   5.565
 2701SOL    HW1 9002   3.311   0.645   5.503
 2701SOL    HW2 9003   3.195   0.534   5.533
 2702SOL     OW 9004   6.701   6.231   2.648
 2702SOL    HW1 9005   6.640   6.166   2.693
 2702SOL    HW2 9006   6.784   6.243   2.702
 2703SOL     OW 9007   1.792   1.808   3.049
 2703SOL    HW1 9008   1.767   1.728   3.104
 2703SOL    HW2 9009   1.791   1.890   3.107
 2704SOL     OW 9010   1.278   5.971   0.470
 2704SOL    HW1 9011   1.306   5.983   0.565
 2704SOL    HW2 9012   1.229   5.885   0.460
 2705SOL     OW 9013   0.156   3.739   2.772
 2705SOL    HW1 9014   0.167   3.837   2.793
 2705SOL    HW2 9015   0.219   3.686   2.829
 2706SOL     OW 9016   6.509   2.355   3.412
 2706SOL    HW1 9017   6.592   2.302   3.428
 2706SOL    HW2 9018   6.534   2.445   3.376
 2707SOL     OW 9019   2.832   1.632   6.520
 2707SOL    HW1 9020   2.776   1.609   6.599
 2707SOL    HW2 9021   2.774   1.639   6.439
 2708SOL     OW 9022   1.519   4.608   0.246
 2708SOL    HW1 9023   1.542   4.517   0.282
 2708SOL    HW2 9024   1.590   4.673   0.272
 2709SOL     OW 9025   4.807   6.593   1.700
 2709SOL    HW1 9026   4.739   6.596   1.773
 2709SOL    HW2 9027   4.789   6.515   1.640
 2710SOL     OW 9028   6.623   4.396   2.579
 2710SOL    HW1 9029   6.686   4.410   2.502
 2710SOL    HW2 9030   6.529   4.415   2.550
 2711SOL     OW 9031   1.347   6.843   2.485
 2711SOL    HW1 9032   1.299   6.771   2.535
 2711SOL    HW2 9033   1.286   6.921   2.471
 2712SOL     OW 9034   3.544   5.440   2.881
 2712SOL    HW1 9035   3.504   5.414   2.968
 2712SOL    HW2 9036   3.473   5.444   2.811
 2713SOL     OW 9037   1.923   2.468   5.437
 2713SOL    HW1 9038   1.954   2.536   5.503
 2713SOL    HW2 9039   1.952   2.495   5.345
 2714SOL     OW 9040   5.851   0.075   6.426
 2714SOL    HW1 9041   5.901   7.012   6.456
 2714SOL    HW2 9042   5.882   0.155   6.479
 2715SOL     OW 9043   6.082   0.491   0.063
 2715SOL    HW1 9044   6.138   0.552   0.118
 2715SOL    HW2 9045   6.075   0.402   0.107
 2716SOL     OW 9046   6.290   6.663   2.071
 2716SOL    HW1 9047   6.359   6.732   2.092
 2716SOL    HW2 9048   6.333   6.574   2.060
 2717SOL     OW 9049   0.943   0.264   3.343
 2717SOL    HW1 9050   1.038   0.236   3.327
 2717SOL    HW2 9051   0.940   0.360   3.370
 2718SOL     OW 9052   0.530   4.420   3.283
 2718SOL    HW1 9053   0.532   4.513   3.246
 2718SOL    HW2 9054   0.564   4.357   3.213
 2719SOL     OW 9055   4.308   4.955   3.076
 2719SOL    HW1 9056   4.326   4.958   3.175
 2719SOL    HW2 9057   4.387   4.990   3.026
 2720SOL     OW 9058   1.263   6.309   4.298
 2720SOL    HW1 9059   1.213   6.236   4.251
 2720SOL    HW2 9060   1.341   6.337   4.243
 2721SOL     OW 9061   5.036   6.494   3.555
 2721SOL    HW1 9062   4.988   6.537   3.631
 2721SOL    HW2 9063   5.018   6.395   3.556
 2722SOL     OW 9064   1.123   5.973   1.704
 2722SOL    HW1 9065   1.156   6.011   1.790
 2722SOL    HW2 9066   1.124   5.873   1.709
 2723SOL     OW 9067   2.201   1.733   4.490
 2723SOL    HW1 9068   2.199   1.636   4.467
 2723SOL    HW2 9069   2.175   1.745   4.586
 2724SOL     OW 9070   4.159   6.034   6.125
 2724SOL    HW1 9071   4.205   6.077   6.048
 2724SOL    HW2 9072   4.209   5.952   6.153
 2725SOL     OW 9073   2.833   4.708   3.734
 2725SOL    HW1 9074   2.802   4.660   3.652
 2725SOL    HW2 9075   2.759   4.765   3.769
 2726SOL     OW 9076   4.673   6.645   2.475
 2726SOL    HW1 9077   4.589   6.651   2.529
 2726SOL    HW2 9078   4.747   6.613   2.534
 2727SOL     OW 9079   2.076   5.955   3.979
 2727SOL    HW1 9080   2.100   5.868   4.020
 2727SOL    HW2 9081   2.034   5.940   3.889
 2728SOL     OW 9082   2.830   6.739   5.539
 2728SOL    HW1 9083   2.917   6.751   5.491
 2728SOL    HW2 9084   2.773   6.820   5.527
 2729SOL     OW 9085   0.204   4.853   2.861
 2729SOL    HW1 9086   0.225   4.855   2.763
 2729SOL    HW2 9087   0.148   4.933   2.884
 2730SOL     OW 9088   1.391   4.649   1.002
 2730SOL    HW1 9089   1.397   4.663   1.101
 2730SOL    HW2 9090   1.367   4.735   0.958
 2731SOL     OW 9091   2.830   3.952   0.884
 2731SOL    HW1 9092   2.772   3.962   0.964
 2731SOL    HW2 9093   2.926   3.955   0.912
 2732SOL     OW 9094   5.175   3.209   4.529
 2732SOL    HW1 9095   5.153   3.180   4.622
 2732SOL    HW2 9096   5.102   3.268   4.494
 2733SOL     OW 9097   2.282   0.629   6.320
 2733SOL    HW1 9098   2.273   0.634   6.220
 2733SOL    HW2 9099   2.311   0.719   6.355
 2734SOL     OW 9100   2.344   0.219   4.383
 2734SOL    HW1 9101   2.259   0.269   4.363
 2734SOL    HW2 9102   2.387   0.259   4.464
 2735SOL     OW 9103   1.414   5.469   1.496
 2735SOL    HW1 9104   1.348   5.437   1.564
 2735SOL    HW2 9105   1.423   5.568   1.503
 2736SOL     OW 9106   4.045   6.892   6.326
 2736SOL    HW1 9107   4.069   6.889   6.423
 2736SOL    HW2 9108   3.952   6.929   6.315
 2737SOL     OW 9109   4.124   3.436   5.532
 2737SOL    HW1 9110   4.052   3.438   5.463
 2737SOL    HW2 9111   4.101   3.498   5.607
 2738SOL     OW 9112   5.928   3.969   4.119
 2738SOL    HW1 9113   5.845   4.013   4.085
 2738SOL    HW2 9114   5.976   4.030   4.181
 2739SOL     OW 9115   4.865   4.464   0.438
 2739SOL    HW1 9116   4.831   4.455   0.344
 2739SOL    HW2 9117   4.958   4.500   0.437
 2740SOL     OW 9118   6.284   2.517   4.287
 2740SOL    HW1 9119   6.306   2.565   4.202
 2740SOL    HW2 9120   6.357   2.451   4.308
 2741SOL     OW 9121   2.122   3.453   4.712
 2741SOL    HW1 9122   2.133   3.361   4.675
 2741SOL    HW2 9123   2.109   3.449   4.811
 2742SOL     OW 9124   2.621   6.334   5.531
 2742SOL    HW1 9125   2.658   6.256   5.480
 2742SOL    HW2 9126   2.571   6.301   5.611
 2743SOL     OW 9127   5.955   4.607   6.808
 2743SOL    HW1 9128   5.873   4.550   6.806
 2743SOL    HW2 9129   5.980   4.625   6.903
 2744SOL     OW 9130   4.810   6.830   0.249
 2744SOL    HW1 9131   4.851   6.799   0.335
 2744SOL    HW2 9132   4.769   6.920   0.262
 2745SOL     OW 9133   3.095   5.892   2.095
 2745SOL    HW1 9134   3.092   5.987   2.063
 2745SOL    HW2 9135   3.057   5.833   2.023
 2746SOL     OW 9136   1.051   2.205   6.097
 2746SOL    HW1 9137   1.025   2.113   6.067
 2746SOL    HW2 9138   1.139   2.201   6.144
 2747SOL     OW 9139   5.330   5.914   3.494
 2747SOL    HW1 9140   5.251   5.923   3.434
 2747SOL    HW2 9141   5.300   5.888   3.585
 2748SOL     OW 9142   5.462   0.841   4.920
 2748SOL    HW1 9143   5.416   0.928   4.902
 2748SOL    HW2 9144   5.399   0.765   4.901
 2749SOL     OW 9145   4.918   4.785   3.420
 2749SOL    HW1 9146   5.013   4.801   3.443
 2749SOL    HW2 9147   4.859   4.835   3.484
 2750SOL     OW 9148   1.153   6.633   0.382
 2750SOL    HW1 9149   1.189   6.726   0.375
 2750SOL    HW2 9150   1.129   6.600   0.290
 2751SOL     OW 9151   1.950   0.099   6.745
 2751SOL    HW1 9152   1.852   0.115   6.738
 2751SOL    HW2 9153   1.992   0.106   6.655
 2752SOL     OW 9154   0.604   6.686   6.294
 2752SOL    HW1 9155   0.663   6.667   6.215
 2752SOL    HW2 9156   0.551   6.604   6.317
 2753SOL     OW 9157   3.619   5.297   5.349
 2753SOL    HW1 9158   3.615   5.258   5.442
 2753SOL    HW2 9159   3.574   5.386   5.349
 2754SOL     OW 9160   0.802   5.899   4.457
 2754SOL    HW1 9161   0.750   5.902   4.372
 2754SOL    HW2 9162   0.744   5.929   4.533
 2755SOL     OW 9163   4.698   6.182   2.561
 2755SOL    HW1 9164   4.755   6.216   2.487
 2755SOL    HW2 9165   4.756   6.157   2.639
 2756SOL     OW 9166   0.467   2.923   5.432
 2756SOL    HW1 9167   0.534   2.890   5.367
 2756SOL    HW2 9168   0.475   3.023   5.441
 2757SOL     OW 9169   5.360   4.021   6.140
 2757SOL    HW1 9170   5.438   4.076   6.110
 2757SOL    HW2 9171   5.278   4.051   6.092
 2758SOL     OW 9172   0.377   6.635   1.692
 2758SOL    HW1 9173   0.305   6.579   1.649
 2758SOL    HW2 9174   0.402   6.709   1.631
 2759SOL     OW 9175   3.408   3.631   5.046
 2759SOL    HW1 9176   3.335   3.566   5.025
 2759SOL    HW2 9177   3.369   3.718   5.074
 2760SOL     OW 9178   5.455   5.557   2.697
 2760SOL    HW1 9179   5.548   5.554   2.661
 2760SOL    HW2 9180   5.432   5.650   2.725
 2761SOL     OW 9181   1.324   3.345   4.021
 2761SOL    HW1 9182   1.277   3.337   3.933
 2761SOL    HW2 9183   1.421   3.364   4.005
 2762SOL     OW 9184   4.107   1.083   1.697
 2762SOL    HW1 9185   4.197   1.045   1.674
 2762SOL    HW2 9186   4.111   1.183   1.695
 2763SOL     OW 9187   5.896   1.127   4.203
 2763SOL    HW1 9188   5.995   1.114   4.193
 2763SOL    HW2 9189   5.848   1.080   4.129
 2764SOL     OW 9190   0.168   2.864   3.549
 2764SOL    HW1 9191   0.242   2.925   3.519
 2764SOL    HW2 9192   0.128   2.819   3.470
 2765SOL     OW 9193   0.180   6.503   6.227
 2765SOL    HW1 9194   0.259   6.453   6.264
 2765SOL    HW2 9195   0.167   6.480   6.131
 2766SOL     OW 9196   4.646   0.043   0.233
 2766SOL    HW1 9197   4.546   0.049   0.228
 2766SOL    HW2 9198   4.685   0.088   0.153
 2767SOL     OW 9199   0.373   5.635   5.650
 2767SOL    HW1 9200   0.291   5.594   5.608
 2767SOL    HW2 9201   0.361   5.639   5.749
 2768SOL     OW 9202   3.637   6.150   1.602
 2768SOL    HW1 9203   3.597   6.076   1.657
 2768SOL    HW2 9204   3.679   6.217   1.662
 2769SOL     OW 9205   0.797   4.891   5.714
 2769SOL    HW1 9206   0.868   4.922   5.649
 2769SOL    HW2 9207   0.757   4.806   5.680
 2770SOL     OW 9208   2.390   6.519   0.540
 2770SOL    HW1 9209   2.391   6.565   0.451
 2770SOL    HW2 9210   2.389   6.587   0.613
 2771SOL     OW 9211   4.081   6.771   5.210
 2771SOL    HW1 9212   4.105   6.709   5.284
 2771SOL    HW2 9213   4.157   6.834   5.192
 2772SOL     OW 9214   5.214   1.882   3.656
 2772SOL    HW1 9215   5.142   1.844   3.599
 2772SOL    HW2 9216   5.303   1.858   3.618
 2773SOL     OW 9217   5.692   2.442   6.289
 2773SOL    HW1 9218   5.682   2.407   6.382
 2773SOL    HW2 9219   5.690   2.542   6.291
 2774SOL     OW 9220   6.509   0.339   4.133
 2774SOL    HW1 9221   6.543   0.426   4.167
 2774SOL    HW2 9222   6.457   0.354   4.048
 2775SOL     OW 9223   0.144   2.045   4.586
 2775SOL    HW1 9224   0.096   2.041   4.498
 2775SOL    HW2 9225   0.230   1.994   4.579
 2776SOL     OW 9226   4.628   4.008   6.513
 2776SOL    HW1 9227   4.617   4.053   6.602
 2776SOL    HW2 9228   4.595   4.069   6.441
 2777SOL     OW 9229   1.872   2.225   0.197
 2777SOL    HW1 9230   1.813   2.267   0.265
 2777SOL    HW2 9231   1.902   2.294   0.132
 2778SOL     OW 9232   3.345   0.211   5.739
 2778SOL    HW1 9233   3.411   0.264   5.685
 2778SOL    HW2 9234   3.347   0.241   5.834
 2779SOL     OW 9235   5.304   1.170   2.661
 2779SOL    HW1 9236   5.234   1.238   2.641
 2779SOL    HW2 9237   5.394   1.214   2.667
 2780SOL     OW 9238   0.531   1.134   4.765
 2780SOL    HW1 9239   0.596   1.107   4.836
 2780SOL    HW2 9240   0.438   1.122   4.799
 2781SOL     OW 9241   0.603   0.485   2.965
 2781SOL    HW1 9242   0.585   0.401   2.914
 2781SOL    HW2 9243   0.621   0.559   2.900
 2782SOL     OW 9244   5.367   6.767   5.245
 2782SOL    HW1 9245   5.367   6.865   5.228
 2782SOL    HW2 9246   5.360   6.718   5.159
 2783SOL     OW 9247   5.572   2.737   1.614
 2783SOL    HW1 9248   5.580   2.640   1.594
 2783SOL    HW2 9249   5.535   2.785   1.534
 2784SOL     OW 9250   0.306   2.830   1.978
 2784SOL    HW1 9251   0.278   2.764   1.909
 2784SOL    HW2 9252   0.229   2.891   1.998
 2785SOL     OW 9253   5.435   3.818   3.207
 2785SOL    HW1 9254   5.521   3.866   3.226
 2785SOL    HW2 9255   5.450   3.719   3.213
 2786SOL     OW 9256   0.272   5.631   0.472
 2786SOL    HW1 9257   0.316   5.692   0.538
 2786SOL    HW2 9258   0.265   5.539   0.512
 2787SOL     OW 9259   0.583   6.376   5.751
 2787SOL    HW1 9260   0.565   6.347   5.657
 2787SOL    HW2 9261   0.671   6.423   5.755
 2788SOL     OW 9262   2.947   6.565   0.631
 2788SOL    HW1 9263   2.919   6.649   0.585
 2788SOL    HW2 9264   2.950   6.581   0.730
 2789SOL     OW 9265   1.828   1.946   3.714
 2789SOL    HW1 9266   1.904   1.884   3.729
 2789SOL    HW2 9267   1.780   1.962   3.800
 2790SOL     OW 9268   6.887   5.331   1.517
 2790SOL    HW1 9269   6.887   5.239   1.556
 2790SOL    HW2 9270   6.919   5.396   1.586
 2791SOL     OW 9271   0.524   3.117   5.189
 2791SOL    HW1 9272   0.447   3.109   5.126
 2791SOL    HW2 9273   0.609   3.100   5.139
 2792SOL     OW 9274   3.177   2.189   5.960
 2792SOL    HW1 9275   3.265   2.186   5.912
 2792SOL    HW2 9276   3.161   2.101   6.005
 2793SOL     OW 9277   3.936   3.409   6.754
 2793SOL    HW1 9278   3.930   3.508   6.752
 2793SOL    HW2 9279   3.844   3.370   6.746
 2794SOL     OW 9280   1.840   1.830   6.821
 2794SOL    HW1 9281   1.845   1.908   6.882
 2794SOL    HW2 9282   1.791   1.755   6.866
 2795SOL     OW 9283   1.706   6.702   0.700
 2795SOL    HW1 9284   1.627   6.764   0.694
 2795SOL    HW2 9285   1.790   6.756   0.698
 2796SOL     OW 9286   2.643   5.866   0.134
 2796SOL    HW1 9287   2.604   5.925   0.063
 2796SOL    HW2 9288   2.690   5.921   0.203
 2797SOL     OW 9289   4.874   3.764   4.114
 2797SOL    HW1 9290   4.861   3.863   4.120
 2797SOL    HW2 9291   4.907   3.729   4.202
 2798SOL     OW 9292   5.360   2.186   2.024
 2798SOL    HW1 9293   5.262   2.202   2.033
 2798SOL    HW2 9294   5.410   2.254   2.079
 2799SOL     OW 9295   3.564   6.195   5.347
 2799SOL    HW1 9296   3.573   6.121   5.280
 2799SOL    HW2 9297   3.636   6.263   5.331
 2800SOL     OW 9298   5.253   1.286   0.167
 2800SOL    HW1 9299   5.231   1.195   0.132
 2800SOL    HW2 9300   5.203   1.302   0.252
 2801SOL     OW 9301   0.430   4.463   3.922
 2801SOL    HW1 9302   0.433   4.478   3.823
 2801SOL    HW2 9303   0.392   4.544   3.967
 2802SOL     OW 9304   1.255   4.986   4.786
 2802SOL    HW1 9305   1.318   4.910   4.802
 2802SOL    HW2 9306   1.187   4.960   4.718
 2803SOL     OW 9307   3.296   2.259   6.573
 2803SOL    HW1 9308   3.352   2.322   6.520
 2803SOL    HW2 9309   3.287   2.294   6.667
 2804SOL     OW 9310   6.583   2.880   3.933
 2804SOL    HW1 9311   6.497   2.912   3.973
 2804SOL    HW2 9312   6.565   2.833   3.847
 2805SOL     OW 9313   4.475   4.469   0.671
 2805SOL    HW1 9314   4.532   4.549   0.657
 2805SOL    HW2 9315   4.494   4.429   0.761
 2806SOL     OW 9316   0.487   3.446   4.705
 2806SOL    HW1 9317   0.520   3.445   4.799
 2806SOL    HW2 9318   0.445   3.358   4.682
 2807SOL     OW 9319   4.685   1.625   3.891
 2807SOL    HW1 9320   4.734   1.688   3.950
 2807SOL    HW2 9321   4.617   1.574   3.945
 2808SOL     OW 9322   1.520   6.091   6.127
 2808SOL    HW1 9323   1.462   6.082   6.046
 2808SOL    HW2 9324   1.510   6.010   6.184
 2809SOL     OW 9325   0.609   5.728   1.131
 2809SOL    HW1 9326   0.518   5.758   1.159
 2809SOL    HW2 9327   0.601   5.659   1.060
 2810SOL     OW 9328   0.654   6.097   2.863
 2810SOL    HW1 9329   0.711   6.022   2.828
 2810SOL    HW2 9330   0.640   6.085   2.961
 2811SOL     OW 9331   0.644   1.102   0.509
 2811SOL    HW1 9332   0.589   1.135   0.433
 2811SOL    HW2 9333   0.612   1.143   0.595
 2812SOL     OW 9334   2.075   1.213   0.984
 2812SOL    HW1 9335   1.980   1.218   0.953
 2812SOL    HW2 9336   2.078   1.189   1.081
 2813SOL     OW 9337   6.432   2.039   0.992
 2813SOL    HW1 9338   6.473   2.037   0.901
 2813SOL    HW2 9339   6.406   2.133   1.015
 2814SOL     OW 9340   2.849   3.916   6.787
 2814SOL    HW1 9341   2.941   3.912   6.749
 2814SOL    HW2 9342   2.826   3.826   6.826
 2815SOL     OW 9343   6.780   5.349   4.721
 2815SOL    HW1 9344   6.701   5.401   4.755
 2815SOL    HW2 9345   6.749   5.263   4.682
 2816SOL     OW 9346   1.064   5.023   4.964
 2816SOL    HW1 9347   0.994   5.066   4.908
 2816SOL    HW2 9348   1.149   5.015   4.912
 2817SOL     OW 9349   2.696   0.647   2.079
 2817SOL    HW1 9350   2.616   0.692   2.117
 2817SOL    HW2 9351   2.734   0.703   2.005
 2818SOL     OW 9352   1.810   0.889   0.679
 2818SOL    HW1 9353   1.889   0.945   0.651
 2818SOL    HW2 9354   1.760   0.859   0.598
 2819SOL     OW 9355   0.018   0.683   6.241
 2819SOL    HW1 9356   6.951   0.667   6.190
 2819SOL    HW2 9357   0.087   0.722   6.179
 2820SOL     OW 9358   2.265   1.848   0.258
 2820SOL    HW1 9359   2.356   1.823   0.225
 2820SOL    HW2 9360   2.258   1.948   0.266
 2821SOL     OW 9361   3.357   2.253   6.238
 2821SOL    HW1 9362   3.392   2.160   6.224
 2821SOL    HW2 9363   3.273   2.250   6.292
 2822SOL     OW 9364   4.390   2.814   0.947
 2822SOL    HW1 9365   4.336   2.898   0.951
 2822SOL    HW2 9366   4.345   2.748   0.887
 2823SOL     OW 9367   5.993   3.540   2.266
 2823SOL    HW1 9368   5.917   3.600   2.288
 2823SOL    HW2 9369   5.993   3.462   2.330
 2824SOL     OW 9370   0.757   4.656   5.600
 2824SOL    HW1 9371   0.830   4.592   5.574
 2824SOL    HW2 9372   0.670   4.624   5.563
 2825SOL     OW 9373   5.566   1.972   5.940
 2825SOL    HW1 9374   5.479   2.021   5.947
 2825SOL    HW2 9375   5.549   1.874   5.945
 2826SOL     OW 9376   2.668   3.297   0.009
 2826SOL    HW1 9377   2.643   3.315   0.104
 2826SOL    HW2 9378   2.768   3.291   0.001
 2827SOL     OW 9379   6.390   1.714   6.787
 2827SOL    HW1 9380   6.346   1.797   6.751
 2827SOL    HW2 9381   6.322   1.644   6.804
 2828SOL     OW 9382   1.623   3.960   0.730
 2828SOL    HW1 9383   1.666   4.049   0.715
 2828SOL    HW2 9384   1.578   3.929   0.646
 2829SOL     OW 9385   3.309   4.137   1.663
 2829SOL    HW1 9386   3.226   4.189   1.681
 2829SOL    HW2 9387   3.288   4.060   1.603
 2830SOL     OW 9388   3.048   5.825   4.341
 2830SOL    HW1 9389   3.104   5.902   4.312
 2830SOL    HW2 9390   3.032   5.830   4.440
 2831SOL     OW 9391   6.624   1.578   1.847
 2831SOL    HW1 9392   6.529   1.559   1.819
 2831SOL    HW2 9393   6.674   1.492   1.856
 2832SOL     OW 9394   1.218   3.698   1.904
 2832SOL    HW1 9395   1.238   3.635   1.979
 2832SOL    HW2 9396   1.156   3.653   1.839
 2833SOL     OW 9397   6.704   3.353   3.711
 2833SOL    HW1 9398   6.786   3.407   3.689
 2833SOL    HW2 9399   6.732   3.261   3.739
 2834SOL     OW 9400   3.332   0.600   4.443
 2834SOL    HW1 9401   3.415   0.625   4.393
 2834SOL    HW2 9402   3.277   0.682   4.459
 2835SOL     OW 9403   0.070   1.126   7.001
 2835SOL    HW1 9404   0.086   1.082   0.071
 2835SOL    HW2 9405   0.035   1.059   6.936
 2836SOL     OW 9406   3.079   5.928   1.723
 2836SOL    HW1 9407   3.067   6.027   1.712
 2836SOL    HW2 9408   3.106   5.888   1.636
 2837SOL     OW 9409   5.770   3.652   2.350
 2837SOL    HW1 9410   5.702   3.668   2.422
 2837SOL    HW2 9411   5.736   3.688   2.263
 2838SOL     OW 9412   6.953   3.841   5.730
 2838SOL    HW1 9413   6.957   3.810   5.635
 2838SOL    HW2 9414   6.949   3.761   5.790
 2839SOL     OW 9415   5.948   2.927   5.836
 2839SOL    HW1 9416   5.907   3.016   5.856
 2839SOL    HW2 9417   6.030   2.916   5.893
 2840SOL     OW 9418   5.869   6.664   5.253
 2840SOL    HW1 9419   5.876   6.585   5.193
 2840SOL    HW2 9420   5.960   6.700   5.274
 2841SOL     OW 9421   5.597   3.812   2.853
 2841SOL    HW1 9422   5.596   3.718   2.889
 2841SOL    HW2 9423   5.507   3.853   2.865
 2842SOL     OW 9424   0.623   0.039   3.790
 2842SOL    HW1 9425   0.555   6.988   3.764
 2842SOL    HW2 9426   0.690   0.049   3.716
 2843SOL     OW 9427   1.562   3.045   4.704
 2843SOL    HW1 9428   1.643   3.095   4.735
 2843SOL    HW2 9429   1.518   3.002   4.782
 2844SOL     OW 9430   5.359   4.352   0.396
 2844SOL    HW1 9431   5.445   4.326   0.353
 2844SOL    HW2 9432   5.283   4.313   0.344
 2845SOL     OW 9433   3.821   1.674   1.357
 2845SOL    HW1 9434   3.826   1.704   1.261
 2845SOL    HW2 9435   3.876   1.592   1.369
 2846SOL     OW 9436   4.854   6.748   6.615
 2846SOL    HW1 9437   4.892   6.729   6.525
 2846SOL    HW2 9438   4.778   6.686   6.633
 2847SOL     OW 9439   5.257   4.737   2.089
 2847SOL    HW1 9440   5.280   4.767   2.181
 2847SOL    HW2 9441   5.334   4.756   2.027
 2848SOL     OW 9442   0.479   3.454   0.170
 2848SOL    HW1 9443   0.384   3.485   0.163
 2848SOL    HW2 9444   0.539   3.534   0.177
 2849SOL     OW 9445   5.888   0.658   1.743
 2849SOL    HW1 9446   5.891   0.560   1.766
 2849SOL    HW2 9447   5.980   0.690   1.721
 2850SOL     OW 9448   0.619   1.235   1.131
 2850SOL    HW1 9449   0.567   1.161   1.175
 2850SOL    HW2 9450   0.583   1.251   1.039
 2851SOL     OW 9451   3.483   3.543   1.704
 2851SOL    HW1 9452   3.413   3.597   1.658
 2851SOL    HW2 9453   3.515   3.591   1.785
 2852SOL     OW 9454   0.303   5.667   5.118
 2852SOL    HW1 9455   0.323   5.755   5.161
 2852SOL    HW2 9456   0.337   5.593   5.177
 2853SOL     OW 9457   0.582   4.661   5.244
 2853SOL    HW1 9458   0.641   4.646   5.165
 2853SOL    HW2 9459   0.514   4.732   5.223
 2854SOL     OW 9460   3.312   0.181   0.029
 2854SOL    HW1 9461   3.220   0.141   0.032
 2854SOL    HW2 9462   3.349   0.171   6.955
 2855SOL     OW 9463   1.984   2.107   4.276
 2855SOL    HW1 9464   2.006   2.117   4.179
 2855SOL    HW2 9465   2.032   2.177   4.328
 2856SOL     OW 9466   1.243   5.892   4.791
 2856SOL    HW1 9467   1.194   5.821   4.843
 2856SOL    HW2 9468   1.341   5.876   4.797
 2857SOL     OW 9469   0.049   4.385   0.543
 2857SOL    HW1 9470   0.128   4.351   0.491
 2857SOL    HW2 9471   0.072   4.473   0.585
 2858SOL     OW 9472   5.439   4.685   3.442
 2858SOL    HW1 9473   5.489   4.631   3.510
 2858SOL    HW2 9474   5.388   4.623   3.381
 2859SOL     OW 9475   6.142   4.798   1.830
 2859SOL    HW1 9476   6.161   4.803   1.928
 2859SOL    HW2 9477   6.076   4.868   1.805
 2860SOL     OW 9478   1.452   6.542   3.562
 2860SOL    HW1 9479   1.480   6.483   3.638
 2860SOL    HW2 9480   1.390   6.614   3.597
 2861SOL     OW 9481   5.253   4.041   5.351
 2861SOL    HW1 9482   5.164   4.077   5.379
 2861SOL    HW2 9483   5.247   4.007   5.257
 2862SOL     OW 9484   4.401   0.894   7.011
 2862SOL    HW1 9485   4.415   0.835   6.932
 2862SOL    HW2 9486   4.423   0.844   0.077
 2863SOL     OW 9487   5.721   1.699   5.887
 2863SOL    HW1 9488   5.638   1.676   5.938
 2863SOL    HW2 9489   5.802   1.677   5.941
 2864SOL     OW 9490   4.329   4.287   1.306
 2864SOL    HW1 9491   4.355   4.221   1.235
 2864SOL    HW2 9492   4.230   4.286   1.318
 2865SOL     OW 9493   5.414   4.955   5.944
 2865SOL    HW1 9494   5.384   5.047   5.966
 2865SOL    HW2 9495   5.367   4.924   5.861
 2866SOL     OW 9496   3.859   5.573   0.993
 2866SOL    HW1 9497   3.828   5.589   0.899
 2866SOL    HW2 9498   3.929   5.641   1.017
 2867SOL     OW 9499   0.232   6.240   2.920
 2867SOL    HW1 9500   0.289   6.173   2.873
 2867SOL    HW2 9501   0.141   6.243   2.879
 2868SOL     OW 9502   6.784   6.874   5.393
 2868SOL    HW1 9503   6.800   6.801   5.327
 2868SOL    HW2 9504   6.852   6.868   5.466
 2869SOL     OW 9505   5.427   4.834   5.419
 2869SOL    HW1 9506   5.471   4.796   5.338
 2869SOL    HW2 9507   5.496   4.859   5.486
 2870SOL     OW 9508   0.641   1.388   1.406
 2870SOL    HW1 9509   0.562   1.352   1.357
 2870SOL    HW2 9510   0.687   1.312   1.453
 2871SOL     OW 9511   4.987   1.728   3.575
 2871SOL    HW1 9512   4.981   1.656   3.644
 2871SOL    HW2 9513   5.009   1.687   3.486
 2872SOL     OW 9514   3.496   2.087   2.778
 2872SOL    HW1 9515   3.590   2.097   2.747
 2872SOL    HW2 9516   3.440   2.052   2.702
 2873SOL     OW 9517   0.947   6.719   2.690
 2873SOL    HW1 9518   0.907   6.807   2.668
 2873SOL    HW2 9519   0.874   6.653   2.707
 2874SOL     OW 9520   2.105   1.423   2.875
 2874SOL    HW1 9521   2.054   1.435   2.791
 2874SOL    HW2 9522   2.112   1.325   2.896
 2875SOL     OW 9523   2.211   0.275   2.721
 2875SOL    HW1 9524   2.191   0.360   2.771
 2875SOL    HW2 9525   2.254   0.210   2.783
 2876SOL     OW 9526   0.642   6.567   0.793
 2876SOL    HW1 9527   0.720   6.511   0.822
 2876SOL    HW2 9528   0.564   6.549   0.852
 2877SOL     OW 9529   1.743   3.641   5.988
 2877SOL    HW1 9530   1.743   3.607   6.082
 2877SOL    HW2 9531   1.837   3.656   5.958
 2878SOL     OW 9532   3.218   2.968   4.807
 2878SOL    HW1 9533   3.264   2.918   4.881
 2878SOL    HW2 9534   3.283   2.984   4.732
 2879SOL     OW 9535   5.445   5.583   0.199
 2879SOL    HW1 9536   5.353   5.562   0.167
 2879SOL    HW2 9537   5.480   5.664   0.150
 2880SOL     OW 9538   1.484   1.711   3.040
 2880SOL    HW1 9539   1.536   1.754   3.113
 2880SOL    HW2 9540   1.418   1.646   3.078
 2881SOL     OW 9541   5.200   5.208   0.240
 2881SOL    HW1 9542   5.281   5.172   0.195
 2881SOL    HW2 9543   5.150   5.134   0.284
 2882SOL     OW 9544   4.041   6.461   6.715
 2882SOL    HW1 9545   4.125   6.514   6.708
 2882SOL    HW2 9546   4.015   6.425   6.625
 2883SOL     OW 9547   5.342   6.221   3.224
 2883SOL    HW1 9548   5.243   6.234   3.229
 2883SOL    HW2 9549   5.386   6.286   3.287
 2884SOL     OW 9550   5.985   5.634   3.373
 2884SOL    HW1 9551   5.889   5.617   3.394
 2884SOL    HW2 9552   6.040   5.555   3.402
 2885SOL     OW 9553   0.495   3.458   3.617
 2885SOL    HW1 9554   0.594   3.454   3.630
 2885SOL    HW2 9555   0.475   3.508   3.533
 2886SOL     OW 9556   2.310   4.368   4.732
 2886SOL    HW1 9557   2.247   4.421   4.675
 2886SOL    HW2 9558   2.287   4.271   4.723
 2887SOL     OW 9559   0.271   5.416   2.691
 2887SOL    HW1 9560   0.250   5.319   2.683
 2887SOL    HW2 9561   0.231   5.452   2.776
 2888SOL     OW 9562   4.624   6.593   6.642
 2888SOL    HW1 9563   4.653   6.497   6.649
 2888SOL    HW2 9564   4.558   6.602   6.567
 2889SOL     OW 9565   3.934   5.997   4.579
 2889SOL    HW1 9566   3.935   6.040   4.670
 2889SOL    HW2 9567   3.851   6.025   4.530
 2890SOL     OW 9568   1.913   2.470   0.030
 2890SOL    HW1 9569   1.927   2.453   6.950
 2890SOL    HW2 9570   1.860   2.554   0.041
 2891SOL     OW 9571   0.987   1.339   5.239
 2891SOL    HW1 9572   0.947   1.430   5.228
 2891SOL    HW2 9573   1.087   1.346   5.242
 2892SOL     OW 9574   5.347   4.243   2.172
 2892SOL    HW1 9575   5.446   4.261   2.177
 2892SOL    HW2 9576   5.304   4.312   2.113
 2893SOL     OW 9577   6.667   4.956   5.226
 2893SOL    HW1 9578   6.668   4.890   5.302
 2893SOL    HW2 9579   6.594   5.022   5.241
 2894SOL     OW 9580   1.668   5.294   1.117
 2894SOL    HW1 9581   1.581   5.246   1.122
 2894SOL    HW2 9582   1.708   5.300   1.209
 2895SOL     OW 9583   4.830   6.781   6.188
 2895SOL    HW1 9584   4.825   6.838   6.270
 2895SOL    HW2 9585   4.757   6.807   6.125
 2896SOL     OW 9586   6.175   0.440   5.387
 2896SOL    HW1 9587   6.103   0.371   5.384
 2896SOL    HW2 9588   6.233   0.424   5.467
 2897SOL     OW 9589   3.647   5.741   3.360
 2897SOL    HW1 9590   3.663   5.720   3.263
 2897SOL    HW2 9591   3.548   5.738   3.378
 2898SOL     OW 9592   5.193   2.836   3.319
 2898SOL    HW1 9593   5.229   2.843   3.412
 2898SOL    HW2 9594   5.152   2.745   3.306
 2899SOL     OW 9595   6.303   2.536   0.855
 2899SOL    HW1 9596   6.216   2.567   0.817
 2899SOL    HW2 9597   6.342   2.609   0.912
 2900SOL     OW 9598   2.390   2.731   5.623
 2900SOL    HW1 9599   2.404   2.821   5.664
 2900SOL    HW2 9600   2.477   2.692   5.595
 2901SOL     OW 9601   1.421   3.793   1.761
 2901SOL    HW1 9602   1.339   3.785   1.817
 2901SOL    HW2 9603   1.444   3.704   1.721
 2902SOL     OW 9604   5.472   5.990   3.271
 2902SOL    HW1 9605   5.422   6.077   3.262
 2902SOL    HW2 9606   5.490   5.972   3.367
 2903SOL     OW 9607   0.433   5.341   0.815
 2903SOL    HW1 9608   0.523   5.383   0.804
 2903SOL    HW2 9609   0.442   5.241   0.809
 2904SOL     OW 9610   2.907   4.815   4.929
 2904SOL    HW1 9611   2.903   4.774   4.838
 2904SOL    HW2 9612   2.841   4.769   4.989
 2905SOL     OW 9613   0.891   5.036   1.489
 2905SOL    HW1 9614   0.844   4.962   1.442
 2905SOL    HW2 9615   0.852   5.048   1.581
 2906SOL     OW 9616   0.040   6.253   6.027
 2906SOL    HW1 9617   7.001   6.278   6.105
 2906SOL    HW2 9618   7.010   6.184   5.972
 2907SOL     OW 9619   6.771   1.154   5.607
 2907SOL    HW1 9620   6.795   1.114   5.518
 2907SOL    HW2 9621   6.840   1.220   5.634
 2908SOL     OW 9622   3.991   6.642   4.145
 2908SOL    HW1 9623   4.047   6.573   4.098
 2908SOL    HW2 9624   3.954   6.603   4.229
 2909SOL     OW 9625   0.197   6.924   1.594
 2909SOL    HW1 9626   0.284   6.898   1.552
 2909SOL    HW2 9627   0.127   6.857   1.569
 2910SOL     OW 9628   1.123   0.861   4.506
 2910SOL    HW1 9629   1.145   0.958   4.518
 2910SOL    HW2 9630   1.024   0.849   4.504
 2911SOL     OW 9631   6.866   4.286   4.125
 2911SOL    HW1 9632   6.838   4.357   4.190
 2911SOL    HW2 9633   6.923   4.219   4.172
 2912SOL     OW 9634   0.596   1.505   2.228
 2912SOL    HW1 9635   0.615   1.598   2.261
 2912SOL    HW2 9636   0.640   1.492   2.139
 2913SOL     OW 9637   0.972   6.644   4.036
 2913SOL    HW1 9638   1.044   6.614   3.973
 2913SOL    HW2 9639   0.962   6.743   4.030
 2914SOL     OW 9640   3.630   4.155   1.211
 2914SOL    HW1 9641   3.578   4.206   1.279
 2914SOL    HW2 9642   3.672   4.075   1.254
 2915SOL     OW 9643   1.989   0.851   4.239
 2915SOL    HW1 9644   1.964   0.947   4.232
 2915SOL    HW2 9645   1.908   0.794   4.229
 2916SOL     OW 9646   0.501   5.389   6.432
 2916SOL    HW1 9647   0.503   5.465   6.367
 2916SOL    HW2 9648   0.526   5.421   6.523
 2917SOL     OW 9649   2.258   0.342   3.217
 2917SOL    HW1 9650   2.180   0.348   3.155
 2917SOL    HW2 9651   2.278   0.433   3.254
 2918SOL     OW 9652   5.217   2.547   1.267
 2918SOL    HW1 9653   5.128   2.529   1.309
 2918SOL    HW2 9654   5.256   2.461   1.233
 2919SOL     OW 9655   1.023   6.547   4.901
 2919SOL    HW1 9656   1.101   6.542   4.838
 2919SOL    HW2 9657   0.939   6.520   4.853
 2920SOL     OW 9658   2.763   2.571   1.678
 2920SOL    HW1 9659   2.821   2.600   1.602
 2920SOL    HW2 9660   2.819   2.525   1.747
 2921SOL     OW 9661   0.545   5.822   3.381
 2921SOL    HW1 9662   0.594   5.740   3.409
 2921SOL    HW2 9663   0.592   5.903   3.416
 2922SOL     OW 9664   3.681   5.104   3.459
 2922SOL    HW1 9665   3.689   5.061   3.369
 2922SOL    HW2 9666   3.585   5.126   3.477
 2923SOL     OW 9667   1.857   5.591   4.571
 2923SOL    HW1 9668   1.910   5.673   4.592
 2923SOL    HW2 9669   1.913   5.529   4.515
 2924SOL     OW 9670   5.187   1.410   6.434
 2924SOL    HW1 9671   5.168   1.355   6.516
 2924SOL    HW2 9672   5.263   1.369   6.384
 2925SOL     OW 9673   5.580   6.763   4.833
 2925SOL    HW1 9674   5.590   6.764   4.933
 2925SOL    HW2 9675   5.671   6.763   4.791
 2926SOL     OW 9676   5.999   2.923   4.697
 2926SOL    HW1 9677   6.086   2.956   4.731
 2926SOL    HW2 9678   5.977   2.835   4.739
 2927SOL     OW 9679   1.358   2.152   2.360
 2927SOL    HW1 9680   1.445   2.198   2.347
 2927SOL    HW2 9681   1.302   2.163   2.278
 2928SOL     OW 9682   5.353   4.484   0.641
 2928SOL    HW1 9683   5.371   4.415   0.572
 2928SOL    HW2 9684   5.382   4.451   0.730
 2929SOL     OW 9685   2.147   1.923   3.328
 2929SOL    HW1 9686   2.159   1.942   3.231
 2929SOL    HW2 9687   2.100   1.836   3.340
 2930SOL     OW 9688   0.827   3.291   4.331
 2930SOL    HW1 9689   0.912   3.296   4.279
 2930SOL    HW2 9690   0.751   3.323   4.274
 2931SOL     OW 9691   6.300   4.389   6.494
 2931SOL    HW1 9692   6.265   4.320   6.557
 2931SOL    HW2 9693   6.400   4.386   6.494
 2932SOL     OW 9694   6.456   6.040   1.035
 2932SOL    HW1 9695   6.485   5.948   1.062
 2932SOL    HW2 9696   6.440   6.043   0.937
 2933SOL     OW 9697   0.856   6.909   6.955
 2933SOL    HW1 9698   0.955   6.921   6.940
 2933SOL    HW2 9699   0.807   6.942   6.875
 2934SOL     OW 9700   5.711   5.068   1.876
 2934SOL    HW1 9701   5.748   4.976   1.887
 2934SOL    HW2 9702   5.645   5.086   1.950
 2935SOL     OW 9703   0.828   3.985   5.727
 2935SOL    HW1 9704   0.754   3.920   5.712
 2935SOL    HW2 9705   0.880   3.960   5.808
 2936SOL     OW 9706   4.207   6.379   1.983
 2936SOL    HW1 9707   4.144   6.443   2.025
 2936SOL    HW2 9708   4.177   6.285   2.002
 2937SOL     OW 9709   6.246   3.810   3.272
 2937SOL    HW1 9710   6.269   3.899   3.233
 2937SOL    HW2 9711   6.228   3.745   3.198
 2938SOL     OW 9712   0.540   5.266   0.424
 2938SOL    HW1 9713   0.529   5.228   0.516
 2938SOL    HW2 9714   0.464   5.235   0.366
 2939SOL     OW 9715   6.402   6.538   1.597
 2939SOL    HW1 9716   6.423   6.542   1.499
 2939SOL    HW2 9717   6.377   6.445   1.622
 2940SOL     OW 9718   4.423   6.684   3.840
 2940SOL    HW1 9719   4.488   6.734   3.782
 2940SOL    HW2 9720   4.375   6.748   3.900
 2941SOL     OW 9721   2.930   4.823   2.639
 2941SOL    HW1 9722   3.028   4.836   2.658
 2941SOL    HW2 9723   2.882   4.806   2.725
 2942SOL     OW 9724   3.483   2.469   1.682
 2942SOL    HW1 9725   3.486   2.569   1.684
 2942SOL    HW2 9726   3.553   2.431   1.742
 2943SOL     OW 9727   0.530   3.787   3.796
 2943SOL    HW1 9728   0.605   3.722   3.808
 2943SOL    HW2 9729   0.463   3.750   3.731
 2944SOL     OW 9730   0.988   6.067   3.266
 2944SOL    HW1 9731   0.916   5.997   3.259
 2944SOL    HW2 9732   1.066   6.030   3.317
 2945SOL     OW 9733   5.954   3.498   0.966
 2945SOL    HW1 9734   5.926   3.409   0.929
 2945SOL    HW2 9735   5.883   3.566   0.945
 2946SOL     OW 9736   3.286   3.540   4.345
 2946SOL    HW1 9737   3.194   3.564   4.312
 2946SOL    HW2 9738   3.352   3.607   4.312
 2947SOL     OW 9739   6.237   5.341   6.915
 2947SOL    HW1 9740   6.319   5.394   6.896
 2947SOL    HW2 9741   6.172   5.397   6.966
 2948SOL     OW 9742   6.356   3.933   1.133
 2948SOL    HW1 9743   6.373   3.925   1.231
 2948SOL    HW2 9744   6.439   3.910   1.083
 2949SOL     OW 9745   1.463   6.670   1.083
 2949SOL    HW1 9746   1.441   6.762   1.114
 2949SOL    HW2 9747   1.478   6.611   1.162
 2950SOL     OW 9748   5.584   5.298   2.561
 2950SOL    HW1 9749   5.676   5.269   2.589
 2950SOL    HW2 9750   5.516   5.259   2.623
 2951SOL     OW 9751   0.853   2.210   1.214
 2951SOL    HW1 9752   0.859   2.301   1.172
 2951SOL    HW2 9753   0.898   2.212   1.303
 2952SOL     OW 9754   0.395   1.424   3.871
 2952SOL    HW1 9755   0.325   1.462   3.932
 2952SOL    HW2 9756   0.475   1.396   3.924
 2953SOL     OW 9757   1.453   6.101   3.084
 2953SOL    HW1 9758   1.498   6.187   3.109
 2953SOL    HW2 9759   1.377   6.084   3.147
 2954SOL     OW 9760   0.829   4.117   6.504
 2954SOL    HW1 9761   0.872   4.032   6.532
 2954SOL    HW2 9762   0.851   4.136   6.409
 2955SOL     OW 9763   1.814   4.733   6.490
 2955SOL    HW1 9764   1.871   4.774   6.561
 2955SOL    HW2 9765   1.718   4.737   6.518
 2956SOL     OW 9766   5.508   3.905   4.822
 2956SOL    HW1 9767   5.570   3.829   4.805
 2956SOL    HW2 9768   5.557   3.992   4.812
 2957SOL     OW 9769   1.557   5.560   2.447
 2957SOL    HW1 9770   1.577   5.550   2.349
 2957SOL    HW2 9771   1.640   5.542   2.500
 2958SOL     OW 9772   1.696   4.694   1.596
 2958SOL    HW1 9773   1.721   4.756   1.522
 2958SOL    HW2 9774   1.631   4.626   1.563
 2959SOL     OW 9775   6.910   4.728   4.260
 2959SOL    HW1 9776   6.939   4.667   4.186
 2959SOL    HW2 9777   6.874   4.813   4.222
 2960SOL     OW 9778   4.738   6.528   1.305
 2960SOL    HW1 9779   4.638   6.529   1.316
 2960SOL    HW2 9780   4.779   6.479   1.382
 2961SOL     OW 9781   5.826   2.533   1.690
 2961SOL    HW1 9782   5.874   2.607   1.737
 2961SOL    HW2 9783   5.727   2.547   1.699
 2962SOL     OW 9784   0.242   0.238   3.672
 2962SOL    HW1 9785   0.250   0.141   3.646
 2962SOL    HW2 9786   0.291   0.254   3.757
 2963SOL     OW 9787   2.064   1.224   5.476
 2963SOL    HW1 9788   2.022   1.282   5.407
 2963SOL    HW2 9789   2.094   1.280   5.553
 2964SOL     OW 9790   1.664   0.053   6.370
 2964SOL    HW1 9791   1.583   7.016   6.393
 2964SOL    HW2 9792   1.649   0.147   6.401
 2965SOL     OW 9793   5.812   0.692   6.367
 2965SOL    HW1 9794   5.839   0.597   6.352
 2965SOL    HW2 9795   5.723   0.709   6.323
 2966SOL     OW 9796   3.759   5.610   3.012
 2966SOL    HW1 9797   3.692   5.553   3.058
 2966SOL    HW2 9798   3.735   5.706   3.023
 2967SOL     OW 9799   5.717   6.855   5.079
 2967SOL    HW1 9800   5.673   6.860   5.168
 2967SOL    HW2 9801   5.809   6.816   5.089
 2968SOL     OW 9802   1.393   4.192   1.497
 2968SOL    HW1 9803   1.366   4.106   1.455
 2968SOL    HW2 9804   1.484   4.217   1.466
 2969SOL     OW 9805   4.634   2.586   4.584
 2969SOL    HW1 9806   4.666   2.640   4.506
 2969SOL    HW2 9807   4.569   2.517   4.552
 2970SOL     OW 9808   2.285   2.510   5.768
 2970SOL    HW1 9809   2.190   2.520   5.738
 2970SOL    HW2 9810   2.334   2.595   5.748
 2971SOL     OW 9811   4.453   3.590   6.631
 2971SOL    HW1 9812   4.403   3.624   6.711
 2971SOL    HW2 9813   4.483   3.668   6.576
 2972SOL     OW 9814   0.685   6.068   6.341
 2972SOL    HW1 9815   0.588   6.087   6.354
 2972SOL    HW2 9816   0.696   5.999   6.269
 2973SOL     OW 9817   5.198   0.846   4.157
 2973SOL    HW1 9818   5.272   0.839   4.089
 2973SOL    HW2 9819   5.134   0.917   4.129
 2974SOL     OW 9820   5.718   6.367   2.471
 2974SOL    HW1 9821   5.630   6.371   2.423
 2974SOL    HW2 9822   5.758   6.276   2.461
 2975SOL     OW 9823   0.072   3.312   4.750
 2975SOL    HW1 9824   0.064   3.385   4.683
 2975SOL    HW2 9825   0.132   3.240   4.715
 2976SOL     OW 9826   3.625   0.475   1.518
 2976SOL    HW1 9827   3.580   0.443   1.601
 2976SOL    HW2 9828   3.686   0.551   1.540
 2977SOL     OW 9829   1.613   1.552   1.858
 2977SOL    HW1 9830   1.702   1.584   1.825
 2977SOL    HW2 9831   1.598   1.586   1.950
 2978SOL     OW 9832   3.654   5.863   0.484
 2978SOL    HW1 9833   3.667   5.958   0.511
 2978SOL    HW2 9834   3.588   5.859   0.408
 2979SOL     OW 9835   2.509   1.256   5.840
 2979SOL    HW1 9836   2.541   1.297   5.755
 2979SOL    HW2 9837   2.587   1.234   5.898
 2980SOL     OW 9838   3.423   2.878   3.893
 2980SOL    HW1 9839   3.359   2.922   3.956
 2980SOL    HW2 9840   3.510   2.862   3.938
 2981SOL     OW 9841   3.312   2.278   1.757
 2981SOL    HW1 9842   3.371   2.358   1.753
 2981SOL    HW2 9843   3.294   2.245   1.664
 2982SOL     OW 9844   1.552   0.892   1.067
 2982SOL    HW1 9845   1.595   0.970   1.113
 2982SOL    HW2 9846   1.470   0.864   1.117
 2983SOL     OW 9847   6.353   2.995   6.601
 2983SOL    HW1 9848   6.274   3.020   6.656
 2983SOL    HW2 9849   6.323   2.967   6.509
 2984SOL     OW 9850   0.559   5.985   1.282
 2984SOL    HW1 9851   0.496   5.912   1.308
 2984SOL    HW2 9852   0.549   6.004   1.185
 2985SOL     OW 9853   6.326   0.451   5.608
 2985SOL    HW1 9854   6.300   0.435   5.704
 2985SOL    HW2 9855   6.350   0.547   5.596
 2986SOL     OW 9856   3.282   3.260   2.630
 2986SOL    HW1 9857   3.300   3.341   2.573
 2986SOL    HW2 9858   3.305   3.177   2.579
 2987SOL     OW 9859   2.377   5.766   4.991
 2987SOL    HW1 9860   2.369   5.685   5.048
 2987SOL    HW2 9861   2.413   5.842   5.045
 2988SOL     OW 9862   0.288   1.466   6.713
 2988SOL    HW1 9863   0.203   1.517   6.729
 2988SOL    HW2 9864   0.366   1.524   6.734
 2989SOL     OW 9865   5.789   3.707   5.560
 2989SOL    HW1 9866   5.738   3.639   5.507
 2989SOL    HW2 9867   5.849   3.759   5.500
 2990SOL     OW 9868   5.199   1.062   5.331
 2990SOL    HW1 9869   5.106   1.026   5.324
 2990SOL    HW2 9870   5.231   1.087   5.240
 2991SOL     OW 9871   6.490   2.843   6.789
 2991SOL    HW1 9872   6.437   2.869   6.869
 2991SOL    HW2 9873   6.470   2.905   6.713
 2992SOL     OW 9874   0.823   3.961   5.355
 2992SOL    HW1 9875   0.892   3.890   5.368
 2992SOL    HW2 9876   0.862   4.050   5.380
 2993SOL     OW 9877   3.448   4.793   0.408
 2993SOL    HW1 9878   3.444   4.889   0.378
 2993SOL    HW2 9879   3.421   4.734   0.333
 2994SOL     OW 9880   2.483   5.040   5.107
 2994SOL    HW1 9881   2.460   5.042   5.204
 2994SOL    HW2 9882   2.542   5.117   5.084
 2995SOL     OW 9883   5.040   0.216   1.763
 2995SOL    HW1 9884   5.101   0.295   1.773
 2995SOL    HW2 9885   4.998   0.196   1.852
 2996SOL     OW 9886   6.773   0.837   4.262
 2996SOL    HW1 9887   6.723   0.876   4.185
 2996SOL    HW2 9888   6.837   0.905   4.298
 2997SOL     OW 9889   4.653   5.865   4.249
 2997SOL    HW1 9890   4.684   5.773   4.273
 2997SOL    HW2 9891   4.671   5.928   4.324
 2998SOL     OW 9892   2.533   0.296   2.050
 2998SOL    HW1 9893   2.570   0.387   2.036
 2998SOL    HW2 9894   2.565   0.235   1.977
 2999SOL     OW 9895   1.261   4.623   0.250
 2999SOL    HW1 9896   1.245   4.654   0.344
 2999SOL    HW2 9897   1.359   4.624   0.232
 3000SOL     OW 9898   2.232   3.877   5.743
 3000SOL    HW1 9899   2.332   3.878   5.753
 3000SOL    HW2 9900   2.208   3.896   5.648
 3001SOL     OW 9901   3.994   0.684   6.538
 3001SOL    HW1 9902   4.071   0.745   6.559
 3001SOL    HW2 9903   3.958   0.707   6.447
 3002SOL     OW 9904   1.099   1.998   2.153
 3002SOL    HW1 9905   1.113   1.996   2.252
 3002SOL    HW2 9906   1.001   2.006   2.134
 3003SOL     OW 9907   0.937   6.123   0.615
 3003SOL    HW1 9908   0.996   6.095   0.539
 3003SOL    HW2 9909   0.921   6.044   0.675
 3004SOL     OW 9910   3.263   6.930   4.169
 3004SOL    HW1 9911   3.167   6.907   4.157
 3004SOL    HW2 9912   3.274   0.010   4.179
 3005SOL     OW 9913   2.315   2.132   1.028
 3005SOL    HW1 9914   2.222   2.110   1.059
 3005SOL    HW2 9915   2.359   2.050   0.993
 3006SOL     OW 9916   5.610   1.389   5.659
 3006SOL    HW1 9917   5.606   1.476   5.609
 3006SOL    HW2 9918   5.604   1.313   5.594
 3007SOL     OW 9919   6.404   5.805   6.059
 3007SOL    HW1 9920   6.481   5.815   5.995
 3007SOL    HW2 9921   6.318   5.814   6.008
 3008SOL     OW 9922   5.295   3.900   5.688
 3008SOL    HW1 9923   5.273   3.986   5.734
 3008SOL    HW2 9924   5.214   3.867   5.639
 3009SOL     OW 9925   5.572   3.295   2.040
 3009SOL    HW1 9926   5.533   3.383   2.069
 3009SOL    HW2 9927   5.512   3.221   2.068
 3010SOL     OW 9928   4.515   4.993   1.885
 3010SOL    HW1 9929   4.561   5.076   1.856
 3010SOL    HW2 9930   4.582   4.919   1.895
 3011SOL     OW 9931   6.213   6.818   0.112
 3011SOL    HW1 9932   6.157   6.863   0.043
 3011SOL    HW2 9933   6.168   6.734   0.141
 3012SOL     OW 9934   2.431   1.394   4.641
 3012SOL    HW1 9935   2.493   1.356   4.572
 3012SOL    HW2 9936   2.361   1.326   4.665
 3013SOL     OW 9937   0.854   5.597   5.203
 3013SOL    HW1 9938   0.758   5.615   5.179
 3013SOL    HW2 9939   0.874   5.642   5.290
 3014SOL     OW 9940   3.878   0.433   7.000
 3014SOL    HW1 9941   3.832   0.498   6.939
 3014SOL    HW2 9942   3.855   0.455   0.077
 3015SOL     OW 9943   2.099   0.166   5.675
 3015SOL    HW1 9944   2.013   0.145   5.722
 3015SOL    HW2 9945   2.173   0.174   5.742
 3016SOL     OW 9946   2.940   0.645   3.929
 3016SOL    HW1 9947   3.029   0.613   3.896
 3016SOL    HW2 9948   2.948   0.740   3.960
 3017SOL     OW 9949   1.173   6.284   6.982
 3017SOL    HW1 9950   1.120   6.341   6.920
 3017SOL    HW2 9951   1.114   6.212   0.001
 3018SOL     OW 9952   2.692   2.415   1.405
 3018SOL    HW1 9953   2.777   2.381   1.445
 3018SOL    HW2 9954   2.617   2.406   1.472
 3019SOL     OW 9955   1.554   0.511   5.290
 3019SOL    HW1 9956   1.505   0.598   5.291
 3019SOL    HW2 9957   1.491   0.438   5.315
 3020SOL     OW 9958   4.757   4.534   0.192
 3020SOL    HW1 9959   4.755   4.602   0.118
 3020SOL    HW2 9960   4.665   4.498   0.206
 3021SOL     OW 9961   4.651   6.427   4.379
 3021SOL    HW1 9962   4.660   6.516   4.333
 3021SOL    HW2 9963   4.649   6.354   4.311
 3022SOL     OW 9964   4.114   6.859   4.233
 3022SOL    HW1 9965   4.162   6.928   4.179
 3022SOL    HW2 9966   4.073   6.791   4.171
 3023SOL     OW 9967   5.373   4.484   5.118
 3023SOL    HW1 9968   5.473   4.491   5.121
 3023SOL    HW2 9969   5.341   4.502   5.025
 3024SOL     OW 9970   6.518   1.295   0.330
 3024SOL    HW1 9971   6.608   1.339   0.337
 3024SOL    HW2 9972   6.524   1.201   0.361
 3025SOL     OW 9973   4.285   5.447   0.895
 3025SOL    HW1 9974   4.244   5.420   0.981
 3025SOL    HW2 9975   4.341   5.372   0.859
 3026SOL     OW 9976   0.412   0.189   2.511
 3026SOL    HW1 9977   0.482   0.118   2.512
 3026SOL    HW2 9978   0.321   0.145   2.507
 3027SOL     OW 9979   4.390   6.959   1.046
 3027SOL    HW1 9980   4.416   6.904   0.967
 3027SOL    HW2 9981   4.331   6.905   1.106
 3028SOL     OW 9982   3.551   3.304   4.717
 3028SOL    HW1 9983   3.471   3.343   4.763
 3028SOL    HW2 9984   3.528   3.286   4.621
 3029SOL     OW 9985   0.161   2.352   5.044
 3029SOL    HW1 9986   0.189   2.301   4.963
 3029SOL    HW2 9987   0.094   2.298   5.096
 3030SOL     OW 9988   0.947   2.829   6.091
 3030SOL    HW1 9989   0.888   2.828   6.010
 3030SOL    HW2 9990   1.040   2.855   6.064
 3031SOL     OW 9991   0.565   4.532   6.749
 3031SOL    HW1 9992   0.577   4.615   6.694
 3031SOL    HW2 9993   0.622   4.459   6.712
 3032SOL     OW 9994   3.390   6.798   3.721
 3032SOL    HW1 9995   3.424   6.828   3.810
 3032SOL    HW2 9996   3.435   6.713   3.695
 3033SOL     OW 9997   2.133   1.121   6.662
 3033SOL    HW1 9998   2.148   1.167   6.574
 3033SOL    HW2 9999   2.037   1.130   6.688
 3034SOL     OW10000   5.482   3.454   3.462
 3034SOL    HW110001   5.533   3.521   3.516
 3034SOL    HW210002   5.498   3.362   3.499
 3035SOL     OW10003   0.001   3.299   6.729
 3035SOL    HW110004   6.970   3.375   6.772
 3035SOL    HW210005   0.033   3.327   6.638
 3036SOL     OW10006   3.416   1.812   6.315
 3036SOL    HW110007   3.415   1.831   6.414
 3036SOL    HW210008   3.466   1.885   6.268
 3037SOL     OW10009   0.504   4.861   6.174
 3037SOL    HW110010   0.518   4.869   6.075
 3037SOL    HW210011   0.591   4.870   6.221
 3038SOL     OW10012   6.122   4.657   5.197
 3038SOL    HW110013   6.066   4.676   5.278
 3038SOL    HW210014   6.065   4.613   5.127
 3039SOL     OW10015   5.671   3.335   6.174
 3039SOL    HW110016   5.603   3.398   6.136
 3039SOL    HW210017   5.626   3.251   6.205
 3040SOL     OW10018   3.861   6.632   6.470
 3040SOL    HW110019   3.799   6.687   6.415
 3040SOL    HW210020   3.885   6.548   6.421
 3041SOL     OW10021   2.006   5.474   6.806
 3041SOL    HW110022   2.032   5.386   6.767
 3041SOL    HW210023   1.971   5.534   6.733
 3042SOL     OW10024   0.096   5.203   3.992
 3042SOL    HW110025   0.134   5.153   4.070
 3042SOL    HW210026   0.069   5.138   3.920
 3043SOL     OW10027   2.894   4.161   1.173
 3043SOL    HW110028   2.866   4.226   1.102
 3043SOL    HW210029   2.826   4.088   1.181
 3044SOL     OW10030   3.979   3.371   4.855
 3044SOL    HW110031   3.980   3.291   4.794
 3044SOL    HW210032   3.910   3.436   4.823
 3045SOL     OW10033   5.308   0.417   2.754
 3045SOL    HW110034   5.248   0.410   2.833
 3045SOL    HW210035   5.403   0.421   2.785
 3046SOL     OW10036   6.109   5.346   1.162
 3046SOL    HW110037   6.119   5.318   1.257
 3046SOL    HW210038   6.185   5.406   1.137
 3047SOL     OW10039   5.640   1.613   3.888
 3047SOL    HW110040   5.648   1.666   3.804
 3047SOL    HW210041   5.722   1.557   3.900
 3048SOL     OW10042   4.379   4.740   1.491
 3048SOL    HW110043   4.296   4.779   1.531
 3048SOL    HW210044   4.433   4.813   1.449
 3049SOL     OW10045   0.548   1.048   2.000
 3049SOL    HW110046   0.566   1.116   1.929
 3049SOL    HW210047   0.538   1.093   2.089
 3050SOL     OW10048   3.831   2.363   6.009
 3050SOL    HW110049   3.874   2.336   5.922
 3050SOL    HW210050   3.892   2.423   6.060
 3051SOL     OW10051   2.084   5.228   6.762
 3051SOL    HW110052   2.120   5.177   6.841
 3051SOL    HW210053   2.152   5.228   6.689
 3052SOL     OW10054   5.890   6.347   3.675
 3052SOL    HW110055   5.916   6.393   3.590
 3052SOL    HW210056   5.970   6.302   3.714
 3053SOL     OW10057   0.719   4.929   6.332
 3053SOL    HW110058   0.768   4.894   6.251
 3053SOL    HW210059   0.721   5.029   6.332
 3054SOL     OW10060   6.142   6.593   3.126
 3054SOL    HW110061   6.081   6.664   3.090
 3054SOL    HW210062   6.164   6.528   3.054
 3055SOL     OW10063   4.975   6.595   0.391
 3055SOL    HW110064   5.029   6.643   0.460
 3055SOL    HW210065   5.026   6.592   0.305
 3056SOL     OW10066   4.572   2.390   1.407
 3056SOL    HW110067   4.529   2.346   1.486
 3056SOL    HW210068   4.567   2.329   1.328
 3057SOL     OW10069   6.899   3.796   3.461
 3057SOL    HW110070   6.804   3.799   3.494
 3057SOL    HW210071   6.907   3.725   3.391
 3058SOL     OW10072   6.966   4.772   5.982
 3058SOL    HW110073   6.933   4.825   5.905
 3058SOL    HW210074   0.047   4.758   5.973
 3059SOL     OW10075   1.252   2.580   3.124
 3059SOL    HW110076   1.246   2.492   3.172
 3059SOL    HW210077   1.275   2.564   3.028
 3060SOL     OW10078   5.884   3.624   3.468
 3060SOL    HW110079   5.898   3.574   3.383
 3060SOL    HW210080   5.940   3.707   3.468
 3061SOL     OW10081   5.879   6.582   2.476
 3061SOL    HW110082   5.893   6.634   2.561
 3061SOL    HW210083   5.816   6.507   2.493
 3062SOL     OW10084   3.760   5.200   1.366
 3062SOL    HW110085   3.699   5.144   1.310
 3062SOL    HW210086   3.804   5.142   1.435
 3063SOL     OW10087   6.420   4.599   0.505
 3063SOL    HW110088   6.349   4.596   0.434
 3063SOL    HW210089   6.384   4.646   0.585
 3064SOL     OW10090   4.752   2.067   6.109
 3064SOL    HW110091   4.709   1.990   6.155
 3064SOL    HW210092   4.818   2.111   6.170
 3065SOL     OW10093   5.654   0.951   6.519
 3065SOL    HW110094   5.743   0.914   6.545
 3065SOL    HW210095   5.630   1.026   6.581
 3066SOL     OW10096   5.450   0.300   5.926
 3066SOL    HW110097   5.392   0.381   5.914
 3066SOL    HW210098   5.412   0.242   5.998
 3067SOL     OW10099   1.773   2.049   4.498
 3067SOL    HW110100   1.823   2.083   4.418
 3067SOL    HW210101   1.685   2.095   4.503
 3068SOL     OW10102   5.881   6.954   0.693
 3068SOL    HW110103   5.937   6.895   0.634
 3068SOL    HW210104   5.798   6.906   0.720
 3069SOL     OW10105   5.476   6.356   3.442
 3069SOL    HW110106   5.443   6.286   3.505
 3069SOL    HW210107   5.423   6.440   3.454
 3070SOL     OW10108   2.889   0.891   1.440
 3070SOL    HW110109   2.856   0.982   1.464
 3070SOL    HW210110   2.946   0.897   1.358
 3071SOL     OW10111   5.643   4.496   5.051
 3071SOL    HW110112   5.700   4.419   5.081
 3071SOL    HW210113   5.629   4.490   4.952
 3072SOL     OW10114   1.385   6.725   5.221
 3072SOL    HW110115   1.448   6.719   5.298
 3072SOL    HW210116   1.422   6.673   5.144
 3073SOL     OW10117   6.687   5.927   2.849
 3073SOL    HW110118   6.599   5.916   2.802
 3073SOL    HW210119   6.679   5.892   2.943
 3074SOL     OW10120   3.226   2.838   1.868
 3074SOL    HW110121   3.324   2.818   1.873
 3074SOL    HW210122   3.211   2.934   1.895
 3075SOL     OW10123   3.953   5.110   1.095
 3075SOL    HW110124   3.927   5.099   1.191
 3075SOL    HW210125   3.917   5.197   1.061
 3076SOL     OW10126   1.996   1.696   4.038
 3076SOL    HW110127   2.013   1.766   3.969
 3076SOL    HW210128   2.020   1.732   4.128
 3077SOL     OW10129   6.835   3.645   2.058
 3077SOL    HW110130   6.857   3.574   2.126
 3077SOL    HW210131   6.771   3.710   2.099
 3078SOL     OW10132   6.725   4.238   1.140
 3078SOL    HW110133   6.691   4.285   1.058
 3078SOL    HW210134   6.824   4.253   1.148
 3079SOL     OW10135   0.777   4.039   4.077
 3079SOL    HW110136   0.789   4.031   4.176
 3079SOL    HW210137   0.842   4.107   4.041
 3080SOL     OW10138   3.805   4.775   1.658
 3080SOL    HW110139   3.792   4.720   1.575
 3080SOL    HW210140   3.752   4.734   1.733
 3081SOL     OW10141   1.995   2.751   6.194
 3081SOL    HW110142   2.032   2.840   6.217
 3081SOL    HW210143   1.911   2.762   6.140
 3082SOL     OW10144   5.503   4.203   5.060
 3082SOL    HW110145   5.422   4.145   5.052
 3082SOL    HW210146   5.534   4.232   4.969
 3083SOL     OW10147   4.357   5.801   1.219
 3083SOL    HW110148   4.456   5.796   1.227
 3083SOL    HW210149   4.328   5.752   1.137
 3084SOL     OW10150   6.813   5.346   4.372
 3084SOL    HW110151   6.859   5.283   4.309
 3084SOL    HW210152   6.880   5.391   4.430
 3085SOL     OW10153   6.927   5.750   7.008
 3085SOL    HW110154   6.863   5.694   6.955
 3085SOL    HW210155   6.886   5.771   0.078
 3086SOL     OW10156   5.969   6.332   6.474
 3086SOL    HW110157   5.923   6.271   6.538
 3086SOL    HW210158   5.952   6.427   6.501
 3087SOL     OW10159   3.122   0.533   2.058
 3087SOL    HW110160   3.084   0.621   2.087
 3087SOL    HW210161   3.162   0.486   2.136
 3088SOL     OW10162   2.577   3.432   5.360
 3088SOL    HW110163   2.522   3.515   5.348
 3088SOL    HW210164   2.663   3.443   5.311
 3089SOL     OW10165   3.920   6.560   6.937
 3089SOL    HW110166   3.842   6.622   6.928
 3089SOL    HW210167   3.926   6.503   6.855
 3090SOL     OW10168   1.643   2.518   2.409
 3090SOL    HW110169   1.611   2.429   2.376
 3090SOL    HW210170   1.716   2.505   2.475
 3091SOL     OW10171   1.230   2.611   6.567
 3091SOL    HW110172   1.152   2.668   6.542
 3091SOL    HW210173   1.238   2.535   6.503
 3092SOL     OW10174   5.137   1.377   3.450
 3092SOL    HW110175   5.077   1.429   3.389
 3092SOL    HW210176   5.119   1.405   3.545
 3093SOL     OW10177   6.599   4.958   6.585
 3093SOL    HW110178   6.688   4.918   6.564
 3093SOL    HW210179   6.534   4.935   6.513
 3094SOL     OW10180   2.279   1.444   6.121
 3094SOL    HW110181   2.242   1.424   6.031
 3094SOL    HW210182   2.329   1.531   6.118
 3095SOL     OW10183   1.698   3.687   5.214
 3095SOL    HW110184   1.713   3.673   5.116
 3095SOL    HW210185   1.653   3.606   5.252
 3096SOL     OW10186   1.832   2.679   3.604
 3096SOL    HW110187   1.745   2.681   3.655
 3096SOL    HW210188   1.907   2.692   3.668
 3097SOL     OW10189   5.709   2.924   5.638
 3097SOL    HW110190   5.638   2.883   5.581
 3097SOL    HW210191   5.796   2.925   5.588
 3098SOL     OW10192   1.461   3.180   2.425
 3098SOL    HW110193   1.474   3.084   2.399
 3098SOL    HW210194   1.468   3.188   2.525
 3099SOL     OW10195   0.695   6.678   5.573
 3099SOL    HW110196   0.754   6.725   5.507
 3099SOL    HW210197   0.752   6.633   5.642
 3100SOL     OW10198   6.216   4.516   2.277
 3100SOL    HW110199   6.192   4.449   2.207
 3100SOL    HW210200   6.137   4.531   2.337
 3101SOL     OW10201   4.796   0.585   4.699
 3101SOL    HW110202   4.868   0.544   4.643
 3101SOL    HW210203   4.780   0.528   4.780
 3102SOL     OW10204   5.851   4.017   2.600
 3102SOL    HW110205   5.756   4.046   2.605
 3102SOL    HW210206   5.902   4.079   2.540
 3103SOL     OW10207   1.532   1.598   2.136
 3103SOL    HW110208   1.607   1.548   2.179
 3103SOL    HW210209   1.456   1.606   2.200
 3104SOL     OW10210   6.033   2.041   6.168
 3104SOL    HW110211   6.111   2.101   6.151
 3104SOL    HW210212   5.956   2.069   6.110
 3105SOL     OW10213   5.692   4.307   0.638
 3105SOL    HW110214   5.637   4.235   0.680
 3105SOL    HW210215   5.775   4.266   0.599
 3106SOL     OW10216   5.522   1.661   6.083
 3106SOL    HW110217   5.526   1.561   6.091
 3106SOL    HW210218   5.426   1.690   6.087
 3107SOL     OW10219   3.970   2.075   4.737
 3107SOL    HW110220   3.883   2.121   4.719
 3107SOL    HW210221   4.007   2.107   4.824
 3108SOL     OW10222   1.850   4.534   3.503
 3108SOL    HW110223   1.943   4.546   3.538
 3108SOL    HW210224   1.790   4.503   3.577
 3109SOL     OW10225   6.915   5.655   3.301
 3109SOL    HW110226   6.964   5.580   3.344
 3109SOL    HW210227   6.843   5.619   3.242
 3110SOL     OW10228   1.283   6.259   4.558
 3110SOL    HW110229   1.319   6.166   4.551
 3110SOL    HW210230   1.281   6.300   4.466
 3111SOL     OW10231   6.544   4.161   3.679
 3111SOL    HW110232   6.605   4.208   3.744
 3111SOL    HW210233   6.499   4.085   3.725
 3112SOL     OW10234   4.501   0.539   0.735
 3112SOL    HW110235   4.570   0.551   0.663
 3112SOL    HW210236   4.517   0.605   0.808
 3113SOL     OW10237   1.203   0.440   3.768
 3113SOL    HW110238   1.115   0.440   3.814
 3113SOL    HW210239   1.274   0.469   3.832
 3114SOL     OW10240   4.953   6.171   5.457
 3114SOL    HW110241   4.867   6.212   5.487
 3114SOL    HW210242   4.982   6.213   5.371
 3115SOL     OW10243   4.549   5.693   4.535
 3115SOL    HW110244   4.647   5.700   4.551
 3115SOL    HW210245   4.527   5.602   4.499
 3116SOL     OW10246   0.865   1.936   6.684
 3116SOL    HW110247   0.892   1.888   6.768
 3116SOL    HW210248   0.781   1.896   6.649
 3117SOL     OW10249   3.905   0.005   0.944
 3117SOL    HW110250   3.922   6.929   0.917
 3117SOL    HW210251   3.888   0.010   1.042
 3118SOL     OW10252   0.966   1.893   3.144
 3118SOL    HW110253   1.062   1.913   3.121
 3118SOL    HW210254   0.924   1.840   3.071
 3119SOL     OW10255   4.437   6.399   3.848
 3119SOL    HW110256   4.491   6.358   3.922
 3119SOL    HW210257   4.433   6.498   3.861
 3120SOL     OW10258   3.108   5.941   0.311
 3120SOL    HW110259   3.100   6.039   0.290
 3120SOL    HW210260   3.070   5.923   0.402
 3121SOL     OW10261   3.821   2.159   3.510
 3121SOL    HW110262   3.844   2.243   3.461
 3121SOL    HW210263   3.898   2.095   3.503
 3122SOL     OW10264   5.623   3.887   5.842
 3122SOL    HW110265   5.659   3.924   5.756
 3122SOL    HW210266   5.568   3.957   5.888
 3123SOL     OW10267   1.950   2.804   2.463
 3123SOL    HW110268   1.977   2.859   2.543
 3123SOL    HW210269   1.862   2.761   2.481
 3124SOL     OW10270   4.853   6.923   5.572
 3124SOL    HW110271   4.856   6.908   5.671
 3124SOL    HW210272   4.933   6.881   5.529
 3125SOL     OW10273   1.793   1.763   5.107
 3125SOL    HW110274   1.825   1.678   5.064
 3125SOL    HW210275   1.743   1.741   5.191
 3126SOL     OW10276   4.371   4.316   5.771
 3126SOL    HW110277   4.336   4.290   5.681
 3126SOL    HW210278   4.462   4.357   5.761
 3127SOL     OW10279   6.342   1.936   5.554
 3127SOL    HW110280   6.336   1.839   5.528
 3127SOL    HW210281   6.317   1.946   5.650
 3128SOL     OW10282   3.576   0.914   0.994
 3128SOL    HW110283   3.550   0.888   1.087
 3128SOL    HW210284   3.659   0.969   0.997
 3129SOL     OW10285   4.312   4.267   0.570
 3129SOL    HW110286   4.362   4.202   0.514
 3129SOL    HW210287   4.367   4.350   0.581
 3130SOL     OW10288   6.496   5.821   2.046
 3130SOL    HW110289   6.571   5.801   2.109
 3130SOL    HW210290   6.509   5.912   2.006
 3131SOL     OW10291   6.630   2.760   2.910
 3131SOL    HW110292   6.667   2.834   2.853
 3131SOL    HW210293   6.682   2.676   2.893
 3132SOL     OW10294   4.664   4.317   6.907
 3132SOL    HW110295   4.635   4.240   6.850
 3132SOL    HW210296   4.615   4.400   6.879
 3133SOL     OW10297   5.277   6.570   3.457
 3133SOL    HW110298   5.265   6.574   3.358
 3133SOL    HW210299   5.191   6.546   3.500
 3134SOL     OW10300   5.157   4.732   2.847
 3134SOL    HW110301   5.115   4.794   2.914
 3134SOL    HW210302   5.096   4.655   2.830
 3135SOL     OW10303   3.477   0.352   6.480
 3135SOL    HW110304   3.491   0.294   6.561
 3135SOL    HW210305   3.562   0.362   6.430
 3136SOL     OW10306   6.509   6.769   2.436
 3136SOL    HW110307   6.507   6.719   2.349
 3136SOL    HW210308   6.569   6.721   2.500
 3137SOL     OW10309   4.514   5.148   6.956
 3137SOL    HW110310   4.611   5.145   6.980
 3137SOL    HW210311   4.502   5.202   6.873
 3138SOL     OW10312   6.876   6.572   4.513
 3138SOL    HW110313   6.798   6.511   4.503
 3138SOL    HW210314   6.939   6.558   4.436
 3139SOL     OW10315   1.621   5.016   2.048
 3139SOL    HW110316   1.569   4.931   2.050
 3139SOL    HW210317   1.701   5.005   1.990
 3140SOL     OW10318   5.152   6.171   6.935
 3140SOL    HW110319   5.243   6.177   6.977
 3140SOL    HW210320   5.094   6.111   6.991
 3141SOL     OW10321   5.818   1.534   6.909
 3141SOL    HW110322   5.853   1.479   6.833
 3141SOL    HW210323   5.795   1.474   6.986
 3142SOL     OW10324   4.577   1.348   3.961
 3142SOL    HW110325   4.514   1.400   4.018
 3142SOL    HW210326   4.594   1.258   4.002
 3143SOL     OW10327   6.873   1.146   0.553
 3143SOL    HW110328   6.883   1.186   0.644
 3143SOL    HW210329   6.884   1.218   0.484
 3144SOL     OW10330   3.946   4.912   0.147
 3144SOL    HW110331   3.854   4.873   0.155
 3144SOL    HW210332   3.973   4.911   0.051
 3145SOL     OW10333   0.905   5.563   6.128
 3145SOL    HW110334   0.830   5.566   6.194
 3145SOL    HW210335   0.872   5.524   6.042
 3146SOL     OW10336   6.059   1.922   4.148
 3146SOL    HW110337   6.012   2.008   4.166
 3146SOL    HW210338   6.054   1.864   4.229
 3147SOL     OW10339   4.628   6.910   1.142
 3147SOL    HW110340   4.529   6.918   1.129
 3147SOL    HW210341   4.651   6.817   1.170
 3148SOL     OW10342   6.299   4.896   0.258
 3148SOL    HW110343   6.324   4.810   0.214
 3148SOL    HW210344   6.314   4.972   0.194
 3149SOL     OW10345   4.001   2.794   6.737
 3149SOL    HW110346   4.023   2.839   6.651
 3149SOL    HW210347   3.902   2.776   6.741
 3150SOL     OW10348   6.884   0.310   5.327
 3150SOL    HW110349   6.845   0.290   5.417
 3150SOL    HW210350   6.972   0.265   5.318
 3151SOL     OW10351   6.752   0.940   5.762
 3151SOL    HW110352   6.774   1.026   5.717
 3151SOL    HW210353   6.684   0.956   5.834
 3152SOL     OW10354   2.550   2.016   5.698
 3152SOL    HW110355   2.538   1.932   5.752
 3152SOL    HW210356   2.598   1.994   5.613
 3153SOL     OW10357   5.682   5.912   2.001
 3153SOL    HW110358   5.625   5.872   1.929
 3153SOL    HW210359   5.625   5.928   2.082
 3154SOL     OW10360   3.495   2.085   0.911
 3154SOL    HW110361   3.458   2.165   0.958
 3154SOL    HW210362   3.425   2.045   0.853
 3155SOL     OW10363   0.190   5.707   6.617
 3155SOL    HW110364   0.160   5.752   6.533
 3155SOL    HW210365   0.230   5.618   6.596
 3156SOL     OW10366   3.306   4.313   1.242
 3156SOL    HW110367   3.231   4.378   1.254
 3156SOL    HW210368   3.379   4.335   1.307
 3157SOL     OW10369   1.277   1.290   4.036
 3157SOL    HW110370   1.369   1.328   4.030
 3157SOL    HW210371   1.213   1.362   4.063
 3158SOL     OW10372   2.658   0.626   6.218
 3158SOL    HW110373   2.667   0.527   6.233
 3158SOL    HW210374   2.726   0.657   6.152
 3159SOL     OW10375   5.197   7.017   1.209
 3159SOL    HW110376   5.177   0.040   1.120
 3159SOL    HW210377   5.113   7.009   1.262
 3160SOL     OW10378   2.274   0.980   4.745
 3160SOL    HW110379   2.328   0.945   4.668
 3160SOL    HW210380   2.240   0.903   4.799
 3161SOL     OW10381   1.467   2.738   2.097
 3161SOL    HW110382   1.535   2.675   2.134
 3161SOL    HW210383   1.466   2.732   1.997
 3162SOL     OW10384   1.070   5.705   1.663
 3162SOL    HW110385   1.064   5.678   1.567
 3162SOL    HW210386   1.087   5.625   1.720
 3163SOL     OW10387   5.089   4.304   1.220
 3163SOL    HW110388   5.100   4.207   1.242
 3163SOL    HW210389   4.998   4.334   1.248
 3164SOL     OW10390   2.483   7.018   4.176
 3164SOL    HW110391   2.401   0.049   4.148
 3164SOL    HW210392   2.519   0.040   4.261
 3165SOL     OW10393   0.776   6.028   6.709
 3165SOL    HW110394   0.815   6.119   6.691
 3165SOL    HW210395   0.845   5.971   6.755
 3166SOL     OW10396   4.032   2.038   4.487
 3166SOL    HW110397   4.004   2.056   4.582
 3166SOL    HW210398   3.962   2.072   4.425
 3167SOL     OW10399   6.531   2.859   1.680
 3167SOL    HW110400   6.604   2.833   1.743
 3167SOL    HW210401   6.548   2.816   1.591
 3168SOL     OW10402   5.479   1.328   1.414
 3168SOL    HW110403   5.527   1.271   1.480
 3168SOL    HW210404   5.479   1.283   1.324
 3169SOL     OW10405   1.055   3.890   2.028
 3169SOL    HW110406   0.971   3.926   1.989
 3169SOL    HW210407   1.080   3.805   1.982
 3170SOL     OW10408   2.269   4.196   3.402
 3170SOL    HW110409   2.264   4.267   3.331
 3170SOL    HW210410   2.261   4.238   3.492
 3171SOL     OW10411   5.342   1.308   4.875
 3171SOL    HW110412   5.434   1.343   4.857
 3171SOL    HW210413   5.315   1.246   4.803
 3172SOL     OW10414   5.860   3.897   1.551
 3172SOL    HW110415   5.761   3.881   1.560
 3172SOL    HW210416   5.883   3.906   1.454
 3173SOL     OW10417   5.526   3.303   6.955
 3173SOL    HW110418   5.512   3.211   6.990
 3173SOL    HW210419   5.571   3.359   0.007
 3174SOL     OW10420   3.444   2.440   6.452
 3174SOL    HW110421   3.444   2.539   6.437
 3174SOL    HW210422   3.467   2.394   6.366
 3175SOL     OW10423   6.002   6.349   5.353
 3175SOL    HW110424   5.924   6.390   5.400
 3175SOL    HW210425   6.087   6.372   5.401
 3176SOL     OW10426   0.731   4.988   4.014
 3176SOL    HW110427   0.667   4.924   3.972
 3176SOL    HW210428   0.824   4.950   4.009
 3177SOL     OW10429   4.866   2.978   3.002
 3177SOL    HW110430   4.815   3.038   3.064
 3177SOL    HW210431   4.939   3.030   2.958
 3178SOL     OW10432   0.875   6.991   2.684
 3178SOL    HW110433   0.898   0.068   2.664
 3178SOL    HW210434   0.856   6.982   2.781
 3179SOL     OW10435   0.867   3.126   2.119
 3179SOL    HW110436   0.893   3.216   2.152
 3179SOL    HW210437   0.943   3.062   2.131
 3180SOL     OW10438   6.759   6.726   6.549
 3180SOL    HW110439   6.846   6.729   6.597
 3180SOL    HW210440   6.688   6.692   6.610
 3181SOL     OW10441   0.758   6.162   4.875
 3181SOL    HW110442   0.783   6.088   4.937
 3181SOL    HW210443   0.814   6.243   4.896
 3182SOL     OW10444   1.156   6.720   1.489
 3182SOL    HW110445   1.172   6.809   1.532
 3182SOL    HW210446   1.058   6.700   1.489
 3183SOL     OW10447   4.182   3.735   0.760
 3183SOL    HW110448   4.152   3.743   0.856
 3183SOL    HW210449   4.161   3.820   0.712
 3184SOL     OW10450   6.164   1.557   4.420
 3184SOL    HW110451   6.191   1.463   4.400
 3184SOL    HW210452   6.232   1.620   4.384
 3185SOL     OW10453   0.955   6.647   5.934
 3185SOL    HW110454   0.949   6.721   5.867
 3185SOL    HW210455   1.045   6.605   5.930
 3186SOL     OW10456   0.279   2.624   5.781
 3186SOL    HW110457   0.216   2.556   5.819
 3186SOL    HW210458   0.230   2.681   5.715
 3187SOL     OW10459   5.366   0.152   3.421
 3187SOL    HW110460   5.373   0.235   3.476
 3187SOL    HW210461   5.451   0.139   3.370
 3188SOL     OW10462   1.687   6.315   1.336
 3188SOL    HW110463   1.621   6.390   1.330
 3188SOL    HW210464   1.640   6.232   1.364
 3189SOL     OW10465   2.461   1.480   6.505
 3189SOL    HW110466   2.510   1.403   6.546
 3189SOL    HW210467   2.476   1.479   6.406
 3190SOL     OW10468   5.954   6.596   4.001
 3190SOL    HW110469   5.870   6.551   3.971
 3190SOL    HW210470   5.948   6.694   3.983
 3191SOL     OW10471   3.819   5.010   1.558
 3191SOL    HW110472   3.834   4.918   1.594
 3191SOL    HW210473   3.726   5.039   1.579
 3192SOL     OW10474   5.249   0.885   2.814
 3192SOL    HW110475   5.257   0.845   2.906
 3192SOL    HW210476   5.239   0.984   2.821
 3193SOL     OW10477   3.135   5.432   5.007
 3193SOL    HW110478   3.176   5.363   5.066
 3193SOL    HW210479   3.169   5.421   4.914
 3194SOL     OW10480   1.984   6.945   5.037
 3194SOL    HW110481   1.979   6.853   4.999
 3194SOL    HW210482   1.898   6.967   5.084
 3195SOL     OW10483   0.752   6.327   0.185
 3195SOL    HW110484   0.725   6.272   0.265
 3195SOL    HW210485   0.789   6.414   0.216
 3196SOL     OW10486   6.108   0.087   2.661
 3196SOL    HW110487   6.091   0.183   2.643
 3196SOL    HW210488   6.033   0.032   2.625
 3197SOL     OW10489   2.900   0.608   7.009
 3197SOL    HW110490   2.823   0.621   0.053
 3197SOL    HW210491   2.888   0.522   6.959
 3198SOL     OW10492   5.394   3.025   4.058
 3198SOL    HW110493   5.485   3.014   4.097
 3198SOL    HW210494   5.335   3.073   4.123
 3199SOL     OW10495   4.861   3.825   3.296
 3199SOL    HW110496   4.859   3.726   3.281
 3199SOL    HW210497   4.919   3.846   3.374
 3200SOL     OW10498   5.811   3.750   4.873
 3200SOL    HW110499   5.778   3.695   4.796
 3200SOL    HW210500   5.863   3.828   4.839
 3201SOL     OW10501   6.783   4.120   1.986
 3201SOL    HW110502   6.751   4.052   2.052
 3201SOL    HW210503   6.759   4.091   1.893
 3202SOL     OW10504   2.513   2.807   6.504
 3202SOL    HW110505   2.607   2.839   6.517
 3202SOL    HW210506   2.510   2.738   6.431
 3203SOL     OW10507   3.177   6.742   1.996
 3203SOL    HW110508   3.239   6.756   2.073
 3203SOL    HW210509   3.226   6.761   1.910
 3204SOL     OW10510   4.316   0.493   3.882
 3204SOL    HW110511   4.353   0.462   3.970
 3204SOL    HW210512   4.219   0.468   3.877
 3205SOL     OW10513   4.521   2.682   5.956
 3205SOL    HW110514   4.425   2.657   5.969
 3205SOL    HW210515   4.556   2.727   6.038
 3206SOL     OW10516   3.216   4.474   0.914
 3206SOL    HW110517   3.291   4.536   0.891
 3206SOL    HW210518   3.244   4.380   0.895
 3207SOL     OW10519   2.082   6.401   3.490
 3207SOL    HW110520   2.130   6.427   3.574
 3207SOL    HW210521   2.071   6.482   3.432
 3208SOL     OW10522   6.887   4.274   5.916
 3208SOL    HW110523   6.982   4.300   5.932
 3208SOL    HW210524   6.879   4.174   5.913
 3209SOL     OW10525   5.005   6.762   5.966
 3209SOL    HW110526   5.066   6.683   5.961
 3209SOL    HW210527   4.954   6.759   6.052
 3210SOL     OW10528   5.109   5.436   1.803
 3210SOL    HW110529   5.053   5.497   1.748
 3210SOL    HW210530   5.100   5.342   1.768
 3211SOL     OW10531   1.987   6.610   6.268
 3211SOL    HW110532   2.021   6.639   6.178
 3211SOL    HW210533   2.052   6.637   6.339
 3212SOL     OW10534   3.318   6.635   4.157
 3212SOL    HW110535   3.331   6.596   4.066
 3212SOL    HW210536   3.285   6.729   4.149
 3213SOL     OW10537   1.248   0.556   5.777
 3213SOL    HW110538   1.193   0.604   5.708
 3213SOL    HW210539   1.337   0.600   5.784
 3214SOL     OW10540   3.646   0.500   2.721
 3214SOL    HW110541   3.730   0.448   2.734
 3214SOL    HW210542   3.627   0.554   2.803
 3215SOL     OW10543   2.118   3.153   2.084
 3215SOL    HW110544   2.056   3.231   2.089
 3215SOL    HW210545   2.160   3.149   1.993
 3216SOL     OW10546   6.336   5.308   0.682
 3216SOL    HW110547   6.265   5.280   0.617
 3216SOL    HW210548   6.316   5.270   0.772
 3217SOL     OW10549   6.781   5.735   4.062
 3217SOL    HW110550   6.849   5.707   4.130
 3217SOL    HW210551   6.690   5.704   4.090
 3218SOL     OW10552   5.647   1.350   3.476
 3218SOL    HW110553   5.695   1.262   3.469
 3218SOL    HW210554   5.713   1.424   3.469
 3219SOL     OW10555   5.559   2.056   4.830
 3219SOL    HW110556   5.618   1.986   4.790
 3219SOL    HW210557   5.511   2.019   4.909
 3220SOL     OW10558   0.655   3.797   5.704
 3220SOL    HW110559   0.630   3.766   5.612
 3220SOL    HW210560   0.572   3.807   5.759
 3221SOL     OW10561   4.207   1.445   2.163
 3221SOL    HW110562   4.272   1.388   2.213
 3221SOL    HW210563   4.118   1.400   2.161
 3222SOL     OW10564   3.695   1.201   3.217
 3222SOL    HW110565   3.733   1.220   3.307
 3222SOL    HW210566   3.752   1.133   3.170
 3223SOL     OW10567   1.526   5.724   0.743
 3223SOL    HW110568   1.576   5.796   0.696
 3223SOL    HW210569   1.498   5.757   0.834
 3224SOL     OW10570   4.828   2.915   4.888
 3224SOL    HW110571   4.743   2.906   4.836
 3224SOL    HW210572   4.868   2.825   4.904
 3225SOL     OW10573   4.979   1.418   4.775
 3225SOL    HW110574   4.921   1.482   4.725
 3225SOL    HW210575   5.035   1.366   4.711
 3226SOL     OW10576   6.390   0.850   0.771
 3226SOL    HW110577   6.427   0.888   0.856
 3226SOL    HW210578   6.462   0.802   0.722
 3227SOL     OW10579   6.161   4.305   5.605
 3227SOL    HW110580   6.249   4.284   5.647
 3227SOL    HW210581   6.114   4.376   5.657
 3228SOL     OW10582   2.392   4.283   0.194
 3228SOL    HW110583   2.332   4.337   0.253
 3228SOL    HW210584   2.486   4.286   0.230
 3229SOL     OW10585   1.731   1.571   0.750
 3229SOL    HW110586   1.809   1.590   0.810
 3229SOL    HW210587   1.665   1.515   0.799
 3230SOL     OW10588   3.024   6.361   5.189
 3230SOL    HW110589   3.043   6.329   5.096
 3230SOL    HW210590   3.025   6.283   5.251
 3231SOL     OW10591   2.276   2.860   2.364
 3231SOL    HW110592   2.272   2.828   2.458
 3231SOL    HW210593   2.225   2.946   2.356
 3232SOL     OW10594   2.809   4.777   2.893
 3232SOL    HW110595   2.788   4.794   2.990
 3232SOL    HW210596   2.723   4.760   2.844
 3233SOL     OW10597   2.597   0.016   6.834
 3233SOL    HW110598   2.525   0.082   6.858
 3233SOL    HW210599   2.561   6.967   6.770
 3234SOL     OW10600   3.444   3.198   0.937
 3234SOL    HW110601   3.422   3.165   1.028
 3234SOL    HW210602   3.542   3.190   0.921
 3235SOL     OW10603   6.629   1.302   2.929
 3235SOL    HW110604   6.597   1.392   2.899
 3235SOL    HW210605   6.614   1.235   2.856
 3236SOL     OW10606   5.354   0.254   0.615
 3236SOL    HW110607   5.271   0.247   0.670
 3236SOL    HW210608   5.345   0.331   0.552
 3237SOL     OW10609   5.979   1.224   5.151
 3237SOL    HW110610   5.910   1.202   5.219
 3237SOL    HW210611   6.001   1.321   5.155
 3238SOL     OW10612   6.626   4.879   1.618
 3238SOL    HW110613   6.588   4.898   1.709
 3238SOL    HW210614   6.552   4.865   1.553
 3239SOL     OW10615   5.925   0.200   5.007
 3239SOL    HW110616   5.981   0.265   5.058
 3239SOL    HW210617   5.831   0.233   5.003
 3240SOL     OW10618   0.623   1.644   0.781
 3240SOL    HW110619   0.618   1.553   0.823
 3240SOL    HW210620   0.625   1.714   0.853
 3241SOL     OW10621   7.001   3.166   5.258
 3241SOL    HW110622   6.987   3.198   5.164
 3241SOL    HW210623   6.976   3.239   5.322
 3242SOL     OW10624   6.825   4.149   4.743
 3242SOL    HW110625   6.919   4.123   4.760
 3242SOL    HW210626   6.811   4.165   4.645
 3243SOL     OW10627   5.670   5.437   3.906
 3243SOL    HW110628   5.762   5.404   3.883
 3243SOL    HW210629   5.677   5.520   3.960
 3244SOL     OW10630   4.802   6.988   6.712
 3244SOL    HW110631   4.878   0.034   6.718
 3244SOL    HW210632   4.835   6.899   6.679
 3245SOL     OW10633   3.288   6.544   4.436
 3245SOL    HW110634   3.381   6.532   4.471
 3245SOL    HW210635   3.290   6.597   4.351
 3246SOL     OW10636   6.616   5.858   3.135
 3246SOL    HW110637   6.690   5.791   3.145
 3246SOL    HW210638   6.631   5.934   3.199
 3247SOL     OW10639   2.115   4.159   3.996
 3247SOL    HW110640   2.029   4.204   4.020
 3247SOL    HW210641   2.102   4.105   3.913
 3248SOL     OW10642   6.022   2.651   3.596
 3248SOL    HW110643   5.959   2.633   3.672
 3248SOL    HW210644   5.969   2.667   3.512
 3249SOL     OW10645   3.211   4.091   3.983
 3249SOL    HW110646   3.282   4.091   4.053
 3249SOL    HW210647   3.175   4.184   3.972
 3250SOL     OW10648   4.688   6.247   3.666
 3250SOL    HW110649   4.620   6.190   3.713
 3250SOL    HW210650   4.645   6.330   3.631
 3251SOL     OW10651   2.666   2.271   2.373
 3251SOL    HW110652   2.656   2.209   2.451
 3251SOL    HW210653   2.606   2.350   2.385
 3252SOL     OW10654   2.006   1.878   2.919
 3252SOL    HW110655   1.919   1.852   2.960
 3252SOL    HW210656   1.991   1.911   2.826
 3253SOL     OW10657   6.815   4.000   0.083
 3253SOL    HW110658   6.861   4.061   0.148
 3253SOL    HW210659   6.881   3.934   0.047
 3254SOL     OW10660   6.080   6.469   0.389
 3254SOL    HW110661   6.030   6.465   0.475
 3254SOL    HW210662   6.178   6.462   0.406
 3255SOL     OW10663   3.627   5.866   2.077
 3255SOL    HW110664   3.722   5.894   2.067
 3255SOL    HW210665   3.616   5.773   2.044
 3256SOL     OW10666   5.328   2.728   1.448
 3256SOL    HW110667   5.341   2.670   1.367
 3256SOL    HW210668   5.257   2.689   1.507
 3257SOL     OW10669   3.277   1.033   3.247
 3257SOL    HW110670   3.273   1.100   3.173
 3257SOL    HW210671   3.338   0.958   3.220
 3258SOL     OW10672   1.418   5.674   3.912
 3258SOL    HW110673   1.450   5.595   3.964
 3258SOL    HW210674   1.333   5.708   3.952
 3259SOL     OW10675   5.440   4.293   4.383
 3259SOL    HW110676   5.386   4.375   4.404
 3259SOL    HW210677   5.529   4.299   4.427
 3260SOL     OW10678   1.449   4.727   2.883
 3260SOL    HW110679   1.538   4.759   2.852
 3260SOL    HW210680   1.377   4.770   2.828
 3261SOL     OW10681   6.011   6.956   4.449
 3261SOL    HW110682   5.968   6.998   4.369
 3261SOL    HW210683   5.949   6.960   4.526
 3262SOL     OW10684   3.097   1.798   3.454
 3262SOL    HW110685   3.127   1.839   3.368
 3262SOL    HW210686   3.035   1.722   3.435
 3263SOL     OW10687   6.569   0.465   1.279
 3263SOL    HW110688   6.530   0.519   1.354
 3263SOL    HW210689   6.649   0.513   1.242
 3264SOL     OW10690   1.779   4.278   6.793
 3264SOL    HW110691   1.803   4.321   6.706
 3264SOL    HW210692   1.705   4.328   6.837
 3265SOL     OW10693   0.130   5.737   6.322
 3265SOL    HW110694   0.044   5.688   6.335
 3265SOL    HW210695   0.129   5.785   6.234
 3266SOL     OW10696   3.663   4.960   6.312
 3266SOL    HW110697   3.574   4.957   6.266
 3266SOL    HW210698   3.729   5.008   6.255
 3267SOL     OW10699   3.671   6.737   1.091
 3267SOL    HW110700   3.755   6.741   1.038
 3267SOL    HW210701   3.598   6.696   1.036
 3268SOL     OW10702   5.464   4.510   1.732
 3268SOL    HW110703   5.425   4.443   1.669
 3268SOL    HW210704   5.453   4.477   1.826
 3269SOL     OW10705   2.137   5.081   1.621
 3269SOL    HW110706   2.120   5.115   1.529
 3269SOL    HW210707   2.134   4.981   1.621
 3270SOL     OW10708   1.378   2.706   5.849
 3270SOL    HW110709   1.410   2.666   5.763
 3270SOL    HW210710   1.281   2.685   5.862
 3271SOL     OW10711   1.151   3.223   1.025
 3271SOL    HW110712   1.176   3.312   1.061
 3271SOL    HW210713   1.090   3.235   0.946
 3272SOL     OW10714   4.123   6.681   1.024
 3272SOL    HW110715   4.155   6.745   1.094
 3272SOL    HW210716   4.155   6.589   1.046
 3273SOL     OW10717   4.003   3.877   6.583
 3273SOL    HW110718   3.967   3.842   6.496
 3273SOL    HW210719   4.102   3.884   6.577
 3274SOL     OW10720   4.828   6.872   1.771
 3274SOL    HW110721   4.800   6.959   1.731
 3274SOL    HW210722   4.786   6.797   1.721
 3275SOL     OW10723   4.806   0.765   1.632
 3275SOL    HW110724   4.903   0.774   1.608
 3275SOL    HW210725   4.765   0.855   1.637
 3276SOL     OW10726   6.425   5.556   6.897
 3276SOL    HW110727   6.384   5.581   6.809
 3276SOL    HW210728   6.525   5.561   6.889
 3277SOL     OW10729   3.424   1.840   2.419
 3277SOL    HW110730   3.439   1.774   2.493
 3277SOL    HW210731   3.369   1.797   2.348
 3278SOL     OW10732   4.841   0.714   6.118
 3278SOL    HW110733   4.767   0.663   6.162
 3278SOL    HW210734   4.865   0.793   6.175
 3279SOL     OW10735   3.666   0.218   2.413
 3279SOL    HW110736   3.750   0.270   2.427
 3279SOL    HW210737   3.679   0.154   2.337
 3280SOL     OW10738   0.273   3.089   4.134
 3280SOL    HW110739   0.262   3.172   4.189
 3280SOL    HW210740   0.356   3.041   4.163
 3281SOL     OW10741   5.897   2.001   2.268
 3281SOL    HW110742   5.870   2.001   2.172
 3281SOL    HW210743   5.815   2.001   2.326
 3282SOL     OW10744   6.608   4.799   5.498
 3282SOL    HW110745   6.508   4.799   5.496
 3282SOL    HW210746   6.639   4.782   5.592
 3283SOL     OW10747   3.079   1.793   0.412
 3283SOL    HW110748   3.034   1.814   0.499
 3283SOL    HW210749   3.133   1.871   0.382
 3284SOL     OW10750   2.206   0.101   4.910
 3284SOL    HW110751   2.148   0.041   4.964
 3284SOL    HW210752   2.227   0.184   4.962
 3285SOL     OW10753   3.963   2.100   4.210
 3285SOL    HW110754   3.873   2.110   4.168
 3285SOL    HW210755   4.033   2.133   4.146
 3286SOL     OW10756   1.728   3.152   3.127
 3286SOL    HW110757   1.665   3.078   3.102
 3286SOL    HW210758   1.725   3.224   3.058
 3287SOL     OW10759   2.524   0.958   0.932
 3287SOL    HW110760   2.484   1.025   0.869
 3287SOL    HW210761   2.624   0.961   0.924
 3288SOL     OW10762   2.823   5.839   2.383
 3288SOL    HW110763   2.815   5.800   2.292
 3288SOL    HW210764   2.732   5.866   2.415
 3289SOL     OW10765   4.630   0.649   0.042
 3289SOL    HW110766   4.555   0.593   0.007
 3289SOL    HW210767   4.704   0.589   0.073
 3290SOL     OW10768   0.823   5.226   0.295
 3290SOL    HW110769   0.731   5.266   0.297
 3290SOL    HW210770   0.879   5.266   0.368
 3291SOL     OW10771   4.891   6.282   5.172
 3291SOL    HW110772   4.827   6.250   5.103
 3291SOL    HW210773   4.967   6.330   5.128
 3292SOL     OW10774   0.072   2.566   0.074
 3292SOL    HW110775   7.013   2.529   0.126
 3292SOL    HW210776   0.038   2.637   0.012
 3293SOL     OW10777   6.415   4.935   2.859
 3293SOL    HW110778   6.460   4.877   2.926
 3293SOL    HW210779   6.347   4.882   2.809
 3294SOL     OW10780   3.524   2.913   5.790
 3294SOL    HW110781   3.481   2.823   5.785
 3294SOL    HW210782   3.491   2.970   5.715
 3295SOL     OW10783   1.559   2.697   3.020
 3295SOL    HW110784   1.638   2.635   3.019
 3295SOL    HW210785   1.480   2.651   2.979
 3296SOL     OW10786   2.449   0.902   6.822
 3296SOL    HW110787   2.485   0.991   6.849
 3296SOL    HW210788   2.393   0.912   6.740
 3297SOL     OW10789   3.758   0.727   5.355
 3297SOL    HW110790   3.784   0.766   5.266
 3297SOL    HW210791   3.828   0.749   5.423
 3298SOL     OW10792   3.626   4.636   5.459
 3298SOL    HW110793   3.526   4.647   5.456
 3298SOL    HW210794   3.651   4.587   5.543
 3299SOL     OW10795   3.051   6.795   3.786
 3299SOL    HW110796   2.997   6.868   3.828
 3299SOL    HW210797   3.093   6.829   3.702
 3300SOL     OW10798   1.931   0.881   3.562
 3300SOL    HW110799   2.018   0.911   3.522
 3300SOL    HW210800   1.906   0.943   3.636
 3301SOL     OW10801   1.158   1.677   2.834
 3301SOL    HW110802   1.221   1.604   2.858
 3301SOL    HW210803   1.082   1.679   2.900
 3302SOL     OW10804   1.482   5.218   5.354
 3302SOL    HW110805   1.507   5.309   5.320
 3302SOL    HW210806   1.436   5.226   5.442
 3303SOL     OW10807   3.698   3.890   0.585
 3303SOL    HW110808   3.791   3.919   0.564
 3303SOL    HW210809   3.695   3.790   0.593
 3304SOL     OW10810   2.196   4.335   0.364
 3304SOL    HW110811   2.102   4.358   0.338
 3304SOL    HW210812   2.197   4.302   0.459
 3305SOL     OW10813   2.922   2.839   0.157
 3305SOL    HW110814   2.831   2.880   0.167
 3305SOL    HW210815   2.988   2.890   0.213
 3306SOL     OW10816   2.613   0.292   0.543
 3306SOL    HW110817   2.708   0.289   0.512
 3306SOL    HW210818   2.574   0.199   0.541
 3307SOL     OW10819   1.999   5.430   4.393
 3307SOL    HW110820   2.055   5.405   4.472
 3307SOL    HW210821   2.053   5.418   4.310
 3308SOL     OW10822   4.566   5.151   1.483
 3308SOL    HW110823   4.476   5.179   1.516
 3308SOL    HW210824   4.561   5.058   1.446
 3309SOL     OW10825   5.682   3.903   3.274
 3309SOL    HW110826   5.689   3.932   3.369
 3309SOL    HW210827   5.704   3.980   3.214
 3310SOL     OW10828   6.197   4.319   5.966
 3310SOL    HW110829   6.219   4.370   6.049
 3310SOL    HW210830   6.280   4.308   5.911
 3311SOL     OW10831   2.092   3.062   0.257
 3311SOL    HW110832   2.056   2.998   0.326
 3311SOL    HW210833   2.108   3.012   0.171
 3312SOL     OW10834   4.648   3.166   6.741
 3312SOL    HW110835   4.680   3.226   6.667
 3312SOL    HW210836   4.582   3.215   6.798
 3313SOL     OW10837   0.185   0.210   4.421
 3313SOL    HW110838   0.180   0.247   4.514
 3313SOL    HW210839   0.093   0.202   4.383
 3314SOL     OW10840   3.665   6.327   2.961
 3314SOL    HW110841   3.660   6.227   2.965
 3314SOL    HW210842   3.627   6.359   2.874
 3315SOL     OW10843   1.646   6.555   3.968
 3315SOL    HW110844   1.711   6.500   4.020
 3315SOL    HW210845   1.632   6.643   4.014
 3316SOL     OW10846   3.770   2.289   6.933
 3316SOL    HW110847   3.834   2.299   7.009
 3316SOL    HW210848   3.797   2.210   6.878
 3317SOL     OW10849   5.827   2.003   1.460
 3317SOL    HW110850   5.906   2.024   1.403
 3317SOL    HW210851   5.805   1.905   1.451
 3318SOL     OW10852   3.418   3.130   0.419
 3318SOL    HW110853   3.327   3.149   0.381
 3318SOL    HW210854   3.410   3.105   0.515
 3319SOL     OW10855   6.419   6.354   4.085
 3319SOL    HW110856   6.327   6.391   4.092
 3319SOL    HW210857   6.485   6.422   4.118
 3320SOL     OW10858   6.402   0.560   2.256
 3320SOL    HW110859   6.469   0.496   2.292
 3320SOL    HW210860   6.310   0.528   2.280
 3321SOL     OW10861   4.807   1.985   0.064
 3321SOL    HW110862   4.786   2.062   0.004
 3321SOL    HW210863   4.794   2.011   0.159
 3322SOL     OW10864   6.102   2.633   1.260
 3322SOL    HW110865   6.167   2.570   1.217
 3322SOL    HW210866   6.009   2.598   1.248
 3323SOL     OW10867   1.549   1.585   1.425
 3323SOL    HW110868   1.500   1.626   1.502
 3323SOL    HW210869   1.505   1.498   1.401
 3324SOL     OW10870   5.786   5.390   6.111
 3324SOL    HW110871   5.776   5.390   6.012
 3324SOL    HW210872   5.701   5.424   6.153
 3325SOL     OW10873   2.773   5.023   5.386
 3325SOL    HW110874   2.725   4.937   5.366
 3325SOL    HW210875   2.706   5.094   5.405
 3326SOL     OW10876   3.597   2.037   2.196
 3326SOL    HW110877   3.497   2.035   2.199
 3326SOL    HW210878   3.628   2.126   2.162
 3327SOL     OW10879   1.358   5.628   5.835
 3327SOL    HW110880   1.286   5.677   5.884
 3327SOL    HW210881   1.322   5.539   5.805
 3328SOL     OW10882   5.024   2.991   5.379
 3328SOL    HW110883   4.965   3.054   5.428
 3328SOL    HW210884   5.116   2.994   5.418
 3329SOL     OW10885   0.195   6.270   5.632
 3329SOL    HW110886   0.100   6.298   5.624
 3329SOL    HW210887   0.251   6.348   5.662
 3330SOL     OW10888   6.906   3.286   3.252
 3330SOL    HW110889   6.956   3.282   3.338
 3330SOL    HW210890   6.856   3.201   3.238
 3331SOL     OW10891   1.884   3.274   0.736
 3331SOL    HW110892   1.842   3.198   0.785
 3331SOL    HW210893   1.959   3.240   0.679
 3332SOL     OW10894   6.622   4.073   1.334
 3332SOL    HW110895   6.671   3.987   1.327
 3332SOL    HW210896   6.627   4.122   1.247
 3333SOL     OW10897   2.553   5.783   5.832
 3333SOL    HW110898   2.483   5.728   5.877
 3333SOL    HW210899   2.644   5.748   5.857
 3334SOL     OW10900   1.421   3.344   1.232
 3334SOL    HW110901   1.422   3.370   1.136
 3334SOL    HW210902   1.511   3.311   1.259
 3335SOL     OW10903   5.545   4.221   4.798
 3335SOL    HW110904   5.556   4.317   4.772
 3335SOL    HW210905   5.534   4.166   4.715
 3336SOL     OW10906   2.880   6.043   5.809
 3336SOL    HW110907   2.891   6.042   5.908
 3336SOL    HW210908   2.969   6.055   5.765
 3337SOL     OW10909   3.471   1.791   0.825
 3337SOL    HW110910   3.414   1.729   0.879
 3337SOL    HW210911   3.413   1.859   0.779
 3338SOL     OW10912   6.794   4.485   6.990
 3338SOL    HW110913   6.885   4.486   0.015
 3338SOL    HW210914   6.724   4.481   0.042
 3339SOL     OW10915   0.978   5.106   6.057
 3339SOL    HW110916   1.021   5.197   6.057
 3339SOL    HW210917   0.879   5.117   6.062
 3340SOL     OW10918   4.043   0.478   2.203
 3340SOL    HW110919   3.975   0.528   2.150
 3340SOL    HW210920   4.120   0.453   2.144
 3341SOL     OW10921   0.582   6.806   0.688
 3341SOL    HW110922   0.580   6.874   0.761
 3341SOL    HW210923   0.635   6.726   0.719
 3342SOL     OW10924   2.710   0.436   5.324
 3342SOL    HW110925   2.752   0.352   5.287
 3342SOL    HW210926   2.632   0.411   5.381
 3343SOL     OW10927   0.439   2.718   1.496
 3343SOL    HW110928   0.401   2.768   1.418
 3343SOL    HW210929   0.507   2.652   1.464
 3344SOL     OW10930   0.598   2.435   6.177
 3344SOL    HW110931   0.655   2.441   6.095
 3344SOL    HW210932   0.615   2.515   6.234
 3345SOL     OW10933   2.011   3.674   5.188
 3345SOL    HW110934   2.043   3.611   5.260
 3345SOL    HW210935   1.937   3.730   5.224
 3346SOL     OW10936   1.919   5.835   2.619
 3346SOL    HW110937   1.891   5.800   2.530
 3346SOL    HW210938   1.960   5.762   2.672
 3347SOL     OW10939   6.102   3.715   3.632
 3347SOL    HW110940   6.049   3.698   3.715
 3347SOL    HW210941   6.109   3.630   3.579
 3348SOL     OW10942   3.736   3.480   2.855
 3348SOL    HW110943   3.828   3.471   2.894
 3348SOL    HW210944   3.669   3.477   2.929
 3349SOL     OW10945   5.324   3.280   6.317
 3349SOL    HW110946   5.271   3.219   6.258
 3349SOL    HW210947   5.276   3.368   6.326
 3350SOL     OW10948   1.395   2.314   0.849
 3350SOL    HW110949   1.424   2.247   0.918
 3350SOL    HW210950   1.476   2.349   0.801
 3351SOL     OW10951   5.710   2.676   0.499
 3351SOL    HW110952   5.629   2.735   0.502
 3351SOL    HW210953   5.699   2.602   0.565
 3352SOL     OW10954   0.275   3.000   0.199
 3352SOL    HW110955   0.254   2.909   0.235
 3352SOL    HW210956   0.189   3.049   0.181
 3353SOL     OW10957   1.738   6.507   5.985
 3353SOL    HW110958   1.712   6.531   6.078
 3353SOL    HW210959   1.691   6.423   5.958
 3354SOL     OW10960   0.935   0.734   1.869
 3354SOL    HW110961   0.948   0.655   1.809
 3354SOL    HW210962   0.843   0.772   1.854
 3355SOL     OW10963   6.131   1.055   2.607
 3355SOL    HW110964   6.147   1.066   2.706
 3355SOL    HW210965   6.070   1.127   2.575
 3356SOL     OW10966   1.385   3.542   5.606
 3356SOL    HW110967   1.456   3.545   5.677
 3356SOL    HW210968   1.372   3.634   5.568
 3357SOL     OW10969   2.673   5.394   2.216
 3357SOL    HW110970   2.607   5.470   2.211
 3357SOL    HW210971   2.639   5.325   2.280
 3358SOL     OW10972   6.858   4.778   3.723
 3358SOL    HW110973   6.888   4.721   3.647
 3358SOL    HW210974   6.768   4.817   3.702
 3359SOL     OW10975   2.185   1.354   1.961
 3359SOL    HW110976   2.235   1.267   1.956
 3359SOL    HW210977   2.193   1.391   2.054
 3360SOL     OW10978   2.604   0.743   6.469
 3360SOL    HW110979   2.601   0.682   6.549
 3360SOL    HW210980   2.625   0.690   6.387
 3361SOL     OW10981   3.879   1.019   3.138
 3361SOL    HW110982   3.971   1.059   3.139
 3361SOL    HW210983   3.874   0.946   3.207
 3362SOL     OW10984   3.058   1.823   4.133
 3362SOL    HW110985   3.041   1.766   4.053
 3362SOL    HW210986   3.156   1.834   4.147
 3363SOL     OW10987   6.823   0.974   6.211
 3363SOL    HW110988   6.868   1.063   6.198
 3363SOL    HW210989   6.843   0.915   6.133
 3364SOL     OW10990   2.667   5.094   6.126
 3364SOL    HW110991   2.724   5.016   6.153
 3364SOL    HW210992   2.722   5.160   6.076
 3365SOL     OW10993   6.265   2.231   5.689
 3365SOL    HW110994   6.240   2.320   5.729
 3365SOL    HW210995   6.234   2.227   5.595
 3366SOL     OW10996   5.458   1.382   6.859
 3366SOL    HW110997   5.496   1.399   6.950
 3366SOL    HW210998   5.361   1.404   6.859
 3367SOL     OW10999   1.488   0.079   2.392
 3367SOL    HW111000   1.425   0.151   2.422
 3367SOL    HW211001   1.572   0.084   2.446
 3368SOL     OW11002   6.633   1.625   4.979
 3368SOL    HW111003   6.674   1.672   4.900
 3368SOL    HW211004   6.660   1.673   5.062
 3369SOL     OW11005   3.641   6.242   6.462
 3369SOL    HW111006   3.703   6.250   6.385
 3369SOL    HW211007   3.685   6.190   6.535
 3370SOL     OW11008   5.888   6.958   5.797
 3370SOL    HW111009   5.857   6.910   5.715
 3370SOL    HW211010   5.837   0.025   5.808
 3371SOL     OW11011   6.839   4.831   1.350
 3371SOL    HW111012   6.792   4.771   1.414
 3371SOL    HW211013   6.783   4.841   1.267
 3372SOL     OW11014   0.346   2.171   2.743
 3372SOL    HW111015   0.372   2.074   2.751
 3372SOL    HW211016   0.373   2.220   2.825
 3373SOL     OW11017   0.713   2.358   6.807
 3373SOL    HW111018   0.790   2.307   6.767
 3373SOL    HW211019   0.641   2.293   6.833
 3374SOL     OW11020   3.702   5.685   5.549
 3374SOL    HW111021   3.673   5.599   5.591
 3374SOL    HW211022   3.757   5.737   5.614
 3375SOL     OW11023   3.644   3.782   4.608
 3375SOL    HW111024   3.631   3.784   4.707
 3375SOL    HW211025   3.707   3.708   4.585
 3376SOL     OW11026   2.924   3.037   1.843
 3376SOL    HW111027   2.871   3.117   1.816
 3376SOL    HW211028   2.876   2.988   1.916
 3377SOL     OW11029   2.563   5.432   5.443
 3377SOL    HW111030   2.646   5.434   5.499
 3377SOL    HW211031   2.485   5.460   5.498
 3378SOL     OW11032   0.140   1.096   0.585
 3378SOL    HW111033   0.045   1.105   0.555
 3378SOL    HW211034   0.183   1.186   0.590
 3379SOL     OW11035   6.155   4.706   5.659
 3379SOL    HW111036   6.087   4.635   5.675
 3379SOL    HW211037   6.122   4.793   5.696
 3380SOL     OW11038   0.713   3.843   5.127
 3380SOL    HW111039   0.727   3.901   5.208
 3380SOL    HW211040   0.691   3.750   5.156
 3381SOL     OW11041   3.508   2.744   1.654
 3381SOL    HW111042   3.582   2.808   1.633
 3381SOL    HW211043   3.477   2.758   1.748
 3382SOL     OW11044   6.963   6.650   6.708
 3382SOL    HW111045   6.944   6.579   6.776
 3382SOL    HW211046   0.007   6.614   6.638
 3383SOL     OW11047   0.908   4.442   1.808
 3383SOL    HW111048   0.984   4.423   1.746
 3383SOL    HW211049   0.825   4.460   1.755
 3384SOL     OW11050   3.014   3.118   4.659
 3384SOL    HW111051   3.057   3.043   4.708
 3384SOL    HW211052   3.083   3.185   4.633
 3385SOL     OW11053   6.522   4.536   4.011
 3385SOL    HW111054   6.614   4.563   3.982
 3385SOL    HW211055   6.528   4.483   4.095
 3386SOL     OW11056   6.192   3.902   4.916
 3386SOL    HW111057   6.198   3.998   4.889
 3386SOL    HW211058   6.141   3.851   4.847
 3387SOL     OW11059   3.339   2.098   3.004
 3387SOL    HW111060   3.240   2.100   2.990
 3387SOL    HW211061   3.385   2.091   2.916
 3388SOL     OW11062   5.475   2.384   1.570
 3388SOL    HW111063   5.555   2.333   1.539
 3388SOL    HW211064   5.392   2.330   1.554
 3389SOL     OW11065   4.128   5.222   2.774
 3389SOL    HW111066   4.197   5.191   2.709
 3389SOL    HW211067   4.147   5.182   2.864
 3390SOL     OW11068   4.696   2.462   5.989
 3390SOL    HW111069   4.789   2.490   5.965
 3390SOL    HW211070   4.636   2.543   5.989
 3391SOL     OW11071   3.484   2.083   3.903
 3391SOL    HW111072   3.545   2.004   3.906
 3391SOL    HW211073   3.411   2.067   3.836
 3392SOL     OW11074   4.706   5.943   3.156
 3392SOL    HW111075   4.694   5.960   3.254
 3392SOL    HW211076   4.746   6.023   3.113
 3393SOL     OW11077   0.240   0.529   0.244
 3393SOL    HW111078   0.246   0.601   0.313
 3393SOL    HW211079   0.312   0.462   0.259
 3394SOL     OW11080   5.791   1.515   2.351
 3394SOL    HW111081   5.786   1.595   2.411
 3394SOL    HW211082   5.705   1.465   2.355
 3395SOL     OW11083   1.038   3.781   5.343
 3395SOL    HW111084   1.041   3.823   5.252
 3395SOL    HW211085   1.115   3.718   5.353
 3396SOL     OW11086   6.162   3.529   4.566
 3396SOL    HW111087   6.179   3.571   4.477
 3396SOL    HW211088   6.237   3.468   4.590
 3397SOL     OW11089   3.287   6.064   6.394
 3397SOL    HW111090   3.265   6.063   6.492
 3397SOL    HW211091   3.219   6.118   6.345
 3398SOL     OW11092   0.712   0.903   3.051
 3398SOL    HW111093   0.674   0.853   2.973
 3398SOL    HW211094   0.744   0.838   3.120
 3399SOL     OW11095   4.352   5.433   5.146
 3399SOL    HW111096   4.259   5.400   5.133
 3399SOL    HW211097   4.351   5.515   5.203
 3400SOL     OW11098   5.110   2.529   6.903
 3400SOL    HW111099   5.078   2.459   6.967
 3400SOL    HW211100   5.048   2.608   6.906
 3401SOL     OW11101   6.851   4.320   6.636
 3401SOL    HW111102   6.786   4.315   6.711
 3401SOL    HW211103   6.852   4.413   6.599
 3402SOL     OW11104   5.399   5.105   2.384
 3402SOL    HW111105   5.467   5.159   2.435
 3402SOL    HW211106   5.332   5.167   2.344
 3403SOL     OW11107   2.921   2.137   5.056
 3403SOL    HW111108   3.003   2.194   5.048
 3403SOL    HW211109   2.925   2.063   4.988
 3404SOL     OW11110   4.663   0.272   1.520
 3404SOL    HW111111   4.576   0.251   1.565
 3404SOL    HW211112   4.665   0.369   1.495
 3405SOL     OW11113   5.880   3.767   0.288
 3405SOL    HW111114   5.914   3.681   0.252
 3405SOL    HW211115   5.903   3.841   0.226
 3406SOL     OW11116   0.858   4.334   1.210
 3406SOL    HW111117   0.799   4.410   1.182
 3406SOL    HW211118   0.844   4.256   1.150
 3407SOL     OW11119   1.584   5.135   2.903
 3407SOL    HW111120   1.635   5.086   2.974
 3407SOL    HW211121   1.630   5.124   2.815
 3408SOL     OW11122   5.283   3.754   2.788
 3408SOL    HW111123   5.293   3.823   2.860
 3408SOL    HW211124   5.200   3.773   2.736
 3409SOL     OW11125   2.925   1.093   5.396
 3409SOL    HW111126   2.949   1.050   5.309
 3409SOL    HW211127   2.902   1.022   5.462
 3410SOL     OW11128   0.107   1.016   0.231
 3410SOL    HW111129   0.185   0.953   0.228
 3410SOL    HW211130   0.035   0.977   0.288
 3411SOL     OW11131   4.289   2.380   2.460
 3411SOL    HW111132   4.353   2.457   2.454
 3411SOL    HW211133   4.320   2.306   2.400
 3412SOL     OW11134   4.082   5.592   6.863
 3412SOL    HW111135   4.097   5.541   6.948
 3412SOL    HW211136   4.001   5.648   6.872
 3413SOL     OW11137   4.505   1.553   2.386
 3413SOL    HW111138   4.554   1.638   2.366
 3413SOL    HW211139   4.428   1.543   2.324
 3414SOL     OW11140   3.609   1.209   5.432
 3414SOL    HW111141   3.602   1.266   5.514
 3414SOL    HW211142   3.589   1.114   5.455
 3415SOL     OW11143   1.151   5.357   4.657
 3415SOL    HW111144   1.146   5.457   4.647
 3415SOL    HW211145   1.076   5.315   4.606
 3416SOL     OW11146   2.866   4.738   6.528
 3416SOL    HW111147   2.777   4.707   6.562
 3416SOL    HW211148   2.864   4.741   6.428
 3417SOL     OW11149   5.924   1.092   1.235
 3417SOL    HW111150   6.023   1.099   1.242
 3417SOL    HW211151   5.900   1.023   1.167
 3418SOL     OW11152   3.037   2.444   6.025
 3418SOL    HW111153   2.997   2.502   6.096
 3418SOL    HW211154   3.122   2.404   6.059
 3419SOL     OW11155   4.742   3.798   0.205
 3419SOL    HW111156   4.727   3.734   0.280
 3419SOL    HW211157   4.663   3.796   0.143
 3420SOL     OW11158   4.252   1.641   3.792
 3420SOL    HW111159   4.209   1.732   3.792
 3420SOL    HW211160   4.182   1.571   3.777
 3421SOL     OW11161   0.062   6.603   2.940
 3421SOL    HW111162   0.093   6.555   3.022
 3421SOL    HW211163   0.128   6.590   2.866
 3422SOL     OW11164   3.145   2.135   2.482
 3422SOL    HW111165   3.168   2.082   2.400
 3422SOL    HW211166   3.075   2.203   2.459
 3423SOL     OW11167   2.850   0.372   1.756
 3423SOL    HW111168   2.884   0.466   1.758
 3423SOL    HW211169   2.855   0.333   1.849
 3424SOL     OW11170   4.382   0.874   2.273
 3424SOL    HW111171   4.431   0.844   2.191
 3424SOL    HW211172   4.322   0.801   2.306
 3425SOL     OW11173   4.611   3.955   1.508
 3425SOL    HW111174   4.535   4.009   1.545
 3425SOL    HW211175   4.698   3.993   1.542
 3426SOL     OW11176   4.612   3.895   0.746
 3426SOL    HW111177   4.536   3.830   0.750
 3426SOL    HW211178   4.578   3.986   0.772
 3427SOL     OW11179   1.360   1.469   0.550
 3427SOL    HW111180   1.406   1.380   0.548
 3427SOL    HW211181   1.290   1.469   0.622
 3428SOL     OW11182   4.053   4.819   3.391
 3428SOL    HW111183   4.014   4.795   3.480
 3428SOL    HW211184   3.999   4.894   3.351
 3429SOL     OW11185   0.022   2.717   0.482
 3429SOL    HW111186   0.095   2.650   0.497
 3429SOL    HW211187   6.959   2.670   0.449
 3430SOL     OW11188   1.298   5.142   6.571
 3430SOL    HW111189   1.208   5.175   6.600
 3430SOL    HW211190   1.355   5.220   6.547
 3431SOL     OW11191   1.620   6.301   6.595
 3431SOL    HW111192   1.522   6.318   6.603
 3431SOL    HW211193   1.670   6.371   6.646
 3432SOL     OW11194   2.640   2.104   6.904
 3432SOL    HW111195   2.632   2.146   6.813
 3432SOL    HW211196   2.555   2.055   6.925
 3433SOL     OW11197   5.073   0.993   4.402
 3433SOL    HW111198   5.125   0.923   4.353
 3433SOL    HW211199   5.050   0.960   4.494
 3434SOL     OW11200   4.311   1.979   3.447
 3434SOL    HW111201   4.299   2.038   3.367
 3434SOL    HW211202   4.369   2.026   3.514
 3435SOL     OW11203   0.527   1.069   6.956
 3435SOL    HW111204   0.599   1.050   0.005
 3435SOL    HW211205   0.565   1.062   6.864
 3436SOL     OW11206   4.671   0.096   3.436
 3436SOL    HW111207   4.687   0.182   3.483
 3436SOL    HW211208   4.593   0.105   3.374
 3437SOL     OW11209   4.727   0.783   6.833
 3437SOL    HW111210   4.720   0.752   6.928
 3437SOL    HW211211   4.730   0.704   6.773
 3438SOL     OW11212   1.243   4.675   6.735
 3438SOL    HW111213   1.304   4.721   6.670
 3438SOL    HW211214   1.294   4.649   6.817
 3439SOL     OW11215   2.517   0.162   3.607
 3439SOL    HW111216   2.514   0.243   3.666
 3439SOL    HW211217   2.461   0.177   3.526
 3440SOL     OW11218   3.234   2.599   0.755
 3440SOL    HW111219   3.134   2.597   0.755
 3440SOL    HW211220   3.268   2.557   0.839
 3441SOL     OW11221   4.184   0.390   4.512
 3441SOL    HW111222   4.155   0.463   4.574
 3441SOL    HW211223   4.282   0.374   4.522
 3442SOL     OW11224   0.812   4.845   3.392
 3442SOL    HW111225   0.881   4.912   3.419
 3442SOL    HW211226   0.797   4.780   3.467
 3443SOL     OW11227   5.887   6.850   3.948
 3443SOL    HW111228   5.790   6.872   3.953
 3443SOL    HW211229   5.933   6.910   3.883
 3444SOL     OW11230   4.576   4.804   0.344
 3444SOL    HW111231   4.674   4.813   0.325
 3444SOL    HW211232   4.525   4.814   0.258
 3445SOL     OW11233   5.502   4.961   4.439
 3445SOL    HW111234   5.495   4.865   4.466
 3445SOL    HW211235   5.568   5.008   4.496
 3446SOL     OW11236   3.237   6.300   2.900
 3446SOL    HW111237   3.178   6.369   2.859
 3446SOL    HW211238   3.245   6.222   2.838
 3447SOL     OW11239   6.390   4.638   5.791
 3447SOL    HW111240   6.382   4.630   5.891
 3447SOL    HW211241   6.300   4.656   5.752
 3448SOL     OW11242   3.251   2.704   1.054
 3448SOL    HW111243   3.346   2.706   1.025
 3448SOL    HW211244   3.216   2.611   1.047
 3449SOL     OW11245   6.492   6.159   3.008
 3449SOL    HW111246   6.485   6.256   3.031
 3449SOL    HW211247   6.588   6.131   3.012
 3450SOL     OW11248   0.849   1.910   1.161
 3450SOL    HW111249   0.858   2.003   1.197
 3450SOL    HW211250   0.936   1.862   1.171
 3451SOL     OW11251   1.541   4.908   4.209
 3451SOL    HW111252   1.588   4.865   4.132
 3451SOL    HW211253   1.444   4.883   4.208
 3452SOL     OW11254   6.783   2.009   0.745
 3452SOL    HW111255   6.876   2.046   0.739
 3452SOL    HW211256   6.769   1.941   0.673
 3453SOL     OW11257   5.947   6.559   5.853
 3453SOL    HW111258   5.973   6.588   5.761
 3453SOL    HW211259   5.900   6.634   5.899
 3454SOL     OW11260   1.336   1.245   0.315
 3454SOL    HW111261   1.294   1.167   0.267
 3454SOL    HW211262   1.424   1.216   0.354
 3455SOL     OW11263   2.225   2.957   4.086
 3455SOL    HW111264   2.155   2.886   4.076
 3455SOL    HW211265   2.203   3.035   4.027
 3456SOL     OW11266   6.504   6.881   0.725
 3456SOL    HW111267   6.531   6.837   0.810
 3456SOL    HW211268   6.424   6.939   0.742
 3457SOL     OW11269   2.094   6.772   3.670
 3457SOL    HW111270   2.060   6.682   3.699
 3457SOL    HW211271   2.179   6.761   3.619
 3458SOL     OW11272   5.058   5.180   0.772
 3458SOL    HW111273   5.089   5.085   0.763
 3458SOL    HW211274   5.127   5.233   0.822
 3459SOL     OW11275   6.827   6.399   3.377
 3459SOL    HW111276   6.746   6.351   3.410
 3459SOL    HW211277   6.801   6.459   3.301
 3460SOL     OW11278   3.280   3.288   5.744
 3460SOL    HW111279   3.227   3.202   5.743
 3460SOL    HW211280   3.228   3.358   5.791
 3461SOL     OW11281   2.394   5.596   3.137
 3461SOL    HW111282   2.447   5.663   3.188
 3461SOL    HW211283   2.434   5.505   3.149
 3462SOL     OW11284   5.076   2.687   2.851
 3462SOL    HW111285   5.058   2.720   2.758
 3462SOL    HW211286   5.168   2.648   2.856
 3463SOL     OW11287   1.751   2.521   1.418
 3463SOL    HW111288   1.849   2.504   1.430
 3463SOL    HW211289   1.729   2.515   1.320
 3464SOL     OW11290   5.202   2.261   6.190
 3464SOL    HW111291   5.177   2.340   6.246
 3464SOL    HW211292   5.185   2.282   6.093
 3465SOL     OW11293   2.168   4.779   1.631
 3465SOL    HW111294   2.253   4.748   1.673
 3465SOL    HW211295   2.095   4.713   1.651
 3466SOL     OW11296   6.201   4.261   3.795
 3466SOL    HW111297   6.240   4.307   3.715
 3466SOL    HW211298   6.196   4.326   3.871
 3467SOL     OW11299   2.714   2.978   1.162
 3467SOL    HW111300   2.750   2.917   1.091
 3467SOL    HW211301   2.668   3.055   1.119
 3468SOL     OW11302   3.714   1.714   0.727
 3468SOL    HW111303   3.640   1.754   0.782
 3468SOL    HW211304   3.677   1.674   0.644
 3469SOL     OW11305   3.734   5.815   5.780
 3469SOL    HW111306   3.803   5.759   5.826
 3469SOL    HW211307   3.722   5.901   5.831
 3470SOL     OW11308   0.890   2.506   1.798
 3470SOL    HW111309   0.894   2.566   1.718
 3470SOL    HW211310   0.979   2.460   1.809
 3471SOL     OW11311   4.786   2.931   5.218
 3471SOL    HW111312   4.799   3.023   5.182
 3471SOL    HW211313   4.861   2.908   5.281
 3472SOL     OW11314   4.446   1.542   3.077
 3472SOL    HW111315   4.381   1.617   3.066
 3472SOL    HW211316   4.451   1.489   2.992
 3473SOL     OW11317   5.957   4.671   2.076
 3473SOL    HW111318   6.018   4.730   2.128
 3473SOL    HW211319   6.007   4.591   2.044
 3474SOL     OW11320   5.171   4.691   3.832
 3474SOL    HW111321   5.140   4.767   3.775
 3474SOL    HW211322   5.180   4.609   3.776
 3475SOL     OW11323   0.070   4.733   3.895
 3475SOL    HW111324   7.000   4.746   3.850
 3475SOL    HW211325   0.060   4.665   3.967
 3476SOL     OW11326   1.682   1.490   3.149
 3476SOL    HW111327   1.598   1.540   3.125
 3476SOL    HW211328   1.691   1.489   3.249
 3477SOL     OW11329   0.605   4.333   1.811
 3477SOL    HW111330   0.625   4.296   1.901
 3477SOL    HW211331   0.641   4.271   1.741
 3478SOL     OW11332   2.482   0.714   1.262
 3478SOL    HW111333   2.422   0.793   1.268
 3478SOL    HW211334   2.528   0.700   1.350
 3479SOL     OW11335   1.688   4.865   4.684
 3479SOL    HW111336   1.680   4.963   4.700
 3479SOL    HW211337   1.620   4.816   4.739
 3480SOL     OW11338   1.568   4.811   6.577
 3480SOL    HW111339   1.478   4.832   6.539
 3480SOL    HW211340   1.620   4.896   6.587
 3481SOL     OW11341   5.974   0.543   4.748
 3481SOL    HW111342   6.013   0.464   4.702
 3481SOL    HW211343   5.883   0.520   4.783
 3482SOL     OW11344   5.555   3.132   6.335
 3482SOL    HW111345   5.547   3.142   6.434
 3482SOL    HW211346   5.481   3.181   6.290
 3483SOL     OW11347   5.465   2.884   5.475
 3483SOL    HW111348   5.415   2.971   5.470
 3483SOL    HW211349   5.400   2.810   5.492
 3484SOL     OW11350   0.962   3.845   4.920
 3484SOL    HW111351   0.989   3.749   4.914
 3484SOL    HW211352   0.894   3.856   4.993
 3485SOL     OW11353   6.634   2.949   6.522
 3485SOL    HW111354   6.639   2.973   6.425
 3485SOL    HW211355   6.670   2.857   6.535
 3486SOL     OW11356   1.878   6.617   5.770
 3486SOL    HW111357   1.815   6.584   5.840
 3486SOL    HW211358   1.949   6.673   5.812
 3487SOL     OW11359   4.340   1.189   6.723
 3487SOL    HW111360   4.413   1.255   6.703
 3487SOL    HW211361   4.375   1.097   6.705
 3488SOL     OW11362   5.644   0.105   4.682
 3488SOL    HW111363   5.594   0.083   4.598
 3488SOL    HW211364   5.588   0.163   4.740
 3489SOL     OW11365   3.045   6.272   1.337
 3489SOL    HW111366   3.092   6.224   1.412
 3489SOL    HW211367   2.980   6.337   1.376
 3490SOL     OW11368   3.381   6.949   0.694
 3490SOL    HW111369   3.440   6.990   0.763
 3490SOL    HW211370   3.369   6.852   0.714
 3491SOL     OW11371   4.101   4.893   6.058
 3491SOL    HW111372   4.145   4.965   6.111
 3491SOL    HW211373   4.068   4.932   5.971
 3492SOL     OW11374   5.918   4.418   3.016
 3492SOL    HW111375   5.913   4.341   2.953
 3492SOL    HW211376   6.010   4.422   3.057
 3493SOL     OW11377   6.937   2.919   5.478
 3493SOL    HW111378   0.006   2.954   5.444
 3493SOL    HW211379   6.881   2.995   5.511
 3494SOL     OW11380   4.063   1.854   2.389
 3494SOL    HW111381   3.971   1.835   2.355
 3494SOL    HW211382   4.065   1.944   2.431
 3495SOL     OW11383   1.245   3.485   3.098
 3495SOL    HW111384   1.255   3.397   3.144
 3495SOL    HW211385   1.335   3.527   3.085
 3496SOL     OW11386   5.849   5.043   1.462
 3496SOL    HW111387   5.904   4.966   1.496
 3496SOL    HW211388   5.902   5.095   1.395
 3497SOL     OW11389   3.041   6.856   2.560
 3497SOL    HW111390   2.998   6.848   2.650
 3497SOL    HW211391   2.982   6.812   2.492
 3498SOL     OW11392   2.180   2.543   1.526
 3498SOL    HW111393   2.192   2.475   1.597
 3498SOL    HW211394   2.113   2.611   1.556
 3499SOL     OW11395   6.083   6.370   4.635
 3499SOL    HW111396   6.086   6.454   4.581
 3499SOL    HW211397   6.170   6.358   4.682
 3500SOL     OW11398   2.083   2.295   4.442
 3500SOL    HW111399   2.040   2.380   4.411
 3500SOL    HW211400   2.068   2.284   4.540
 3501SOL     OW11401   1.303   6.963   5.604
 3501SOL    HW111402   1.318   0.039   5.574
 3501SOL    HW211403   1.321   6.956   5.703
 3502SOL     OW11404   4.576   2.546   2.476
 3502SOL    HW111405   4.626   2.609   2.417
 3502SOL    HW211406   4.565   2.586   2.567
 3503SOL     OW11407   6.921   5.918   6.577
 3503SOL    HW111408   6.928   5.821   6.600
 3503SOL    HW211409   6.912   5.972   6.662
 3504SOL     OW11410   1.692   0.386   0.289
 3504SOL    HW111411   1.754   0.404   0.365
 3504SOL    HW211412   1.601   0.364   0.324
 3505SOL     OW11413   4.787   4.100   6.039
 3505SOL    HW111414   4.750   4.187   6.070
 3505SOL    HW211415   4.785   4.097   5.939
 3506SOL     OW11416   4.354   5.144   4.853
 3506SOL    HW111417   4.368   5.114   4.947
 3506SOL    HW211418   4.426   5.209   4.827
 3507SOL     OW11419   3.070   1.196   0.593
 3507SOL    HW111420   3.020   1.164   0.674
 3507SOL    HW211421   3.168   1.180   0.606
 3508SOL     OW11422   3.385   1.384   5.211
 3508SOL    HW111423   3.383   1.413   5.115
 3508SOL    HW211424   3.480   1.376   5.241
 3509SOL     OW11425   3.692   5.598   6.334
 3509SOL    HW111426   3.684   5.511   6.384
 3509SOL    HW211427   3.607   5.615   6.284
 3510SOL     OW11428   2.701   1.368   0.797
 3510SOL    HW111429   2.666   1.309   0.724
 3510SOL    HW211430   2.628   1.385   0.863
 3511SOL     OW11431   2.829   4.425   1.624
 3511SOL    HW111432   2.848   4.460   1.716
 3511SOL    HW211433   2.913   4.427   1.570
 3512SOL     OW11434   0.093   5.736   5.395
 3512SOL    HW111435   0.109   5.809   5.329
 3512SOL    HW211436   0.101   5.772   5.488
 3513SOL     OW11437   5.923   1.547   0.920
 3513SOL    HW111438   6.019   1.577   0.914
 3513SOL    HW211439   5.863   1.623   0.894
 3514SOL     OW11440   3.572   1.632   1.878
 3514SOL    HW111441   3.535   1.709   1.825
 3514SOL    HW211442   3.501   1.563   1.891
 3515SOL     OW11443   0.394   5.328   4.377
 3515SOL    HW111444   0.354   5.296   4.463
 3515SOL    HW211445   0.484   5.286   4.365
 3516SOL     OW11446   5.107   0.651   1.402
 3516SOL    HW111447   5.037   0.591   1.364
 3516SOL    HW211448   5.198   0.616   1.379
 3517SOL     OW11449   5.938   0.508   1.394
 3517SOL    HW111450   5.855   0.460   1.424
 3517SOL    HW211451   5.915   0.603   1.372
 3518SOL     OW11452   5.406   0.455   5.055
 3518SOL    HW111453   5.496   0.451   5.013
 3518SOL    HW211454   5.354   0.531   5.017
 3519SOL     OW11455   3.265   0.559   1.077
 3519SOL    HW111456   3.202   0.483   1.062
 3519SOL    HW211457   3.353   0.539   1.034
 3520SOL     OW11458   2.525   6.045   4.650
 3520SOL    HW111459   2.437   6.074   4.687
 3520SOL    HW211460   2.515   5.955   4.607
 3521SOL     OW11461   2.580   3.173   6.209
 3521SOL    HW111462   2.500   3.152   6.266
 3521SOL    HW211463   2.640   3.236   6.258
 3522SOL     OW11464   0.930   6.235   6.037
 3522SOL    HW111465   0.844   6.221   5.989
 3522SOL    HW211466   0.918   6.302   6.110
 3523SOL     OW11467   2.062   6.217   0.017
 3523SOL    HW111468   1.970   6.179   0.007
 3523SOL    HW211469   2.102   6.229   6.944
 3524SOL     OW11470   4.866   1.370   3.899
 3524SOL    HW111471   4.777   1.416   3.897
 3524SOL    HW211472   4.897   1.363   3.994
 3525SOL     OW11473   0.127   3.282   2.872
 3525SOL    HW111474   0.073   3.364   2.890
 3525SOL    HW211475   0.195   3.270   2.943
 3526SOL     OW11476   7.014   6.573   2.274
 3526SOL    HW111477   6.984   6.660   2.314
 3526SOL    HW211478   0.094   6.562   2.286
 3527SOL     OW11479   0.522   2.473   6.653
 3527SOL    HW111480   0.569   2.456   6.740
 3527SOL    HW211481   0.583   2.451   6.577
 3528SOL     OW11482   2.491   5.844   4.299
 3528SOL    HW111483   2.591   5.850   4.298
 3528SOL    HW211484   2.454   5.894   4.221
 3529SOL     OW11485   4.700   4.888   0.971
 3529SOL    HW111486   4.672   4.937   0.889
 3529SOL    HW211487   4.795   4.859   0.962
 3530SOL     OW11488   6.237   6.617   0.818
 3530SOL    HW111489   6.224   6.678   0.896
 3530SOL    HW211490   6.303   6.546   0.842
 3531SOL     OW11491   4.314   2.464   0.554
 3531SOL    HW111492   4.414   2.469   0.557
 3531SOL    HW211493   4.275   2.539   0.607
 3532SOL     OW11494   2.003   1.063   1.863
 3532SOL    HW111495   2.071   1.003   1.821
 3532SOL    HW211496   1.924   1.008   1.892
 3533SOL     OW11497   1.023   1.607   3.067
 3533SOL    HW111498   0.928   1.631   3.088
 3533SOL    HW211499   1.069   1.577   3.151
 3534SOL     OW11500   6.992   1.218   0.833
 3534SOL    HW111501   6.922   1.249   0.898
 3534SOL    HW211502   7.012   1.122   0.850
 3535SOL     OW11503   2.778   5.809   4.347
 3535SOL    HW111504   2.862   5.816   4.292
 3535SOL    HW211505   2.802   5.787   4.441
 3536SOL     OW11506   3.776   1.920   2.950
 3536SOL    HW111507   3.750   1.989   3.018
 3536SOL    HW211508   3.754   1.954   2.859
 3537SOL     OW11509   1.785   0.025   3.378
 3537SOL    HW111510   1.752   0.055   3.467
 3537SOL    HW211511   1.882   0.047   3.370
 3538SOL     OW11512   2.901   5.651   2.797
 3538SOL    HW111513   2.934   5.571   2.847
 3538SOL    HW211514   2.935   5.648   2.703
 3539SOL     OW11515   3.610   3.510   4.311
 3539SOL    HW111516   3.537   3.578   4.324
 3539SOL    HW211517   3.672   3.542   4.239
 3540SOL     OW11518   1.825   2.272   3.153
 3540SOL    HW111519   1.784   2.360   3.127
 3540SOL    HW211520   1.923   2.275   3.134
 3541SOL     OW11521   3.659   4.080   4.086
 3541SOL    HW111522   3.699   4.131   4.010
 3541SOL    HW211523   3.729   4.067   4.157
 3542SOL     OW11524   6.802   5.183   1.259
 3542SOL    HW111525   6.872   5.114   1.281
 3542SOL    HW211526   6.789   5.242   1.338
 3543SOL     OW11527   5.968   3.196   5.021
 3543SOL    HW111528   6.001   3.253   4.946
 3543SOL    HW211529   5.881   3.153   4.994
 3544SOL     OW11530   1.674   6.466   6.839
 3544SOL    HW111531   1.767   6.453   6.805
 3544SOL    HW211532   1.660   6.562   6.863
 3545SOL     OW11533   3.073   5.017   0.425
 3545SOL    HW111534   2.998   4.965   0.466
 3545SOL    HW211535   3.153   4.958   0.412
 3546SOL     OW11536   6.921   4.836   2.321
 3546SOL    HW111537   6.988   4.806   2.389
 3546SOL    HW211538   6.833   4.852   2.365
 3547SOL     OW11539   4.957   4.615   4.480
 3547SOL    HW111540   4.969   4.565   4.566
 3547SOL    HW211541   4.967   4.713   4.497
 3548SOL     OW11542   4.692   3.420   5.362
 3548SOL    HW111543   4.599   3.394   5.388
 3548SOL    HW211544   4.689   3.480   5.282
 3549SOL     OW11545   6.074   3.273   2.374
 3549SOL    HW111546   6.018   3.194   2.347
 3549SOL    HW211547   6.124   3.251   2.457
 3550SOL     OW11548   5.803   1.969   3.104
 3550SOL    HW111549   5.743   1.897   3.070
 3550SOL    HW211550   5.748   2.048   3.131
 3551SOL     OW11551   2.236   6.910   2.746
 3551SOL    HW111552   2.142   6.900   2.713
 3551SOL    HW211553   2.260   6.832   2.803
 3552SOL     OW11554   6.829   4.812   3.430
 3552SOL    HW111555   6.849   4.718   3.461
 3552SOL    HW211556   6.914   4.864   3.428
 3553SOL     OW11557   5.845   2.127   3.478
 3553SOL    HW111558   5.896   2.169   3.402
 3553SOL    HW211559   5.801   2.198   3.532
 3554SOL     OW11560   3.868   5.766   6.848
 3554SOL    HW111561   3.814   5.761   6.764
 3554SOL    HW211562   3.934   5.840   6.841
 3555SOL     OW11563   0.061   2.302   3.449
 3555SOL    HW111564   0.148   2.350   3.441
 3555SOL    HW211565   7.013   2.343   3.386
 3556SOL     OW11566   4.582   0.906   6.384
 3556SOL    HW111567   4.553   0.998   6.359
 3556SOL    HW211568   4.596   0.902   6.483
 3557SOL     OW11569   0.578   0.292   4.360
 3557SOL    HW111570   0.627   0.212   4.394
 3557SOL    HW211571   0.517   0.328   4.431
 3558SOL     OW11572   6.978   5.735   2.030
 3558SOL    HW111573   6.957   5.765   2.123
 3558SOL    HW211574   6.895   5.700   1.987
 3559SOL     OW11575   1.043   0.488   5.441
 3559SOL    HW111576   0.997   0.452   5.360
 3559SOL    HW211577   1.015   0.583   5.456
 3560SOL     OW11578   6.479   6.272   1.866
 3560SOL    HW111579   6.574   6.250   1.884
 3560SOL    HW211580   6.454   6.355   1.916
 3561SOL     OW11581   4.944   4.434   3.741
 3561SOL    HW111582   4.989   4.349   3.766
 3561SOL    HW211583   4.998   4.481   3.671
 3562SOL     OW11584   4.050   2.203   3.391
 3562SOL    HW111585   4.070   2.203   3.293
 3562SOL    HW211586   4.112   2.265   3.439
 3563SOL     OW11587   5.057   0.278   1.441
 3563SOL    HW111588   5.156   0.271   1.428
 3563SOL    HW211589   5.033   0.243   1.532
 3564SOL     OW11590   7.002   4.564   3.135
 3564SOL    HW111591   0.073   4.605   3.118
 3564SOL    HW211592   6.930   4.631   3.114
 3565SOL     OW11593   1.625   0.620   5.570
 3565SOL    HW111594   1.663   0.533   5.601
 3565SOL    HW211595   1.567   0.605   5.489
 3566SOL     OW11596   0.722   4.590   6.523
 3566SOL    HW111597   0.722   4.685   6.554
 3566SOL    HW211598   0.784   4.581   6.445
 3567SOL     OW11599   0.305   2.867   1.297
 3567SOL    HW111600   0.295   2.888   1.199
 3567SOL    HW211601   0.249   2.931   1.350
 3568SOL     OW11602   4.791   4.107   3.666
 3568SOL    HW111603   4.748   4.019   3.684
 3568SOL    HW211604   4.781   4.166   3.746
 3569SOL     OW11605   4.126   3.620   3.824
 3569SOL    HW111606   4.094   3.635   3.918
 3569SOL    HW211607   4.214   3.574   3.825
 3570SOL     OW11608   0.419   1.531   5.441
 3570SOL    HW111609   0.330   1.575   5.440
 3570SOL    HW211610   0.482   1.580   5.380
 3571SOL     OW11611   2.502   6.973   4.472
 3571SOL    HW111612   2.465   6.921   4.395
 3571SOL    HW211613   2.428   7.001   4.532
 3572SOL     OW11614   5.227   3.641   1.794
 3572SOL    HW111615   5.204   3.608   1.886
 3572SOL    HW211616   5.320   3.613   1.771
 3573SOL     OW11617   0.200   4.905   3.723
 3573SOL    HW111618   0.160   4.824   3.765
 3573SOL    HW211619   0.286   4.881   3.678
 3574SOL     OW11620   1.754   1.800   5.695
 3574SOL    HW111621   1.776   1.860   5.772
 3574SOL    HW211622   1.744   1.854   5.612
 3575SOL     OW11623   5.172   7.017   6.706
 3575SOL    HW111624   5.156   6.984   6.613
 3575SOL    HW211625   5.270   0.010   6.721
 3576SOL     OW11626   1.457   2.938   0.474
 3576SOL    HW111627   1.448   3.038   0.469
 3576SOL    HW211628   1.444   2.899   0.383
 3577SOL     OW11629   1.656   2.753   4.706
 3577SOL    HW111630   1.747   2.783   4.677
 3577SOL    HW211631   1.591   2.827   4.691
 3578SOL     OW11632   3.611   2.643   6.362
 3578SOL    HW111633   3.539   2.713   6.354
 3578SOL    HW211634   3.644   2.619   6.271
 3579SOL     OW11635   0.973   4.001   1.509
 3579SOL    HW111636   0.887   3.952   1.524
 3579SOL    HW211637   0.967   4.053   1.423
 3580SOL     OW11638   6.981   4.314   1.995
 3580SOL    HW111639   6.904   4.252   1.993
 3580SOL    HW211640   0.015   4.306   1.910
 3581SOL     OW11641   1.125   0.736   2.722
 3581SOL    HW111642   1.223   0.734   2.746
 3581SOL    HW211643   1.099   0.829   2.695
 3582SOL     OW11644   4.251   5.703   6.676
 3582SOL    HW111645   4.252   5.803   6.680
 3582SOL    HW211646   4.204   5.666   6.756
 3583SOL     OW11647   1.650   5.329   1.408
 3583SOL    HW111648   1.589   5.403   1.436
 3583SOL    HW211649   1.612   5.241   1.437
 3584SOL     OW11650   5.556   4.784   4.721
 3584SOL    HW111651   5.491   4.811   4.793
 3584SOL    HW211652   5.645   4.825   4.740
 3585SOL     OW11653   3.638   1.942   3.727
 3585SOL    HW111654   3.696   1.870   3.691
 3585SOL    HW211655   3.620   2.009   3.654
 3586SOL     OW11656   6.621   1.723   5.658
 3586SOL    HW111657   6.568   1.723   5.743
 3586SOL    HW211658   6.582   1.655   5.596
 3587SOL     OW11659   3.133   0.471   6.214
 3587SOL    HW111660   3.153   0.569   6.206
 3587SOL    HW211661   3.122   0.447   6.310
 3588SOL     OW11662   5.635   4.509   4.774
 3588SOL    HW111663   5.575   4.585   4.749
 3588SOL    HW211664   5.704   4.497   4.703
 3589SOL     OW11665   0.818   6.965   6.282
 3589SOL    HW111666   0.849   6.870   6.273
 3589SOL    HW211667   0.879   7.015   6.343
 3590SOL     OW11668   6.661   5.694   5.620
 3590SOL    HW111669   6.687   5.597   5.628
 3590SOL    HW211670   6.738   5.745   5.582
 3591SOL     OW11671   5.348   1.957   0.251
 3591SOL    HW111672   5.249   1.957   0.265
 3591SOL    HW211673   5.380   1.864   0.233
 3592SOL     OW11674   1.150   6.342   1.180
 3592SOL    HW111675   1.240   6.316   1.145
 3592SOL    HW211676   1.085   6.268   1.161
 3593SOL     OW11677   3.883   3.131   5.603
 3593SOL    HW111678   3.927   3.118   5.514
 3593SOL    HW211679   3.936   3.084   5.674
 3594SOL     OW11680   4.653   4.947   5.277
 3594SOL    HW111681   4.564   4.973   5.316
 3594SOL    HW211682   4.702   5.030   5.249
 3595SOL     OW11683   5.377   6.058   4.380
 3595SOL    HW111684   5.392   6.066   4.479
 3595SOL    HW211685   5.464   6.067   4.332
 3596SOL     OW11686   4.238   1.906   2.689
 3596SOL    HW111687   4.280   1.901   2.598
 3596SOL    HW211688   4.168   1.836   2.697
 3597SOL     OW11689   3.325   3.970   5.641
 3597SOL    HW111690   3.295   4.061   5.669
 3597SOL    HW211691   3.322   3.963   5.541
 3598SOL     OW11692   0.011   5.537   4.840
 3598SOL    HW111693   0.003   5.630   4.875
 3598SOL    HW211694   6.938   5.503   4.815
 3599SOL     OW11695   2.670   1.550   5.343
 3599SOL    HW111696   2.607   1.472   5.340
 3599SOL    HW211697   2.761   1.520   5.316
 3600SOL     OW11698   2.515   3.775   6.537
 3600SOL    HW111699   2.508   3.724   6.623
 3600SOL    HW211700   2.431   3.829   6.523
 3601SOL     OW11701   4.761   0.804   5.008
 3601SOL    HW111702   4.781   0.888   4.956
 3601SOL    HW211703   4.680   0.760   4.970
 3602SOL     OW11704   1.362   1.940   1.587
 3602SOL    HW111705   1.351   1.843   1.611
 3602SOL    HW211706   1.347   1.996   1.669
 3603SOL     OW11707   2.351   0.802   5.608
 3603SOL    HW111708   2.369   0.863   5.686
 3603SOL    HW211709   2.363   0.852   5.523
 3604SOL     OW11710   6.996   1.009   3.441
 3604SOL    HW111711   0.014   0.936   3.383
 3604SOL    HW211712   0.038   1.021   3.520
 3605SOL     OW11713   1.195   0.124   5.017
 3605SOL    HW111714   1.096   0.118   5.028
 3605SOL    HW211715   1.239   0.115   5.106
 3606SOL     OW11716   2.044   0.005   2.386
 3606SOL    HW111717   2.010   6.953   2.449
 3606SOL    HW211718   1.988   0.087   2.396
 3607SOL     OW11719   6.473   1.402   3.233
 3607SOL    HW111720   6.567   1.367   3.236
 3607SOL    HW211721   6.459   1.452   3.148
 3608SOL     OW11722   3.338   2.019   5.361
 3608SOL    HW111723   3.289   2.105   5.374
 3608SOL    HW211724   3.394   2.024   5.278
 3609SOL     OW11725   3.571   0.465   5.434
 3609SOL    HW111726   3.627   0.398   5.385
 3609SOL    HW211727   3.602   0.557   5.411
 3610SOL     OW11728   1.986   1.000   5.753
 3610SOL    HW111729   1.922   1.076   5.758
 3610SOL    HW211730   1.983   0.960   5.662
 3611SOL     OW11731   5.694   4.285   2.752
 3611SOL    HW111732   5.784   4.291   2.795
 3611SOL    HW211733   5.672   4.190   2.733
 3612SOL     OW11734   4.563   1.954   0.465
 3612SOL    HW111735   4.599   2.047   0.470
 3612SOL    HW211736   4.637   1.889   0.481
 3613SOL     OW11737   3.973   6.733   3.391
 3613SOL    HW111738   3.950   6.798   3.463
 3613SOL    HW211739   3.897   6.669   3.378
 3614SOL     OW11740   3.334   6.090   6.934
 3614SOL    HW111741   3.341   6.174   6.987
 3614SOL    HW211742   3.286   6.021   6.988
 3615SOL     OW11743   4.966   3.173   5.574
 3615SOL    HW111744   4.949   3.228   5.493
 3615SOL    HW211745   4.886   3.177   5.635
 3616SOL     OW11746   1.388   2.533   0.028
 3616SOL    HW111747   1.413   2.630   0.029
 3616SOL    HW211748   1.328   2.515   6.968
 3617SOL     OW11749   4.067   5.566   5.673
 3617SOL    HW111750   4.145   5.615   5.711
 3617SOL    HW211751   4.043   5.604   5.584
 3618SOL     OW11752   1.414   5.667   4.275
 3618SOL    HW111753   1.498   5.614   4.262
 3618SOL    HW211754   1.338   5.604   4.290
 3619SOL     OW11755   6.116   1.938   2.690
 3619SOL    HW111756   6.115   1.995   2.608
 3619SOL    HW211757   6.116   1.996   2.771
 3620SOL     OW11758   5.429   5.804   5.190
 3620SOL    HW111759   5.513   5.857   5.178
 3620SOL    HW211760   5.376   5.805   5.105
 3621SOL     OW11761   4.070   3.306   3.749
 3621SOL    HW111762   4.169   3.296   3.737
 3621SOL    HW211763   4.046   3.287   3.844
 3622SOL     OW11764   1.959   5.480   6.478
 3622SOL    HW111765   1.963   5.384   6.508
 3622SOL    HW211766   1.864   5.506   6.463
 3623SOL     OW11767   1.443   5.797   6.125
 3623SOL    HW111768   1.383   5.721   6.149
 3623SOL    HW211769   1.451   5.804   6.026
 3624SOL     OW11770   2.372   2.176   2.303
 3624SOL    HW111771   2.353   2.132   2.215
 3624SOL    HW211772   2.396   2.272   2.288
 3625SOL     OW11773   6.129   2.632   1.573
 3625SOL    HW111774   6.097   2.668   1.485
 3625SOL    HW211775   6.083   2.545   1.592
 3626SOL     OW11776   1.643   2.741   5.592
 3626SOL    HW111777   1.582   2.672   5.631
 3626SOL    HW211778   1.737   2.708   5.597
 3627SOL     OW11779   3.454   1.687   2.628
 3627SOL    HW111780   3.522   1.614   2.634
 3627SOL    HW211781   3.404   1.692   2.715
 3628SOL     OW11782   6.900   1.612   1.334
 3628SOL    HW111783   6.930   1.648   1.422
 3628SOL    HW211784   6.817   1.660   1.305
 3629SOL     OW11785   1.483   0.925   4.297
 3629SOL    HW111786   1.456   0.829   4.292
 3629SOL    HW211787   1.516   0.945   4.389
 3630SOL     OW11788   6.390   2.130   2.702
 3630SOL    HW111789   6.367   2.223   2.677
 3630SOL    HW211790   6.352   2.109   2.792
 3631SOL     OW11791   2.045   6.227   2.611
 3631SOL    HW111792   2.060   6.223   2.512
 3631SOL    HW211793   2.120   6.181   2.658
 3632SOL     OW11794   4.983   3.200   2.418
 3632SOL    HW111795   4.938   3.182   2.506
 3632SOL    HW211796   4.971   3.297   2.394
 3633SOL     OW11797   4.038   4.290   0.092
 3633SOL    HW111798   4.112   4.249   0.146
 3633SOL    HW211799   3.991   4.359   0.147
 3634SOL     OW11800   2.980   5.643   6.864
 3634SOL    HW111801   2.904   5.633   6.800
 3634SOL    HW211802   2.957   5.711   6.933
 3635SOL     OW11803   1.269   6.482   2.450
 3635SOL    HW111804   1.238   6.533   2.530
 3635SOL    HW211805   1.332   6.410   2.479
 3636SOL     OW11806   0.193   5.779   4.895
 3636SOL    HW111807   0.102   5.807   4.927
 3636SOL    HW211808   0.236   5.720   4.963
 3637SOL     OW11809   6.213   2.664   6.927
 3637SOL    HW111810   6.258   2.751   6.946
 3637SOL    HW211811   6.271   2.589   6.957
 3638SOL     OW11812   0.208   3.260   3.271
 3638SOL    HW111813   0.171   3.249   3.363
 3638SOL    HW211814   0.290   3.203   3.262
 3639SOL     OW11815   4.173   3.510   4.602
 3639SOL    HW111816   4.157   3.451   4.522
 3639SOL    HW211817   4.254   3.478   4.651
 3640SOL     OW11818   4.311   1.691   2.138
 3640SOL    HW111819   4.370   1.647   2.070
 3640SOL    HW211820   4.238   1.628   2.164
 3641SOL     OW11821   6.387   3.812   1.950
 3641SOL    HW111822   6.335   3.731   1.925
 3641SOL    HW211823   6.378   3.881   1.879
 3642SOL     OW11824   4.942   4.257   6.878
 3642SOL    HW111825   4.927   4.185   6.810
 3642SOL    HW211826   4.863   4.318   6.879
 3643SOL     OW11827   4.363   5.867   4.718
 3643SOL    HW111828   4.415   5.787   4.746
 3643SOL    HW211829   4.266   5.843   4.712
 3644SOL     OW11830   2.835   0.834   1.748
 3644SOL    HW111831   2.874   0.748   1.780
 3644SOL    HW211832   2.885   0.866   1.667
 3645SOL     OW11833   1.734   4.292   3.336
 3645SOL    HW111834   1.769   4.319   3.426
 3645SOL    HW211835   1.790   4.218   3.300
 3646SOL     OW11836   2.251   5.216   5.496
 3646SOL    HW111837   2.252   5.275   5.577
 3646SOL    HW211838   2.172   5.154   5.502
 3647SOL     OW11839   3.843   0.117   0.549
 3647SOL    HW111840   3.918   0.128   0.484
 3647SOL    HW211841   3.757   0.142   0.506
 3648SOL     OW11842   5.118   4.344   3.260
 3648SOL    HW111843   5.108   4.370   3.164
 3648SOL    HW211844   5.036   4.374   3.311
 3649SOL     OW11845   5.211   2.665   0.394
 3649SOL    HW111846   5.171   2.609   0.321
 3649SOL    HW211847   5.182   2.760   0.382
 3650SOL     OW11848   5.425   5.970   5.987
 3650SOL    HW111849   5.423   5.934   6.080
 3650SOL    HW211850   5.461   6.063   5.987
 3651SOL     OW11851   0.642   2.147   5.867
 3651SOL    HW111852   0.562   2.148   5.807
 3651SOL    HW211853   0.616   2.109   5.955
 3652SOL     OW11854   4.570   2.602   2.746
 3652SOL    HW111855   4.654   2.600   2.799
 3652SOL    HW211856   4.519   2.517   2.761
 3653SOL     OW11857   2.298   1.475   0.742
 3653SOL    HW111858   2.306   1.420   0.659
 3653SOL    HW211859   2.298   1.414   0.822
 3654SOL     OW11860   3.977   6.701   1.737
 3654SOL    HW111861   3.988   6.746   1.648
 3654SOL    HW211862   4.012   6.608   1.731
 3655SOL     OW11863   0.728   0.695   3.943
 3655SOL    HW111864   0.801   0.629   3.927
 3655SOL    HW211865   0.737   0.772   3.880
 3656SOL     OW11866   0.109   0.035   0.709
 3656SOL    HW111867   0.043   6.985   0.678
 3656SOL    HW211868   0.122   0.103   0.638
 3657SOL     OW11869   5.802   5.191   6.299
 3657SOL    HW111870   5.791   5.266   6.234
 3657SOL    HW211871   5.892   5.151   6.289
 3658SOL     OW11872   1.599   4.311   4.947
 3658SOL    HW111873   1.586   4.219   4.910
 3658SOL    HW211874   1.632   4.305   5.041
 3659SOL     OW11875   0.909   2.312   6.303
 3659SOL    HW111876   0.955   2.237   6.255
 3659SOL    HW211877   0.908   2.393   6.244
 3660SOL     OW11878   4.001   5.498   5.256
 3660SOL    HW111879   4.024   5.504   5.159
 3660SOL    HW211880   3.959   5.410   5.275
 3661SOL     OW11881   1.012   1.393   4.459
 3661SOL    HW111882   1.085   1.454   4.427
 3661SOL    HW211883   1.050   1.303   4.480
 3662SOL     OW11884   3.491   1.880   5.525
 3662SOL    HW111885   3.422   1.930   5.473
 3662SOL    HW211886   3.503   1.789   5.486
 3663SOL     OW11887   2.021   2.534   6.447
 3663SOL    HW111888   2.018   2.599   6.370
 3663SOL    HW211889   2.114   2.498   6.456
 3664SOL     OW11890   2.772   2.018   1.217
 3664SOL    HW111891   2.839   2.042   1.147
 3664SOL    HW211892   2.695   2.082   1.212
 3665SOL     OW11893   6.900   5.728   5.206
 3665SOL    HW111894   6.823   5.754   5.264
 3665SOL    HW211895   6.985   5.741   5.256
 3666SOL     OW11896   2.128   3.504   4.306
 3666SOL    HW111897   2.213   3.480   4.352
 3666SOL    HW211898   2.054   3.513   4.373
 3667SOL     OW11899   1.758   6.384   1.006
 3667SOL    HW111900   1.817   6.318   0.959
 3667SOL    HW211901   1.803   6.416   1.089
 3668SOL     OW11902   6.104   1.048   0.910
 3668SOL    HW111903   6.099   1.128   0.850
 3668SOL    HW211904   6.110   1.078   1.005
 3669SOL     OW11905   6.550   1.050   1.774
 3669SOL    HW111906   6.522   1.018   1.684
 3669SOL    HW211907   6.625   0.994   1.807
 3670SOL     OW11908   2.049   6.836   2.105
 3670SOL    HW111909   2.115   6.894   2.153
 3670SOL    HW211910   2.096   6.781   2.036
 3671SOL     OW11911   0.043   0.635   4.831
 3671SOL    HW111912   0.105   0.593   4.764
 3671SOL    HW211913   0.044   0.580   4.915
 3672SOL     OW11914   4.362   0.244   3.402
 3672SOL    HW111915   4.338   0.258   3.306
 3672SOL    HW211916   4.290   0.191   3.448
 3673SOL     OW11917   3.165   0.870   1.651
 3673SOL    HW111918   3.111   0.786   1.646
 3673SOL    HW211919   3.262   0.848   1.642
 3674SOL     OW11920   0.496   4.322   5.747
 3674SOL    HW111921   0.407   4.364   5.735
 3674SOL    HW211922   0.487   4.239   5.803
 3675SOL     OW11923   6.631   0.898   4.541
 3675SOL    HW111924   6.540   0.895   4.581
 3675SOL    HW211925   6.699   0.909   4.614
 3676SOL     OW11926   2.966   1.027   5.824
 3676SOL    HW111927   2.908   1.051   5.901
 3676SOL    HW211928   2.982   1.108   5.768
 3677SOL     OW11929   1.464   1.103   4.750
 3677SOL    HW111930   1.395   1.041   4.788
 3677SOL    HW211931   1.437   1.198   4.766
 3678SOL     OW11932   2.489   1.214   3.062
 3678SOL    HW111933   2.458   1.286   3.125
 3678SOL    HW211934   2.516   1.255   2.975
 3679SOL     OW11935   2.902   0.851   2.386
 3679SOL    HW111936   2.807   0.867   2.413
 3679SOL    HW211937   2.935   0.767   2.429
 3680SOL     OW11938   3.698   2.142   4.676
 3680SOL    HW111939   3.650   2.058   4.651
 3680SOL    HW211940   3.672   2.215   4.613
 3681SOL     OW11941   1.201   6.433   3.899
 3681SOL    HW111942   1.134   6.383   3.844
 3681SOL    HW211943   1.287   6.382   3.900
 3682SOL     OW11944   5.484   1.933   1.329
 3682SOL    HW111945   5.524   1.932   1.237
 3682SOL    HW211946   5.556   1.945   1.397
 3683SOL     OW11947   6.542   1.656   0.796
 3683SOL    HW111948   6.451   1.651   0.837
 3683SOL    HW211949   6.559   1.749   0.763
 3684SOL     OW11950   2.447   6.260   5.784
 3684SOL    HW111951   2.397   6.275   5.868
 3684SOL    HW211952   2.497   6.173   5.790
 3685SOL     OW11953   2.528   6.534   3.933
 3685SOL    HW111954   2.485   6.624   3.949
 3685SOL    HW211955   2.588   6.540   3.854
 3686SOL     OW11956   6.724   4.197   0.342
 3686SOL    HW111957   6.802   4.136   0.357
 3686SOL    HW211958   6.639   4.146   0.353
 3687SOL     OW11959   6.218   4.447   4.319
 3687SOL    HW111960   6.257   4.509   4.388
 3687SOL    HW211961   6.258   4.356   4.330
 3688SOL     OW11962   0.095   2.790   1.593
 3688SOL    HW111963   0.178   2.745   1.627
 3688SOL    HW211964   0.028   2.721   1.569
 3689SOL     OW11965   1.569   1.281   5.712
 3689SOL    HW111966   1.533   1.269   5.804
 3689SOL    HW211967   1.497   1.261   5.645
 3690SOL     OW11968   6.122   4.422   1.578
 3690SOL    HW111969   6.093   4.330   1.604
 3690SOL    HW211970   6.060   4.489   1.619
 3691SOL     OW11971   1.616   2.382   0.726
 3691SOL    HW111972   1.646   2.314   0.659
 3691SOL    HW211973   1.695   2.430   0.763
 3692SOL     OW11974   1.364   3.094   5.429
 3692SOL    HW111975   1.346   2.997   5.412
 3692SOL    HW211976   1.456   3.105   5.466
 3693SOL     OW11977   6.983   1.412   2.560
 3693SOL    HW111978   0.034   1.381   2.495
 3693SOL    HW211979   0.009   1.438   2.646
 3694SOL     OW11980   6.751   6.690   1.963
 3694SOL    HW111981   6.690   6.665   1.888
 3694SOL    HW211982   6.763   6.611   2.023
 3695SOL     OW11983   6.285   3.886   3.554
 3695SOL    HW111984   6.206   3.841   3.595
 3695SOL    HW211985   6.255   3.968   3.505
 3696SOL     OW11986   4.359   0.129   4.164
 3696SOL    HW111987   4.422   0.207   4.163
 3696SOL    HW211988   4.292   0.141   4.237
 3697SOL     OW11989   6.156   5.403   2.952
 3697SOL    HW111990   6.205   5.327   2.908
 3697SOL    HW211991   6.073   5.424   2.899
 3698SOL     OW11992   1.310   6.842   4.250
 3698SOL    HW111993   1.323   6.813   4.345
 3698SOL    HW211994   1.314   6.762   4.191
 3699SOL     OW11995   2.829   2.139   2.797
 3699SOL    HW111996   2.772   2.195   2.857
 3699SOL    HW211997   2.836   2.047   2.835
 3700SOL     OW11998   1.215   5.114   4.391
 3700SOL    HW111999   1.201   5.200   4.440
 3700SOL    HW212000   1.275   5.130   4.312
 3701SOL     OW12001   0.278   0.524   1.801
 3701SOL    HW112002   0.313   0.536   1.894
 3701SOL    HW212003   0.352   0.494   1.741
 3702SOL     OW12004   6.600   4.515   3.438
 3702SOL    HW112005   6.647   4.478   3.358
 3702SOL    HW212006   6.645   4.483   3.521
 3703SOL     OW12007   1.179   2.090   2.699
 3703SOL    HW112008   1.152   2.119   2.791
 3703SOL    HW212009   1.240   2.158   2.659
 3704SOL     OW12010   5.920   6.547   0.600
 3704SOL    HW112011   5.962   6.635   0.621
 3704SOL    HW212012   5.912   6.493   0.684
 3705SOL     OW12013   6.117   4.143   3.447
 3705SOL    HW112014   6.054   4.125   3.371
 3705SOL    HW212015   6.204   4.176   3.412
 3706SOL     OW12016   0.955   5.203   6.398
 3706SOL    HW112017   0.912   5.292   6.413
 3706SOL    HW212018   1.047   5.217   6.361
 3707SOL     OW12019   0.657   4.985   3.683
 3707SOL    HW112020   0.661   4.892   3.719
 3707SOL    HW212021   0.738   5.036   3.711
 3708SOL     OW12022   1.295   5.955   0.104
 3708SOL    HW112023   1.302   6.014   0.185
 3708SOL    HW212024   1.382   5.956   0.055
 3709SOL     OW12025   0.334   1.586   2.298
 3709SOL    HW112026   0.358   1.674   2.257
 3709SOL    HW212027   0.413   1.525   2.293
 3710SOL     OW12028   2.162   3.937   5.483
 3710SOL    HW112029   2.222   3.916   5.407
 3710SOL    HW212030   2.072   3.896   5.468
 3711SOL     OW12031   2.056   5.262   5.208
 3711SOL    HW112032   1.963   5.288   5.233
 3711SOL    HW212033   2.070   5.165   5.231
 3712SOL     OW12034   3.440   5.338   4.126
 3712SOL    HW112035   3.526   5.389   4.113
 3712SOL    HW212036   3.369   5.379   4.068
 3713SOL     OW12037   5.923   0.053   5.296
 3713SOL    HW112038   6.012   0.029   5.336
 3713SOL    HW212039   5.936   0.077   5.199
 3714SOL     OW12040   0.155   5.051   6.856
 3714SOL    HW112041   0.211   5.133   6.847
 3714SOL    HW212042   0.214   4.971   6.867
 3715SOL     OW12043   6.420   4.461   3.216
 3715SOL    HW112044   6.432   4.536   3.282
 3715SOL    HW212045   6.475   4.480   3.135
 3716SOL     OW12046   5.614   5.849   5.800
 3716SOL    HW112047   5.591   5.829   5.705
 3716SOL    HW212048   5.538   5.898   5.844
 3717SOL     OW12049   4.937   0.457   1.307
 3717SOL    HW112050   4.857   0.487   1.359
 3717SOL    HW212051   4.978   0.378   1.353
 3718SOL     OW12052   5.578   0.067   6.554
 3718SOL    HW112053   5.663   0.082   6.505
 3718SOL    HW212054   5.589   7.010   6.620
 3719SOL     OW12055   2.664   4.305   0.304
 3719SOL    HW112056   2.701   4.214   0.291
 3719SOL    HW212057   2.692   4.364   0.229
 3720SOL     OW12058   0.047   2.341   1.187
 3720SOL    HW112059   6.966   2.323   1.187
 3720SOL    HW212060   0.096   2.257   1.165
 3721SOL     OW12061   6.288   6.896   6.346
 3721SOL    HW112062   6.214   6.879   6.281
 3721SOL    HW212063   6.375   6.869   6.306
 3722SOL     OW12064   6.069   6.583   1.283
 3722SOL    HW112065   6.042   6.601   1.378
 3722SOL    HW212066   6.108   6.666   1.243
 3723SOL     OW12067   4.520   4.359   6.378
 3723SOL    HW112068   4.470   4.428   6.326
 3723SOL    HW212069   4.459   4.317   6.446
 3724SOL     OW12070   6.794   4.540   4.979
 3724SOL    HW112071   6.761   4.635   4.985
 3724SOL    HW212072   6.776   4.494   5.066
 3725SOL     OW12073   0.384   6.100   0.455
 3725SOL    HW112074   0.385   6.041   0.374
 3725SOL    HW212075   0.409   6.193   0.429
 3726SOL     OW12076   6.046   3.696   5.160
 3726SOL    HW112077   6.044   3.617   5.099
 3726SOL    HW212078   5.972   3.759   5.136
 3727SOL     OW12079   6.711   1.680   4.224
 3727SOL    HW112080   6.787   1.628   4.183
 3727SOL    HW212081   6.648   1.708   4.153
 3728SOL     OW12082   1.891   4.332   0.641
 3728SOL    HW112083   1.800   4.289   0.649
 3728SOL    HW212084   1.915   4.341   0.545
 3729SOL     OW12085   0.275   0.170   6.254
 3729SOL    HW112086   0.269   0.071   6.269
 3729SOL    HW212087   0.201   0.199   6.193
 3730SOL     OW12088   4.966   4.762   4.073
 3730SOL    HW112089   5.001   4.696   4.140
 3730SOL    HW212090   5.037   4.784   4.007
 3731SOL     OW12091   0.331   1.805   1.325
 3731SOL    HW112092   0.401   1.734   1.317
 3731SOL    HW212093   0.313   1.845   1.235
 3732SOL     OW12094   3.746   2.844   6.778
 3732SOL    HW112095   3.667   2.806   6.827
 3732SOL    HW212096   3.714   2.897   6.700
 3733SOL     OW12097   1.871   1.380   3.551
 3733SOL    HW112098   1.909   1.437   3.478
 3733SOL    HW212099   1.777   1.356   3.527
 3734SOL     OW12100   3.329   0.471   1.834
 3734SOL    HW112101   3.279   0.458   1.749
 3734SOL    HW212102   3.302   0.401   1.900
 3735SOL     OW12103   4.416   1.146   2.786
 3735SOL    HW112104   4.493   1.122   2.845
 3735SOL    HW212105   4.437   1.117   2.692
 3736SOL     OW12106   0.696   1.869   0.090
 3736SOL    HW112107   0.784   1.862   0.138
 3736SOL    HW212108   0.706   1.836   7.015
 3737SOL     OW12109   6.159   2.411   3.960
 3737SOL    HW112110   6.124   2.409   3.867
 3737SOL    HW212111   6.232   2.343   3.969
 3738SOL     OW12112   0.335   1.308   1.304
 3738SOL    HW112113   0.350   1.240   1.232
 3738SOL    HW212114   0.255   1.363   1.282
 3739SOL     OW12115   2.920   4.392   6.881
 3739SOL    HW112116   2.862   4.411   6.960
 3739SOL    HW212117   3.012   4.425   6.898
 3740SOL     OW12118   5.209   5.974   6.698
 3740SOL    HW112119   5.130   5.941   6.748
 3740SOL    HW212120   5.202   6.073   6.686
 3741SOL     OW12121   5.603   4.245   0.308
 3741SOL    HW112122   5.628   4.311   0.237
 3741SOL    HW212123   5.680   4.183   0.324
 3742SOL     OW12124   5.014   5.455   1.452
 3742SOL    HW112125   4.972   5.524   1.393
 3742SOL    HW212126   4.962   5.448   1.537
 3743SOL     OW12127   2.573   3.860   0.813
 3743SOL    HW112128   2.673   3.864   0.810
 3743SOL    HW212129   2.535   3.909   0.734
 3744SOL     OW12130   6.509   5.972   2.651
 3744SOL    HW112131   6.443   6.031   2.604
 3744SOL    HW212132   6.500   5.878   2.617
 3745SOL     OW12133   5.203   2.361   2.715
 3745SOL    HW112134   5.170   2.440   2.664
 3745SOL    HW212135   5.174   2.369   2.811
 3746SOL     OW12136   5.033   6.878   4.759
 3746SOL    HW112137   4.946   6.924   4.741
 3746SOL    HW212138   5.015   6.788   4.799
 3747SOL     OW12139   2.496   5.755   5.532
 3747SOL    HW112140   2.525   5.758   5.628
 3747SOL    HW212141   2.439   5.674   5.517
 3748SOL     OW12142   4.856   2.426   3.286
 3748SOL    HW112143   4.844   2.363   3.363
 3748SOL    HW212144   4.906   2.380   3.213
 3749SOL     OW12145   6.130   6.637   1.843
 3749SOL    HW112146   6.203   6.628   1.911
 3749SOL    HW212147   6.115   6.549   1.798
 3750SOL     OW12148   5.662   4.359   1.118
 3750SOL    HW112149   5.708   4.271   1.129
 3750SOL    HW212150   5.719   4.420   1.064
 3751SOL     OW12151   1.271   4.686   0.517
 3751SOL    HW112152   1.187   4.650   0.558
 3751SOL    HW212153   1.351   4.643   0.561
 3752SOL     OW12154   1.192   6.242   5.877
 3752SOL    HW112155   1.202   6.298   5.795
 3752SOL    HW212156   1.113   6.274   5.929
 3753SOL     OW12157   0.680   0.660   5.370
 3753SOL    HW112158   0.753   0.724   5.394
 3753SOL    HW212159   0.638   0.625   5.454
 3754SOL     OW12160   6.578   5.731   1.591
 3754SOL    HW112161   6.584   5.710   1.494
 3754SOL    HW212162   6.536   5.654   1.639
 3755SOL     OW12163   4.406   2.357   2.980
 3755SOL    HW112164   4.505   2.367   2.966
 3755SOL    HW212165   4.366   2.307   2.903
 3756SOL     OW12166   3.693   6.854   0.479
 3756SOL    HW112167   3.687   6.949   0.508
 3756SOL    HW212168   3.789   6.831   0.460
 3757SOL     OW12169   3.875   4.667   6.606
 3757SOL    HW112170   3.905   4.758   6.577
 3757SOL    HW212171   3.865   4.608   6.526
 3758SOL     OW12172   6.612   0.771   2.363
 3758SOL    HW112173   6.660   0.741   2.446
 3758SOL    HW212174   6.525   0.722   2.356
 3759SOL     OW12175   4.986   4.356   0.900
 3759SOL    HW112176   4.905   4.414   0.896
 3759SOL    HW212177   4.963   4.271   0.949
 3760SOL     OW12178   1.676   1.546   6.151
 3760SOL    HW112179   1.705   1.459   6.110
 3760SOL    HW212180   1.743   1.574   6.220
 3761SOL     OW12181   6.602   6.169   3.971
 3761SOL    HW112182   6.546   6.233   4.023
 3761SOL    HW212183   6.544   6.109   3.916
 3762SOL     OW12184   0.462   2.740   0.258
 3762SOL    HW112185   0.368   2.737   0.293
 3762SOL    HW212186   0.513   2.813   0.304
 3763SOL     OW12187   0.448   3.421   4.990
 3763SOL    HW112188   0.359   3.387   5.018
 3763SOL    HW212189   0.511   3.421   5.068
 3764SOL     OW12190   2.224   0.155   4.014
 3764SOL    HW112191   2.185   0.245   4.032
 3764SOL    HW212192   2.152   0.093   3.982
 3765SOL     OW12193   6.062   1.316   3.338
 3765SOL    HW112194   6.109   1.365   3.411
 3765SOL    HW212195   6.129   1.272   3.279
 3766SOL     OW12196   1.789   1.255   5.264
 3766SOL    HW112197   1.794   1.156   5.280
 3766SOL    HW212198   1.829   1.303   5.342
 3767SOL     OW12199   0.298   4.806   0.305
 3767SOL    HW112200   0.344   4.744   0.241
 3767SOL    HW212201   0.209   4.769   0.329
 3768SOL     OW12202   4.291   6.414   1.310
 3768SOL    HW112203   4.281   6.370   1.221
 3768SOL    HW212204   4.201   6.429   1.350
 3769SOL     OW12205   4.338   6.839   5.183
 3769SOL    HW112206   4.416   6.901   5.184
 3769SOL    HW212207   4.371   6.745   5.180
 3770SOL     OW12208   1.864   2.727   0.592
 3770SOL    HW112209   1.810   2.811   0.601
 3770SOL    HW212210   1.820   2.665   0.528
 3771SOL     OW12211   4.322   1.482   5.413
 3771SOL    HW112212   4.300   1.429   5.331
 3771SOL    HW212213   4.274   1.570   5.409
 3772SOL     OW12214   4.888   0.749   2.540
 3772SOL    HW112215   4.835   0.680   2.490
 3772SOL    HW212216   4.830   0.788   2.612
 3773SOL     OW12217   6.065   2.598   0.710
 3773SOL    HW112218   6.097   2.582   0.616
 3773SOL    HW212219   6.017   2.517   0.743
 3774SOL     OW12220   0.704   1.483   1.967
 3774SOL    HW112221   0.632   1.499   1.900
 3774SOL    HW212222   0.767   1.560   1.968
 3775SOL     OW12223   5.333   2.824   3.580
 3775SOL    HW112224   5.430   2.849   3.581
 3775SOL    HW212225   5.293   2.839   3.671
 3776SOL     OW12226   2.878   2.171   6.503
 3776SOL    HW112227   2.797   2.148   6.449
 3776SOL    HW212228   2.862   2.258   6.551
 3777SOL     OW12229   0.861   4.485   2.958
 3777SOL    HW112230   0.949   4.502   2.913
 3777SOL    HW212231   0.853   4.387   2.978
 3778SOL     OW12232   2.327   6.958   1.936
 3778SOL    HW112233   2.344   6.904   2.019
 3778SOL    HW212234   2.345   6.902   1.855
 3779SOL     OW12235   2.161   4.639   6.942
 3779SOL    HW112236   2.067   4.617   6.917
 3779SOL    HW212237   2.215   4.555   6.945
 3780SOL     OW12238   2.452   0.342   4.049
 3780SOL    HW112239   2.482   0.335   4.144
 3780SOL    HW212240   2.360   0.303   4.040
 3781SOL     OW12241   2.888   5.541   5.064
 3781SOL    HW112242   2.972   5.500   5.028
 3781SOL    HW212243   2.911   5.613   5.129
 3782SOL     OW12244   2.677   0.774   2.504
 3782SOL    HW112245   2.624   0.690   2.512
 3782SOL    HW212246   2.679   0.821   2.592
 3783SOL     OW12247   5.004   5.187   4.431
 3783SOL    HW112248   5.016   5.112   4.366
 3783SOL    HW212249   5.093   5.215   4.468
 3784SOL     OW12250   5.261   2.189   4.525
 3784SOL    HW112251   5.240   2.147   4.614
 3784SOL    HW212252   5.177   2.217   4.480
 3785SOL     OW12253   1.140   0.676   2.157
 3785SOL    HW112254   1.183   0.593   2.122
 3785SOL    HW212255   1.085   0.718   2.085
 3786SOL     OW12256   3.020   6.396   2.780
 3786SOL    HW112257   3.042   6.316   2.724
 3786SOL    HW212258   2.942   6.444   2.739
 3787SOL     OW12259   4.673   0.828   4.245
 3787SOL    HW112260   4.710   0.804   4.155
 3787SOL    HW212261   4.727   0.902   4.285
 3788SOL     OW12262   6.855   3.962   2.675
 3788SOL    HW112263   6.769   3.989   2.631
 3788SOL    HW212264   6.835   3.914   2.761
 3789SOL     OW12265   1.349   5.092   1.728
 3789SOL    HW112266   1.351   5.094   1.828
 3789SOL    HW212267   1.400   5.013   1.694
 3790SOL     OW12268   2.164   3.173   3.527
 3790SOL    HW112269   2.182   3.267   3.555
 3790SOL    HW212270   2.162   3.168   3.427
 3791SOL     OW12271   6.151   0.767   2.615
 3791SOL    HW112272   6.242   0.755   2.656
 3791SOL    HW212273   6.136   0.865   2.597
 3792SOL     OW12274   0.817   6.313   6.293
 3792SOL    HW112275   0.767   6.226   6.292
 3792SOL    HW212276   0.758   6.384   6.331
 3793SOL     OW12277   0.854   5.846   2.438
 3793SOL    HW112278   0.757   5.867   2.452
 3793SOL    HW212279   0.864   5.788   2.357
 3794SOL     OW12280   4.604   6.959   3.725
 3794SOL    HW112281   4.512   6.989   3.700
 3794SOL    HW212282   4.656   6.939   3.643
 3795SOL     OW12283   5.401   0.250   6.957
 3795SOL    HW112284   5.305   0.277   6.956
 3795SOL    HW212285   5.450   0.306   0.006
 3796SOL     OW12286   0.800   2.975   0.748
 3796SOL    HW112287   0.847   3.013   0.828
 3796SOL    HW212288   0.830   3.024   0.666
 3797SOL     OW12289   6.922   5.684   2.577
 3797SOL    HW112290   6.862   5.649   2.649
 3797SOL    HW212291   6.957   5.608   2.523
 3798SOL     OW12292   0.958   4.080   0.697
 3798SOL    HW112293   1.037   4.033   0.657
 3798SOL    HW212294   0.877   4.022   0.691
 3799SOL     OW12295   1.297   0.396   5.330
 3799SOL    HW112296   1.271   0.428   5.238
 3799SOL    HW212297   1.227   0.425   5.396
 3800SOL     OW12298   5.217   2.533   5.320
 3800SOL    HW112299   5.140   2.591   5.294
 3800SOL    HW212300   5.303   2.577   5.293
 3801SOL     OW12301   6.714   0.404   6.504
 3801SOL    HW112302   6.640   0.338   6.513
 3801SOL    HW212303   6.788   0.364   6.450
 3802SOL     OW12304   1.750   2.724   5.228
 3802SOL    HW112305   1.717   2.654   5.165
 3802SOL    HW212306   1.849   2.714   5.240
 3803SOL     OW12307   4.077   1.121   1.316
 3803SOL    HW112308   4.138   1.141   1.392
 3803SOL    HW212309   4.046   1.026   1.322
 3804SOL     OW12310   5.090   3.576   5.378
 3804SOL    HW112311   5.055   3.483   5.365
 3804SOL    HW212312   5.109   3.591   5.475
 3805SOL     OW12313   1.780   3.657   1.746
 3805SOL    HW112314   1.857   3.594   1.743
 3805SOL    HW212315   1.813   3.751   1.751
 3806SOL     OW12316   3.958   1.013   0.445
 3806SOL    HW112317   4.053   1.012   0.478
 3806SOL    HW212318   3.947   1.086   0.378
 3807SOL     OW12319   1.126   0.064   2.889
 3807SOL    HW112320   1.142   6.992   2.929
 3807SOL    HW212321   1.069   0.118   2.950
 3808SOL     OW12322   3.169   0.907   0.498
 3808SOL    HW112323   3.076   0.916   0.463
 3808SOL    HW212324   3.220   0.991   0.477
 3809SOL     OW12325   4.034   0.217   0.057
 3809SOL    HW112326   4.128   0.243   0.075
 3809SOL    HW212327   3.989   0.287   0.002
 3810SOL     OW12328   1.944   3.345   6.530
 3810SOL    HW112329   1.937   3.392   6.618
 3810SOL    HW212330   1.857   3.352   6.481
 3811SOL     OW12331   0.731   0.556   6.487
 3811SOL    HW112332   0.672   0.497   6.543
 3811SOL    HW212333   0.755   0.637   6.540
 3812SOL     OW12334   5.057   0.804   5.619
 3812SOL    HW112335   5.119   0.828   5.694
 3812SOL    HW212336   4.963   0.809   5.651
 3813SOL     OW12337   3.860   4.902   2.219
 3813SOL    HW112338   3.768   4.889   2.183
 3813SOL    HW212339   3.872   4.996   2.249
 3814SOL     OW12340   2.147   0.811   1.873
 3814SOL    HW112341   2.246   0.799   1.880
 3814SOL    HW212342   2.113   0.754   1.798
 3815SOL     OW12343   5.523   1.961   2.089
 3815SOL    HW112344   5.452   2.012   2.041
 3815SOL    HW212345   5.485   1.919   2.171
 3816SOL     OW12346   6.952   6.459   0.659
 3816SOL    HW112347   6.935   6.362   0.639
 3816SOL    HW212348   6.865   6.509   0.656
 3817SOL     OW12349   4.947   1.870   5.431
 3817SOL    HW112350   4.914   1.840   5.520
 3817SOL    HW212351   5.026   1.814   5.404
 3818SOL     OW12352   4.445   5.751   3.019
 3818SOL    HW112353   4.351   5.783   3.020
 3818SOL    HW212354   4.452   5.667   2.964
 3819SOL     OW12355   6.176   3.946   6.319
 3819SOL    HW112356   6.177   4.002   6.236
 3819SOL    HW212357   6.154   3.852   6.295
 3820SOL     OW12358   4.784   6.229   3.087
 3820SOL    HW112359   4.730   6.265   3.010
 3820SOL    HW212360   4.732   6.241   3.172
 3821SOL     OW12361   7.003   4.531   1.075
 3821SOL    HW112362   7.002   4.521   1.175
 3821SOL    HW212363   6.919   4.576   1.045
 3822SOL     OW12364   0.559   4.647   1.425
 3822SOL    HW112365   0.502   4.717   1.381
 3822SOL    HW212366   0.558   4.661   1.524
 3823SOL     OW12367   2.568   3.819   5.571
 3823SOL    HW112368   2.604   3.755   5.639
 3823SOL    HW212369   2.641   3.845   5.508
 3824SOL     OW12370   0.268   2.242   5.991
 3824SOL    HW112371   0.325   2.264   6.070
 3824SOL    HW212372   0.192   2.307   5.986
 3825SOL     OW12373   6.905   6.483   6.241
 3825SOL    HW112374   7.002   6.505   6.256
 3825SOL    HW212375   6.853   6.568   6.235
 3826SOL     OW12376   6.690   1.730   1.246
 3826SOL    HW112377   6.605   1.782   1.251
 3826SOL    HW212378   6.705   1.702   1.151
 3827SOL     OW12379   5.598   1.622   2.100
 3827SOL    HW112380   5.548   1.656   2.020
 3827SOL    HW212381   5.553   1.652   2.183
 3828SOL     OW12382   4.324   0.904   1.734
 3828SOL    HW112383   4.363   0.815   1.711
 3828SOL    HW212384   4.250   0.892   1.801
 3829SOL     OW12385   0.738   5.296   3.608
 3829SOL    HW112386   0.650   5.311   3.651
 3829SOL    HW212387   0.800   5.251   3.672
 3830SOL     OW12388   3.350   0.244   5.367
 3830SOL    HW112389   3.271   0.236   5.428
 3830SOL    HW212390   3.402   0.326   5.390
 3831SOL     OW12391   4.819   1.796   2.742
 3831SOL    HW112392   4.729   1.769   2.709
 3831SOL    HW212393   4.889   1.748   2.688
 3832SOL     OW12394   5.545   6.661   2.621
 3832SOL    HW112395   5.644   6.669   2.634
 3832SOL    HW212396   5.522   6.680   2.526
 3833SOL     OW12397   1.635   6.265   2.111
 3833SOL    HW112398   1.600   6.207   2.037
 3833SOL    HW212399   1.594   6.356   2.103
 3834SOL     OW12400   2.394   2.548   0.999
 3834SOL    HW112401   2.419   2.498   0.916
 3834SOL    HW212402   2.474   2.561   1.057
 3835SOL     OW12403   3.482   5.313   3.132
 3835SOL    HW112404   3.559   5.261   3.094
 3835SOL    HW212405   3.448   5.265   3.214
 3836SOL     OW12406   1.959   3.110   5.230
 3836SOL    HW112407   1.887   3.100   5.162
 3836SOL    HW212408   2.034   3.047   5.209
 3837SOL     OW12409   3.095   4.141   0.364
 3837SOL    HW112410   3.191   4.115   0.373
 3837SOL    HW212411   3.040   4.059   0.352
 3838SOL     OW12412   5.902   3.426   4.708
 3838SOL    HW112413   5.880   3.331   4.728
 3838SOL    HW212414   5.998   3.433   4.680
 3839SOL     OW12415   0.530   6.470   6.100
 3839SOL    HW112416   0.599   6.533   6.064
 3839SOL    HW212417   0.513   6.397   6.033
 3840SOL     OW12418   2.481   1.686   3.656
 3840SOL    HW112419   2.498   1.722   3.748
 3840SOL    HW212420   2.508   1.753   3.588
 3841SOL     OW12421   0.841   3.802   3.937
 3841SOL    HW112422   0.939   3.789   3.925
 3841SOL    HW212423   0.824   3.881   3.995
 3842SOL     OW12424   1.808   5.251   0.313
 3842SOL    HW112425   1.785   5.310   0.391
 3842SOL    HW212426   1.829   5.308   0.234
 3843SOL     OW12427   5.867   4.287   0.031
 3843SOL    HW112428   5.923   4.278   0.114
 3843SOL    HW212429   5.926   4.284   6.969
 3844SOL     OW12430   2.643   4.721   5.682
 3844SOL    HW112431   2.629   4.709   5.584
 3844SOL    HW212432   2.565   4.771   5.721
 3845SOL     OW12433   3.435   3.744   4.245
 3845SOL    HW112434   3.427   3.748   4.145
 3845SOL    HW212435   3.467   3.833   4.279
 3846SOL     OW12436   0.060   4.832   4.468
 3846SOL    HW112437   0.132   4.766   4.445
 3846SOL    HW212438   7.007   4.830   4.397
 3847SOL     OW12439   0.941   0.043   1.067
 3847SOL    HW112440   1.010   6.998   1.102
 3847SOL    HW212441   0.852   7.015   1.066
 3848SOL     OW12442   3.100   6.231   1.725
 3848SOL    HW112443   3.003   6.248   1.706
 3848SOL    HW212444   3.148   6.218   1.638
 3849SOL     OW12445   2.600   1.468   5.667
 3849SOL    HW112446   2.526   1.535   5.667
 3849SOL    HW212447   2.669   1.495   5.733
 3850SOL     OW12448   1.975   3.842   1.429
 3850SOL    HW112449   1.933   3.928   1.399
 3850SOL    HW212450   2.013   3.855   1.521
 3851SOL     OW12451   2.424   2.810   1.255
 3851SOL    HW112452   2.481   2.877   1.303
 3851SOL    HW212453   2.328   2.831   1.269
 3852SOL     OW12454   4.518   1.240   5.349
 3852SOL    HW112455   4.447   1.220   5.281
 3852SOL    HW212456   4.502   1.186   5.432
 3853SOL     OW12457   0.682   4.177   1.575
 3853SOL    HW112458   0.741   4.257   1.574
 3853SOL    HW212459   0.734   4.097   1.604
 3854SOL     OW12460   1.638   3.305   4.193
 3854SOL    HW112461   1.705   3.376   4.210
 3854SOL    HW212462   1.576   3.297   4.271
 3855SOL     OW12463   6.897   1.352   5.249
 3855SOL    HW112464   6.801   1.326   5.241
 3855SOL    HW212465   6.925   1.404   5.169
 3856SOL     OW12466   1.830   6.077   6.071
 3856SOL    HW112467   1.849   6.095   5.975
 3856SOL    HW212468   1.733   6.091   6.090
 3857SOL     OW12469   0.738   0.430   6.228
 3857SOL    HW112470   0.745   0.510   6.288
 3857SOL    HW212471   0.652   0.382   6.246
 3858SOL     OW12472   3.189   4.459   6.955
 3858SOL    HW112473   3.157   4.394   0.006
 3858SOL    HW212474   3.167   4.552   6.984
 3859SOL     OW12475   6.157   2.577   2.365
 3859SOL    HW112476   6.241   2.598   2.315
 3859SOL    HW212477   6.079   2.585   2.304
 3860SOL     OW12478   2.624   6.229   4.951
 3860SOL    HW112479   2.684   6.149   4.942
 3860SOL    HW212480   2.533   6.199   4.981
 3861SOL     OW12481   3.720   4.348   0.119
 3861SOL    HW112482   3.740   4.252   0.102
 3861SOL    HW212483   3.673   4.358   0.206
 3862SOL     OW12484   0.940   5.642   5.795
 3862SOL    HW112485   0.872   5.582   5.838
 3862SOL    HW212486   1.018   5.586   5.764
 3863SOL     OW12487   2.558   3.329   0.286
 3863SOL    HW112488   2.615   3.281   0.353
 3863SOL    HW212489   2.493   3.265   0.246
 3864SOL     OW12490   3.103   1.949   1.274
 3864SOL    HW112491   3.064   1.953   1.182
 3864SOL    HW212492   3.172   1.876   1.278
 3865SOL     OW12493   4.118   1.016   2.230
 3865SOL    HW112494   4.058   0.940   2.203
 3865SOL    HW212495   4.209   0.981   2.252
 3866SOL     OW12496   3.593   6.408   6.870
 3866SOL    HW112497   3.625   6.464   6.947
 3866SOL    HW212498   3.603   6.460   6.785
 3867SOL     OW12499   1.678   4.951   3.122
 3867SOL    HW112500   1.749   4.924   3.058
 3867SOL    HW212501   1.712   5.024   3.181
 3868SOL     OW12502   2.118   5.468   2.797
 3868SOL    HW112503   2.191   5.480   2.729
 3868SOL    HW212504   2.156   5.425   2.879
 3869SOL     OW12505   0.494   1.774   3.797
 3869SOL    HW112506   0.534   1.846   3.741
 3869SOL    HW212507   0.436   1.716   3.740
 3870SOL     OW12508   3.803   3.494   0.590
 3870SOL    HW112509   3.782   3.405   0.550
 3870SOL    HW212510   3.722   3.532   0.634
 3871SOL     OW12511   2.868   1.271   5.060
 3871SOL    HW112512   2.867   1.298   5.156
 3871SOL    HW212513   2.842   1.175   5.051
 3872SOL     OW12514   4.415   4.168   1.076
 3872SOL    HW112515   4.483   4.117   1.128
 3872SOL    HW212516   4.350   4.104   1.035
 3873SOL     OW12517   5.619   4.334   2.009
 3873SOL    HW112518   5.603   4.432   2.020
 3873SOL    HW212519   5.646   4.295   2.097
 3874SOL     OW12520   4.726   5.984   6.170
 3874SOL    HW112521   4.805   5.964   6.113
 3874SOL    HW212522   4.685   6.070   6.141
 3875SOL     OW12523   2.562   3.814   0.289
 3875SOL    HW112524   2.494   3.874   0.248
 3875SOL    HW212525   2.543   3.804   0.387
 3876SOL     OW12526   5.956   3.755   2.539
 3876SOL    HW112527   5.898   3.713   2.469
 3876SOL    HW212528   5.929   3.850   2.553
 3877SOL     OW12529   4.621   1.815   2.341
 3877SOL    HW112530   4.594   1.844   2.249
 3877SOL    HW212531   4.692   1.745   2.335
 3878SOL     OW12532   4.990   5.854   4.346
 3878SOL    HW112533   4.976   5.882   4.251
 3878SOL    HW212534   5.017   5.933   4.401
 3879SOL     OW12535   3.058   5.871   0.586
 3879SOL    HW112536   3.088   5.875   0.681
 3879SOL    HW212537   3.016   5.782   0.569
 3880SOL     OW12538   6.344   1.735   4.305
 3880SOL    HW112539   6.378   1.782   4.224
 3880SOL    HW212540   6.384   1.777   4.387
 3881SOL     OW12541   0.430   5.755   6.253
 3881SOL    HW112542   0.422   5.655   6.256
 3881SOL    HW212543   0.339   5.796   6.250
 3882SOL     OW12544   0.443   6.454   6.356
 3882SOL    HW112545   0.475   6.373   6.406
 3882SOL    HW212546   0.482   6.454   6.264
 3883SOL     OW12547   3.536   1.572   0.002
 3883SOL    HW112548   3.562   1.581   6.924
 3883SOL    HW212549   3.462   1.505   0.011
 3884SOL     OW12550   2.465   5.271   5.704
 3884SOL    HW112551   2.473   5.218   5.789
 3884SOL    HW212552   2.553   5.272   5.657
 3885SOL     OW12553   6.609   0.581   4.233
 3885SOL    HW112554   6.548   0.578   4.312
 3885SOL    HW212555   6.657   0.669   4.232
 3886SOL     OW12556   0.366   5.972   4.876
 3886SOL    HW112557   0.295   5.906   4.852
 3886SOL    HW212558   0.327   6.064   4.877
 3887SOL     OW12559   5.656   2.939   4.815
 3887SOL    HW112560   5.738   2.894   4.851
 3887SOL    HW212561   5.633   3.018   4.872
 3888SOL     OW12562   5.464   1.199   2.985
 3888SOL    HW112563   5.395   1.155   2.927
 3888SOL    HW212564   5.428   1.285   3.021
 3889SOL     OW12565   6.352   5.735   6.439
 3889SOL    HW112566   6.262   5.761   6.475
 3889SOL    HW212567   6.342   5.657   6.378
 3890SOL     OW12568   6.470   3.221   3.282
 3890SOL    HW112569   6.380   3.183   3.306
 3890SOL    HW212570   6.463   3.271   3.196
 3891SOL     OW12571   4.455   4.639   6.216
 3891SOL    HW112572   4.406   4.639   6.129
 3891SOL    HW212573   4.393   4.670   6.288
 3892SOL     OW12574   5.490   5.800   3.945
 3892SOL    HW112575   5.481   5.855   3.862
 3892SOL    HW212576   5.412   5.738   3.952
 3893SOL     OW12577   2.969   6.117   4.442
 3893SOL    HW112578   2.881   6.164   4.449
 3893SOL    HW212579   2.956   6.019   4.456
 3894SOL     OW12580   5.756   5.443   6.742
 3894SOL    HW112581   5.800   5.510   6.682
 3894SOL    HW212582   5.706   5.376   6.687
 3895SOL     OW12583   1.774   2.122   6.154
 3895SOL    HW112584   1.812   2.214   6.149
 3895SOL    HW212585   1.766   2.093   6.249
 3896SOL     OW12586   6.477   3.011   0.727
 3896SOL    HW112587   6.416   3.012   0.806
 3896SOL    HW212588   6.434   2.958   0.653
 3897SOL     OW12589   2.831   6.680   3.522
 3897SOL    HW112590   2.905   6.746   3.514
 3897SOL    HW212591   2.747   6.720   3.487
 3898SOL     OW12592   3.305   3.521   3.909
 3898SOL    HW112593   3.222   3.511   3.853
 3898SOL    HW212594   3.352   3.605   3.884
 3899SOL     OW12595   5.089   1.824   6.795
 3899SOL    HW112596   4.994   1.798   6.778
 3899SOL    HW212597   5.103   1.918   6.764
 3900SOL     OW12598   0.640   2.798   3.229
 3900SOL    HW112599   0.637   2.824   3.326
 3900SOL    HW212600   0.617   2.877   3.172
 3901SOL     OW12601   3.598   5.907   5.423
 3901SOL    HW112602   3.595   5.825   5.480
 3901SOL    HW212603   3.681   5.959   5.443
 3902SOL     OW12604   3.525   5.591   3.138
 3902SOL    HW112605   3.483   5.650   3.070
 3902SOL    HW212606   3.473   5.507   3.147
 3903SOL     OW12607   3.605   3.539   6.356
 3903SOL    HW112608   3.681   3.503   6.411
 3903SOL    HW212609   3.641   3.608   6.292
 3904SOL     OW12610   2.308   6.146   0.047
 3904SOL    HW112611   2.210   6.160   0.036
 3904SOL    HW212612   2.348   6.225   0.093
 3905SOL     OW12613   4.446   0.673   5.574
 3905SOL    HW112614   4.536   0.652   5.612
 3905SOL    HW212615   4.380   0.604   5.603
 3906SOL     OW12616   6.549   5.946   4.370
 3906SOL    HW112617   6.646   5.968   4.369
 3906SOL    HW212618   6.496   6.028   4.348
 3907SOL     OW12619   0.826   1.519   4.300
 3907SOL    HW112620   0.896   1.465   4.348
 3907SOL    HW212621   0.759   1.457   4.259
 3908SOL     OW12622   2.220   1.236   4.710
 3908SOL    HW112623   2.225   1.137   4.692
 3908SOL    HW212624   2.193   1.250   4.806
 3909SOL     OW12625   5.831   3.220   2.059
 3909SOL    HW112626   5.860   3.183   2.147
 3909SOL    HW212627   5.732   3.220   2.054
 3910SOL     OW12628   2.144   2.924   1.239
 3910SOL    HW112629   2.129   3.004   1.182
 3910SOL    HW212630   2.056   2.888   1.271
 3911SOL     OW12631   6.759   1.342   1.063
 3911SOL    HW112632   6.819   1.305   1.133
 3911SOL    HW212633   6.732   1.268   1.001
 3912SOL     OW12634   5.065   3.798   0.360
 3912SOL    HW112635   5.155   3.837   0.344
 3912SOL    HW212636   4.995   3.870   0.351
 3913SOL     OW12637   3.990   4.938   1.348
 3913SOL    HW112638   3.975   4.852   1.299
 3913SOL    HW212639   3.924   4.946   1.422
 3914SOL     OW12640   0.253   0.953   0.810
 3914SOL    HW112641   0.226   0.988   0.720
 3914SOL    HW212642   0.339   0.997   0.837
 3915SOL     OW12643   5.671   0.469   4.932
 3915SOL    HW112644   5.723   0.480   5.017
 3915SOL    HW212645   5.683   0.550   4.875
 3916SOL     OW12646   1.697   2.596   2.152
 3916SOL    HW112647   1.679   2.572   2.247
 3916SOL    HW212648   1.789   2.635   2.144
 3917SOL     OW12649   4.699   5.594   2.523
 3917SOL    HW112650   4.640   5.673   2.504
 3917SOL    HW212651   4.779   5.624   2.574
 3918SOL     OW12652   4.080   0.040   1.325
 3918SOL    HW112653   4.103   0.134   1.298
 3918SOL    HW212654   4.017   0.043   1.403
 3919SOL     OW12655   5.098   5.418   3.078
 3919SOL    HW112656   5.129   5.462   3.162
 3919SOL    HW212657   5.001   5.393   3.087
 3920SOL     OW12658   4.438   1.235   5.932
 3920SOL    HW112659   4.345   1.202   5.946
 3920SOL    HW212660   4.460   1.303   6.002
 3921SOL     OW12661   1.395   2.855   6.199
 3921SOL    HW112662   1.372   2.867   6.296
 3921SOL    HW212663   1.474   2.912   6.176
 3922SOL     OW12664   5.643   2.680   4.189
 3922SOL    HW112665   5.670   2.714   4.099
 3922SOL    HW212666   5.683   2.589   4.204
 3923SOL     OW12667   5.810   0.886   1.027
 3923SOL    HW112668   5.757   0.801   1.034
 3923SOL    HW212669   5.907   0.863   1.021
 3924SOL     OW12670   5.404   5.097   3.819
 3924SOL    HW112671   5.308   5.081   3.839
 3924SOL    HW212672   5.427   5.193   3.837
 3925SOL     OW12673   3.624   4.457   1.619
 3925SOL    HW112674   3.629   4.535   1.682
 3925SOL    HW212675   3.698   4.464   1.552
 3926SOL     OW12676   1.369   5.960   5.239
 3926SOL    HW112677   1.322   5.874   5.219
 3926SOL    HW212678   1.322   6.035   5.193
 3927SOL     OW12679   6.038   6.632   5.625
 3927SOL    HW112680   6.108   6.676   5.681
 3927SOL    HW212681   6.079   6.557   5.574
 3928SOL     OW12682   4.573   5.521   2.803
 3928SOL    HW112683   4.656   5.523   2.747
 3928SOL    HW212684   4.493   5.518   2.743
 3929SOL     OW12685   1.360   1.210   5.481
 3929SOL    HW112686   1.387   1.218   5.385
 3929SOL    HW212687   1.260   1.219   5.488
 3930SOL     OW12688   2.399   5.900   4.031
 3930SOL    HW112689   2.308   5.858   4.034
 3930SOL    HW212690   2.418   5.931   3.938
 3931SOL     OW12691   0.250   2.196   0.299
 3931SOL    HW112692   0.238   2.294   0.314
 3931SOL    HW212693   0.176   2.162   0.240
 3932SOL     OW12694   2.130   3.890   2.738
 3932SOL    HW112695   2.136   3.790   2.730
 3932SOL    HW212696   2.154   3.932   2.651
 3933SOL     OW12697   1.460   6.443   1.648
 3933SOL    HW112698   1.393   6.455   1.575
 3933SOL    HW212699   1.424   6.480   1.733
 3934SOL     OW12700   2.013   6.499   2.048
 3934SOL    HW112701   1.964   6.478   1.963
 3934SOL    HW212702   2.103   6.538   2.026
 3935SOL     OW12703   0.488   0.848   5.034
 3935SOL    HW112704   0.402   0.823   4.990
 3935SOL    HW212705   0.492   0.947   5.046
 3936SOL     OW12706   6.352   4.406   3.575
 3936SOL    HW112707   6.407   4.448   3.503
 3936SOL    HW212708   6.388   4.315   3.596
 3937SOL     OW12709   1.291   6.732   0.009
 3937SOL    HW112710   1.321   6.653   6.973
 3937SOL    HW212711   1.358   6.752   0.080
 3938SOL     OW12712   0.538   3.964   6.555
 3938SOL    HW112713   0.600   3.971   6.476
 3938SOL    HW212714   0.590   3.939   6.636
 3939SOL     OW12715   2.495   6.492   4.208
 3939SOL    HW112716   2.438   6.573   4.226
 3939SOL    HW212717   2.544   6.505   4.122
 3940SOL     OW12718   2.515   6.001   6.933
 3940SOL    HW112719   2.482   5.936   6.865
 3940SOL    HW212720   2.437   6.043   6.980
 3941SOL     OW12721   5.831   5.181   2.622
 3941SOL    HW112722   5.815   5.083   2.629
 3941SOL    HW212723   5.834   5.221   2.713
 3942SOL     OW12724   0.195   6.058   6.566
 3942SOL    HW112725   0.212   6.116   6.646
 3942SOL    HW212726   0.111   6.005   6.580
 3943SOL     OW12727   0.897   4.283   0.464
 3943SOL    HW112728   0.802   4.313   0.472
 3943SOL    HW212729   0.931   4.256   0.554
 3944SOL     OW12730   4.752   3.489   0.192
 3944SOL    HW112731   4.823   3.556   0.214
 3944SOL    HW212732   4.786   3.422   0.127
 3945SOL     OW12733   0.031   0.806   3.001
 3945SOL    HW112734   0.027   0.874   2.928
 3945SOL    HW212735   6.957   0.774   3.023
 3946SOL     OW12736   6.082   1.693   1.135
 3946SOL    HW112737   6.138   1.716   1.214
 3946SOL    HW212738   6.081   1.770   1.072
 3947SOL     OW12739   5.677   6.942   1.896
 3947SOL    HW112740   5.771   6.974   1.905
 3947SOL    HW212741   5.670   6.883   1.815
 3948SOL     OW12742   2.024   1.454   4.697
 3948SOL    HW112743   2.092   1.381   4.692
 3948SOL    HW212744   2.065   1.539   4.664
 3949SOL     OW12745   6.388   6.912   2.162
 3949SOL    HW112746   6.427   6.989   2.111
 3949SOL    HW212747   6.358   6.943   2.252
 3950SOL     OW12748   2.585   4.846   1.405
 3950SOL    HW112749   2.658   4.900   1.446
 3950SOL    HW212750   2.620   4.799   1.324
 3951SOL     OW12751   6.927   2.640   3.746
 3951SOL    HW112752   6.884   2.645   3.656
 3951SOL    HW212753   6.977   2.553   3.754
 3952SOL     OW12754   6.085   4.798   6.689
 3952SOL    HW112755   6.055   4.705   6.712
 3952SOL    HW212756   6.118   4.800   6.595
 3953SOL     OW12757   3.729   3.143   5.360
 3953SOL    HW112758   3.732   3.230   5.311
 3953SOL    HW212759   3.755   3.158   5.456
 3954SOL     OW12760   1.120   3.836   5.623
 3954SOL    HW112761   1.054   3.850   5.549
 3954SOL    HW212762   1.091   3.759   5.680
 3955SOL     OW12763   5.700   3.440   0.123
 3955SOL    HW112764   5.694   3.533   0.088
 3955SOL    HW212765   5.652   3.434   0.211
 3956SOL     OW12766   6.650   2.575   4.994
 3956SOL    HW112767   6.701   2.642   5.048
 3956SOL    HW212768   6.557   2.568   5.029
 3957SOL     OW12769   1.393   2.507   1.896
 3957SOL    HW112770   1.482   2.468   1.916
 3957SOL    HW212771   1.387   2.528   1.798
 3958SOL     OW12772   5.829   5.193   1.185
 3958SOL    HW112773   5.736   5.177   1.216
 3958SOL    HW212774   5.855   5.288   1.207
 3959SOL     OW12775   3.079   4.925   1.648
 3959SOL    HW112776   3.097   4.857   1.719
 3959SOL    HW212777   3.082   4.881   1.558
 3960SOL     OW12778   5.975   2.321   0.725
 3960SOL    HW112779   5.989   2.292   0.630
 3960SOL    HW212780   5.878   2.321   0.746
 3961SOL     OW12781   6.733   1.096   0.891
 3961SOL    HW112782   6.697   1.040   0.966
 3961SOL    HW212783   6.698   1.063   0.804
 3962SOL     OW12784   0.072   0.020   6.567
 3962SOL    HW112785   0.145   6.988   6.521
 3962SOL    HW212786   0.029   6.981   6.636
 3963SOL     OW12787   5.364   3.865   4.579
 3963SOL    HW112788   5.286   3.808   4.605
 3963SOL    HW212789   5.400   3.911   4.660
 3964SOL     OW12790   5.723   4.425   6.863
 3964SOL    HW112791   5.676   4.398   6.779
 3964SOL    HW212792   5.734   4.345   6.922
 3965SOL     OW12793   2.401   4.129   1.287
 3965SOL    HW112794   2.476   4.193   1.302
 3965SOL    HW212795   2.406   4.055   1.354
 3966SOL     OW12796   0.242   3.311   5.129
 3966SOL    HW112797   0.151   3.321   5.089
 3966SOL    HW212798   0.239   3.337   5.226
 3967SOL     OW12799   2.448   0.032   0.626
 3967SOL    HW112800   2.480   6.960   0.655
 3967SOL    HW212801   2.459   0.040   0.527
 3968SOL     OW12802   4.469   2.781   0.606
 3968SOL    HW112803   4.424   2.736   0.684
 3968SOL    HW212804   4.559   2.814   0.634
 3969SOL     OW12805   6.337   6.501   0.474
 3969SOL    HW112806   6.299   6.568   0.538
 3969SOL    HW212807   6.436   6.498   0.484
 3970SOL     OW12808   5.898   4.258   4.019
 3970SOL    HW112809   5.866   4.341   3.973
 3970SOL    HW212810   5.991   4.273   4.053
 3971SOL     OW12811   0.672   5.920   4.243
 3971SOL    HW112812   0.626   6.008   4.254
 3971SOL    HW212813   0.758   5.934   4.195
 3972SOL     OW12814   1.015   0.509   6.557
 3972SOL    HW112815   1.020   0.424   6.504
 3972SOL    HW212816   0.991   0.585   6.496
 3973SOL     OW12817   4.150   3.193   1.911
 3973SOL    HW112818   4.126   3.290   1.905
 3973SOL    HW212819   4.245   3.181   1.880
 3974SOL     OW12820   5.170   0.867   6.943
 3974SOL    HW112821   5.124   0.952   6.917
 3974SOL    HW212822   5.129   0.832   0.010
 3975SOL     OW12823   0.302   6.302   4.196
 3975SOL    HW112824   0.307   6.259   4.106
 3975SOL    HW212825   0.369   6.260   4.257
 3976SOL     OW12826   1.317   2.811   5.425
 3976SOL    HW112827   1.350   2.752   5.499
 3976SOL    HW212828   1.217   2.812   5.426
 3977SOL     OW12829   3.051   4.878   5.814
 3977SOL    HW112830   2.954   4.889   5.837
 3977SOL    HW212831   3.103   4.953   5.855
 3978SOL     OW12832   4.862   2.875   6.130
 3978SOL    HW112833   4.805   2.840   6.056
 3978SOL    HW212834   4.950   2.905   6.093
 3979SOL     OW12835   1.292   5.897   3.277
 3979SOL    HW112836   1.389   5.875   3.263
 3979SOL    HW212837   1.235   5.827   3.233
 3980SOL     OW12838   4.893   3.982   4.462
 3980SOL    HW112839   4.888   3.882   4.457
 3980SOL    HW212840   4.892   4.020   4.370
 3981SOL     OW12841   0.056   1.189   6.391
 3981SOL    HW112842   7.018   1.217   6.313
 3981SOL    HW212843   0.044   1.253   6.466
 3982SOL     OW12844   1.925   3.112   4.543
 3982SOL    HW112845   1.933   3.013   4.555
 3982SOL    HW212846   1.862   3.132   4.468
 3983SOL     OW12847   2.899   0.331   3.782
 3983SOL    HW112848   2.977   0.369   3.831
 3983SOL    HW212849   2.898   0.365   3.688
 3984SOL     OW12850   1.355   5.691   2.177
 3984SOL    HW112851   1.383   5.772   2.230
 3984SOL    HW212852   1.422   5.673   2.105
 3985SOL     OW12853   1.504   2.868   1.525
 3985SOL    HW112854   1.475   2.927   1.450
 3985SOL    HW212855   1.506   2.920   1.610
 3986SOL     OW12856   6.945   2.436   3.214
 3986SOL    HW112857   6.988   2.349   3.188
 3986SOL    HW212858   6.861   2.449   3.162
 3987SOL     OW12859   0.660   4.248   5.319
 3987SOL    HW112860   0.622   4.166   5.278
 3987SOL    HW212861   0.728   4.223   5.389
 3988SOL     OW12862   5.192   6.936   1.839
 3988SOL    HW112863   5.175   6.865   1.908
 3988SOL    HW212864   5.107   6.959   1.793
 3989SOL     OW12865   4.633   0.868   5.824
 3989SOL    HW112866   4.676   0.944   5.774
 3989SOL    HW212867   4.676   0.782   5.797
 3990SOL     OW12868   6.133   0.556   4.366
 3990SOL    HW112869   6.095   0.640   4.327
 3990SOL    HW212870   6.158   0.494   4.292
 3991SOL     OW12871   6.451   1.897   3.725
 3991SOL    HW112872   6.514   1.966   3.760
 3991SOL    HW212873   6.386   1.940   3.661
 3992SOL     OW12874   5.842   3.731   5.948
 3992SOL    HW112875   5.932   3.773   5.935
 3992SOL    HW212876   5.771   3.800   5.931
 3993SOL     OW12877   1.918   0.526   4.343
 3993SOL    HW112878   1.858   0.581   4.285
 3993SOL    HW212879   1.939   0.577   4.427
 3994SOL     OW12880   2.555   2.071   3.827
 3994SOL    HW112881   2.623   2.003   3.802
 3994SOL    HW212882   2.468   2.049   3.782
 3995SOL     OW12883   1.354   3.286   1.860
 3995SOL    HW112884   1.282   3.223   1.891
 3995SOL    HW212885   1.351   3.369   1.916
 3996SOL     OW12886   0.024   6.332   5.017
 3996SOL    HW112887   6.991   6.337   4.931
 3996SOL    HW212888   0.101   6.395   5.014
 3997SOL     OW12889   5.854   3.826   4.520
 3997SOL    HW112890   5.809   3.738   4.528
 3997SOL    HW212891   5.787   3.899   4.533
 3998SOL     OW12892   4.625   1.878   3.584
 3998SOL    HW112893   4.561   1.801   3.591
 3998SOL    HW212894   4.682   1.865   3.503
 3999SOL     OW12895   5.009   2.557   0.802
 3999SOL    HW112896   5.033   2.601   0.889
 3999SOL    HW212897   5.074   2.484   0.783
 4000SOL     OW12898   1.893   4.561   2.861
 4000SOL    HW112899   1.855   4.550   2.953
 4000SOL    HW212900   1.992   4.556   2.864
 4001SOL     OW12901   0.669   5.994   4.678
 4001SOL    HW112902   0.587   6.044   4.650
 4001SOL    HW212903   0.732   6.058   4.723
 4002SOL     OW12904   4.064   3.811   4.574
 4002SOL    HW112905   4.137   3.743   4.576
 4002SOL    HW212906   4.033   3.829   4.667
 4003SOL     OW12907   2.839   1.050   4.673
 4003SOL    HW112908   2.835   1.147   4.696
 4003SOL    HW212909   2.747   1.011   4.677
 4004SOL     OW12910   1.744   3.586   4.755
 4004SOL    HW112911   1.660   3.531   4.757
 4004SOL    HW212912   1.818   3.535   4.798
 4005SOL     OW12913   5.678   2.916   0.756
 4005SOL    HW112914   5.581   2.891   0.749
 4005SOL    HW212915   5.734   2.847   0.710
 4006SOL     OW12916   0.226   5.828   2.048
 4006SOL    HW112917   0.150   5.768   2.024
 4006SOL    HW212918   0.303   5.810   1.987
 4007SOL     OW12919   0.543   1.158   1.592
 4007SOL    HW112920   0.596   1.177   1.675
 4007SOL    HW212921   0.454   1.202   1.599
 4008SOL     OW12922   3.929   0.856   1.333
 4008SOL    HW112923   4.003   0.789   1.338
 4008SOL    HW212924   3.843   0.811   1.309
 4009SOL     OW12925   3.597   2.678   1.277
 4009SOL    HW112926   3.691   2.693   1.244
 4009SOL    HW212927   3.598   2.607   1.347
 4010SOL     OW12928   1.697   4.427   0.844
 4010SOL    HW112929   1.729   4.431   0.750
 4010SOL    HW212930   1.733   4.505   0.895
 4011SOL     OW12931   6.322   6.677   6.049
 4011SOL    HW112932   6.279   6.617   6.117
 4011SOL    HW212933   6.421   6.671   6.058
 4012SOL     OW12934   5.424   5.377   1.810
 4012SOL    HW112935   5.444   5.326   1.726
 4012SOL    HW212936   5.326   5.379   1.825
 4013SOL     OW12937   0.136   1.729   0.247
 4013SOL    HW112938   0.209   1.725   0.315
 4013SOL    HW212939   0.168   1.688   0.161
 4014SOL     OW12940   3.367   5.840   2.745
 4014SOL    HW112941   3.374   5.784   2.663
 4014SOL    HW212942   3.371   5.782   2.826
 4015SOL     OW12943   3.862   6.253   5.083
 4015SOL    HW112944   3.864   6.153   5.079
 4015SOL    HW212945   3.955   6.289   5.075
 4016SOL     OW12946   4.761   5.431   4.611
 4016SOL    HW112947   4.757   5.341   4.567
 4016SOL    HW212948   4.758   5.502   4.540
 4017SOL     OW12949   1.952   5.676   6.217
 4017SOL    HW112950   1.905   5.746   6.272
 4017SOL    HW212951   1.902   5.590   6.226
 4018SOL     OW12952   4.606   5.415   0.964
 4018SOL    HW112953   4.680   5.356   0.997
 4018SOL    HW212954   4.548   5.365   0.901
 4019SOL     OW12955   7.012   2.683   3.112
 4019SOL    HW112956   6.978   2.594   3.142
 4019SOL    HW212957   0.028   2.676   3.018
 4020SOL     OW12958   6.634   5.724   4.509
 4020SOL    HW112959   6.723   5.711   4.465
 4020SOL    HW212960   6.580   5.791   4.457
 4021SOL     OW12961   4.534   5.136   5.915
 4021SOL    HW112962   4.545   5.233   5.937
 4021SOL    HW212963   4.544   5.081   5.998
 4022SOL     OW12964   3.457   0.025   1.382
 4022SOL    HW112965   3.516   6.980   1.332
 4022SOL    HW212966   3.361   7.016   1.371
 4023SOL     OW12967   0.415   2.110   4.211
 4023SOL    HW112968   0.476   2.033   4.229
 4023SOL    HW212969   0.454   2.193   4.249
 4024SOL     OW12970   0.275   6.218   6.170
 4024SOL    HW112971   0.197   6.210   6.108
 4024SOL    HW212972   0.359   6.232   6.117
 4025SOL     OW12973   6.765   4.941   4.080
 4025SOL    HW112974   6.668   4.962   4.092
 4025SOL    HW212975   6.819   5.026   4.084
 4026SOL     OW12976   0.511   7.010   4.163
 4026SOL    HW112977   0.486   7.005   4.067
 4026SOL    HW212978   0.429   7.018   4.219
 4027SOL     OW12979   2.978   5.203   5.267
 4027SOL    HW112980   2.917   5.133   5.305
 4027SOL    HW212981   2.954   5.292   5.304
 4028SOL     OW12982   5.285   1.799   4.814
 4028SOL    HW112983   5.316   1.767   4.903
 4028SOL    HW212984   5.252   1.893   4.822
 4029SOL     OW12985   1.468   6.855   0.717
 4029SOL    HW112986   1.478   6.893   0.809
 4029SOL    HW212987   1.379   6.809   0.709
 4030SOL     OW12988   0.527   1.571   1.774
 4030SOL    HW112989   0.472   1.542   1.695
 4030SOL    HW212990   0.607   1.621   1.741
 4031SOL     OW12991   5.962   5.672   0.332
 4031SOL    HW112992   6.012   5.732   0.269
 4031SOL    HW212993   5.931   5.591   0.283
 4032SOL     OW12994   5.127   1.792   2.787
 4032SOL    HW112995   5.102   1.725   2.717
 4032SOL    HW212996   5.106   1.884   2.753
 4033SOL     OW12997   1.543   2.962   3.031
 4033SOL    HW112998   1.554   2.863   3.016
 4033SOL    HW212999   1.471   2.997   2.971
 4034SOL     OW13000   1.726   2.376   4.492
 4034SOL    HW113001   1.717   2.331   4.403
 4034SOL    HW213002   1.815   2.354   4.531
 4035SOL     OW13003   4.162   2.421   1.687
 4035SOL    HW113004   4.062   2.409   1.692
 4035SOL    HW213005   4.189   2.425   1.591
 4036SOL     OW13006   3.940   6.118   3.548
 4036SOL    HW113007   4.024   6.144   3.596
 4036SOL    HW213008   3.919   6.022   3.566
 4037SOL     OW13009   1.797   2.083   6.453
 4037SOL    HW113010   1.844   2.166   6.482
 4037SOL    HW213011   1.709   2.077   6.500
 4038SOL     OW13012   3.647   4.861   6.036
 4038SOL    HW113013   3.677   4.766   6.030
 4038SOL    HW213014   3.567   4.868   6.096
 4039SOL     OW13015   5.881   4.370   1.862
 4039SOL    HW113016   5.907   4.423   1.781
 4039SOL    HW213017   5.783   4.351   1.859
 4040SOL     OW13018   3.112   0.389   5.050
 4040SOL    HW113019   3.156   0.301   5.069
 4040SOL    HW213020   3.152   0.430   4.968
 4041SOL     OW13021   1.406   5.814   1.675
 4041SOL    HW113022   1.457   5.733   1.647
 4041SOL    HW213023   1.453   5.859   1.751
 4042SOL     OW13024   0.237   1.706   2.954
 4042SOL    HW113025   0.310   1.638   2.964
 4042SOL    HW213026   0.252   1.780   3.019
 4043SOL     OW13027   4.452   2.053   6.015
 4043SOL    HW113028   4.474   2.036   5.918
 4043SOL    HW213029   4.529   2.097   6.059
 4044SOL     OW13030   4.550   4.470   3.332
 4044SOL    HW113031   4.503   4.504   3.250
 4044SOL    HW213032   4.560   4.545   3.397
 4045SOL     OW13033   4.775   1.239   5.233
 4045SOL    HW113034   4.691   1.226   5.285
 4045SOL    HW213035   4.770   1.324   5.181
 4046SOL     OW13036   5.062   1.600   4.286
 4046SOL    HW113037   5.161   1.603   4.296
 4046SOL    HW213038   5.033   1.674   4.225
 4047SOL     OW13039   3.092   2.332   6.393
 4047SOL    HW113040   3.018   2.267   6.376
 4047SOL    HW213041   3.138   2.307   6.478
 4048SOL     OW13042   4.962   2.117   3.442
 4048SOL    HW113043   4.895   2.171   3.493
 4048SOL    HW213044   4.974   2.028   3.486
 4049SOL     OW13045   4.304   3.843   1.291
 4049SOL    HW113046   4.256   3.766   1.248
 4049SOL    HW213047   4.287   3.843   1.389
 4050SOL     OW13048   6.982   5.197   2.748
 4050SOL    HW113049   6.924   5.162   2.675
 4050SOL    HW213050   0.059   5.200   2.716
 4051SOL     OW13051   5.262   0.724   4.576
 4051SOL    HW113052   5.267   0.823   4.593
 4051SOL    HW213053   5.197   0.707   4.502
 4052SOL     OW13054   4.830   1.899   4.459
 4052SOL    HW113055   4.855   1.877   4.553
 4052SOL    HW213056   4.883   1.977   4.427
 4053SOL     OW13057   0.882   5.136   3.775
 4053SOL    HW113058   0.868   5.137   3.874
 4053SOL    HW213059   0.962   5.081   3.753
 4054SOL     OW13060   4.733   3.656   1.280
 4054SOL    HW113061   4.819   3.704   1.260
 4054SOL    HW213062   4.739   3.562   1.246
 4055SOL     OW13063   0.027   4.295   6.971
 4055SOL    HW113064   0.032   4.326   0.048
 4055SOL    HW213065   6.956   4.321   6.932
 4056SOL     OW13066   5.078   3.238   7.006
 4056SOL    HW113067   4.996   3.296   7.003
 4056SOL    HW213068   5.054   3.148   0.023
 4057SOL     OW13069   0.051   3.444   6.508
 4057SOL    HW113070   0.022   3.459   6.413
 4057SOL    HW213071   0.033   3.527   6.561
 4058SOL     OW13072   3.493   0.214   4.407
 4058SOL    HW113073   3.510   0.234   4.311
 4058SOL    HW213074   3.407   0.258   4.435
 4059SOL     OW13075   0.793   1.433   3.901
 4059SOL    HW113076   0.785   1.532   3.910
 4059SOL    HW213077   0.754   1.404   3.813
 4060SOL     OW13078   0.174   6.281   4.641
 4060SOL    HW113079   0.272   6.298   4.634
 4060SOL    HW213080   0.157   6.197   4.692
 4061SOL     OW13081   0.631   4.800   1.822
 4061SOL    HW113082   0.652   4.728   1.755
 4061SOL    HW213083   0.532   4.814   1.826
 4062SOL     OW13084   1.843   3.964   0.302
 4062SOL    HW113085   1.915   4.023   0.266
 4062SOL    HW213086   1.766   4.020   0.332
 4063SOL     OW13087   3.825   0.485   0.868
 4063SOL    HW113088   3.869   0.572   0.889
 4063SOL    HW213089   3.872   0.441   0.791
 4064SOL     OW13090   2.351   1.003   5.801
 4064SOL    HW113091   2.425   1.070   5.794
 4064SOL    HW213092   2.326   0.990   5.897
 4065SOL     OW13093   2.400   1.641   1.511
 4065SOL    HW113094   2.380   1.651   1.609
 4065SOL    HW213095   2.337   1.574   1.472
 4066SOL     OW13096   0.441   4.620   4.548
 4066SOL    HW113097   0.462   4.661   4.637
 4066SOL    HW213098   0.497   4.537   4.536
 4067SOL     OW13099   6.776   4.592   0.679
 4067SOL    HW113100   6.776   4.496   0.709
 4067SOL    HW213101   6.715   4.602   0.601
 4068SOL     OW13102   2.193   2.945   5.219
 4068SOL    HW113103   2.282   2.946   5.174
 4068SOL    HW213104   2.205   2.959   5.317
 4069SOL     OW13105   4.717   6.376   5.527
 4069SOL    HW113106   4.686   6.470   5.541
 4069SOL    HW213107   4.749   6.338   5.614
 4070SOL     OW13108   1.589   3.396   3.934
 4070SOL    HW113109   1.617   3.490   3.918
 4070SOL    HW213110   1.618   3.367   4.025
 4071SOL     OW13111   1.951   1.026   4.734
 4071SOL    HW113112   1.990   1.008   4.643
 4071SOL    HW213113   2.024   1.033   4.801
 4072SOL     OW13114   3.143   6.429   2.391
 4072SOL    HW113115   3.132   6.375   2.474
 4072SOL    HW213116   3.112   6.375   2.312
 4073SOL     OW13117   4.162   5.120   0.241
 4073SOL    HW113118   4.140   5.046   0.177
 4073SOL    HW213119   4.099   5.197   0.225
 4074SOL     OW13120   1.290   5.274   2.280
 4074SOL    HW113121   1.310   5.364   2.241
 4074SOL    HW213122   1.372   5.239   2.326
 4075SOL     OW13123   5.946   1.445   0.275
 4075SOL    HW113124   5.977   1.376   0.340
 4075SOL    HW213125   5.879   1.405   0.213
 4076SOL     OW13126   2.228   5.661   3.785
 4076SOL    HW113127   2.236   5.759   3.768
 4076SOL    HW213128   2.139   5.642   3.825
 4077SOL     OW13129   3.283   1.801   1.581
 4077SOL    HW113130   3.355   1.849   1.631
 4077SOL    HW213131   3.198   1.806   1.632
 4078SOL     OW13132   4.127   4.926   2.422
 4078SOL    HW113133   4.074   4.894   2.501
 4078SOL    HW213134   4.082   5.007   2.383
 4079SOL     OW13135   0.386   2.075   3.703
 4079SOL    HW113136   0.380   2.042   3.609
 4079SOL    HW213137   0.311   2.036   3.757
 4080SOL     OW13138   6.933   2.175   4.945
 4080SOL    HW113139   6.949   2.155   5.042
 4080SOL    HW213140   6.888   2.265   4.936
 4081SOL     OW13141   0.763   3.963   3.583
 4081SOL    HW113142   0.752   3.911   3.668
 4081SOL    HW213143   0.856   3.999   3.578
 4082SOL     OW13144   0.683   3.311   0.083
 4082SOL    HW113145   0.648   3.241   0.020
 4082SOL    HW213146   0.607   3.360   0.124
 4083SOL     OW13147   6.698   2.943   5.059
 4083SOL    HW113148   6.795   2.945   5.033
 4083SOL    HW213149   6.689   2.904   5.151
 4084SOL     OW13150   6.112   1.227   4.590
 4084SOL    HW113151   6.173   1.264   4.519
 4084SOL    HW213152   6.025   1.200   4.548
 4085SOL     OW13153   2.649   5.536   0.384
 4085SOL    HW113154   2.577   5.589   0.339
 4085SOL    HW213155   2.611   5.452   0.422
 4086SOL     OW13156   1.364   3.858   1.006
 4086SOL    HW113157   1.277   3.849   0.957
 4086SOL    HW213158   1.375   3.952   1.038
 4087SOL     OW13159   2.372   1.547   2.500
 4087SOL    HW113160   2.297   1.591   2.549
 4087SOL    HW213161   2.415   1.478   2.558
 4088SOL     OW13162   6.807   1.661   0.198
 4088SOL    HW113163   6.756   1.605   0.134
 4088SOL    HW213164   6.879   1.607   0.240
 4089SOL     OW13165   0.540   1.120   5.440
 4089SOL    HW113166   0.513   1.030   5.404
 4089SOL    HW213167   0.597   1.167   5.373
 4090SOL     OW13168   3.207   5.059   6.551
 4090SOL    HW113169   3.237   5.149   6.583
 4090SOL    HW213170   3.151   5.016   6.622
 4091SOL     OW13171   4.603   0.025   1.386
 4091SOL    HW113172   4.660   0.104   1.411
 4091SOL    HW213173   4.624   7.016   1.292
 4092SOL     OW13174   6.770   1.211   4.083
 4092SOL    HW113175   6.774   1.215   3.984
 4092SOL    HW213176   6.827   1.284   4.122
 4093SOL     OW13177   5.449   6.814   4.333
 4093SOL    HW113178   5.363   6.799   4.285
 4093SOL    HW213179   5.432   6.822   4.431
 4094SOL     OW13180   3.259   4.209   5.754
 4094SOL    HW113181   3.163   4.237   5.763
 4094SOL    HW213182   3.312   4.286   5.718
 4095SOL     OW13183   1.984   3.742   5.922
 4095SOL    HW113184   2.052   3.757   5.993
 4095SOL    HW213185   2.029   3.710   5.838
 4096SOL     OW13186   4.628   4.737   1.915
 4096SOL    HW113187   4.727   4.730   1.931
 4096SOL    HW213188   4.602   4.675   1.841
 4097SOL     OW13189   3.705   3.672   3.408
 4097SOL    HW113190   3.781   3.608   3.417
 4097SOL    HW213191   3.683   3.685   3.312
 4098SOL     OW13192   0.884   3.388   2.241
 4098SOL    HW113193   0.803   3.352   2.286
 4098SOL    HW213194   0.920   3.465   2.293
 4099SOL     OW13195   2.503   6.022   2.278
 4099SOL    HW113196   2.523   5.954   2.349
 4099SOL    HW213197   2.477   6.108   2.322
 4100SOL     OW13198   3.784   6.552   3.353
 4100SOL    HW113199   3.686   6.563   3.334
 4100SOL    HW213200   3.795   6.480   3.422
 4101SOL     OW13201   4.530   1.698   0.054
 4101SOL    HW113202   4.502   1.776   0.110
 4101SOL    HW213203   4.626   1.707   0.029
 4102SOL     OW13204   5.030   2.002   0.292
 4102SOL    HW113205   5.007   1.988   0.389
 4102SOL    HW213206   5.030   2.100   0.272
 4103SOL     OW13207   0.499   6.670   2.405
 4103SOL    HW113208   0.564   6.741   2.378
 4103SOL    HW213209   0.449   6.699   2.488
 4104SOL     OW13210   2.212   4.540   2.774
 4104SOL    HW113211   2.200   4.638   2.761
 4104SOL    HW213212   2.151   4.490   2.713
 4105SOL     OW13213   6.071   4.813   6.979
 4105SOL    HW113214   6.071   4.802   6.879
 4105SOL    HW213215   6.062   4.910   7.001
 4106SOL     OW13216   0.145   3.684   4.593
 4106SOL    HW113217   0.090   3.694   4.675
 4106SOL    HW213218   0.150   3.588   4.566
 4107SOL     OW13219   6.795   0.425   0.535
 4107SOL    HW113220   6.831   0.438   0.443
 4107SOL    HW213221   6.784   0.328   0.554
 4108SOL     OW13222   6.385   2.469   5.014
 4108SOL    HW113223   6.351   2.387   5.061
 4108SOL    HW213224   6.307   2.521   4.978
 4109SOL     OW13225   2.889   6.358   3.955
 4109SOL    HW113226   2.872   6.371   4.053
 4109SOL    HW213227   2.825   6.289   3.920
 4110SOL     OW13228   4.524   3.160   5.494
 4110SOL    HW113229   4.539   3.075   5.444
 4110SOL    HW213230   4.576   3.159   5.579
 4111SOL     OW13231   3.591   3.250   6.610
 4111SOL    HW113232   3.536   3.266   6.528
 4111SOL    HW213233   3.632   3.159   6.605
 4112SOL     OW13234   3.669   0.763   4.933
 4112SOL    HW113235   3.631   0.689   4.988
 4112SOL    HW213236   3.598   0.804   4.876
 4113SOL     OW13237   3.635   5.063   5.189
 4113SOL    HW113238   3.701   5.091   5.119
 4113SOL    HW213239   3.609   5.143   5.243
 4114SOL     OW13240   3.767   2.097   2.723
 4114SOL    HW113241   3.807   2.105   2.632
 4114SOL    HW213242   3.824   2.147   2.788
 4115SOL     OW13243   5.259   4.369   2.408
 4115SOL    HW113244   5.269   4.287   2.352
 4115SOL    HW213245   5.339   4.428   2.396
 4116SOL     OW13246   3.368   0.977   2.566
 4116SOL    HW113247   3.279   0.999   2.527
 4116SOL    HW213248   3.400   0.890   2.529
 4117SOL     OW13249   0.782   5.614   1.582
 4117SOL    HW113250   0.744   5.640   1.493
 4117SOL    HW213251   0.831   5.692   1.621
 4118SOL     OW13252   2.598   6.886   0.064
 4118SOL    HW113253   2.588   6.869   6.984
 4118SOL    HW213254   2.575   6.982   0.084
 4119SOL     OW13255   4.846   1.172   3.523
 4119SOL    HW113256   4.861   1.139   3.617
 4119SOL    HW213257   4.832   1.271   3.524
 4120SOL     OW13258   4.720   1.121   2.200
 4120SOL    HW113259   4.689   1.055   2.269
 4120SOL    HW213260   4.659   1.116   2.120
 4121SOL     OW13261   6.791   2.319   4.389
 4121SOL    HW113262   6.804   2.395   4.453
 4121SOL    HW213263   6.808   2.233   4.437
 4122SOL     OW13264   1.701   5.684   6.890
 4122SOL    HW113265   1.635   5.611   6.872
 4122SOL    HW213266   1.716   5.691   6.989
 4123SOL     OW13267   4.365   3.989   6.042
 4123SOL    HW113268   4.385   4.018   5.949
 4123SOL    HW213269   4.266   3.977   6.053
 4124SOL     OW13270   4.186   6.098   3.664
 4124SOL    HW113271   4.191   6.010   3.712
 4124SOL    HW213272   4.249   6.096   3.586
 4125SOL     OW13273   5.021   0.939   1.329
 4125SOL    HW113274   5.051   0.847   1.356
 4125SOL    HW213275   4.992   0.990   1.410
 4126SOL     OW13276   2.315   4.701   4.624
 4126SOL    HW113277   2.407   4.670   4.645
 4126SOL    HW213278   2.320   4.785   4.570
 4127SOL     OW13279   6.474   4.304   4.717
 4127SOL    HW113280   6.506   4.279   4.626
 4127SOL    HW213281   6.463   4.403   4.723
 4128SOL     OW13282   0.866   1.708   1.983
 4128SOL    HW113283   0.886   1.717   2.080
 4128SOL    HW213284   0.875   1.797   1.938
 4129SOL     OW13285   6.411   2.512   6.079
 4129SOL    HW113286   6.493   2.568   6.068
 4129SOL    HW213287   6.375   2.488   5.989
 4130SOL     OW13288   6.863   3.199   1.041
 4130SOL    HW113289   6.787   3.236   1.094
 4130SOL    HW213290   6.949   3.221   1.088
 4131SOL     OW13291   0.228   3.938   3.309
 4131SOL    HW113292   0.160   3.992   3.357
 4131SOL    HW213293   0.284   3.887   3.375
 4132SOL     OW13294   4.714   2.239   4.976
 4132SOL    HW113295   4.665   2.165   5.023
 4132SOL    HW213296   4.649   2.307   4.945
 4133SOL     OW13297   2.168   2.655   1.163
 4133SOL    HW113298   2.167   2.755   1.171
 4133SOL    HW213299   2.249   2.626   1.113
 4134SOL     OW13300   1.875   1.501   0.324
 4134SOL    HW113301   1.776   1.485   0.321
 4134SOL    HW213302   1.895   1.591   0.284
 4135SOL     OW13303   2.071   0.696   1.320
 4135SOL    HW113304   2.099   0.629   1.388
 4135SOL    HW213305   1.977   0.726   1.338
 4136SOL     OW13306   0.912   1.680   3.361
 4136SOL    HW113307   0.919   1.780   3.352
 4136SOL    HW213308   0.820   1.655   3.390
 4137SOL     OW13309   3.888   3.529   6.035
 4137SOL    HW113310   3.982   3.563   6.040
 4137SOL    HW213311   3.888   3.436   5.997
 4138SOL     OW13312   4.172   6.027   2.383
 4138SOL    HW113313   4.211   6.111   2.419
 4138SOL    HW213314   4.228   5.949   2.412
 4139SOL     OW13315   2.759   0.962   0.632
 4139SOL    HW113316   2.708   0.892   0.682
 4139SOL    HW213317   2.831   1.000   0.691
 4140SOL     OW13318   4.527   1.544   5.575
 4140SOL    HW113319   4.474   1.512   5.497
 4140SOL    HW213320   4.465   1.578   5.646
 4141SOL     OW13321   5.222   5.457   0.127
 4141SOL    HW113322   5.218   5.381   0.191
 4141SOL    HW213323   5.166   5.437   0.047
 4142SOL     OW13324   5.857   2.852   1.594
 4142SOL    HW113325   5.912   2.845   1.677
 4142SOL    HW213326   5.780   2.788   1.599
 4143SOL     OW13327   0.791   2.930   1.945
 4143SOL    HW113328   0.855   2.858   1.972
 4143SOL    HW213329   0.812   3.013   1.996
 4144SOL     OW13330   4.231   0.619   2.037
 4144SOL    HW113331   4.198   0.713   2.027
 4144SOL    HW213332   4.329   0.620   2.058
 4145SOL     OW13333   3.089   0.100   2.976
 4145SOL    HW113334   3.004   0.129   2.931
 4145SOL    HW213335   3.074   0.097   3.075
 4146SOL     OW13336   4.771   5.249   0.785
 4146SOL    HW113337   4.701   5.184   0.755
 4146SOL    HW213338   4.861   5.207   0.776
 4147SOL     OW13339   2.674   2.026   5.973
 4147SOL    HW113340   2.703   2.034   5.878
 4147SOL    HW213341   2.574   2.039   5.978
 4148SOL     OW13342   6.879   7.012   2.900
 4148SOL    HW113343   6.961   6.971   2.940
 4148SOL    HW213344   6.842   0.062   2.964
 4149SOL     OW13345   4.748   4.210   2.128
 4149SOL    HW113346   4.689   4.212   2.047
 4149SOL    HW213347   4.696   4.241   2.208
 4150SOL     OW13348   4.698   0.568   5.647
 4150SOL    HW113349   4.747   0.595   5.729
 4150SOL    HW213350   4.729   0.623   5.569
 4151SOL     OW13351   0.430   5.303   0.118
 4151SOL    HW113352   0.423   5.204   0.114
 4151SOL    HW213353   0.400   5.343   0.031
 4152SOL     OW13354   3.184   3.959   1.459
 4152SOL    HW113355   3.127   4.039   1.439
 4152SOL    HW213356   3.226   3.927   1.375
 4153SOL     OW13357   6.239   5.523   5.883
 4153SOL    HW113358   6.246   5.621   5.901
 4153SOL    HW213359   6.227   5.507   5.785
 4154SOL     OW13360   4.378   2.440   5.737
 4154SOL    HW113361   4.432   2.520   5.711
 4154SOL    HW213362   4.379   2.430   5.836
 4155SOL     OW13363   1.518   3.248   0.599
 4155SOL    HW113364   1.613   3.217   0.603
 4155SOL    HW213365   1.484   3.262   0.692
 4156SOL     OW13366   5.650   0.284   5.239
 4156SOL    HW113367   5.664   0.260   5.143
 4156SOL    HW213368   5.595   0.213   5.283
 4157SOL     OW13369   3.606   0.787   3.408
 4157SOL    HW113370   3.672   0.759   3.478
 4157SOL    HW213371   3.579   0.881   3.423
 4158SOL     OW13372   0.815   0.743   3.599
 4158SOL    HW113373   0.717   0.747   3.583
 4158SOL    HW213374   0.851   0.657   3.563
 4159SOL     OW13375   0.355   3.821   5.318
 4159SOL    HW113376   0.423   3.757   5.354
 4159SOL    HW213377   0.320   3.878   5.392
 4160SOL     OW13378   0.721   0.265   1.342
 4160SOL    HW113379   0.667   0.184   1.363
 4160SOL    HW213380   0.670   0.325   1.279
 4161SOL     OW13381   6.285   1.635   0.878
 4161SOL    HW113382   6.236   1.717   0.906
 4161SOL    HW213383   6.311   1.582   0.958
 4162SOL     OW13384   0.494   6.680   5.160
 4162SOL    HW113385   0.568   6.719   5.214
 4162SOL    HW213386   0.530   6.607   5.101
 4163SOL     OW13387   6.406   1.379   5.391
 4163SOL    HW113388   6.414   1.345   5.298
 4163SOL    HW213389   6.309   1.390   5.415
 4164SOL     OW13390   2.660   6.516   5.988
 4164SOL    HW113391   2.698   6.520   5.896
 4164SOL    HW213392   2.642   6.608   6.021
 4165SOL     OW13393   2.561   5.853   2.479
 4165SOL    HW113394   2.591   5.759   2.488
 4165SOL    HW213395   2.532   5.888   2.568
 4166SOL     OW13396   6.487   1.862   1.624
 4166SOL    HW113397   6.421   1.912   1.568
 4166SOL    HW213398   6.443   1.836   1.710
 4167SOL     OW13399   1.722   2.957   1.140
 4167SOL    HW113400   1.667   2.902   1.077
 4167SOL    HW213401   1.741   2.905   1.223
 4168SOL     OW13402   1.897   5.348   1.484
 4168SOL    HW113403   1.900   5.316   1.579
 4168SOL    HW213404   1.804   5.344   1.450
 4169SOL     OW13405   6.207   3.662   5.605
 4169SOL    HW113406   6.129   3.601   5.592
 4169SOL    HW213407   6.287   3.608   5.633
 4170SOL     OW13408   3.604   1.267   5.080
 4170SOL    HW113409   3.538   1.276   5.004
 4170SOL    HW213410   3.685   1.322   5.060
 4171SOL     OW13411   5.974   3.526   1.413
 4171SOL    HW113412   5.884   3.510   1.453
 4171SOL    HW213413   6.025   3.592   1.469
 4172SOL     OW13414   2.540   0.901   0.341
 4172SOL    HW113415   2.486   0.847   0.276
 4172SOL    HW213416   2.571   0.985   0.297
 4173SOL     OW13417   4.920   3.262   5.977
 4173SOL    HW113418   5.010   3.238   5.941
 4173SOL    HW213419   4.880   3.334   5.920
 4174SOL     OW13420   5.502   0.630   4.049
 4174SOL    HW113421   5.413   0.636   4.094
 4174SOL    HW213422   5.567   0.586   4.111
 4175SOL     OW13423   2.849   1.469   2.720
 4175SOL    HW113424   2.862   1.404   2.646
 4175SOL    HW213425   2.809   1.422   2.799
 4176SOL     OW13426   5.781   4.365   2.445
 4176SOL    HW113427   5.862   4.308   2.460
 4176SOL    HW213428   5.741   4.391   2.533
 4177SOL     OW13429   6.374   5.432   3.395
 4177SOL    HW113430   6.412   5.340   3.386
 4177SOL    HW213431   6.274   5.427   3.390
 4178SOL     OW13432   4.033   2.542   5.586
 4178SOL    HW113433   3.948   2.553   5.637
 4178SOL    HW213434   4.043   2.618   5.521
 4179SOL     OW13435   6.907   2.286   6.984
 4179SOL    HW113436   6.909   2.364   6.921
 4179SOL    HW213437   6.857   2.210   6.941
 4180SOL     OW13438   4.686   3.395   1.732
 4180SOL    HW113439   4.588   3.402   1.750
 4180SOL    HW213440   4.705   3.307   1.689
 4181SOL     OW13441   6.525   0.604   0.572
 4181SOL    HW113442   6.600   0.539   0.581
 4181SOL    HW213443   6.560   0.697   0.584
 4182SOL     OW13444   5.381   0.898   3.950
 4182SOL    HW113445   5.404   0.995   3.958
 4182SOL    HW213446   5.339   0.882   3.861
 4183SOL     OW13447   2.211   1.172   1.687
 4183SOL    HW113448   2.301   1.179   1.645
 4183SOL    HW213449   2.221   1.138   1.781
 4184SOL     OW13450   4.448   4.910   6.814
 4184SOL    HW113451   4.523   4.848   6.837
 4184SOL    HW213452   4.456   4.993   6.870
 4185SOL     OW13453   6.984   0.369   3.604
 4185SOL    HW113454   0.062   0.371   3.576
 4185SOL    HW213455   6.972   0.429   3.683
 4186SOL     OW13456   3.830   4.206   1.748
 4186SOL    HW113457   3.743   4.251   1.767
 4186SOL    HW213458   3.824   4.109   1.772
 4187SOL     OW13459   3.863   5.237   6.716
 4187SOL    HW113460   3.794   5.309   6.704
 4187SOL    HW213461   3.915   5.255   6.800
 4188SOL     OW13462   5.490   6.386   3.973
 4188SOL    HW113463   5.446   6.456   3.916
 4188SOL    HW213464   5.564   6.428   4.025
 4189SOL     OW13465   1.712   3.794   3.536
 4189SOL    HW113466   1.757   3.780   3.448
 4189SOL    HW213467   1.747   3.877   3.579
 4190SOL     OW13468   2.540   0.168   1.420
 4190SOL    HW113469   2.464   0.221   1.458
 4190SOL    HW213470   2.559   0.199   1.326
 4191SOL     OW13471   0.556   2.252   2.567
 4191SOL    HW113472   0.485   2.222   2.631
 4191SOL    HW213473   0.608   2.327   2.607
 4192SOL     OW13474   5.731   0.474   3.058
 4192SOL    HW113475   5.823   0.442   3.079
 4192SOL    HW213476   5.683   0.405   3.003
 4193SOL     OW13477   1.784   6.636   3.148
 4193SOL    HW113478   1.762   6.556   3.203
 4193SOL    HW213479   1.710   6.702   3.154
 4194SOL     OW13480   5.571   0.513   3.641
 4194SOL    HW113481   5.666   0.488   3.624
 4194SOL    HW213482   5.566   0.585   3.709
 4195SOL     OW13483   5.192   1.101   3.715
 4195SOL    HW113484   5.224   1.191   3.744
 4195SOL    HW213485   5.093   1.095   3.726
 4196SOL     OW13486   4.662   2.690   3.590
 4196SOL    HW113487   4.639   2.717   3.497
 4196SOL    HW213488   4.748   2.733   3.617
 4197SOL     OW13489   5.318   4.023   4.972
 4197SOL    HW113490   5.380   3.983   4.904
 4197SOL    HW213491   5.272   3.950   5.022
 4198SOL     OW13492   6.506   3.755   6.104
 4198SOL    HW113493   6.409   3.731   6.096
 4198SOL    HW213494   6.534   3.748   6.200
 4199SOL     OW13495   3.294   4.158   6.056
 4199SOL    HW113496   3.271   4.096   5.981
 4199SOL    HW213497   3.245   4.244   6.045
 4200SOL     OW13498   2.870   0.426   6.787
 4200SOL    HW113499   2.924   0.343   6.776
 4200SOL    HW213500   2.816   0.441   6.704
 4201SOL     OW13501   5.956   6.670   4.814
 4201SOL    HW113502   5.901   6.588   4.801
 4201SOL    HW213503   5.994   6.698   4.726
 4202SOL     OW13504   5.182   3.616   5.678
 4202SOL    HW113505   5.119   3.688   5.707
 4202SOL    HW213506   5.276   3.650   5.681
 4203SOL     OW13507   4.281   5.661   4.348
 4203SOL    HW113508   4.267   5.566   4.376
 4203SOL    HW213509   4.197   5.697   4.307
 4204SOL     OW13510   1.616   4.082   0.368
 4204SOL    HW113511   1.575   4.005   0.416
 4204SOL    HW213512   1.608   4.068   0.269
 4205SOL     OW13513   2.406   5.959   3.115
 4205SOL    HW113514   2.373   6.053   3.110
 4205SOL    HW213515   2.368   5.906   3.039
 4206SOL     OW13516   5.111   6.409   4.370
 4206SOL    HW113517   5.192   6.392   4.314
 4206SOL    HW213518   5.044   6.337   4.356
 4207SOL     OW13519   0.672   7.016   0.125
 4207SOL    HW113520   0.746   6.994   0.061
 4207SOL    HW213521   0.689   6.969   0.212
 4208SOL     OW13522   0.600   2.953   1.277
 4208SOL    HW113523   0.544   2.962   1.360
 4208SOL    HW213524   0.675   3.019   1.281
 4209SOL     OW13525   3.109   0.099   5.088
 4209SOL    HW113526   3.187   0.046   5.120
 4209SOL    HW213527   3.046   0.115   5.164
 4210SOL     OW13528   3.818   2.862   0.423
 4210SOL    HW113529   3.836   2.773   0.380
 4210SOL    HW213530   3.720   2.881   0.421
 4211SOL     OW13531   5.449   3.592   4.587
 4211SOL    HW113532   5.420   3.687   4.582
 4211SOL    HW213533   5.489   3.565   4.499
 4212SOL     OW13534   6.161   6.742   2.339
 4212SOL    HW113535   6.258   6.732   2.359
 4212SOL    HW213536   6.146   6.729   2.241
 4213SOL     OW13537   0.748   6.797   1.062
 4213SOL    HW113538   0.764   6.698   1.061
 4213SOL    HW213539   0.760   6.832   1.154
 4214SOL     OW13540   2.990   5.576   4.738
 4214SOL    HW113541   2.910   5.535   4.782
 4214SOL    HW213542   3.028   5.512   4.671
 4215SOL     OW13543   1.149   5.764   5.980
 4215SOL    HW113544   1.136   5.829   6.055
 4215SOL    HW213545   1.080   5.692   5.986
 4216SOL     OW13546   2.638   2.989   5.423
 4216SOL    HW113547   2.589   2.981   5.336
 4216SOL    HW213548   2.647   2.899   5.465
 4217SOL     OW13549   6.910   1.080   4.322
 4217SOL    HW113550   6.975   1.129   4.264
 4217SOL    HW213551   6.848   1.146   4.365
 4218SOL     OW13552   3.454   5.693   2.550
 4218SOL    HW113553   3.470   5.594   2.545
 4218SOL    HW213554   3.464   5.733   2.459
 4219SOL     OW13555   5.563   0.315   2.774
 4219SOL    HW113556   5.658   0.334   2.749
 4219SOL    HW213557   5.506   0.314   2.692
 4220SOL     OW13558   0.317   4.519   3.664
 4220SOL    HW113559   0.387   4.459   3.626
 4220SOL    HW213560   0.235   4.465   3.684
 4221SOL     OW13561   5.440   6.411   5.738
 4221SOL    HW113562   5.351   6.391   5.696
 4221SOL    HW213563   5.500   6.331   5.730
 4222SOL     OW13564   2.697   3.126   0.413
 4222SOL    HW113565   2.763   3.079   0.472
 4222SOL    HW213566   2.701   3.086   0.321
 4223SOL     OW13567   3.063   3.940   2.593
 4223SOL    HW113568   3.022   3.919   2.682
 4223SOL    HW213569   3.040   3.869   2.528
 4224SOL     OW13570   3.963   1.743   5.889
 4224SOL    HW113571   3.872   1.739   5.931
 4224SOL    HW213572   4.019   1.808   5.941
 4225SOL     OW13573   4.674   0.338   4.388
 4225SOL    HW113574   4.627   0.370   4.306
 4225SOL    HW213575   4.741   0.268   4.363
 4226SOL     OW13576   1.870   1.616   2.467
 4226SOL    HW113577   1.781   1.623   2.422
 4226SOL    HW213578   1.860   1.639   2.564
 4227SOL     OW13579   5.364   4.030   6.600
 4227SOL    HW113580   5.269   4.043   6.628
 4227SOL    HW213581   5.389   4.101   6.534
 4228SOL     OW13582   4.955   4.866   2.994
 4228SOL    HW113583   4.924   4.919   3.074
 4228SOL    HW213584   4.903   4.781   2.989
 4229SOL     OW13585   4.369   5.071   5.128
 4229SOL    HW113586   4.341   4.976   5.112
 4229SOL    HW213587   4.289   5.128   5.142
 4230SOL     OW13588   2.990   1.161   6.291
 4230SOL    HW113589   2.973   1.245   6.342
 4230SOL    HW213590   2.996   1.084   6.355
 4231SOL     OW13591   3.813   6.293   6.250
 4231SOL    HW113592   3.790   6.245   6.166
 4231SOL    HW213593   3.898   6.344   6.236
 4232SOL     OW13594   2.129   4.126   1.461
 4232SOL    HW113595   2.046   4.122   1.517
 4232SOL    HW213596   2.188   4.200   1.493
 4233SOL     OW13597   5.441   5.684   1.132
 4233SOL    HW113598   5.495   5.607   1.165
 4233SOL    HW213599   5.475   5.711   1.041
 4234SOL     OW13600   3.707   3.324   5.645
 4234SOL    HW113601   3.743   3.415   5.626
 4234SOL    HW213602   3.780   3.256   5.637
 4235SOL     OW13603   0.363   4.334   4.869
 4235SOL    HW113604   0.454   4.370   4.847
 4235SOL    HW213605   0.339   4.358   4.963
 4236SOL     OW13606   0.496   3.695   4.925
 4236SOL    HW113607   0.584   3.712   4.880
 4236SOL    HW213608   0.492   3.599   4.953
 4237SOL     OW13609   6.674   4.156   5.241
 4237SOL    HW113610   6.709   4.243   5.277
 4237SOL    HW213611   6.592   4.173   5.187
 4238SOL     OW13612   5.064   4.840   4.606
 4238SOL    HW113613   5.143   4.838   4.545
 4238SOL    HW213614   5.096   4.837   4.701
 4239SOL     OW13615   5.211   5.970   5.284
 4239SOL    HW113616   5.300   5.926   5.289
 4239SOL    HW213617   5.139   5.902   5.297
 4240SOL     OW13618   2.501   4.879   6.944
 4240SOL    HW113619   2.450   4.841   6.867
 4240SOL    HW213620   2.439   4.928   7.005
 4241SOL     OW13621   3.616   1.989   1.352
 4241SOL    HW113622   3.621   1.944   1.262
 4241SOL    HW213623   3.662   1.932   1.420
 4242SOL     OW13624   2.281   0.280   2.133
 4242SOL    HW113625   2.373   0.296   2.099
 4242SOL    HW213626   2.221   0.255   2.057
 4243SOL     OW13627   1.361   3.053   2.813
 4243SOL    HW113628   1.362   2.983   2.741
 4243SOL    HW213629   1.273   3.101   2.812
 4244SOL     OW13630   3.108   0.762   0.994
 4244SOL    HW113631   3.164   0.805   0.923
 4244SOL    HW213632   3.167   0.710   1.056
 4245SOL     OW13633   6.957   1.849   0.967
 4245SOL    HW113634   6.905   1.768   0.940
 4245SOL    HW213635   6.925   1.928   0.914
 4246SOL     OW13636   4.729   2.857   4.097
 4246SOL    HW113637   4.717   2.799   4.017
 4246SOL    HW213638   4.753   2.950   4.069
 4247SOL     OW13639   2.174   5.275   0.256
 4247SOL    HW113640   2.158   5.367   0.221
 4247SOL    HW213641   2.102   5.213   0.223
 4248SOL     OW13642   2.316   0.128   3.394
 4248SOL    HW113643   2.321   0.039   3.349
 4248SOL    HW213644   2.300   0.200   3.326
 4249SOL     OW13645   5.796   0.868   5.558
 4249SOL    HW113646   5.707   0.823   5.570
 4249SOL    HW213647   5.825   0.860   5.462
 4250SOL     OW13648   0.362   5.328   4.945
 4250SOL    HW113649   0.411   5.385   4.879
 4250SOL    HW213650   0.277   5.297   4.904
 4251SOL     OW13651   4.814   2.114   5.691
 4251SOL    HW113652   4.767   2.201   5.709
 4251SOL    HW213653   4.906   2.118   5.730
 4252SOL     OW13654   0.290   0.410   6.555
 4252SOL    HW113655   0.248   0.449   6.473
 4252SOL    HW213656   0.227   0.344   6.596
 4253SOL     OW13657   4.013   6.803   3.001
 4253SOL    HW113658   4.055   6.721   2.962
 4253SOL    HW213659   3.946   6.841   2.937
 4254SOL     OW13660   1.197   2.021   5.338
 4254SOL    HW113661   1.194   2.105   5.283
 4254SOL    HW213662   1.147   2.037   5.424
 4255SOL     OW13663   1.042   2.749   3.134
 4255SOL    HW113664   0.962   2.697   3.161
 4255SOL    HW213665   1.124   2.693   3.144
 4256SOL     OW13666   6.060   5.926   0.532
 4256SOL    HW113667   6.038   5.971   0.618
 4256SOL    HW213668   6.068   5.828   0.546
 4257SOL     OW13669   6.811   0.912   2.777
 4257SOL    HW113670   6.905   0.947   2.779
 4257SOL    HW213671   6.812   0.813   2.793
 4258SOL     OW13672   3.112   6.106   0.887
 4258SOL    HW113673   3.139   6.011   0.867
 4258SOL    HW213674   3.039   6.133   0.825
 4259SOL     OW13675   0.528   6.560   0.024
 4259SOL    HW113676   0.623   6.585   0.043
 4259SOL    HW213677   0.470   6.641   0.032
 4260SOL     OW13678   6.342   6.977   5.160
 4260SOL    HW113679   6.434   7.001   5.193
 4260SOL    HW213680   6.347   6.952   5.063
 4261SOL     OW13681   2.416   6.403   3.304
 4261SOL    HW113682   2.383   6.317   3.265
 4261SOL    HW213683   2.485   6.385   3.374
 4262SOL     OW13684   1.405   4.470   5.056
 4262SOL    HW113685   1.481   4.422   5.011
 4262SOL    HW213686   1.441   4.526   5.130
 4263SOL     OW13687   3.165   1.375   2.536
 4263SOL    HW113688   3.173   1.459   2.589
 4263SOL    HW213689   3.166   1.396   2.438
 4264SOL     OW13690   4.810   1.917   6.619
 4264SOL    HW113691   4.730   1.974   6.639
 4264SOL    HW213692   4.893   1.970   6.635
 4265SOL     OW13693   3.350   6.334   0.056
 4265SOL    HW113694   3.327   6.388   0.137
 4265SOL    HW213695   3.399   6.391   7.009
 4266SOL     OW13696   1.305   4.790   1.528
 4266SOL    HW113697   1.368   4.745   1.591
 4266SOL    HW213698   1.303   4.739   1.442
 4267SOL     OW13699   1.202   3.891   4.224
 4267SOL    HW113700   1.116   3.877   4.272
 4267SOL    HW213701   1.189   3.958   4.150
 4268SOL     OW13702   1.424   4.197   6.065
 4268SOL    HW113703   1.389   4.288   6.089
 4268SOL    HW213704   1.495   4.206   5.995
 4269SOL     OW13705   2.815   1.599   3.823
 4269SOL    HW113706   2.802   1.537   3.900
 4269SOL    HW213707   2.779   1.557   3.740
 4270SOL     OW13708   4.182   4.007   0.991
 4270SOL    HW113709   4.088   4.027   0.964
 4270SOL    HW213710   4.181   3.948   1.072
 4271SOL     OW13711   6.265   0.520   0.620
 4271SOL    HW113712   6.212   0.597   0.654
 4271SOL    HW213713   6.360   0.549   0.604
 4272SOL     OW13714   6.963   1.796   5.368
 4272SOL    HW113715   6.879   1.812   5.317
 4272SOL    HW213716   6.955   1.836   5.459
 4273SOL     OW13717   3.261   5.676   3.747
 4273SOL    HW113718   3.300   5.767   3.759
 4273SOL    HW213719   3.166   5.676   3.778
 4274SOL     OW13720   0.018   0.957   1.201
 4274SOL    HW113721   6.989   0.869   1.210
 4274SOL    HW213722   0.084   0.966   1.276
 4275SOL     OW13723   6.815   1.954   3.641
 4275SOL    HW113724   6.890   2.019   3.642
 4275SOL    HW213725   6.732   1.998   3.674
 4276SOL     OW13726   1.196   6.670   2.652
 4276SOL    HW113727   1.253   6.719   2.719
 4276SOL    HW213728   1.100   6.695   2.665
 4277SOL     OW13729   6.224   5.752   2.861
 4277SOL    HW113730   6.127   5.771   2.879
 4277SOL    HW213731   6.279   5.784   2.937
 4278SOL     OW13732   0.320   0.001   0.917
 4278SOL    HW113733   0.420   0.004   0.920
 4278SOL    HW213734   0.289   7.003   0.824
 4279SOL     OW13735   0.843   3.035   3.004
 4279SOL    HW113736   0.908   2.978   2.954
 4279SOL    HW213737   0.869   3.131   2.996
 4280SOL     OW13738   2.907   6.221   0.058
 4280SOL    HW113739   2.941   6.278   7.001
 4280SOL    HW213740   2.808   6.211   0.049
 4281SOL     OW13741   7.002   6.268   2.800
 4281SOL    HW113742   6.995   6.318   2.714
 4281SOL    HW213743   6.972   6.173   2.786
 4282SOL     OW13744   5.296   5.053   1.922
 4282SOL    HW113745   5.338   4.964   1.939
 4282SOL    HW213746   5.358   5.125   1.954
 4283SOL     OW13747   5.797   1.214   4.431
 4283SOL    HW113748   5.826   1.189   4.338
 4283SOL    HW213749   5.804   1.134   4.491
 4284SOL     OW13750   4.635   6.193   6.541
 4284SOL    HW113751   4.574   6.125   6.500
 4284SOL    HW213752   4.667   6.160   6.629
 4285SOL     OW13753   3.251   1.437   6.530
 4285SOL    HW113754   3.239   1.375   6.607
 4285SOL    HW213755   3.240   1.385   6.444
 4286SOL     OW13756   4.936   6.380   7.014
 4286SOL    HW113757   5.005   6.317   0.032
 4286SOL    HW213758   4.944   6.468   0.042
 4287SOL     OW13759   3.499   0.865   1.242
 4287SOL    HW113760   3.413   0.839   1.286
 4287SOL    HW213761   3.550   0.925   1.303
 4288SOL     OW13762   0.020   6.374   2.549
 4288SOL    HW113763   0.053   6.282   2.527
 4288SOL    HW213764   6.977   6.405   2.477
 4289SOL     OW13765   0.126   4.174   5.569
 4289SOL    HW113766   0.144   4.112   5.645
 4289SOL    HW213767   0.062   4.246   5.598
 4290SOL     OW13768   6.729   1.579   3.471
 4290SOL    HW113769   6.795   1.605   3.400
 4290SOL    HW213770   6.686   1.492   3.446
 4291SOL     OW13771   4.135   5.100   6.769
 4291SOL    HW113772   4.113   5.007   6.800
 4291SOL    HW213773   4.146   5.159   6.849
 4292SOL     OW13774   6.788   0.274   1.013
 4292SOL    HW113775   6.830   0.189   1.045
 4292SOL    HW213776   6.728   0.254   0.935
 4293SOL     OW13777   4.015   2.879   6.473
 4293SOL    HW113778   4.103   2.906   6.433
 4293SOL    HW213779   3.941   2.902   6.410
 4294SOL     OW13780   2.534   1.930   0.202
 4294SOL    HW113781   2.580   1.915   0.290
 4294SOL    HW213782   2.562   2.019   0.164
 4295SOL     OW13783   4.644   0.004   2.541
 4295SOL    HW113784   4.718   6.988   2.483
 4295SOL    HW213785   4.563   6.964   2.530
 4296SOL     OW13786   1.789   5.528   2.605
 4296SOL    HW113787   1.826   5.549   2.696
 4296SOL    HW213788   1.838   5.580   2.536
 4297SOL     OW13789   4.948   4.779   0.250
 4297SOL    HW113790   5.015   4.778   0.175
 4297SOL    HW213791   4.904   4.689   0.256
 4298SOL     OW13792   1.610   0.044   0.495
 4298SOL    HW113793   1.546   0.087   0.430
 4298SOL    HW213794   1.635   6.971   0.462
 4299SOL     OW13795   0.052   2.997   5.946
 4299SOL    HW113796   0.144   3.018   5.912
 4299SOL    HW213797   0.059   2.953   6.035
 4300SOL     OW13798   3.167   0.871   1.967
 4300SOL    HW113799   3.169   0.950   1.906
 4300SOL    HW213800   3.075   0.857   2.002
 4301SOL     OW13801   2.189   6.018   4.896
 4301SOL    HW113802   2.257   5.989   4.964
 4301SOL    HW213803   2.097   6.001   4.931
 4302SOL     OW13804   3.755   5.181   0.104
 4302SOL    HW113805   3.754   5.084   0.080
 4302SOL    HW213806   3.770   5.190   0.203
 4303SOL     OW13807   4.220   5.543   3.687
 4303SOL    HW113808   4.245   5.549   3.590
 4303SOL    HW213809   4.292   5.584   3.743
 4304SOL     OW13810   3.039   4.213   1.767
 4304SOL    HW113811   3.004   4.296   1.810
 4304SOL    HW213812   2.968   4.170   1.712
 4305SOL     OW13813   0.681   6.656   6.024
 4305SOL    HW113814   0.777   6.657   5.995
 4305SOL    HW213815   0.629   6.723   5.971
 4306SOL     OW13816   5.803   3.426   5.140
 4306SOL    HW113817   5.878   3.424   5.075
 4306SOL    HW213818   5.730   3.486   5.105
 4307SOL     OW13819   6.946   1.419   5.528
 4307SOL    HW113820   6.911   1.406   5.435
 4307SOL    HW213821   0.001   1.353   5.546
 4308SOL     OW13822   4.257   5.743   5.777
 4308SOL    HW113823   4.222   5.807   5.846
 4308SOL    HW213824   4.273   5.793   5.691
 4309SOL     OW13825   2.984   1.973   1.048
 4309SOL    HW113826   2.936   1.889   1.022
 4309SOL    HW213827   3.015   2.020   0.965
 4310SOL     OW13828   6.609   2.128   3.730
 4310SOL    HW113829   6.638   2.170   3.816
 4310SOL    HW213830   6.616   2.195   3.656
 4311SOL     OW13831   0.597   6.341   1.219
 4311SOL    HW113832   0.650   6.420   1.188
 4311SOL    HW213833   0.611   6.265   1.156
 4312SOL     OW13834   0.221   4.051   2.405
 4312SOL    HW113835   0.288   3.985   2.440
 4312SOL    HW213836   0.167   4.008   2.332
 4313SOL     OW13837   0.695   3.617   0.650
 4313SOL    HW113838   0.755   3.584   0.578
 4313SOL    HW213839   0.623   3.675   0.610
 4314SOL     OW13840   1.625   1.602   5.860
 4314SOL    HW113841   1.660   1.679   5.806
 4314SOL    HW213842   1.653   1.614   5.955
 4315SOL     OW13843   2.599   2.258   4.926
 4315SOL    HW113844   2.570   2.350   4.899
 4315SOL    HW213845   2.519   2.204   4.951
 4316SOL     OW13846   4.341   5.086   1.681
 4316SOL    HW113847   4.390   5.030   1.747
 4316SOL    HW213848   4.286   5.028   1.621
 4317SOL     OW13849   5.030   0.384   4.226
 4317SOL    HW113850   5.044   0.474   4.186
 4317SOL    HW213851   4.991   0.394   4.317
 4318SOL     OW13852   1.546   5.883   3.754
 4318SOL    HW113853   1.492   5.819   3.807
 4318SOL    HW213854   1.554   5.851   3.659
 4319SOL     OW13855   1.840   4.974   1.878
 4319SOL    HW113856   1.887   4.886   1.882
 4319SOL    HW213857   1.902   5.046   1.910
 4320SOL     OW13858   3.363   0.689   1.550
 4320SOL    HW113859   3.389   0.625   1.477
 4320SOL    HW213860   3.445   0.721   1.597
 4321SOL     OW13861   6.587   5.562   2.895
 4321SOL    HW113862   6.503   5.544   2.946
 4321SOL    HW213863   6.565   5.598   2.805
 4322SOL     OW13864   2.705   2.395   4.064
 4322SOL    HW113865   2.768   2.318   4.075
 4322SOL    HW213866   2.701   2.421   3.968
 4323SOL     OW13867   5.407   4.298   1.511
 4323SOL    HW113868   5.405   4.202   1.538
 4323SOL    HW213869   5.313   4.332   1.500
 4324SOL     OW13870   0.136   4.005   5.775
 4324SOL    HW113871   0.069   3.938   5.742
 4324SOL    HW213872   0.144   3.997   5.874
 4325SOL     OW13873   1.309   0.797   1.178
 4325SOL    HW113874   1.320   0.701   1.203
 4325SOL    HW213875   1.217   0.828   1.204
 4326SOL     OW13876   4.722   2.801   3.330
 4326SOL    HW113877   4.679   2.741   3.262
 4326SOL    HW213878   4.709   2.897   3.303
 4327SOL     OW13879   3.069   6.540   3.667
 4327SOL    HW113880   3.054   6.638   3.683
 4327SOL    HW213881   2.981   6.492   3.670
 4328SOL     OW13882   6.361   0.036   2.805
 4328SOL    HW113883   6.278   0.029   2.750
 4328SOL    HW213884   6.440   0.011   2.748
 4329SOL     OW13885   5.992   4.233   0.257
 4329SOL    HW113886   5.939   4.174   0.318
 4329SOL    HW213887   6.083   4.246   0.295
 4330SOL     OW13888   2.664   5.266   5.080
 4330SOL    HW113889   2.756   5.233   5.058
 4330SOL    HW213890   2.655   5.361   5.052
 4331SOL     OW13891   5.838   1.851   2.802
 4331SOL    HW113892   5.915   1.788   2.792
 4331SOL    HW213893   5.753   1.803   2.780
 4332SOL     OW13894   6.649   5.611   1.337
 4332SOL    HW113895   6.736   5.562   1.338
 4332SOL    HW213896   6.591   5.575   1.265
 4333SOL     OW13897   3.329   2.723   6.238
 4333SOL    HW113898   3.264   2.703   6.311
 4333SOL    HW213899   3.356   2.638   6.193
 4334SOL     OW13900   0.449   2.546   3.797
 4334SOL    HW113901   0.546   2.569   3.791
 4334SOL    HW213902   0.430   2.467   3.740
 4335SOL     OW13903   2.212   3.696   1.788
 4335SOL    HW113904   2.208   3.623   1.856
 4335SOL    HW213905   2.307   3.714   1.763
 4336SOL     OW13906   2.737   5.191   5.750
 4336SOL    HW113907   2.780   5.195   5.840
 4336SOL    HW213908   2.767   5.108   5.702
 4337SOL     OW13909   6.749   4.669   3.931
 4337SOL    HW113910   6.705   4.751   3.966
 4337SOL    HW213911   6.789   4.688   3.841
 4338SOL     OW13912   2.904   2.704   5.859
 4338SOL    HW113913   2.875   2.618   5.817
 4338SOL    HW213914   2.913   2.775   5.789
 4339SOL     OW13915   4.276   4.270   5.504
 4339SOL    HW113916   4.367   4.247   5.470
 4339SOL    HW213917   4.249   4.360   5.468
 4340SOL     OW13918   0.165   3.968   0.432
 4340SOL    HW113919   0.102   3.891   0.441
 4340SOL    HW213920   0.254   3.935   0.401
 4341SOL     OW13921   6.045   5.628   0.838
 4341SOL    HW113922   6.062   5.626   0.739
 4341SOL    HW213923   5.995   5.546   0.865
 4342SOL     OW13924   5.526   3.371   2.481
 4342SOL    HW113925   5.434   3.369   2.519
 4342SOL    HW213926   5.563   3.464   2.487
 4343SOL     OW13927   4.302   0.529   6.712
 4343SOL    HW113928   4.257   0.510   6.625
 4343SOL    HW213929   4.345   0.619   6.708
 4344SOL     OW13930   1.303   4.045   2.040
 4344SOL    HW113931   1.382   3.983   2.043
 4344SOL    HW213932   1.219   3.991   2.040
 4345SOL     OW13933   3.863   3.255   2.499
 4345SOL    HW113934   3.863   3.326   2.428
 4345SOL    HW213935   3.952   3.254   2.545
 4346SOL     OW13936   0.676   3.926   2.487
 4346SOL    HW113937   0.674   3.826   2.489
 4346SOL    HW213938   0.750   3.956   2.426
 4347SOL     OW13939   6.252   5.474   0.392
 4347SOL    HW113940   6.234   5.528   0.311
 4347SOL    HW213941   6.350   5.476   0.413
 4348SOL     OW13942   6.620   3.933   5.916
 4348SOL    HW113943   6.714   3.967   5.919
 4348SOL    HW213944   6.603   3.875   5.996
 4349SOL     OW13945   1.178   4.151   4.139
 4349SOL    HW113946   1.214   4.151   4.046
 4349SOL    HW213947   1.179   4.245   4.174
 4350SOL     OW13948   4.977   0.204   3.862
 4350SOL    HW113949   4.893   0.235   3.819
 4350SOL    HW213950   5.048   0.274   3.851
 4351SOL     OW13951   0.107   5.546   1.071
 4351SOL    HW113952   0.106   5.566   1.168
 4351SOL    HW213953   0.099   5.447   1.057
 4352SOL     OW13954   3.547   4.229   1.711
 4352SOL    HW113955   3.552   4.327   1.690
 4352SOL    HW213956   3.451   4.199   1.705
 4353SOL     OW13957   2.421   3.997   0.124
 4353SOL    HW113958   2.509   3.994   0.077
 4353SOL    HW213959   2.395   4.092   0.140
 4354SOL     OW13960   5.194   5.311   2.336
 4354SOL    HW113961   5.196   5.311   2.436
 4354SOL    HW213962   5.100   5.324   2.304
 4355SOL     OW13963   1.925   4.960   2.978
 4355SOL    HW113964   1.990   4.911   2.921
 4355SOL    HW213965   1.926   5.057   2.954
 4356SOL     OW13966   6.013   2.345   5.529
 4356SOL    HW113967   6.047   2.252   5.516
 4356SOL    HW213968   6.061   2.407   5.466
 4357SOL     OW13969   5.175   5.595   2.602
 4357SOL    HW113970   5.243   5.525   2.625
 4357SOL    HW213971   5.220   5.670   2.554
 4358SOL     OW13972   2.568   0.491   0.733
 4358SOL    HW113973   2.601   0.410   0.685
 4358SOL    HW213974   2.469   0.486   0.742
 4359SOL     OW13975   2.394   2.224   1.468
 4359SOL    HW113976   2.406   2.249   1.372
 4359SOL    HW213977   2.432   2.296   1.527
 4360SOL     OW13978   2.898   6.112   3.683
 4360SOL    HW113979   2.997   6.111   3.695
 4360SOL    HW213980   2.876   6.140   3.589
 4361SOL     OW13981   1.521   1.222   6.918
 4361SOL    HW113982   1.510   1.262   6.827
 4361SOL    HW213983   1.464   1.140   6.926
 4362SOL     OW13984   0.346   5.632   2.513
 4362SOL    HW113985   0.355   5.711   2.573
 4362SOL    HW213986   0.309   5.555   2.566
 4363SOL     OW13987   3.613   0.837   2.056
 4363SOL    HW113988   3.532   0.800   2.012
 4363SOL    HW213989   3.595   0.930   2.088
 4364SOL     OW13990   3.149   3.873   3.223
 4364SOL    HW113991   3.095   3.845   3.302
 4364SOL    HW213992   3.216   3.942   3.251
 4365SOL     OW13993   2.360   1.309   0.548
 4365SOL    HW113994   2.428   1.249   0.591
 4365SOL    HW213995   2.382   1.322   0.452
 4366SOL     OW13996   5.323   5.766   4.945
 4366SOL    HW113997   5.237   5.750   4.994
 4366SOL    HW213998   5.303   5.784   4.849
 4367SOL     OW13999   2.735   6.688   2.051
 4367SOL    HW114000   2.700   6.630   1.978
 4367SOL    HW214001   2.692   6.661   2.138
 4368SOL     OW14002   4.869   4.066   4.155
 4368SOL    HW114003   4.964   4.096   4.144
 4368SOL    HW214004   4.817   4.139   4.199
 4369SOL     OW14005   5.768   4.474   3.875
 4369SOL    HW114006   5.848   4.514   3.832
 4369SOL    HW214007   5.692   4.474   3.810
 4370SOL     OW14008   4.353   4.883   0.820
 4370SOL    HW114009   4.298   4.939   0.757
 4370SOL    HW214010   4.300   4.803   0.848
 4371SOL     OW14011   3.446   1.585   3.077
 4371SOL    HW114012   3.522   1.523   3.060
 4371SOL    HW214013   3.456   1.626   3.168
 4372SOL     OW14014   1.929   4.260   4.853
 4372SOL    HW114015   1.870   4.179   4.848
 4372SOL    HW214016   1.978   4.271   4.766
 4373SOL     OW14017   4.495   0.261   0.480
 4373SOL    HW114018   4.442   0.246   0.564
 4373SOL    HW214019   4.588   0.229   0.494
 4374SOL     OW14020   2.437   6.369   0.201
 4374SOL    HW114021   2.428   6.467   0.219
 4374SOL    HW214022   2.427   6.317   0.286
 4375SOL     OW14023   4.202   1.433   5.680
 4375SOL    HW114024   4.269   1.477   5.741
 4375SOL    HW214025   4.238   1.433   5.587
 4376SOL     OW14026   2.855   5.326   6.977
 4376SOL    HW114027   2.822   5.414   7.013
 4376SOL    HW214028   2.848   5.256   0.030
 4377SOL     OW14029   5.271   5.721   6.592
 4377SOL    HW114030   5.224   5.806   6.614
 4377SOL    HW214031   5.205   5.654   6.558
 4378SOL     OW14032   3.520   5.390   2.051
 4378SOL    HW114033   3.486   5.441   2.130
 4378SOL    HW214034   3.580   5.316   2.083
 4379SOL     OW14035   6.877   6.210   0.557
 4379SOL    HW114036   6.847   6.235   0.465
 4379SOL    HW214037   6.836   6.123   0.583
 4380SOL     OW14038   2.205   5.301   4.241
 4380SOL    HW114039   2.291   5.349   4.254
 4380SOL    HW214040   2.220   5.202   4.250
 4381SOL     OW14041   4.108   5.797   4.689
 4381SOL    HW114042   4.064   5.775   4.777
 4381SOL    HW214043   4.052   5.864   4.640
 4382SOL     OW14044   5.455   4.538   2.560
 4382SOL    HW114045   5.403   4.620   2.584
 4382SOL    HW214046   5.415   4.459   2.605
 4383SOL     OW14047   1.377   0.829   0.622
 4383SOL    HW114048   1.402   0.835   0.525
 4383SOL    HW214049   1.278   0.817   0.630
 4384SOL     OW14050   3.763   0.521   2.038
 4384SOL    HW114051   3.715   0.485   2.118
 4384SOL    HW214052   3.728   0.476   1.955
 4385SOL     OW14053   6.568   2.826   3.634
 4385SOL    HW114054   6.662   2.858   3.622
 4385SOL    HW214055   6.515   2.847   3.551
 4386SOL     OW14056   1.584   4.449   6.887
 4386SOL    HW114057   1.494   4.406   6.883
 4386SOL    HW214058   1.577   4.543   6.852
 4387SOL     OW14059   6.221   1.774   1.352
 4387SOL    HW114060   6.213   1.856   1.409
 4387SOL    HW214061   6.235   1.694   1.409
 4388SOL     OW14062   3.955   1.376   5.700
 4388SOL    HW114063   4.052   1.403   5.703
 4388SOL    HW214064   3.918   1.377   5.793
 4389SOL     OW14065   6.693   2.503   2.806
 4389SOL    HW114066   6.622   2.460   2.750
 4389SOL    HW214067   6.783   2.475   2.772
 4390SOL     OW14068   4.089   3.438   1.053
 4390SOL    HW114069   4.059   3.371   1.120
 4390SOL    HW214070   4.111   3.391   0.967
 4391SOL     OW14071   1.069   6.328   0.327
 4391SOL    HW114072   1.012   6.400   0.366
 4391SOL    HW214073   1.123   6.365   0.252
 4392SOL     OW14074   5.414   4.964   4.912
 4392SOL    HW114075   5.495   4.957   4.970
 4392SOL    HW214076   5.413   5.052   4.865
 4393SOL     OW14077   5.270   6.826   3.047
 4393SOL    HW114078   5.367   6.843   3.032
 4393SOL    HW214079   5.223   6.820   2.959
 4394SOL     OW14080   4.672   0.183   2.319
 4394SOL    HW114081   4.652   0.086   2.306
 4394SOL    HW214082   4.594   0.229   2.361
 4395SOL     OW14083   4.970   2.506   1.360
 4395SOL    HW114084   4.979   2.418   1.407
 4395SOL    HW214085   4.881   2.546   1.382
 4396SOL     OW14086   1.351   1.510   3.174
 4396SOL    HW114087   1.326   1.476   3.084
 4396SOL    HW214088   1.268   1.526   3.228
 4397SOL     OW14089   4.728   0.591   6.629
 4397SOL    HW114090   4.650   0.597   6.567
 4397SOL    HW214091   4.809   0.559   6.579
 4398SOL     OW14092   0.099   5.258   4.813
 4398SOL    HW114093   0.074   5.350   4.843
 4398SOL    HW214094   0.030   5.193   4.843
 4399SOL     OW14095   3.108   0.637   2.753
 4399SOL    HW114096   3.076   0.731   2.760
 4399SOL    HW214097   3.062   0.591   2.677
 4400SOL     OW14098   3.696   5.218   3.031
 4400SOL    HW114099   3.783   5.253   2.997
 4400SOL    HW214100   3.673   5.133   2.983
 4401SOL     OW14101   5.649   5.883   4.718
 4401SOL    HW114102   5.635   5.889   4.817
 4401SOL    HW214103   5.747   5.884   4.698
 4402SOL     OW14104   6.741   6.377   1.657
 4402SOL    HW114105   6.750   6.309   1.730
 4402SOL    HW214106   6.668   6.442   1.680
 4403SOL     OW14107   6.351   1.480   2.390
 4403SOL    HW114108   6.361   1.406   2.457
 4403SOL    HW214109   6.267   1.466   2.338
 4404SOL     OW14110   2.063   4.409   2.569
 4404SOL    HW114111   2.103   4.459   2.492
 4404SOL    HW214112   1.964   4.408   2.560
 4405SOL     OW14113   2.915   3.760   5.931
 4405SOL    HW114114   2.874   3.777   6.020
 4405SOL    HW214115   2.859   3.800   5.859
 4406SOL     OW14116   6.497   2.918   2.272
 4406SOL    HW114117   6.593   2.892   2.265
 4406SOL    HW214118   6.480   2.999   2.216
 4407SOL     OW14119   1.115   0.843   0.303
 4407SOL    HW114120   1.082   0.750   0.287
 4407SOL    HW214121   1.061   0.908   0.249
 4408SOL     OW14122   4.000   6.317   1.250
 4408SOL    HW114123   3.947   6.243   1.292
 4408SOL    HW214124   4.044   6.284   1.167
 4409SOL     OW14125   3.102   1.827   2.492
 4409SOL    HW114126   3.071   1.874   2.410
 4409SOL    HW214127   3.133   1.894   2.559
 4410SOL     OW14128   1.782   5.814   1.464
 4410SOL    HW114129   1.861   5.755   1.485
 4410SOL    HW214130   1.806   5.909   1.483
 4411SOL     OW14131   4.060   3.123   2.208
 4411SOL    HW114132   4.138   3.066   2.182
 4411SOL    HW214133   4.081   3.219   2.193
 4412SOL     OW14134   3.885   1.376   5.966
 4412SOL    HW114135   3.828   1.305   5.926
 4412SOL    HW214136   3.865   1.383   6.064
 4413SOL     OW14137   4.307   5.377   3.994
 4413SOL    HW114138   4.319   5.345   3.900
 4413SOL    HW214139   4.369   5.327   4.055
 4414SOL     OW14140   3.578   4.885   2.211
 4414SOL    HW114141   3.600   4.848   2.121
 4414SOL    HW214142   3.482   4.912   2.214
 4415SOL     OW14143   4.643   1.787   1.289
 4415SOL    HW114144   4.709   1.861   1.305
 4415SOL    HW214145   4.575   1.786   1.362
 4416SOL     OW14146   2.702   2.086   4.481
 4416SOL    HW114147   2.645   2.049   4.408
 4416SOL    HW214148   2.727   2.181   4.460
 4417SOL     OW14149   6.410   6.557   1.308
 4417SOL    HW114150   6.434   6.491   1.237
 4417SOL    HW214151   6.344   6.623   1.271
 4418SOL     OW14152   4.974   1.159   3.284
 4418SOL    HW114153   4.913   1.150   3.363
 4418SOL    HW214154   5.067   1.138   3.312
 4419SOL     OW14155   6.045   5.468   6.087
 4419SOL    HW114156   5.951   5.450   6.059
 4419SOL    HW214157   6.097   5.502   6.008
 4420SOL     OW14158   4.768   0.884   0.474
 4420SOL    HW114159   4.864   0.898   0.499
 4420SOL    HW214160   4.763   0.854   0.379
 4421SOL     OW14161   0.400   1.451   2.993
 4421SOL    HW114162   0.314   1.399   3.000
 4421SOL    HW214163   0.475   1.388   2.976
 4422SOL     OW14164   1.630   4.239   5.877
 4422SOL    HW114165   1.716   4.273   5.914
 4422SOL    HW214166   1.627   4.256   5.778
 4423SOL     OW14167   6.608   1.527   6.067
 4423SOL    HW114168   6.613   1.466   5.989
 4423SOL    HW214169   6.696   1.529   6.114
 4424SOL     OW14170   1.871   5.368   3.918
 4424SOL    HW114171   1.783   5.383   3.873
 4424SOL    HW214172   1.871   5.279   3.963
 4425SOL     OW14173   5.121   4.033   1.576
 4425SOL    HW114174   5.175   4.097   1.631
 4425SOL    HW214175   5.170   3.946   1.568
 4426SOL     OW14176   0.642   0.257   6.918
 4426SOL    HW114177   0.602   0.343   6.887
 4426SOL    HW214178   0.573   0.204   6.967
 4427SOL     OW14179   0.756   5.469   3.884
 4427SOL    HW114180   0.840   5.470   3.829
 4427SOL    HW214181   0.765   5.401   3.957
 4428SOL     OW14182   1.207   6.882   3.055
 4428SOL    HW114183   1.170   6.936   3.130
 4428SOL    HW214184   1.298   6.848   3.079
 4429SOL     OW14185   2.874   0.656   3.231
 4429SOL    HW114186   2.883   0.738   3.174
 4429SOL    HW214187   2.890   0.681   3.327
 4430SOL     OW14188   1.558   1.064   2.161
 4430SOL    HW114189   1.488   1.010   2.208
 4430SOL    HW214190   1.556   1.043   2.063
 4431SOL     OW14191   2.267   2.344   3.457
 4431SOL    HW114192   2.344   2.327   3.395
 4431SOL    HW214193   2.185   2.299   3.423
 4432SOL     OW14194   3.027   3.639   4.144
 4432SOL    HW114195   3.069   3.681   4.064
 4432SOL    HW214196   3.028   3.540   4.135
 4433SOL     OW14197   6.384   0.689   2.723
 4433SOL    HW114198   6.361   0.642   2.809
 4433SOL    HW214199   6.464   0.747   2.737
 4434SOL     OW14200   5.448   2.317   5.147
 4434SOL    HW114201   5.459   2.271   5.236
 4434SOL    HW214202   5.512   2.394   5.142
 4435SOL     OW14203   3.677   3.309   1.950
 4435SOL    HW114204   3.691   3.256   2.033
 4435SOL    HW214205   3.606   3.378   1.966
 4436SOL     OW14206   5.715   0.359   0.292
 4436SOL    HW114207   5.791   0.424   0.296
 4436SOL    HW214208   5.654   0.384   0.217
 4437SOL     OW14209   3.338   6.963   5.650
 4437SOL    HW114210   3.267   6.894   5.663
 4437SOL    HW214211   3.309   0.031   5.692
 4438SOL     OW14212   3.655   2.992   6.564
 4438SOL    HW114213   3.721   2.996   6.489
 4438SOL    HW214214   3.568   2.956   6.531
 4439SOL     OW14215   1.857   4.188   3.052
 4439SOL    HW114216   1.934   4.187   2.988
 4439SOL    HW214217   1.881   4.138   3.135
 4440SOL     OW14218   6.299   1.394   0.562
 4440SOL    HW114219   6.356   1.365   0.639
 4440SOL    HW214220   6.351   1.383   0.477
 4441SOL     OW14221   6.603   0.355   3.604
 4441SOL    HW114222   6.612   0.439   3.657
 4441SOL    HW214223   6.601   0.377   3.507
 4442SOL     OW14224   1.698   5.813   2.232
 4442SOL    HW114225   1.751   5.898   2.237
 4442SOL    HW214226   1.601   5.833   2.243
 4443SOL     OW14227   2.515   1.647   0.735
 4443SOL    HW114228   2.533   1.647   0.833
 4443SOL    HW214229   2.436   1.588   0.716
 4444SOL     OW14230   4.973   1.427   3.159
 4444SOL    HW114231   4.924   1.478   3.087
 4444SOL    HW214232   4.919   1.347   3.186
 4445SOL     OW14233   0.852   1.087   6.372
 4445SOL    HW114234   0.939   1.116   6.331
 4445SOL    HW214235   0.800   1.034   6.305
 4446SOL     OW14236   5.418   4.595   3.857
 4446SOL    HW114237   5.415   4.524   3.926
 4446SOL    HW214238   5.331   4.645   3.856
 4447SOL     OW14239   4.930   3.749   5.257
 4447SOL    HW114240   4.878   3.707   5.182
 4447SOL    HW214241   4.994   3.681   5.294
 4448SOL     OW14242   2.505   3.425   6.489
 4448SOL    HW114243   2.409   3.445   6.507
 4448SOL    HW214244   2.522   3.431   6.390
 4449SOL     OW14245   0.541   1.443   5.780
 4449SOL    HW114246   0.508   1.522   5.831
 4449SOL    HW214247   0.473   1.416   5.712
 4450SOL     OW14248   3.544   3.793   2.686
 4450SOL    HW114249   3.573   3.731   2.759
 4450SOL    HW214250   3.449   3.776   2.662
 4451SOL     OW14251   0.341   4.340   0.843
 4451SOL    HW114252   0.363   4.429   0.804
 4451SOL    HW214253   0.285   4.288   0.779
 4452SOL     OW14254   6.620   3.185   5.787
 4452SOL    HW114255   6.529   3.204   5.824
 4452SOL    HW214256   6.612   3.152   5.694
 4453SOL     OW14257   5.300   0.646   0.776
 4453SOL    HW114258   5.302   0.746   0.781
 4453SOL    HW214259   5.217   0.616   0.729
 4454SOL     OW14260   5.230   2.823   1.806
 4454SOL    HW114261   5.159   2.792   1.743
 4454SOL    HW214262   5.252   2.750   1.870
 4455SOL     OW14263   4.318   2.259   2.722
 4455SOL    HW114264   4.234   2.233   2.768
 4455SOL    HW214265   4.297   2.319   2.644
 4456SOL     OW14266   0.593   5.618   2.316
 4456SOL    HW114267   0.572   5.705   2.360
 4456SOL    HW214268   0.681   5.625   2.269
 4457SOL     OW14269   4.465   2.182   0.138
 4457SOL    HW114270   4.443   2.262   0.193
 4457SOL    HW214271   4.484   2.210   0.044
 4458SOL     OW14272   4.321   1.403   1.095
 4458SOL    HW114273   4.389   1.476   1.106
 4458SOL    HW214274   4.313   1.380   0.998
 4459SOL     OW14275   5.557   6.202   5.389
 4459SOL    HW114276   5.614   6.274   5.429
 4459SOL    HW214277   5.517   6.235   5.303
 4460SOL     OW14278   1.144   1.263   6.834
 4460SOL    HW114279   1.187   1.353   6.840
 4460SOL    HW214280   1.059   1.262   6.886
 4461SOL     OW14281   1.833   6.945   2.865
 4461SOL    HW114282   1.793   0.017   2.885
 4461SOL    HW214283   1.769   6.892   2.809
 4462SOL     OW14284   6.778   3.966   0.556
 4462SOL    HW114285   6.682   3.944   0.538
 4462SOL    HW214286   6.786   4.006   0.648
 4463SOL     OW14287   1.065   4.424   6.852
 4463SOL    HW114288   1.159   4.425   6.886
 4463SOL    HW214289   1.066   4.418   6.752
 4464SOL     OW14290   6.399   2.500   0.034
 4464SOL    HW114291   6.480   2.478   0.089
 4464SOL    HW214292   6.320   2.512   0.094
 4465SOL     OW14293   6.718   5.557   0.721
 4465SOL    HW114294   6.688   5.481   0.778
 4465SOL    HW214295   6.658   5.636   0.737
 4466SOL     OW14296   0.124   2.944   3.135
 4466SOL    HW114297   0.069   2.862   3.121
 4466SOL    HW214298   0.067   3.025   3.124
 4467SOL     OW14299   1.229   0.585   3.534
 4467SOL    HW114300   1.209   0.538   3.620
 4467SOL    HW214301   1.265   0.676   3.553
 4468SOL     OW14302   1.542   1.996   0.735
 4468SOL    HW114303   1.553   1.911   0.685
 4468SOL    HW214304   1.621   2.009   0.796
 4469SOL     OW14305   4.681   0.009   0.838
 4469SOL    HW114306   4.605   0.071   0.822
 4469SOL    HW214307   4.675   6.990   0.931
 4470SOL     OW14308   4.883   4.725   1.588
 4470SOL    HW114309   4.854   4.742   1.682
 4470SOL    HW214310   4.862   4.631   1.562
 4471SOL     OW14311   5.955   3.097   1.603
 4471SOL    HW114312   5.910   3.008   1.593
 4471SOL    HW214313   5.934   3.135   1.693
 4472SOL     OW14314   2.553   5.179   1.562
 4472SOL    HW114315   2.483   5.192   1.632
 4472SOL    HW214316   2.539   5.091   1.517
 4473SOL     OW14317   6.535   0.621   0.113
 4473SOL    HW114318   6.612   0.654   0.057
 4473SOL    HW214319   6.545   0.522   0.129
 4474SOL     OW14320   6.236   0.857   4.339
 4474SOL    HW114321   6.157   0.834   4.282
 4474SOL    HW214322   6.212   0.845   4.436
 4475SOL     OW14323   1.291   3.470   0.476
 4475SOL    HW114324   1.352   3.510   0.544
 4475SOL    HW214325   1.337   3.467   0.387
 4476SOL     OW14326   4.450   6.770   2.962
 4476SOL    HW114327   4.511   6.822   2.903
 4476SOL    HW214328   4.356   6.802   2.951
 4477SOL     OW14329   1.302   2.129   0.670
 4477SOL    HW114330   1.353   2.051   0.706
 4477SOL    HW214331   1.324   2.211   0.724
 4478SOL     OW14332   1.178   5.108   1.057
 4478SOL    HW114333   1.197   5.009   1.057
 4478SOL    HW214334   1.128   5.132   1.139
 4479SOL     OW14335   1.282   0.332   6.186
 4479SOL    HW114336   1.277   0.421   6.141
 4479SOL    HW214337   1.375   0.297   6.182
 4480SOL     OW14338   0.073   4.178   3.399
 4480SOL    HW114339   7.007   4.193   3.347
 4480SOL    HW214340   0.152   4.203   3.343
 4481SOL     OW14341   0.415   0.773   4.052
 4481SOL    HW114342   0.374   0.859   4.021
 4481SOL    HW214343   0.457   0.786   4.142
 4482SOL     OW14344   1.182   4.187   2.927
 4482SOL    HW114345   1.256   4.188   2.859
 4482SOL    HW214346   1.138   4.098   2.926
 4483SOL     OW14347   5.799   3.570   0.629
 4483SOL    HW114348   5.702   3.552   0.646
 4483SOL    HW214349   5.847   3.483   0.615
 4484SOL     OW14350   3.139   3.230   6.096
 4484SOL    HW114351   3.097   3.244   6.186
 4484SOL    HW214352   3.105   3.146   6.056
 4485SOL     OW14353   4.943   0.118   6.339
 4485SOL    HW114354   5.016   0.049   6.347
 4485SOL    HW214355   4.854   0.073   6.343
 4486SOL     OW14356   6.214   3.408   3.901
 4486SOL    HW114357   6.277   3.484   3.883
 4486SOL    HW214358   6.204   3.352   3.818
 4487SOL     OW14359   2.715   3.014   5.803
 4487SOL    HW114360   2.723   3.084   5.732
 4487SOL    HW214361   2.799   3.010   5.855
 4488SOL     OW14362   6.918   1.848   6.423
 4488SOL    HW114363   6.971   1.849   6.338
 4488SOL    HW214364   6.833   1.798   6.409
 4489SOL     OW14365   1.115   1.079   2.321
 4489SOL    HW114366   1.082   1.172   2.335
 4489SOL    HW214367   1.166   1.074   2.235
 4490SOL     OW14368   6.941   2.428   4.192
 4490SOL    HW114369   6.884   2.469   4.121
 4490SOL    HW214370   6.882   2.381   4.258
 4491SOL     OW14371   1.898   4.073   2.375
 4491SOL    HW114372   1.825   4.024   2.328
 4491SOL    HW214373   1.895   4.170   2.350
 4492SOL     OW14374   4.688   4.363   6.148
 4492SOL    HW114375   4.758   4.416   6.100
 4492SOL    HW214376   4.692   4.383   6.246
 4493SOL     OW14377   6.060   4.538   3.429
 4493SOL    HW114378   6.122   4.474   3.474
 4493SOL    HW214379   5.967   4.501   3.431
 4494SOL     OW14380   5.868   2.269   2.442
 4494SOL    HW114381   5.799   2.312   2.384
 4494SOL    HW214382   5.841   2.175   2.463
 4495SOL     OW14383   4.778   6.119   2.165
 4495SOL    HW114384   4.861   6.139   2.216
 4495SOL    HW214385   4.797   6.121   2.067
 4496SOL     OW14386   6.335   3.847   5.480
 4496SOL    HW114387   6.398   3.896   5.540
 4496SOL    HW214388   6.294   3.771   5.531
 4497SOL     OW14389   6.447   5.855   0.554
 4497SOL    HW114390   6.420   5.861   0.458
 4497SOL    HW214391   6.414   5.770   0.593
 4498SOL     OW14392   0.949   4.137   6.837
 4498SOL    HW114393   1.043   4.160   6.861
 4498SOL    HW214394   0.902   4.220   6.806
 4499SOL     OW14395   5.305   3.504   6.915
 4499SOL    HW114396   5.209   3.488   6.891
 4499SOL    HW214397   5.351   3.417   6.929
 4500SOL     OW14398   3.785   3.978   2.659
 4500SOL    HW114399   3.731   3.895   2.668
 4500SOL    HW214400   3.882   3.955   2.662
 4501SOL     OW14401   1.429   4.728   4.879
 4501SOL    HW114402   1.438   4.678   4.965
 4501SOL    HW214403   1.393   4.668   4.808
 4502SOL     OW14404   5.454   2.632   0.224
 4502SOL    HW114405   5.458   2.719   0.273
 4502SOL    HW214406   5.543   2.612   0.183
 4503SOL     OW14407   1.429   3.396   2.896
 4503SOL    HW114408   1.344   3.372   2.942
 4503SOL    HW214409   1.408   3.449   2.814
 4504SOL     OW14410   4.722   2.607   4.315
 4504SOL    HW114411   4.709   2.682   4.251
 4504SOL    HW214412   4.679   2.524   4.279
 4505SOL     OW14413   2.010   5.287   0.574
 4505SOL    HW114414   2.064   5.209   0.543
 4505SOL    HW214415   2.016   5.362   0.508
 4506SOL     OW14416   3.775   0.080   5.614
 4506SOL    HW114417   3.873   0.070   5.632
 4506SOL    HW214418   3.749   0.176   5.621
 4507SOL     OW14419   6.539   3.679   2.537
 4507SOL    HW114420   6.454   3.698   2.488
 4507SOL    HW214421   6.617   3.698   2.478
 4508SOL     OW14422   1.910   3.693   0.415
 4508SOL    HW114423   1.831   3.631   0.412
 4508SOL    HW214424   1.885   3.780   0.373
 4509SOL     OW14425   0.544   2.157   3.049
 4509SOL    HW114426   0.531   2.240   3.103
 4509SOL    HW214427   0.641   2.147   3.026
 4510SOL     OW14428   2.932   6.063   6.078
 4510SOL    HW114429   2.892   6.049   6.168
 4510SOL    HW214430   3.001   6.135   6.082
 4511SOL     OW14431   0.016   1.944   0.122
 4511SOL    HW114432   6.936   1.933   0.131
 4511SOL    HW214433   0.063   1.873   0.175
 4512SOL     OW14434   2.383   4.060   6.784
 4512SOL    HW114435   2.468   4.109   6.806
 4512SOL    HW214436   2.358   4.077   6.689
 4513SOL     OW14437   5.922   1.263   2.403
 4513SOL    HW114438   5.877   1.352   2.391
 4513SOL    HW214439   5.894   1.223   2.490
 4514SOL     OW14440   3.090   0.869   5.654
 4514SOL    HW114441   3.128   0.932   5.587
 4514SOL    HW214442   3.028   0.919   5.715
 4515SOL     OW14443   6.480   4.714   0.114
 4515SOL    HW114444   6.486   4.739   0.018
 4515SOL    HW214445   6.498   4.616   0.125
 4516SOL     OW14446   0.797   0.391   3.691
 4516SOL    HW114447   0.868   0.407   3.760
 4516SOL    HW214448   0.829   0.323   3.625
 4517SOL     OW14449   3.018   0.583   0.284
 4517SOL    HW114450   2.997   0.680   0.275
 4517SOL    HW214451   3.049   0.547   0.196
 4518SOL     OW14452   1.534   6.797   3.795
 4518SOL    HW114453   1.511   6.892   3.817
 4518SOL    HW214454   1.575   6.753   3.874
 4519SOL     OW14455   6.308   2.256   5.214
 4519SOL    HW114456   6.235   2.188   5.228
 4519SOL    HW214457   6.309   2.320   5.290
 4520SOL     OW14458   0.176   3.994   2.824
 4520SOL    HW114459   0.275   4.002   2.831
 4520SOL    HW214460   0.140   4.071   2.769
 4521SOL     OW14461   5.012   1.428   6.234
 4521SOL    HW114462   5.028   1.329   6.224
 4521SOL    HW214463   5.081   1.467   6.294
 4522SOL     OW14464   5.780   0.031   3.474
 4522SOL    HW114465   5.719   0.067   3.403
 4522SOL    HW214466   5.828   6.968   3.439
 4523SOL     OW14467   4.963   2.478   5.817
 4523SOL    HW114468   4.956   2.578   5.827
 4523SOL    HW214469   4.919   2.450   5.732
 4524SOL     OW14470   6.086   0.405   5.124
 4524SOL    HW114471   6.104   0.474   5.194
 4524SOL    HW214472   6.165   0.396   5.063
 4525SOL     OW14473   6.284   1.292   4.383
 4525SOL    HW114474   6.261   1.221   4.316
 4525SOL    HW214475   6.383   1.295   4.396
 4526SOL     OW14476   3.296   1.502   1.628
 4526SOL    HW114477   3.211   1.531   1.585
 4526SOL    HW214478   3.372   1.555   1.591
 4527SOL     OW14479   4.315   6.383   4.283
 4527SOL    HW114480   4.297   6.426   4.372
 4527SOL    HW214481   4.234   6.393   4.225
 4528SOL     OW14482   5.300   0.514   5.880
 4528SOL    HW114483   5.390   0.531   5.838
 4528SOL    HW214484   5.228   0.530   5.812
 4529SOL     OW14485   3.626   0.129   4.070
 4529SOL    HW114486   3.630   0.139   3.971
 4529SOL    HW214487   3.716   0.106   4.106
 4530SOL     OW14488   0.527   2.482   4.706
 4530SOL    HW114489   0.456   2.536   4.662
 4530SOL    HW214490   0.511   2.479   4.804
 4531SOL     OW14491   0.570   4.060   3.921
 4531SOL    HW114492   0.633   4.041   3.996
 4531SOL    HW214493   0.571   3.983   3.856
 4532SOL     OW14494   0.467   2.246   0.442
 4532SOL    HW114495   0.384   2.234   0.387
 4532SOL    HW214496   0.500   2.339   0.432
 4533SOL     OW14497   3.199   5.923   2.357
 4533SOL    HW114498   3.171   5.878   2.442
 4533SOL    HW214499   3.132   5.904   2.285
 4534SOL     OW14500   0.248   4.434   5.760
 4534SOL    HW114501   0.199   4.431   5.673
 4534SOL    HW214502   0.193   4.390   5.831
 4535SOL     OW14503   5.098   2.552   3.316
 4535SOL    HW114504   5.110   2.516   3.408
 4535SOL    HW214505   5.001   2.570   3.300
 4536SOL     OW14506   6.989   0.550   3.791
 4536SOL    HW114507   6.914   0.545   3.857
 4536SOL    HW214508   0.041   0.613   3.825
 4537SOL     OW14509   4.796   3.699   6.735
 4537SOL    HW114510   4.795   3.715   6.636
 4537SOL    HW214511   4.866   3.630   6.757
 4538SOL     OW14512   3.516   2.414   1.415
 4538SOL    HW114513   3.502   2.441   1.510
 4538SOL    HW214514   3.600   2.359   1.409
 4539SOL     OW14515   2.425   2.402   2.103
 4539SOL    HW114516   2.416   2.475   2.171
 4539SOL    HW214517   2.522   2.380   2.090
 4540SOL     OW14518   3.391   3.267   5.319
 4540SOL    HW114519   3.409   3.288   5.415
 4540SOL    HW214520   3.362   3.350   5.272
 4541SOL     OW14521   6.098   0.829   1.642
 4541SOL    HW114522   6.063   0.922   1.633
 4541SOL    HW214523   6.192   0.831   1.674
 4542SOL     OW14524   5.147   6.869   3.289
 4542SOL    HW114525   5.186   6.835   3.203
 4542SOL    HW214526   5.079   6.939   3.269
 4543SOL     OW14527   5.809   2.712   2.319
 4543SOL    HW114528   5.767   2.796   2.283
 4543SOL    HW214529   5.865   2.671   2.247
 4544SOL     OW14530   4.818   5.183   6.205
 4544SOL    HW114531   4.792   5.097   6.161
 4544SOL    HW214532   4.910   5.175   6.241
 4545SOL     OW14533   3.825   3.974   6.200
 4545SOL    HW114534   3.758   4.036   6.241
 4545SOL    HW214535   3.850   4.008   6.110
 4546SOL     OW14536   0.454   6.099   6.951
 4546SOL    HW114537   0.506   6.184   6.950
 4546SOL    HW214538   0.368   6.113   6.902
 4547SOL     OW14539   4.815   1.627   2.267
 4547SOL    HW114540   4.889   1.575   2.308
 4547SOL    HW214541   4.796   1.591   2.176
 4548SOL     OW14542   1.128   3.647   4.094
 4548SOL    HW114543   1.168   3.636   4.003
 4548SOL    HW214544   1.140   3.742   4.123
 4549SOL     OW14545   5.673   1.960   2.441
 4549SOL    HW114546   5.646   2.012   2.522
 4549SOL    HW214547   5.595   1.907   2.408
 4550SOL     OW14548   2.171   5.630   4.798
 4550SOL    HW114549   2.117   5.698   4.748
 4550SOL    HW214550   2.212   5.673   4.879
 4551SOL     OW14551   6.605   3.279   0.615
 4551SOL    HW114552   6.547   3.211   0.660
 4551SOL    HW214553   6.699   3.269   0.646
 4552SOL     OW14554   6.779   3.217   4.734
 4552SOL    HW114555   6.875   3.244   4.746
 4552SOL    HW214556   6.773   3.117   4.737
 4553SOL     OW14557   5.002   4.796   6.740
 4553SOL    HW114558   5.060   4.746   6.803
 4553SOL    HW214559   5.002   4.752   6.651
 4554SOL     OW14560   6.564   0.031   4.036
 4554SOL    HW114561   6.643   0.068   4.084
 4554SOL    HW214562   6.562   0.066   3.942
 4555SOL     OW14563   3.844   3.029   6.960
 4555SOL    HW114564   3.812   2.963   6.892
 4555SOL    HW214565   3.853   2.984   0.030
 4556SOL     OW14566   4.579   0.306   4.987
 4556SOL    HW114567   4.572   0.348   5.077
 4556SOL    HW214568   4.658   0.344   4.939
 4557SOL     OW14569   5.299   0.636   4.879
 4557SOL    HW114570   5.306   0.650   4.781
 4557SOL    HW214571   5.202   0.633   4.906
 4558SOL     OW14572   6.477   2.864   5.646
 4558SOL    HW114573   6.438   2.954   5.624
 4558SOL    HW214574   6.487   2.811   5.561
 4559SOL     OW14575   1.050   6.253   1.477
 4559SOL    HW114576   1.021   6.242   1.382
 4559SOL    HW214577   0.970   6.247   1.537
 4560SOL     OW14578   5.661   2.843   3.045
 4560SOL    HW114579   5.730   2.773   3.023
 4560SOL    HW214580   5.619   2.821   3.133
 4561SOL     OW14581   3.725   6.990   6.320
 4561SOL    HW114582   3.639   6.997   6.371
 4561SOL    HW214583   3.799   0.009   6.375
 4562SOL     OW14584   2.744   4.527   5.846
 4562SOL    HW114585   2.715   4.587   5.771
 4562SOL    HW214586   2.828   4.479   5.819
 4563SOL     OW14587   5.922   2.271   6.727
 4563SOL    HW114588   6.012   2.274   6.684
 4563SOL    HW214589   5.879   2.182   6.709
 4564SOL     OW14590   0.897   4.970   0.205
 4564SOL    HW114591   0.848   5.057   0.206
 4564SOL    HW214592   0.869   4.916   0.285
 4565SOL     OW14593   2.593   1.210   3.801
 4565SOL    HW114594   2.547   1.141   3.857
 4565SOL    HW214595   2.559   1.301   3.824
 4566SOL     OW14596   1.369   0.983   0.848
 4566SOL    HW114597   1.433   0.942   0.913
 4566SOL    HW214598   1.369   0.928   0.764
 4567SOL     OW14599   5.534   1.431   0.986
 4567SOL    HW114600   5.441   1.465   1.001
 4567SOL    HW214601   5.556   1.364   1.057
 4568SOL     OW14602   4.175   4.731   3.970
 4568SOL    HW114603   4.155   4.727   3.872
 4568SOL    HW214604   4.145   4.819   4.007
 4569SOL     OW14605   0.629   1.981   2.822
 4569SOL    HW114606   0.548   1.930   2.791
 4569SOL    HW214607   0.599   2.064   2.869
 4570SOL     OW14608   5.464   5.651   4.557
 4570SOL    HW114609   5.475   5.719   4.630
 4570SOL    HW214610   5.370   5.615   4.559
 4571SOL     OW14611   3.646   2.858   4.071
 4571SOL    HW114612   3.600   2.874   4.159
 4571SOL    HW214613   3.738   2.824   4.087
 4572SOL     OW14614   2.051   5.311   1.745
 4572SOL    HW114615   2.107   5.384   1.705
 4572SOL    HW214616   2.069   5.225   1.696
 4573SOL     OW14617   5.248   0.284   1.068
 4573SOL    HW114618   5.314   0.335   1.013
 4573SOL    HW214619   5.278   0.190   1.078
 4574SOL     OW14620   6.968   4.492   1.340
 4574SOL    HW114621   6.980   4.399   1.375
 4574SOL    HW214622   6.910   4.544   1.402
 4575SOL     OW14623   6.366   6.107   2.161
 4575SOL    HW114624   6.311   6.103   2.245
 4575SOL    HW214625   6.327   6.175   2.099
 4576SOL     OW14626   3.151   6.352   4.012
 4576SOL    HW114627   3.198   6.430   3.971
 4576SOL    HW214628   3.067   6.332   3.961
 4577SOL     OW14629   1.723   2.860   3.889
 4577SOL    HW114630   1.712   2.869   3.790
 4577SOL    HW214631   1.662   2.925   3.934
 4578SOL     OW14632   0.040   5.640   4.145
 4578SOL    HW114633   0.034   5.569   4.075
 4578SOL    HW214634   0.136   5.653   4.170
 4579SOL     OW14635   5.497   2.309   4.446
 4579SOL    HW114636   5.414   2.267   4.483
 4579SOL    HW214637   5.473   2.365   4.367
 4580SOL     OW14638   0.442   5.291   6.734
 4580SOL    HW114639   0.440   5.234   6.816
 4580SOL    HW214640   0.437   5.387   6.760
 4581SOL     OW14641   3.200   6.217   4.614
 4581SOL    HW114642   3.235   6.135   4.658
 4581SOL    HW214643   3.123   6.193   4.555
 4582SOL     OW14644   4.928   0.006   3.189
 4582SOL    HW114645   5.013   0.057   3.202
 4582SOL    HW214646   4.853   0.071   3.174
 4583SOL     OW14647   3.814   0.866   5.130
 4583SOL    HW114648   3.743   0.934   5.144
 4583SOL    HW214649   3.791   0.808   5.052
 4584SOL     OW14650   0.868   4.701   5.898
 4584SOL    HW114651   0.806   4.626   5.874
 4584SOL    HW214652   0.847   4.781   5.841
 4585SOL     OW14653   3.173   6.189   2.203
 4585SOL    HW114654   3.102   6.161   2.138
 4585SOL    HW214655   3.172   6.127   2.282
 4586SOL     OW14656   2.810   6.248   1.649
 4586SOL    HW114657   2.813   6.201   1.561
 4586SOL    HW214658   2.772   6.340   1.637
 4587SOL     OW14659   3.458   4.551   0.817
 4587SOL    HW114660   3.498   4.550   0.726
 4587SOL    HW214661   3.529   4.537   0.885
 4588SOL     OW14662   3.586   4.048   5.142
 4588SOL    HW114663   3.595   4.002   5.230
 4588SOL    HW214664   3.516   4.003   5.087
 4589SOL     OW14665   1.256   1.857   3.146
 4589SOL    HW114666   1.288   1.951   3.138
 4589SOL    HW214667   1.311   1.797   3.088
 4590SOL     OW14668   4.264   6.444   3.022
 4590SOL    HW114669   4.338   6.501   3.056
 4590SOL    HW214670   4.192   6.437   3.091
 4591SOL     OW14671   5.872   6.432   5.109
 4591SOL    HW114672   5.795   6.374   5.084
 4591SOL    HW214673   5.926   6.388   5.181
 4592SOL     OW14674   3.412   2.042   5.855
 4592SOL    HW114675   3.480   2.082   5.793
 4592SOL    HW214676   3.414   1.943   5.848
 4593SOL     OW14677   5.198   6.652   1.676
 4593SOL    HW114678   5.236   6.711   1.747
 4593SOL    HW214679   5.177   6.562   1.714
 4594SOL     OW14680   3.784   1.837   2.381
 4594SOL    HW114681   3.699   1.847   2.330
 4594SOL    HW214682   3.777   1.757   2.442
 4595SOL     OW14683   4.865   3.474   5.793
 4595SOL    HW114684   4.814   3.532   5.857
 4595SOL    HW214685   4.831   3.488   5.701
 4596SOL     OW14686   5.188   0.210   2.390
 4596SOL    HW114687   5.134   0.293   2.373
 4596SOL    HW214688   5.212   0.168   2.303
 4597SOL     OW14689   6.582   4.203   5.624
 4597SOL    HW114690   6.501   4.255   5.651
 4597SOL    HW214691   6.664   4.260   5.633
 4598SOL     OW14692   2.776   4.094   0.191
 4598SOL    HW114693   2.787   4.022   0.260
 4598SOL    HW214694   2.855   4.094   0.130
 4599SOL     OW14695   2.885   5.602   0.516
 4599SOL    HW114696   2.967   5.562   0.474
 4599SOL    HW214697   2.804   5.572   0.466
 4600SOL     OW14698   3.300   3.966   1.198
 4600SOL    HW114699   3.354   3.893   1.155
 4600SOL    HW214700   3.358   4.046   1.213
 4601SOL     OW14701   1.870   5.716   4.189
 4601SOL    HW114702   1.837   5.724   4.095
 4601SOL    HW214703   1.796   5.681   4.247
 4602SOL     OW14704   1.769   0.680   1.265
 4602SOL    HW114705   1.687   0.735   1.283
 4602SOL    HW214706   1.792   0.687   1.168
 4603SOL     OW14707   2.913   1.531   1.808
 4603SOL    HW114708   2.848   1.557   1.736
 4603SOL    HW214709   2.863   1.494   1.886
 4604SOL     OW14710   1.420   0.822   2.769
 4604SOL    HW114711   1.505   0.812   2.717
 4604SOL    HW214712   1.394   0.918   2.773
 4605SOL     OW14713   5.134   5.705   5.683
 4605SOL    HW114714   5.093   5.791   5.651
 4605SOL    HW214715   5.069   5.657   5.741
 4606SOL     OW14716   6.481   6.055   4.648
 4606SOL    HW114717   6.520   6.019   4.563
 4606SOL    HW214718   6.385   6.080   4.632
 4607SOL     OW14719   2.449   2.940   0.979
 4607SOL    HW114720   2.427   2.877   1.054
 4607SOL    HW214721   2.498   3.019   1.015
 4608SOL     OW14722   1.438   3.395   5.358
 4608SOL    HW114723   1.508   3.373   5.290
 4608SOL    HW214724   1.419   3.315   5.414
 4609SOL     OW14725   3.136   0.481   0.694
 4609SOL    HW114726   3.168   0.525   0.610
 4609SOL    HW214727   3.206   0.419   0.729
 4610SOL     OW14728   6.696   3.367   6.469
 4610SOL    HW114729   6.614   3.393   6.419
 4610SOL    HW214730   6.767   3.435   6.454
 4611SOL     OW14731   1.419   4.318   6.564
 4611SOL    HW114732   1.365   4.315   6.480
 4611SOL    HW214733   1.476   4.400   6.564
 4612SOL     OW14734   2.332   0.359   6.234
 4612SOL    HW114735   2.311   0.444   6.283
 4612SOL    HW214736   2.431   0.352   6.222
 4613SOL     OW14737   3.430   4.812   1.695
 4613SOL    HW114738   3.514   4.778   1.737
 4613SOL    HW214739   3.377   4.862   1.763
 4614SOL     OW14740   2.302   5.097   6.998
 4614SOL    HW114741   2.371   5.161   6.966
 4614SOL    HW214742   2.284   5.112   0.077
 4615SOL     OW14743   6.447   3.193   6.384
 4615SOL    HW114744   6.517   3.149   6.441
 4615SOL    HW214745   6.400   3.263   6.437
 4616SOL     OW14746   5.628   0.427   0.037
 4616SOL    HW114747   5.666   0.410   6.965
 4616SOL    HW214748   5.638   0.524   0.060
 4617SOL     OW14749   6.777   3.975   1.741
 4617SOL    HW114750   6.788   3.876   1.732
 4617SOL    HW214751   6.824   4.021   1.666
 4618SOL     OW14752   0.516   2.746   6.579
 4618SOL    HW114753   0.502   2.655   6.618
 4618SOL    HW214754   0.429   2.794   6.576
 4619SOL     OW14755   3.870   0.160   3.616
 4619SOL    HW114756   3.888   0.064   3.634
 4619SOL    HW214757   3.784   0.186   3.661
 4620SOL     OW14758   2.413   5.853   6.707
 4620SOL    HW114759   2.334   5.809   6.750
 4620SOL    HW214760   2.456   5.789   6.644
 4621SOL     OW14761   0.149   0.458   6.342
 4621SOL    HW114762   0.134   0.556   6.331
 4621SOL    HW214763   0.172   0.418   6.253
 4622SOL     OW14764   2.006   3.818   0.652
 4622SOL    HW114765   2.091   3.768   0.668
 4622SOL    HW214766   1.965   3.788   0.566
 4623SOL     OW14767   5.571   4.049   2.662
 4623SOL    HW114768   5.504   4.060   2.588
 4623SOL    HW214769   5.555   3.963   2.710
 4624SOL     OW14770   4.517   0.114   5.938
 4624SOL    HW114771   4.418   0.102   5.924
 4624SOL    HW214772   4.562   0.128   5.850
 4625SOL     OW14773   0.979   3.886   5.959
 4625SOL    HW114774   0.980   3.808   5.897
 4625SOL    HW214775   1.056   3.879   6.023
 4626SOL     OW14776   5.499   5.066   1.570
 4626SOL    HW114777   5.514   4.999   1.497
 4626SOL    HW214778   5.582   5.119   1.585
 4627SOL     OW14779   1.834   6.892   5.411
 4627SOL    HW114780   1.900   6.826   5.375
 4627SOL    HW214781   1.800   6.860   5.500
 4628SOL     OW14782   6.281   2.728   1.785
 4628SOL    HW114783   6.358   2.783   1.753
 4628SOL    HW214784   6.232   2.691   1.705
 4629SOL     OW14785   4.361   5.061   4.241
 4629SOL    HW114786   4.413   5.138   4.205
 4629SOL    HW214787   4.425   4.994   4.281
 4630SOL     OW14788   1.876   6.540   2.637
 4630SOL    HW114789   1.889   6.452   2.592
 4630SOL    HW214790   1.940   6.549   2.713
 4631SOL     OW14791   1.790   0.443   2.966
 4631SOL    HW114792   1.745   0.498   3.037
 4631SOL    HW214793   1.795   0.495   2.881
 4632SOL     OW14794   5.730   5.710   3.984
 4632SOL    HW114795   5.632   5.731   3.991
 4632SOL    HW214796   5.783   5.783   4.026
 4633SOL     OW14797   5.643   2.456   5.838
 4633SOL    HW114798   5.656   2.555   5.841
 4633SOL    HW214799   5.729   2.412   5.809
 4634SOL     OW14800   2.806   4.412   0.523
 4634SOL    HW114801   2.782   4.371   0.435
 4634SOL    HW214802   2.881   4.360   0.565
 4635SOL     OW14803   5.060   3.114   1.621
 4635SOL    HW114804   5.093   3.105   1.527
 4635SOL    HW214805   5.046   3.023   1.661
 4636SOL     OW14806   0.828   5.961   1.693
 4636SOL    HW114807   0.802   5.959   1.597
 4636SOL    HW214808   0.924   5.985   1.702
 4637SOL     OW14809   1.361   0.730   4.581
 4637SOL    HW114810   1.273   0.769   4.556
 4637SOL    HW214811   1.353   0.631   4.588
 4638SOL     OW14812   4.329   4.738   5.622
 4638SOL    HW114813   4.284   4.657   5.660
 4638SOL    HW214814   4.427   4.735   5.642
 4639SOL     OW14815   0.085   1.910   4.951
 4639SOL    HW114816   0.058   2.006   4.942
 4639SOL    HW214817   0.022   1.854   4.897
 4640SOL     OW14818   6.101   5.004   2.781
 4640SOL    HW114819   6.147   5.093   2.786
 4640SOL    HW214820   6.118   4.953   2.865
 4641SOL     OW14821   2.664   3.192   5.599
 4641SOL    HW114822   2.604   3.267   5.571
 4641SOL    HW214823   2.679   3.130   5.521
 4642SOL     OW14824   6.186   5.934   3.882
 4642SOL    HW114825   6.230   5.875   3.814
 4642SOL    HW214826   6.240   6.017   3.893
 4643SOL     OW14827   4.289   2.934   1.209
 4643SOL    HW114828   4.343   2.874   1.150
 4643SOL    HW214829   4.326   3.026   1.206
 4644SOL     OW14830   3.750   4.470   5.271
 4644SOL    HW114831   3.713   4.534   5.338
 4644SOL    HW214832   3.683   4.398   5.253
 4645SOL     OW14833   1.890   6.020   4.913
 4645SOL    HW114834   1.862   6.074   4.992
 4645SOL    HW214835   1.904   6.079   4.834
 4646SOL     OW14836   3.300   0.206   1.084
 4646SOL    HW114837   3.208   0.239   1.061
 4646SOL    HW214838   3.297   0.158   1.171
 4647SOL     OW14839   6.580   0.663   4.897
 4647SOL    HW114840   6.490   0.704   4.887
 4647SOL    HW214841   6.620   0.692   4.984
 4648SOL     OW14842   1.998   5.767   3.523
 4648SOL    HW114843   2.094   5.744   3.513
 4648SOL    HW214844   1.978   5.851   3.472
 4649SOL     OW14845   5.580   6.832   6.001
 4649SOL    HW114846   5.674   6.800   6.006
 4649SOL    HW214847   5.576   6.930   6.021
 4650SOL     OW14848   6.622   4.531   1.195
 4650SOL    HW114849   6.613   4.431   1.193
 4650SOL    HW214850   6.696   4.556   1.258
 4651SOL     OW14851   6.564   2.295   1.857
 4651SOL    HW114852   6.561   2.225   1.928
 4651SOL    HW214853   6.476   2.297   1.808
 4652SOL     OW14854   0.286   6.166   5.366
 4652SOL    HW114855   0.239   6.220   5.436
 4652SOL    HW214856   0.358   6.112   5.408
 4653SOL     OW14857   0.456   5.033   6.630
 4653SOL    HW114858   0.473   5.127   6.659
 4653SOL    HW214859   0.539   4.979   6.642
 4654SOL     OW14860   1.335   1.627   6.527
 4654SOL    HW114861   1.397   1.702   6.550
 4654SOL    HW214862   1.286   1.649   6.443
 4655SOL     OW14863   6.981   5.445   3.485
 4655SOL    HW114864   6.921   5.447   3.565
 4655SOL    HW214865   0.058   5.443   3.515
 4656SOL     OW14866   2.310   6.657   2.869
 4656SOL    HW114867   2.214   6.630   2.880
 4656SOL    HW214868   2.354   6.664   2.959
 4657SOL     OW14869   6.043   0.687   6.125
 4657SOL    HW114870   6.008   0.756   6.189
 4657SOL    HW214871   6.094   0.618   6.176
 4658SOL     OW14872   4.702   1.015   3.932
 4658SOL    HW114873   4.712   0.916   3.941
 4658SOL    HW214874   4.657   1.052   4.013
 4659SOL     OW14875   1.692   2.705   4.385
 4659SOL    HW114876   1.740   2.620   4.408
 4659SOL    HW214877   1.750   2.783   4.409
 4660SOL     OW14878   6.077   1.656   5.027
 4660SOL    HW114879   6.169   1.693   5.026
 4660SOL    HW214880   6.028   1.685   4.945
 4661SOL     OW14881   3.834   3.215   2.908
 4661SOL    HW114882   3.825   3.116   2.924
 4661SOL    HW214883   3.828   3.232   2.809
 4662SOL     OW14884   6.147   0.179   3.741
 4662SOL    HW114885   6.188   0.102   3.692
 4662SOL    HW214886   6.077   0.144   3.803
 4663SOL     OW14887   0.594   2.681   1.760
 4663SOL    HW114888   0.656   2.651   1.687
 4663SOL    HW214889   0.602   2.618   1.838
 4664SOL     OW14890   3.265   3.926   0.661
 4664SOL    HW114891   3.306   3.835   0.670
 4664SOL    HW214892   3.245   3.944   0.565
 4665SOL     OW14893   5.566   0.322   6.252
 4665SOL    HW114894   5.534   0.238   6.210
 4665SOL    HW214895   5.658   0.343   6.218
 4666SOL     OW14896   1.947   1.875   0.543
 4666SOL    HW114897   1.969   1.861   0.639
 4666SOL    HW214898   1.984   1.962   0.512
 4667SOL     OW14899   0.652   5.236   4.353
 4667SOL    HW114900   0.643   5.260   4.450
 4667SOL    HW214901   0.669   5.319   4.300
 4668SOL     OW14902   5.090   0.631   5.403
 4668SOL    HW114903   5.179   0.591   5.380
 4668SOL    HW214904   5.100   0.691   5.482
 4669SOL     OW14905   2.246   1.486   2.218
 4669SOL    HW114906   2.326   1.516   2.268
 4669SOL    HW214907   2.174   1.555   2.227
 4670SOL     OW14908   2.772   1.482   4.062
 4670SOL    HW114909   2.786   1.536   4.146
 4670SOL    HW214910   2.778   1.385   4.084
 4671SOL     OW14911   6.107   2.074   2.427
 4671SOL    HW114912   6.088   2.163   2.469
 4671SOL    HW214913   6.039   2.056   2.357
 4672SOL     OW14914   2.478   2.722   5.283
 4672SOL    HW114915   2.499   2.803   5.228
 4672SOL    HW214916   2.382   2.726   5.311
 4673SOL     OW14917   4.622   0.727   2.350
 4673SOL    HW114918   4.566   0.681   2.418
 4673SOL    HW214919   4.644   0.819   2.382
 4674SOL     OW14920   4.881   6.561   5.329
 4674SOL    HW114921   4.844   6.474   5.299
 4674SOL    HW214922   4.972   6.574   5.290
 4675SOL     OW14923   0.891   4.431   0.073
 4675SOL    HW114924   0.901   4.529   0.086
 4675SOL    HW214925   0.931   4.405   7.003
 4676SOL     OW14926   0.857   4.615   3.884
 4676SOL    HW114927   0.881   4.544   3.950
 4676SOL    HW214928   0.904   4.700   3.907
 4677SOL     OW14929   1.483   3.331   0.325
 4677SOL    HW114930   1.495   3.307   0.421
 4677SOL    HW214931   1.453   3.251   0.274
 4678SOL     OW14932   1.148   4.401   1.642
 4678SOL    HW114933   1.126   4.315   1.688
 4678SOL    HW214934   1.130   4.392   1.544
 4679SOL     OW14935   4.312   0.306   2.124
 4679SOL    HW114936   4.409   0.319   2.104
 4679SOL    HW214937   4.276   0.235   2.064
 4680SOL     OW14938   2.001   0.201   6.500
 4680SOL    HW114939   1.969   0.286   6.542
 4680SOL    HW214940   1.995   0.209   6.400
 4681SOL     OW14941   5.062   5.680   2.108
 4681SOL    HW114942   5.124   5.746   2.066
 4681SOL    HW214943   5.111   5.624   2.174
 4682SOL     OW14944   3.683   3.706   6.170
 4682SOL    HW114945   3.745   3.638   6.132
 4682SOL    HW214946   3.734   3.790   6.191
 4683SOL     OW14947   6.387   4.944   3.573
 4683SOL    HW114948   6.482   4.944   3.604
 4683SOL    HW214949   6.336   4.875   3.623
 4684SOL     OW14950   5.372   6.729   6.361
 4684SOL    HW114951   5.366   6.761   6.267
 4684SOL    HW214952   5.445   6.661   6.369
 4685SOL     OW14953   2.891   3.540   4.599
 4685SOL    HW114954   2.794   3.536   4.580
 4685SOL    HW214955   2.935   3.602   4.534
 4686SOL     OW14956   1.662   0.153   6.791
 4686SOL    HW114957   1.706   0.162   6.881
 4686SOL    HW214958   1.585   0.090   6.798
 4687SOL     OW14959   2.069   0.776   2.936
 4687SOL    HW114960   2.134   0.843   2.902
 4687SOL    HW214961   1.996   0.762   2.869
 4688SOL     OW14962   4.912   2.754   5.851
 4688SOL    HW114963   4.823   2.760   5.806
 4688SOL    HW214964   4.968   2.832   5.825
 4689SOL     OW14965   6.610   1.115   0.587
 4689SOL    HW114966   6.572   1.200   0.623
 4689SOL    HW214967   6.706   1.129   0.562
 4690SOL     OW14968   2.770   2.777   0.976
 4690SOL    HW114969   2.754   2.754   0.881
 4690SOL    HW214970   2.753   2.697   1.034
 4691SOL     OW14971   6.472   3.556   1.825
 4691SOL    HW114972   6.425   3.510   1.900
 4691SOL    HW214973   6.516   3.488   1.767
 4692SOL     OW14974   5.077   2.849   2.603
 4692SOL    HW114975   5.023   2.933   2.595
 4692SOL    HW214976   5.043   2.782   2.537
 4693SOL     OW14977   0.627   0.018   2.551
 4693SOL    HW114978   0.665   0.011   2.644
 4693SOL    HW214979   0.656   6.956   2.498
 4694SOL     OW14980   2.426   0.039   6.471
 4694SOL    HW114981   2.485   0.052   6.392
 4694SOL    HW214982   2.429   0.121   6.529
 4695SOL     OW14983   2.225   4.717   2.510
 4695SOL    HW114984   2.313   4.754   2.480
 4695SOL    HW214985   2.184   4.664   2.436
 4696SOL     OW14986   1.327   6.305   6.160
 4696SOL    HW114987   1.408   6.251   6.182
 4696SOL    HW214988   1.299   6.286   6.065
 4697SOL     OW14989   4.549   5.733   1.649
 4697SOL    HW114990   4.539   5.668   1.574
 4697SOL    HW214991   4.603   5.811   1.618
 4698SOL     OW14992   5.874   1.008   4.641
 4698SOL    HW114993   5.815   0.944   4.592
 4698SOL    HW214994   5.819   1.063   4.703
 4699SOL     OW14995   1.047   0.975   2.645
 4699SOL    HW114996   0.975   1.043   2.658
 4699SOL    HW214997   1.049   0.947   2.549
 4700SOL     OW14998   6.346   1.532   3.029
 4700SOL    HW114999   6.308   1.617   3.066
 4700SOL    HW215000   6.271   1.474   2.996
 4701SOL     OW15001   3.102   2.649   1.725
 4701SOL    HW115002   3.044   2.586   1.776
 4701SOL    HW215003   3.142   2.716   1.787
 4702SOL     OW15004   6.015   5.329   0.430
 4702SOL    HW115005   6.099   5.380   0.414
 4702SOL    HW215006   5.983   5.289   0.344
 4703SOL     OW15007   0.805   5.260   4.056
 4703SOL    HW115008   0.734   5.318   4.096
 4703SOL    HW215009   0.769   5.168   4.043
 4704SOL     OW15010   1.787   4.747   4.406
 4704SOL    HW115011   1.719   4.819   4.392
 4704SOL    HW215012   1.836   4.763   4.491
 4705SOL     OW15013   3.459   2.096   1.912
 4705SOL    HW115014   3.555   2.126   1.911
 4705SOL    HW215015   3.403   2.163   1.863
 4706SOL     OW15016   2.362   0.701   0.910
 4706SOL    HW115017   2.327   0.678   1.000
 4706SOL    HW215018   2.445   0.755   0.918
 4707SOL     OW15019   1.562   5.283   2.034
 4707SOL    HW115020   1.582   5.186   2.038
 4707SOL    HW215021   1.474   5.298   1.989
 4708SOL     OW15022   1.869   3.231   5.735
 4708SOL    HW115023   1.920   3.162   5.683
 4708SOL    HW215024   1.930   3.307   5.757
 4709SOL     OW15025   6.055   4.042   5.721
 4709SOL    HW115026   6.011   4.131   5.715
 4709SOL    HW215027   6.034   3.988   5.639
 4710SOL     OW15028   6.337   5.755   5.078
 4710SOL    HW115029   6.327   5.835   5.018
 4710SOL    HW215030   6.250   5.735   5.121
 4711SOL     OW15031   4.976   4.277   2.543
 4711SOL    HW115032   4.961   4.197   2.486
 4711SOL    HW215033   5.074   4.290   2.559
 4712SOL     OW15034   3.896   4.093   5.963
 4712SOL    HW115035   3.841   4.074   5.881
 4712SOL    HW215036   3.932   4.186   5.958
 4713SOL     OW15037   5.586   4.105   0.790
 4713SOL    HW115038   5.562   4.191   0.835
 4713SOL    HW215039   5.538   4.029   0.834
 4714SOL     OW15040   4.487   2.206   6.852
 4714SOL    HW115041   4.499   2.107   6.847
 4714SOL    HW215042   4.414   2.233   6.789
 4715SOL     OW15043   6.379   1.220   1.878
 4715SOL    HW115044   6.309   1.153   1.904
 4715SOL    HW215045   6.454   1.173   1.832
 4716SOL     OW15046   3.625   4.489   5.696
 4716SOL    HW115047   3.535   4.447   5.687
 4716SOL    HW215048   3.695   4.422   5.672
 4717SOL     OW15049   2.018   5.059   5.519
 4717SOL    HW115050   1.936   5.012   5.485
 4717SOL    HW215051   2.055   5.010   5.597
 4718SOL     OW15052   4.834   4.048   1.630
 4718SOL    HW115053   4.788   4.080   1.712
 4718SOL    HW215054   4.933   4.054   1.643
 4719SOL     OW15055   6.263   4.544   3.892
 4719SOL    HW115056   6.335   4.613   3.884
 4719SOL    HW215057   6.297   4.468   3.948
 4720SOL     OW15058   2.205   2.705   6.718
 4720SOL    HW115059   2.261   2.690   6.800
 4720SOL    HW215060   2.256   2.763   6.654
 4721SOL     OW15061   0.571   3.039   3.084
 4721SOL    HW115062   0.670   3.038   3.072
 4721SOL    HW215063   0.548   3.098   3.162
 4722SOL     OW15064   1.059   5.258   6.654
 4722SOL    HW115065   1.008   5.205   6.586
 4722SOL    HW215066   1.005   5.336   6.683
 4723SOL     OW15067   3.067   4.964   6.769
 4723SOL    HW115068   2.985   5.006   6.808
 4723SOL    HW215069   3.059   4.864   6.776
 4724SOL     OW15070   0.752   0.116   4.077
 4724SOL    HW115071   0.762   0.126   3.978
 4724SOL    HW215072   0.659   0.087   4.098
 4725SOL     OW15073   5.964   4.780   1.390
 4725SOL    HW115074   6.064   4.779   1.400
 4725SOL    HW215075   5.931   4.687   1.372
 4726SOL     OW15076   2.003   3.025   5.617
 4726SOL    HW115077   1.931   2.994   5.556
 4726SOL    HW215078   2.091   3.025   5.569
 4727SOL     OW15079   6.227   4.706   1.359
 4727SOL    HW115080   6.286   4.726   1.281
 4727SOL    HW215081   6.236   4.609   1.385
 4728SOL     OW15082   5.493   1.426   3.686
 4728SOL    HW115083   5.536   1.511   3.718
 4728SOL    HW215084   5.542   1.393   3.605
 4729SOL     OW15085   5.687   1.220   1.837
 4729SOL    HW115086   5.589   1.214   1.859
 4729SOL    HW215087   5.740   1.186   1.915
 4730SOL     OW15088   3.943   0.764   3.270
 4730SOL    HW115089   4.022   0.734   3.322
 4730SOL    HW215090   3.875   0.691   3.268
 4731SOL     OW15091   3.153   0.052   1.289
 4731SOL    HW115092   3.110   0.022   1.375
 4731SOL    HW215093   3.086   0.045   1.215
 4732SOL     OW15094   6.863   5.120   5.133
 4732SOL    HW115095   6.778   5.075   5.159
 4732SOL    HW215096   6.894   5.084   5.045
 4733SOL     OW15097   1.527   4.087   2.477
 4733SOL    HW115098   1.575   4.131   2.553
 4733SOL    HW215099   1.589   4.028   2.427
 4734SOL     OW15100   4.730   4.133   0.091
 4734SOL    HW115101   4.699   4.215   0.042
 4734SOL    HW215102   4.747   4.059   0.025
 4735SOL     OW15103   0.201   0.515   4.648
 4735SOL    HW115104   0.210   0.581   4.574
 4735SOL    HW215105   0.236   0.426   4.618
 4736SOL     OW15106   6.206   1.165   3.927
 4736SOL    HW115107   6.147   1.185   3.849
 4736SOL    HW215108   6.293   1.213   3.917
 4737SOL     OW15109   2.113   5.036   0.530
 4737SOL    HW115110   2.207   5.005   0.525
 4737SOL    HW215111   2.057   4.966   0.574
 4738SOL     OW15112   0.545   5.662   4.274
 4738SOL    HW115113   0.621   5.727   4.280
 4738SOL    HW215114   0.505   5.649   4.364
 4739SOL     OW15115   6.012   3.455   3.265
 4739SOL    HW115116   6.004   3.368   3.216
 4739SOL    HW215117   6.083   3.511   3.222
 4740SOL     OW15118   1.566   6.528   0.447
 4740SOL    HW115119   1.576   6.595   0.521
 4740SOL    HW215120   1.477   6.483   0.457
 4741SOL     OW15121   5.583   4.670   0.802
 4741SOL    HW115122   5.498   4.663   0.854
 4741SOL    HW215123   5.580   4.751   0.743
 4742SOL     OW15124   2.764   5.404   2.598
 4742SOL    HW115125   2.849   5.453   2.613
 4742SOL    HW215126   2.784   5.312   2.564
 4743SOL     OW15127   2.412   3.629   0.799
 4743SOL    HW115128   2.474   3.706   0.812
 4743SOL    HW215129   2.354   3.619   0.880
 4744SOL     OW15130   2.451   2.037   5.186
 4744SOL    HW115131   2.364   2.072   5.218
 4744SOL    HW215132   2.444   2.012   5.089
 4745SOL     OW15133   4.185   5.547   4.745
 4745SOL    HW115134   4.272   5.568   4.790
 4745SOL    HW215135   4.163   5.620   4.681
 4746SOL     OW15136   5.530   0.950   1.545
 4746SOL    HW115137   5.556   1.046   1.552
 4746SOL    HW215138   5.605   0.892   1.577
 4747SOL     OW15139   0.791   2.813   2.242
 4747SOL    HW115140   0.824   2.749   2.173
 4747SOL    HW215141   0.721   2.872   2.202
 4748SOL     OW15142   2.052   0.367   0.809
 4748SOL    HW115143   2.035   0.361   0.908
 4748SOL    HW215144   1.999   0.443   0.772
 4749SOL     OW15145   3.486   0.489   0.483
 4749SOL    HW115146   3.407   0.550   0.483
 4749SOL    HW215147   3.455   0.394   0.489
 4750SOL     OW15148   0.949   1.719   4.490
 4750SOL    HW115149   0.855   1.704   4.521
 4750SOL    HW215150   0.957   1.698   4.393
 4751SOL     OW15151   1.094   3.517   6.169
 4751SOL    HW115152   1.158   3.505   6.093
 4751SOL    HW215153   1.091   3.433   6.223
 4752SOL     OW15154   2.491   6.132   1.416
 4752SOL    HW115155   2.432   6.119   1.496
 4752SOL    HW215156   2.577   6.083   1.430
 4753SOL     OW15157   0.536   0.252   6.331
 4753SOL    HW115158   0.440   0.277   6.323
 4753SOL    HW215159   0.553   0.168   6.279
 4754SOL     OW15160   0.681   0.885   5.916
 4754SOL    HW115161   0.660   0.942   5.837
 4754SOL    HW215162   0.759   0.924   5.965
 4755SOL     OW15163   2.782   0.204   2.171
 4755SOL    HW115164   2.784   0.116   2.123
 4755SOL    HW215165   2.737   0.192   2.260
 4756SOL     OW15166   5.652   2.210   1.509
 4756SOL    HW115167   5.649   2.128   1.566
 4756SOL    HW215168   5.727   2.203   1.444
 4757SOL     OW15169   2.567   1.974   0.973
 4757SOL    HW115170   2.632   1.903   0.998
 4757SOL    HW215171   2.561   2.041   1.047
 4758SOL     OW15172   5.807   3.423   5.953
 4758SOL    HW115173   5.844   3.516   5.947
 4758SOL    HW215174   5.779   3.404   6.047
 4759SOL     OW15175   6.096   4.012   6.563
 4759SOL    HW115176   6.116   3.976   6.472
 4759SOL    HW215177   6.000   3.996   6.585
 4760SOL     OW15178   2.364   2.716   0.483
 4760SOL    HW115179   2.381   2.754   0.574
 4760SOL    HW215180   2.432   2.647   0.462
 4761SOL     OW15181   1.648   5.711   6.274
 4761SOL    HW115182   1.575   5.741   6.214
 4761SOL    HW215183   1.714   5.785   6.286
 4762SOL     OW15184   3.604   6.820   2.311
 4762SOL    HW115185   3.532   6.858   2.369
 4762SOL    HW215186   3.604   6.867   2.223
 4763SOL     OW15187   5.703   5.595   5.321
 4763SOL    HW115188   5.712   5.694   5.334
 4763SOL    HW215189   5.679   5.576   5.225
 4764SOL     OW15190   3.992   3.290   4.021
 4764SOL    HW115191   3.929   3.368   4.021
 4764SOL    HW215192   3.959   3.220   4.085
 4765SOL     OW15193   6.162   5.257   6.227
 4765SOL    HW115194   6.104   5.328   6.188
 4765SOL    HW215195   6.240   5.300   6.274
 4766SOL     OW15196   3.389   0.629   3.228
 4766SOL    HW115197   3.314   0.668   3.174
 4766SOL    HW215198   3.451   0.702   3.257
 4767SOL     OW15199   4.108   6.963   6.986
 4767SOL    HW115200   4.091   0.004   0.046
 4767SOL    HW215201   4.133   0.000   6.906
 4768SOL     OW15202   1.686   0.892   5.191
 4768SOL    HW115203   1.695   0.876   5.092
 4768SOL    HW215204   1.726   0.815   5.241
 4769SOL     OW15205   4.568   0.970   1.918
 4769SOL    HW115206   4.629   0.892   1.927
 4769SOL    HW215207   4.485   0.954   1.972
 4770SOL     OW15208   2.209   0.651   4.147
 4770SOL    HW115209   2.240   0.688   4.060
 4770SOL    HW215210   2.160   0.721   4.198
 4771SOL     OW15211   4.184   4.010   5.325
 4771SOL    HW115212   4.227   4.082   5.379
 4771SOL    HW215213   4.207   3.920   5.363
 4772SOL     OW15214   2.421   2.773   0.230
 4772SOL    HW115215   2.374   2.759   0.316
 4772SOL    HW215216   2.387   2.857   0.187
 4773SOL     OW15217   0.228   5.233   4.569
 4773SOL    HW115218   0.155   5.192   4.513
 4773SOL    HW215219   0.193   5.251   4.661
 4774SOL     OW15220   1.567   3.944   6.892
 4774SOL    HW115221   1.526   3.855   6.875
 4774SOL    HW215222   1.522   4.013   6.833
 4775SOL     OW15223   2.060   1.927   2.119
 4775SOL    HW115224   2.057   1.955   2.215
 4775SOL    HW215225   2.141   1.967   2.075
 4776SOL     OW15226   4.219   4.633   2.466
 4776SOL    HW115227   4.162   4.565   2.420
 4776SOL    HW215228   4.299   4.588   2.506
 4777SOL     OW15229   2.442   3.826   1.687
 4777SOL    HW115230   2.533   3.785   1.676
 4777SOL    HW215231   2.401   3.841   1.596
 4778SOL     OW15232   4.918   3.289   2.873
 4778SOL    HW115233   4.966   3.363   2.825
 4778SOL    HW215234   4.900   3.317   2.967
 4779SOL     OW15235   4.714   1.314   2.920
 4779SOL    HW115236   4.701   1.303   3.019
 4779SOL    HW215237   4.641   1.373   2.884
 4780SOL     OW15238   1.931   0.955   5.449
 4780SOL    HW115239   1.989   1.037   5.453
 4780SOL    HW215240   1.959   0.897   5.373
 4781SOL     OW15241   1.915   5.671   2.833
 4781SOL    HW115242   1.914   5.721   2.920
 4781SOL    HW215243   1.988   5.603   2.835
 4782SOL     OW15244   6.140   5.914   0.064
 4782SOL    HW115245   6.088   5.998   0.047
 4782SOL    HW215246   6.181   5.883   6.997
 4783SOL     OW15247   6.187   4.193   2.957
 4783SOL    HW115248   6.245   4.268   2.988
 4783SOL    HW215249   6.243   4.112   2.941
 4784SOL     OW15250   5.187   4.701   5.249
 4784SOL    HW115251   5.273   4.656   5.270
 4784SOL    HW215252   5.134   4.644   5.186
 4785SOL     OW15253   5.701   6.723   0.518
 4785SOL    HW115254   5.758   6.642   0.537
 4785SOL    HW215255   5.620   6.695   0.466
 4786SOL     OW15256   1.114   3.391   2.434
 4786SOL    HW115257   1.056   3.468   2.408
 4786SOL    HW215258   1.191   3.384   2.371
 4787SOL     OW15259   4.393   2.060   3.162
 4787SOL    HW115260   4.380   2.011   3.075
 4787SOL    HW215261   4.351   2.151   3.155
 4788SOL     OW15262   2.479   6.951   4.982
 4788SOL    HW115263   2.453   0.021   4.941
 4788SOL    HW215264   2.533   6.899   4.916
 4789SOL     OW15265   5.166   6.200   0.403
 4789SOL    HW115266   5.210   6.126   0.454
 4789SOL    HW215267   5.205   6.288   0.432
 4790SOL     OW15268   5.491   6.831   6.594
 4790SOL    HW115269   5.432   6.757   6.562
 4790SOL    HW215270   5.504   6.821   6.693
 4791SOL     OW15271   4.676   2.082   3.858
 4791SOL    HW115272   4.657   2.058   3.763
 4791SOL    HW215273   4.729   2.008   3.900
 4792SOL     OW15274   2.857   2.513   1.084
 4792SOL    HW115275   2.929   2.541   1.149
 4792SOL    HW215276   2.768   2.532   1.124
 4793SOL     OW15277   0.786   0.085   6.753
 4793SOL    HW115278   0.771   0.148   6.828
 4793SOL    HW215279   0.739   0.119   6.671
 4794SOL     OW15280   5.020   1.321   1.969
 4794SOL    HW115281   5.015   1.262   1.889
 4794SOL    HW215282   5.060   1.270   2.046
 4795SOL     OW15283   6.227   3.268   4.328
 4795SOL    HW115284   6.249   3.255   4.425
 4795SOL    HW215285   6.186   3.185   4.292
 4796SOL     OW15286   5.571   3.541   0.785
 4796SOL    HW115287   5.646   3.588   0.831
 4796SOL    HW215288   5.484   3.586   0.808
 4797SOL     OW15289   0.912   5.272   4.530
 4797SOL    HW115290   0.923   5.175   4.553
 4797SOL    HW215291   0.821   5.303   4.558
 4798SOL     OW15292   6.642   5.066   5.924
 4798SOL    HW115293   6.655   5.163   5.906
 4798SOL    HW215294   6.618   5.052   6.020
 4799SOL     OW15295   4.827   1.220   4.600
 4799SOL    HW115296   4.823   1.279   4.681
 4799SOL    HW215297   4.807   1.126   4.626
 4800SOL     OW15298   1.854   3.127   3.951
 4800SOL    HW115299   1.835   3.031   3.931
 4800SOL    HW215300   1.950   3.146   3.931
 4801SOL     OW15301   0.492   2.875   0.663
 4801SOL    HW115302   0.404   2.914   0.688
 4801SOL    HW215303   0.565   2.930   0.704
 4802SOL     OW15304   2.002   0.291   2.015
 4802SOL    HW115305   1.957   0.303   2.103
 4802SOL    HW215306   2.003   0.194   1.990
 4803SOL     OW15307   1.403   0.686   0.852
 4803SOL    HW115308   1.347   0.731   0.920
 4803SOL    HW215309   1.404   0.741   0.768
 4804SOL     OW15310   4.390   5.916   6.972
 4804SOL    HW115311   4.407   5.821   6.999
 4804SOL    HW215312   4.462   5.975   7.010
 4805SOL     OW15313   0.341   0.531   1.492
 4805SOL    HW115314   0.298   0.478   1.418
 4805SOL    HW215315   0.434   0.556   1.465
 4806SOL     OW15316   0.326   2.402   4.025
 4806SOL    HW115317   0.355   2.451   3.942
 4806SOL    HW215318   0.404   2.353   4.063
 4807SOL     OW15319   0.907   6.697   2.233
 4807SOL    HW115320   0.935   6.607   2.265
 4807SOL    HW215321   0.867   6.689   2.142
 4808SOL     OW15322   5.523   2.868   0.468
 4808SOL    HW115323   5.463   2.904   0.397
 4808SOL    HW215324   5.478   2.873   0.556
 4809SOL     OW15325   4.727   6.626   0.523
 4809SOL    HW115326   4.804   6.641   0.461
 4809SOL    HW215327   4.658   6.697   0.510
 4810SOL     OW15328   1.865   6.632   1.159
 4810SOL    HW115329   1.852   6.589   1.248
 4810SOL    HW215330   1.901   6.724   1.171
 4811SOL     OW15331   5.403   4.121   3.461
 4811SOL    HW115332   5.319   4.124   3.407
 4811SOL    HW215333   5.418   4.028   3.493
 4812SOL     OW15334   6.046   4.865   4.099
 4812SOL    HW115335   6.117   4.925   4.136
 4812SOL    HW215336   6.072   4.770   4.116
 4813SOL     OW15337   5.839   3.243   3.092
 4813SOL    HW115338   5.754   3.218   3.045
 4813SOL    HW215339   5.898   3.162   3.099
 4814SOL     OW15340   6.323   2.997   0.951
 4814SOL    HW115341   6.287   2.942   1.026
 4814SOL    HW215342   6.274   3.085   0.948
 4815SOL     OW15343   4.806   1.020   3.127
 4815SOL    HW115344   4.859   1.092   3.170
 4815SOL    HW215345   4.708   1.040   3.137
 4816SOL     OW15346   5.184   5.160   3.376
 4816SOL    HW115347   5.172   5.116   3.287
 4816SOL    HW215348   5.272   5.133   3.416
 4817SOL     OW15349   6.216   1.471   0.197
 4817SOL    HW115350   6.254   1.383   0.169
 4817SOL    HW215351   6.121   1.458   0.227
 4818SOL     OW15352   0.311   5.746   3.619
 4818SOL    HW115353   0.399   5.725   3.662
 4818SOL    HW215354   0.322   5.821   3.555
 4819SOL     OW15355   2.417   3.321   0.720
 4819SOL    HW115356   2.428   3.223   0.736
 4819SOL    HW215357   2.319   3.343   0.720
 4820SOL     OW15358   0.161   3.410   2.542
 4820SOL    HW115359   0.246   3.372   2.578
 4820SOL    HW215360   0.133   3.358   2.461
 4821SOL     OW15361   0.562   5.931   3.934
 4821SOL    HW115362   0.549   5.832   3.929
 4821SOL    HW215363   0.526   5.965   4.021
 4822SOL     OW15364   2.576   4.847   4.197
 4822SOL    HW115365   2.623   4.820   4.282
 4822SOL    HW215366   2.566   4.946   4.195
 4823SOL     OW15367   1.725   2.947   0.643
 4823SOL    HW115368   1.742   3.009   0.566
 4823SOL    HW215369   1.745   2.995   0.729
 4824SOL     OW15370   6.202   1.646   0.628
 4824SOL    HW115371   6.238   1.670   0.718
 4824SOL    HW215372   6.205   1.547   0.616
 4825SOL     OW15373   1.308   6.661   4.036
 4825SOL    HW115374   1.289   6.574   3.990
 4825SOL    HW215375   1.262   6.735   3.988
 4826SOL     OW15376   4.237   6.352   1.032
 4826SOL    HW115377   4.242   6.375   0.935
 4826SOL    HW215378   4.209   6.256   1.042
 4827SOL     OW15379   6.199   1.087   1.193
 4827SOL    HW115380   6.243   1.160   1.245
 4827SOL    HW215381   6.249   1.001   1.205
 4828SOL     OW15382   5.207   0.917   5.866
 4828SOL    HW115383   5.302   0.947   5.865
 4828SOL    HW215384   5.190   0.862   5.948
 4829SOL     OW15385   4.169   6.131   5.275
 4829SOL    HW115386   4.251   6.167   5.317
 4829SOL    HW215387   4.105   6.102   5.347
 4830SOL     OW15388   1.754   6.691   3.621
 4830SOL    HW115389   1.815   6.762   3.587
 4830SOL    HW215390   1.691   6.730   3.688
 4831SOL     OW15391   3.971   4.610   5.956
 4831SOL    HW115392   4.012   4.684   6.009
 4831SOL    HW215393   3.872   4.624   5.950
 4832SOL     OW15394   4.210   3.589   5.017
 4832SOL    HW115395   4.302   3.551   5.016
 4832SOL    HW215396   4.158   3.556   4.938
 4833SOL     OW15397   6.253   2.492   5.462
 4833SOL    HW115398   6.267   2.504   5.560
 4833SOL    HW215399   6.294   2.568   5.413
 4834SOL     OW15400   0.454   5.712   1.500
 4834SOL    HW115401   0.516   5.656   1.446
 4834SOL    HW215402   0.488   5.720   1.593
 4835SOL     OW15403   0.061   3.658   6.220
 4835SOL    HW115404   0.022   3.567   6.231
 4835SOL    HW215405   0.133   3.671   6.289
 4836SOL     OW15406   4.492   2.023   5.749
 4836SOL    HW115407   4.419   1.966   5.710
 4836SOL    HW215408   4.555   2.050   5.676
 4837SOL     OW15409   1.125   3.678   4.547
 4837SOL    HW115410   1.031   3.689   4.579
 4837SOL    HW215411   1.182   3.643   4.622
 4838SOL     OW15412   1.528   3.992   5.813
 4838SOL    HW115413   1.569   4.082   5.824
 4838SOL    HW215414   1.600   3.922   5.815
 4839SOL     OW15415   2.698   1.399   1.959
 4839SOL    HW115416   2.607   1.398   1.919
 4839SOL    HW215417   2.708   1.481   2.015
 4840SOL     OW15418   5.065   3.058   4.991
 4840SOL    HW115419   4.973   3.028   4.967
 4840SOL    HW215420   5.115   2.983   5.033
 4841SOL     OW15421   2.891   6.106   3.111
 4841SOL    HW115422   2.809   6.054   3.085
 4841SOL    HW215423   2.886   6.198   3.073
 4842SOL     OW15424   4.243   5.864   3.829
 4842SOL    HW115425   4.304   5.806   3.882
 4842SOL    HW215426   4.162   5.811   3.803
 4843SOL     OW15427   6.353   1.279   1.314
 4843SOL    HW115428   6.343   1.363   1.261
 4843SOL    HW215429   6.430   1.290   1.378
 4844SOL     OW15430   1.655   4.696   6.808
 4844SOL    HW115431   1.659   4.775   6.868
 4844SOL    HW215432   1.641   4.726   6.714
 4845SOL     OW15433   4.909   3.902   4.956
 4845SOL    HW115434   4.930   3.925   4.861
 4845SOL    HW215435   4.879   3.807   4.962
 4846SOL     OW15436   6.657   3.938   4.872
 4846SOL    HW115437   6.688   3.991   4.794
 4846SOL    HW215438   6.716   3.956   4.951
 4847SOL     OW15439   3.455   6.774   0.377
 4847SOL    HW115440   3.374   6.774   0.437
 4847SOL    HW215441   3.530   6.822   0.423
 4848SOL     OW15442   4.741   1.790   4.197
 4848SOL    HW115443   4.698   1.844   4.269
 4848SOL    HW215444   4.827   1.834   4.170
 4849SOL     OW15445   1.868   6.112   2.087
 4849SOL    HW115446   1.887   6.081   2.180
 4849SOL    HW215447   1.801   6.185   2.089
 4850SOL     OW15448   3.233   6.393   1.924
 4850SOL    HW115449   3.194   6.349   1.844
 4850SOL    HW215450   3.194   6.354   2.007
 4851SOL     OW15451   4.204   4.826   6.915
 4851SOL    HW115452   4.296   4.849   6.885
 4851SOL    HW215453   4.181   4.733   6.884
 4852SOL     OW15454   4.968   4.272   5.805
 4852SOL    HW115455   4.901   4.322   5.750
 4852SOL    HW215456   5.035   4.336   5.843
 4853SOL     OW15457   4.047   0.548   2.883
 4853SOL    HW115458   4.134   0.574   2.840
 4853SOL    HW215459   3.985   0.512   2.813
 4854SOL     OW15460   4.319   6.852   2.318
 4854SOL    HW115461   4.327   6.767   2.265
 4854SOL    HW215462   4.224   6.883   2.315
 4855SOL     OW15463   4.701   4.933   5.797
 4855SOL    HW115464   4.750   4.968   5.717
 4855SOL    HW215465   4.624   4.994   5.817
 4856SOL     OW15466   0.713   2.400   2.742
 4856SOL    HW115467   0.743   2.488   2.706
 4856SOL    HW215468   0.778   2.368   2.810
 4857SOL     OW15469   1.633   2.012   5.562
 4857SOL    HW115470   1.607   1.991   5.468
 4857SOL    HW215471   1.562   1.980   5.624
 4858SOL     OW15472   1.648   5.663   4.729
 4858SOL    HW115473   1.717   5.638   4.661
 4858SOL    HW215474   1.558   5.632   4.698
 4859SOL     OW15475   6.673   5.310   3.356
 4859SOL    HW115476   6.752   5.289   3.298
 4859SOL    HW215477   6.614   5.230   3.361
 4860SOL     OW15478   4.352   5.321   1.370
 4860SOL    HW115479   4.345   5.335   1.271
 4860SOL    HW215480   4.260   5.308   1.409
 4861SOL     OW15481   6.320   4.782   5.450
 4861SOL    HW115482   6.280   4.757   5.538
 4861SOL    HW215483   6.268   4.856   5.409
 4862SOL     OW15484   1.857   5.981   4.321
 4862SOL    HW115485   1.941   6.012   4.365
 4862SOL    HW215486   1.872   5.890   4.281
 4863SOL     OW15487   5.657   1.356   2.177
 4863SOL    HW115488   5.723   1.318   2.111
 4863SOL    HW215489   5.640   1.452   2.155
 4864SOL     OW15490   1.899   2.959   1.542
 4864SOL    HW115491   1.876   3.048   1.581
 4864SOL    HW215492   1.820   2.924   1.492
 4865SOL     OW15493   3.756   6.704   5.107
 4865SOL    HW115494   3.713   6.760   5.036
 4865SOL    HW215495   3.843   6.746   5.134
 4866SOL     OW15496   0.217   5.407   1.762
 4866SOL    HW115497   0.182   5.404   1.855
 4866SOL    HW215498   0.254   5.498   1.742
 4867SOL     OW15499   5.650   4.954   5.044
 4867SOL    HW115500   5.692   5.026   5.099
 4867SOL    HW215501   5.647   4.869   5.098
 4868SOL     OW15502   1.818   5.956   1.876
 4868SOL    HW115503   1.852   5.993   1.963
 4868SOL    HW215504   1.866   5.871   1.855
 4869SOL     OW15505   6.757   1.374   2.083
 4869SOL    HW115506   6.765   1.306   2.010
 4869SOL    HW215507   6.669   1.366   2.128
 4870SOL     OW15508   6.600   0.578   0.913
 4870SOL    HW115509   6.610   0.551   0.817
 4870SOL    HW215510   6.522   0.532   0.954
 4871SOL     OW15511   1.810   3.503   4.251
 4871SOL    HW115512   1.834   3.504   4.348
 4871SOL    HW215513   1.812   3.597   4.216
 4872SOL     OW15514   1.541   2.008   2.962
 4872SOL    HW115515   1.552   1.909   2.974
 4872SOL    HW215516   1.606   2.041   2.894
 4873SOL     OW15517   0.969   6.750   5.091
 4873SOL    HW115518   1.043   6.802   5.132
 4873SOL    HW215519   1.006   6.689   5.021
 4874SOL     OW15520   6.368   2.245   3.911
 4874SOL    HW115521   6.452   2.294   3.933
 4874SOL    HW215522   6.352   2.249   3.812
 4875SOL     OW15523   0.234   2.718   6.684
 4875SOL    HW115524   0.325   2.716   6.726
 4875SOL    HW215525   0.188   2.803   6.710
 4876SOL     OW15526   6.253   1.253   6.850
 4876SOL    HW115527   6.345   1.251   6.811
 4876SOL    HW215528   6.258   1.230   6.948
 4877SOL     OW15529   4.971   2.278   1.505
 4877SOL    HW115530   4.920   2.250   1.586
 4877SOL    HW215531   4.996   2.197   1.452
 4878SOL     OW15532   1.245   3.052   1.637
 4878SOL    HW115533   1.214   3.094   1.552
 4878SOL    HW215534   1.336   3.086   1.661
 4879SOL     OW15535   4.021   5.992   4.024
 4879SOL    HW115536   4.060   6.036   4.104
 4879SOL    HW215537   4.093   5.948   3.971
 4880SOL     OW15538   6.117   1.498   5.481
 4880SOL    HW115539   6.123   1.420   5.543
 4880SOL    HW215540   6.055   1.567   5.519
 4881SOL     OW15541   2.368   5.610   5.937
 4881SOL    HW115542   2.336   5.532   5.883
 4881SOL    HW215543   2.290   5.669   5.959
 4882SOL     OW15544   5.518   6.035   6.700
 4882SOL    HW115545   5.512   6.130   6.670
 4882SOL    HW215546   5.426   5.995   6.702
 4883SOL     OW15547   5.952   5.465   6.895
 4883SOL    HW115548   5.867   5.441   6.847
 4883SOL    HW215549   6.003   5.531   6.839
 4884SOL     OW15550   3.759   6.658   1.887
 4884SOL    HW115551   3.695   6.598   1.840
 4884SOL    HW215552   3.838   6.675   1.829
 4885SOL     OW15553   1.591   0.738   2.101
 4885SOL    HW115554   1.589   0.641   2.124
 4885SOL    HW215555   1.542   0.790   2.172
 4886SOL     OW15556   6.140   0.710   5.466
 4886SOL    HW115557   6.062   0.680   5.522
 4886SOL    HW215558   6.186   0.630   5.428
 4887SOL     OW15559   0.957   1.780   5.342
 4887SOL    HW115560   0.891   1.852   5.320
 4887SOL    HW215561   0.937   1.698   5.288
 4888SOL     OW15562   3.892   6.329   1.607
 4888SOL    HW115563   3.970   6.382   1.642
 4888SOL    HW215564   3.915   6.232   1.606
 4889SOL     OW15565   1.301   3.039   6.872
 4889SOL    HW115566   1.343   3.069   6.786
 4889SOL    HW215567   1.234   2.967   6.853
 4890SOL     OW15568   0.355   0.301   4.228
 4890SOL    HW115569   0.292   0.271   4.300
 4890SOL    HW215570   0.448   0.277   4.254
 4891SOL     OW15571   1.127   4.343   0.308
 4891SOL    HW115572   1.046   4.342   0.367
 4891SOL    HW215573   1.146   4.437   0.280
 4892SOL     OW15574   1.897   5.661   2.393
 4892SOL    HW115575   1.947   5.596   2.337
 4892SOL    HW215576   1.843   5.721   2.335
 4893SOL     OW15577   0.382   3.522   6.248
 4893SOL    HW115578   0.348   3.434   6.217
 4893SOL    HW215579   0.311   3.569   6.301
 4894SOL     OW15580   0.763   6.840   3.541
 4894SOL    HW115581   0.751   6.917   3.478
 4894SOL    HW215582   0.827   6.774   3.502
 4895SOL     OW15583   6.449   3.656   6.853
 4895SOL    HW115584   6.490   3.732   6.903
 4895SOL    HW215585   6.352   3.675   6.838
 4896SOL     OW15586   4.103   6.800   4.492
 4896SOL    HW115587   4.098   6.812   4.393
 4896SOL    HW215588   4.013   6.775   4.527
 4897SOL     OW15589   2.768   6.205   6.485
 4897SOL    HW115590   2.826   6.213   6.566
 4897SOL    HW215591   2.765   6.110   6.455
 4898SOL     OW15592   5.748   2.446   4.817
 4898SOL    HW115593   5.728   2.377   4.747
 4898SOL    HW215594   5.808   2.516   4.779
 4899SOL     OW15595   5.719   4.267   4.472
 4899SOL    HW115596   5.714   4.216   4.386
 4899SOL    HW215597   5.805   4.318   4.475
 4900SOL     OW15598   0.906   6.801   4.674
 4900SOL    HW115599   0.948   6.891   4.666
 4900SOL    HW215600   0.839   6.802   4.749
 4901SOL     OW15601   6.554   6.446   3.320
 4901SOL    HW115602   6.494   6.503   3.376
 4901SOL    HW215603   6.549   6.476   3.225
 4902SOL     OW15604   3.602   5.167   0.916
 4902SOL    HW115605   3.673   5.118   0.865
 4902SOL    HW215606   3.643   5.240   0.971
 4903SOL     OW15607   6.280   5.077   5.882
 4903SOL    HW115608   6.340   5.001   5.855
 4903SOL    HW215609   6.214   5.045   5.949
 4904SOL     OW15610   2.618   0.821   3.277
 4904SOL    HW115611   2.590   0.805   3.182
 4904SOL    HW215612   2.628   0.733   3.324
 4905SOL     OW15613   6.667   3.735   3.118
 4905SOL    HW115614   6.740   3.672   3.092
 4905SOL    HW215615   6.686   3.826   3.081
 4906SOL     OW15616   5.391   0.555   1.495
 4906SOL    HW115617   5.438   0.523   1.577
 4906SOL    HW215618   5.336   0.482   1.457
 4907SOL     OW15619   2.593   2.008   1.552
 4907SOL    HW115620   2.540   2.087   1.520
 4907SOL    HW215621   2.577   1.931   1.490
 4908SOL     OW15622   4.445   5.918   0.360
 4908SOL    HW115623   4.389   6.000   0.369
 4908SOL    HW215624   4.541   5.944   0.348
 4909SOL     OW15625   6.266   6.730   5.803
 4909SOL    HW115626   6.284   6.707   5.898
 4909SOL    HW215627   6.313   6.816   5.780
 4910SOL     OW15628   5.095   6.326   5.840
 4910SOL    HW115629   5.131   6.265   5.911
 4910SOL    HW215630   5.107   6.421   5.868
 4911SOL     OW15631   0.686   3.830   6.766
 4911SOL    HW115632   0.655   3.735   6.770
 4911SOL    HW215633   0.646   3.881   6.842
 4912SOL     OW15634   2.413   2.662   1.489
 4912SOL    HW115635   2.327   2.613   1.483
 4912SOL    HW215636   2.438   2.697   1.398
 4913SOL     OW15637   2.568   3.001   1.666
 4913SOL    HW115638   2.564   2.910   1.707
 4913SOL    HW215639   2.622   2.997   1.581
 4914SOL     OW15640   1.731   6.747   2.659
 4914SOL    HW115641   1.692   6.770   2.570
 4914SOL    HW215642   1.797   6.673   2.648
 4915SOL     OW15643   3.512   6.557   3.713
 4915SOL    HW115644   3.496   6.496   3.635
 4915SOL    HW215645   3.602   6.539   3.752
 4916SOL     OW15646   1.077   1.500   1.694
 4916SOL    HW115647   1.146   1.492   1.622
 4916SOL    HW215648   1.122   1.498   1.783
 4917SOL     OW15649   1.633   3.733   6.353
 4917SOL    HW115650   1.646   3.832   6.341
 4917SOL    HW215651   1.651   3.709   6.449
 4918SOL     OW15652   2.466   0.376   3.762
 4918SOL    HW115653   2.379   0.343   3.724
 4918SOL    HW215654   2.468   0.356   3.860
 4919SOL     OW15655   2.488   3.222   1.546
 4919SOL    HW115656   2.513   3.307   1.593
 4919SOL    HW215657   2.506   3.144   1.606
 4920SOL     OW15658   3.560   0.948   0.349
 4920SOL    HW115659   3.615   0.918   0.427
 4920SOL    HW215660   3.526   0.868   0.300
 4921SOL     OW15661   6.719   4.967   2.127
 4921SOL    HW115662   6.686   4.932   2.215
 4921SOL    HW215663   6.749   4.891   2.070
 4922SOL     OW15664   0.929   2.772   5.749
 4922SOL    HW115665   0.852   2.814   5.797
 4922SOL    HW215666   0.896   2.699   5.690
 4923SOL     OW15667   2.508   2.176   6.651
 4923SOL    HW115668   2.428   2.118   6.632
 4923SOL    HW215669   2.565   2.181   6.569
 4924SOL     OW15670   0.539   3.063   4.243
 4924SOL    HW115671   0.589   3.053   4.329
 4924SOL    HW215672   0.599   3.036   4.167
 4925SOL     OW15673   4.664   5.435   5.369
 4925SOL    HW115674   4.635   5.363   5.306
 4925SOL    HW215675   4.747   5.407   5.416
 4926SOL     OW15676   4.352   3.391   0.726
 4926SOL    HW115677   4.261   3.351   0.738
 4926SOL    HW215678   4.374   3.448   0.805
 4927SOL     OW15679   3.098   4.008   2.177
 4927SOL    HW115680   3.063   4.082   2.234
 4927SOL    HW215681   3.197   4.002   2.188
 4928SOL     OW15682   0.548   0.643   0.085
 4928SOL    HW115683   0.483   0.719   0.089
 4928SOL    HW215684   0.641   0.679   0.076
 4929SOL     OW15685   1.110   4.659   4.517
 4929SOL    HW115686   1.172   4.619   4.584
 4929SOL    HW215687   1.085   4.751   4.544
 4930SOL     OW15688   0.247   3.209   0.460
 4930SOL    HW115689   0.182   3.263   0.406
 4930SOL    HW215690   0.213   3.116   0.470
 4931SOL     OW15691   5.697   6.689   1.114
 4931SOL    HW115692   5.796   6.699   1.121
 4931SOL    HW215693   5.675   6.634   1.034
 4932SOL     OW15694   3.448   1.672   1.185
 4932SOL    HW115695   3.404   1.603   1.127
 4932SOL    HW215696   3.381   1.709   1.249
 4933SOL     OW15697   3.043   0.156   4.610
 4933SOL    HW115698   3.093   0.109   4.683
 4933SOL    HW215699   3.005   0.089   4.546
 4934SOL     OW15700   1.910   5.931   5.198
 4934SOL    HW115701   1.965   5.925   5.281
 4934SOL    HW215702   1.873   5.840   5.176
 4935SOL     OW15703   1.900   2.302   0.887
 4935SOL    HW115704   1.917   2.286   0.984
 4935SOL    HW215705   1.874   2.398   0.873
 4936SOL     OW15706   6.061   4.106   1.557
 4936SOL    HW115707   5.974   4.059   1.567
 4936SOL    HW215708   6.131   4.061   1.613
 4937SOL     OW15709   0.736   3.396   4.567
 4937SOL    HW115710   0.640   3.419   4.583
 4937SOL    HW215711   0.746   3.349   4.480
 4938SOL     OW15712   3.540   4.277   1.425
 4938SOL    HW115713   3.589   4.363   1.437
 4938SOL    HW215714   3.534   4.230   1.513
 4939SOL     OW15715   1.375   1.072   1.303
 4939SOL    HW115716   1.417   0.983   1.322
 4939SOL    HW215717   1.299   1.087   1.367
 4940SOL     OW15718   1.038   1.781   5.588
 4940SOL    HW115719   0.947   1.799   5.624
 4940SOL    HW215720   1.040   1.802   5.490
 4941SOL     OW15721   4.054   2.008   5.784
 4941SOL    HW115722   4.024   1.913   5.775
 4941SOL    HW215723   4.140   2.011   5.836
 4942SOL     OW15724   6.512   0.958   2.811
 4942SOL    HW115725   6.611   0.943   2.799
 4942SOL    HW215726   6.481   1.025   2.744
 4943SOL     OW15727   4.439   2.331   6.569
 4943SOL    HW115728   4.464   2.343   6.665
 4943SOL    HW215729   4.340   2.343   6.559
 4944SOL     OW15730   0.965   4.838   0.536
 4944SOL    HW115731   1.056   4.797   0.535
 4944SOL    HW215732   0.966   4.920   0.593
 4945SOL     OW15733   2.871   0.660   5.369
 4945SOL    HW115734   2.817   0.576   5.366
 4945SOL    HW215735   2.951   0.650   5.310
 4946SOL     OW15736   2.916   6.104   0.533
 4946SOL    HW115737   2.971   6.030   0.571
 4946SOL    HW215738   2.926   6.186   0.591
 4947SOL     OW15739   1.002   0.185   1.296
 4947SOL    HW115740   0.941   0.257   1.329
 4947SOL    HW215741   0.966   0.147   1.211
 4948SOL     OW15742   1.337   2.462   2.160
 4948SOL    HW115743   1.241   2.444   2.184
 4948SOL    HW215744   1.342   2.487   2.064
 4949SOL     OW15745   6.399   4.358   5.768
 4949SOL    HW115746   6.464   4.320   5.833
 4949SOL    HW215747   6.423   4.454   5.748
 4950SOL     OW15748   3.820   4.228   5.147
 4950SOL    HW115749   3.837   4.327   5.147
 4950SOL    HW215750   3.729   4.210   5.182
 4951SOL     OW15751   4.681   5.063   3.153
 4951SOL    HW115752   4.655   5.121   3.230
 4951SOL    HW215753   4.679   4.967   3.181
 4952SOL     OW15754   0.941   0.919   6.906
 4952SOL    HW115755   0.848   0.936   6.875
 4952SOL    HW215756   1.005   0.972   6.851
 4953SOL     OW15757   1.406   1.952   5.717
 4953SOL    HW115758   1.438   1.924   5.807
 4953SOL    HW215759   1.310   1.928   5.706
 4954SOL     OW15760   3.228   3.514   5.364
 4954SOL    HW115761   3.188   3.547   5.450
 4954SOL    HW215762   3.196   3.570   5.288
 4955SOL     OW15763   4.120   5.746   0.134
 4955SOL    HW115764   4.040   5.749   0.194
 4955SOL    HW215765   4.160   5.837   0.127
 4956SOL     OW15766   2.603   0.562   5.019
 4956SOL    HW115767   2.664   0.484   5.008
 4956SOL    HW215768   2.546   0.548   5.100
 4957SOL     OW15769   5.594   5.256   0.118
 4957SOL    HW115770   5.550   5.338   0.153
 4957SOL    HW215771   5.525   5.189   0.094
 4958SOL     OW15772   3.413   5.748   6.939
 4958SOL    HW115773   3.350   5.780   7.009
 4958SOL    HW215774   3.491   5.809   6.934
 4959SOL     OW15775   6.701   2.439   3.069
 4959SOL    HW115776   6.701   2.468   2.973
 4959SOL    HW215777   6.656   2.350   3.077
 4960SOL     OW15778   5.149   4.351   4.123
 4960SOL    HW115779   5.143   4.251   4.116
 4960SOL    HW215780   5.241   4.381   4.101
 4961SOL     OW15781   3.611   2.857   2.157
 4961SOL    HW115782   3.697   2.886   2.198
 4961SOL    HW215783   3.535   2.880   2.218
 4962SOL     OW15784   1.613   2.311   6.944
 4962SOL    HW115785   1.667   2.362   7.010
 4962SOL    HW215786   1.516   2.334   6.955
 4963SOL     OW15787   0.469   4.268   6.401
 4963SOL    HW115788   0.451   4.331   6.477
 4963SOL    HW215789   0.567   4.261   6.387
 4964SOL     OW15790   1.676   4.778   3.977
 4964SOL    HW115791   1.688   4.687   3.940
 4964SOL    HW215792   1.750   4.837   3.946
 4965SOL     OW15793   2.042   6.930   3.094
 4965SOL    HW115794   1.971   6.900   3.030
 4965SOL    HW215795   2.008   7.008   3.147
 4966SOL     OW15796   4.479   0.078   5.131
 4966SOL    HW115797   4.500   0.174   5.112
 4966SOL    HW215798   4.463   0.030   5.044
 4967SOL     OW15799   4.686   4.516   3.743
 4967SOL    HW115800   4.656   4.437   3.690
 4967SOL    HW215801   4.784   4.508   3.762
 4968SOL     OW15802   6.654   3.244   4.457
 4968SOL    HW115803   6.723   3.279   4.394
 4968SOL    HW215804   6.690   3.247   4.550
 4969SOL     OW15805   0.364   6.027   4.580
 4969SOL    HW115806   0.290   5.994   4.522
 4969SOL    HW215807   0.379   5.962   4.655
 4970SOL     OW15808   2.164   1.470   1.614
 4970SOL    HW115809   2.100   1.447   1.541
 4970SOL    HW215810   2.205   1.386   1.651
 4971SOL     OW15811   0.136   5.611   1.333
 4971SOL    HW115812   0.134   5.683   1.402
 4971SOL    HW215813   0.181   5.530   1.370
 4972SOL     OW15814   0.255   4.126   6.990
 4972SOL    HW115815   0.279   4.092   6.898
 4972SOL    HW215816   0.175   4.186   6.983
 4973SOL     OW15817   5.545   2.112   6.601
 4973SOL    HW115818   5.493   2.031   6.626
 4973SOL    HW215819   5.632   2.085   6.559
 4974SOL     OW15820   3.583   6.942   5.515
 4974SOL    HW115821   3.496   6.953   5.561
 4974SOL    HW215822   3.650   7.005   5.554
 4975SOL     OW15823   5.597   3.913   1.591
 4975SOL    HW115824   5.601   4.010   1.616
 4975SOL    HW215825   5.571   3.860   1.672
 4976SOL     OW15826   0.393   0.275   3.877
 4976SOL    HW115827   0.469   0.217   3.847
 4976SOL    HW215828   0.429   0.353   3.930
 4977SOL     OW15829   1.425   3.851   5.497
 4977SOL    HW115830   1.335   3.829   5.535
 4977SOL    HW215831   1.423   3.942   5.456
 4978SOL     OW15832   6.234   5.051   4.482
 4978SOL    HW115833   6.270   5.142   4.459
 4978SOL    HW215834   6.245   5.034   4.579
 4979SOL     OW15835   2.796   6.931   6.425
 4979SOL    HW115836   2.744   6.850   6.397
 4979SOL    HW215837   2.889   6.905   6.449
 4980SOL     OW15838   6.134   3.008   4.225
 4980SOL    HW115839   6.097   2.927   4.271
 4980SOL    HW215840   6.058   3.063   4.189
 4981SOL     OW15841   3.529   6.086   3.575
 4981SOL    HW115842   3.618   6.046   3.600
 4981SOL    HW215843   3.459   6.015   3.577
 4982SOL     OW15844   4.326   2.047   4.854
 4982SOL    HW115845   4.256   1.978   4.867
 4982SOL    HW215846   4.365   2.072   4.943
 4983SOL     OW15847   6.201   3.275   2.859
 4983SOL    HW115848   6.207   3.366   2.818
 4983SOL    HW215849   6.135   3.220   2.809
 4984SOL     OW15850   4.925   3.655   4.776
 4984SOL    HW115851   4.907   3.571   4.725
 4984SOL    HW215852   4.876   3.653   4.863
 4985SOL     OW15853   5.477   0.561   2.396
 4985SOL    HW115854   5.404   0.568   2.463
 4985SOL    HW215855   5.534   0.643   2.399
 4986SOL     OW15856   1.507   5.112   1.466
 4986SOL    HW115857   1.504   5.037   1.401
 4986SOL    HW215858   1.416   5.154   1.473
 4987SOL     OW15859   2.069   2.961   2.646
 4987SOL    HW115860   2.100   3.006   2.562
 4987SOL    HW215861   2.106   3.010   2.725
 4988SOL     OW15862   6.372   5.563   4.130
 4988SOL    HW115863   6.273   5.547   4.128
 4988SOL    HW215864   6.389   5.655   4.166
 4989SOL     OW15865   6.897   6.991   3.307
 4989SOL    HW115866   6.835   6.920   3.341
 4989SOL    HW215867   6.934   0.024   3.384
 4990SOL     OW15868   4.761   1.635   6.627
 4990SOL    HW115869   4.851   1.607   6.595
 4990SOL    HW215870   4.754   1.735   6.621
 4991SOL     OW15871   1.830   5.908   6.291
 4991SOL    HW115872   1.836   5.966   6.209
 4991SOL    HW215873   1.841   5.965   6.372
 4992SOL     OW15874   1.455   3.776   4.100
 4992SOL    HW115875   1.530   3.736   4.153
 4992SOL    HW215876   1.391   3.821   4.161
 4993SOL     OW15877   2.207   6.371   3.926
 4993SOL    HW115878   2.233   6.289   3.874
 4993SOL    HW215879   2.249   6.368   4.016
 4994SOL     OW15880   3.086   5.245   5.581
 4994SOL    HW115881   3.034   5.292   5.509
 4994SOL    HW215882   3.165   5.199   5.541
 4995SOL     OW15883   0.210   0.972   6.222
 4995SOL    HW115884   0.196   1.035   6.298
 4995SOL    HW215885   0.284   1.006   6.164
 4996SOL     OW15886   6.856   0.660   3.551
 4996SOL    HW115887   6.896   0.592   3.613
 4996SOL    HW215888   6.912   0.667   3.469
 4997SOL     OW15889   4.378   1.675   0.371
 4997SOL    HW115890   4.369   1.596   0.433
 4997SOL    HW215891   4.447   1.655   0.302
 4998SOL     OW15892   0.958   4.325   3.634
 4998SOL    HW115893   0.896   4.277   3.572
 4998SOL    HW215894   0.967   4.420   3.605
 4999SOL     OW15895   0.741   3.073   4.031
 4999SOL    HW115896   0.733   3.110   3.939
 4999SOL    HW215897   0.835   3.046   4.049
 5000SOL     OW15898   2.565   6.626   3.248
 5000SOL    HW115899   2.509   6.553   3.287
 5000SOL    HW215900   2.543   6.636   3.151
 5001SOL     OW15901   0.435   5.643   3.201
 5001SOL    HW115902   0.427   5.564   3.262
 5001SOL    HW215903   0.480   5.718   3.249
 5002SOL     OW15904   1.534   4.952   3.471
 5002SOL    HW115905   1.505   4.976   3.378
 5002SOL    HW215906   1.605   4.883   3.467
 5003SOL     OW15907   3.385   0.744   1.911
 5003SOL    HW115908   3.362   0.648   1.897
 5003SOL    HW215909   3.303   0.794   1.941
 5004SOL     OW15910   4.008   6.278   0.480
 5004SOL    HW115911   3.988   6.255   0.575
 5004SOL    HW215912   4.064   6.206   0.438
 5005SOL     OW15913   3.329   2.975   0.652
 5005SOL    HW115914   3.421   2.949   0.682
 5005SOL    HW215915   3.280   3.020   0.727
 5006SOL     OW15916   5.121   0.559   2.250
 5006SOL    HW115917   5.120   0.554   2.350
 5006SOL    HW215918   5.081   0.646   2.221
 5007SOL     OW15919   5.953   5.366   2.489
 5007SOL    HW115920   6.038   5.353   2.438
 5007SOL    HW215921   5.928   5.280   2.533
 5008SOL     OW15922   5.038   0.073   3.622
 5008SOL    HW115923   5.126   0.025   3.621
 5008SOL    HW215924   5.008   0.087   3.717
 5009SOL     OW15925   0.563   1.565   0.431
 5009SOL    HW115926   0.623   1.502   0.382
 5009SOL    HW215927   0.611   1.603   0.510
 5010SOL     OW15928   4.948   3.805   1.168
 5010SOL    HW115929   4.901   3.831   1.083
 5010SOL    HW215930   5.025   3.746   1.145
 5011SOL     OW15931   1.827   2.404   6.164
 5011SOL    HW115932   1.918   2.444   6.181
 5011SOL    HW215933   1.799   2.424   6.070
 5012SOL     OW15934   6.016   1.555   6.090
 5012SOL    HW115935   5.984   1.638   6.135
 5012SOL    HW215936   6.067   1.580   6.007
 5013SOL     OW15937   5.203   0.225   5.587
 5013SOL    HW115938   5.113   0.251   5.623
 5013SOL    HW215939   5.194   0.144   5.529
 5014SOL     OW15940   6.219   3.569   1.231
 5014SOL    HW115941   6.224   3.655   1.283
 5014SOL    HW215942   6.140   3.516   1.262
 5015SOL     OW15943   5.852   5.600   4.366
 5015SOL    HW115944   5.781   5.531   4.379
 5015SOL    HW215945   5.938   5.568   4.405
 5016SOL     OW15946   1.663   2.868   6.609
 5016SOL    HW115947   1.707   2.782   6.582
 5016SOL    HW215948   1.576   2.877   6.560
 5017SOL     OW15949   0.195   2.427   2.120
 5017SOL    HW115950   0.101   2.395   2.122
 5017SOL    HW215951   0.233   2.427   2.213
 5018SOL     OW15952   1.327   0.693   6.924
 5018SOL    HW115953   1.426   0.693   6.937
 5018SOL    HW215954   1.304   0.634   6.847
 5019SOL     OW15955   1.744   4.504   3.903
 5019SOL    HW115956   1.666   4.502   3.966
 5019SOL    HW215957   1.722   4.454   3.820
 5020SOL     OW15958   1.745   0.290   4.385
 5020SOL    HW115959   1.800   0.368   4.356
 5020SOL    HW215960   1.751   0.218   4.316
 5021SOL     OW15961   2.869   0.179   1.514
 5021SOL    HW115962   2.846   0.226   1.599
 5021SOL    HW215963   2.829   0.228   1.437
 5022SOL     OW15964   6.693   2.648   0.919
 5022SOL    HW115965   6.739   2.731   0.889
 5022SOL    HW215966   6.747   2.568   0.892
 5023SOL     OW15967   0.311   3.593   2.927
 5023SOL    HW115968   0.305   3.646   3.011
 5023SOL    HW215969   0.333   3.498   2.949
 5024SOL     OW15970   5.146   4.197   0.269
 5024SOL    HW115971   5.049   4.178   0.281
 5024SOL    HW215972   5.187   4.127   0.212
 5025SOL     OW15973   4.917   2.169   4.826
 5025SOL    HW115974   4.839   2.196   4.883
 5025SOL    HW215975   4.896   2.188   4.730
 5026SOL     OW15976   5.507   6.035   4.967
 5026SOL    HW115977   5.412   6.049   4.942
 5026SOL    HW215978   5.512   5.999   5.060
 5027SOL     OW15979   5.351   6.528   0.633
 5027SOL    HW115980   5.291   6.483   0.699
 5027SOL    HW215981   5.443   6.489   0.638
 5028SOL     OW15982   6.577   2.014   2.366
 5028SOL    HW115983   6.496   2.058   2.327
 5028SOL    HW215984   6.565   2.005   2.465
 5029SOL     OW15985   5.083   2.060   2.772
 5029SOL    HW115986   5.139   2.142   2.782
 5029SOL    HW215987   4.994   2.085   2.734
 5030SOL     OW15988   0.101   3.368   0.269
 5030SOL    HW115989   0.010   3.326   0.275
 5030SOL    HW215990   0.094   3.456   0.221
 5031SOL     OW15991   6.565   0.241   5.989
 5031SOL    HW115992   6.603   0.315   6.044
 5031SOL    HW215993   6.559   0.158   6.043
 5032SOL     OW15994   2.670   4.301   6.061
 5032SOL    HW115995   2.728   4.325   6.139
 5032SOL    HW215996   2.672   4.376   5.995
 5033SOL     OW15997   2.297   0.057   5.881
 5033SOL    HW115998   2.258   0.044   5.972
 5033SOL    HW215999   2.315   6.986   5.840
 5034SOL     OW16000   4.669   6.009   4.469
 5034SOL    HW116001   4.635   5.959   4.549
 5034SOL    HW216002   4.723   6.087   4.500
 5035SOL     OW16003   2.069   3.701   3.429
 5035SOL    HW116004   2.143   3.749   3.380
 5035SOL    HW216005   2.094   3.691   3.525
 5036SOL     OW16006   1.374   2.913   4.882
 5036SOL    HW116007   1.362   2.998   4.933
 5036SOL    HW216008   1.349   2.835   4.939
 5037SOL     OW16009   4.990   4.693   1.140
 5037SOL    HW116010   5.002   4.707   1.042
 5037SOL    HW216011   5.057   4.626   1.173
 5038SOL     OW16012   3.165   3.532   3.615
 5038SOL    HW116013   3.250   3.484   3.592
 5038SOL    HW216014   3.094   3.505   3.550
 5039SOL     OW16015   0.762   3.708   0.034
 5039SOL    HW116016   0.744   3.723   0.132
 5039SOL    HW216017   0.766   3.796   7.005
 5040SOL     OW16018   0.225   1.281   5.149
 5040SOL    HW116019   0.195   1.369   5.187
 5040SOL    HW216020   0.219   1.284   5.049
 5041SOL     OW16021   6.835   1.927   1.352
 5041SOL    HW116022   6.932   1.917   1.373
 5041SOL    HW216023   6.804   1.849   1.297
 5042SOL     OW16024   1.118   2.072   5.628
 5042SOL    HW116025   1.037   2.017   5.649
 5042SOL    HW216026   1.091   2.167   5.611
 5043SOL     OW16027   3.389   6.369   2.202
 5043SOL    HW116028   3.400   6.413   2.112
 5043SOL    HW216029   3.322   6.296   2.194
 5044SOL     OW16030   0.165   5.445   0.058
 5044SOL    HW116031   0.106   5.446   6.996
 5044SOL    HW216032   0.168   5.536   0.099
 5045SOL     OW16033   5.710   2.412   0.815
 5045SOL    HW116034   5.738   2.505   0.838
 5045SOL    HW216035   5.705   2.357   0.898
 5046SOL     OW16036   3.845   2.953   2.283
 5046SOL    HW116037   3.872   2.856   2.289
 5046SOL    HW216038   3.927   3.010   2.282
 5047SOL     OW16039   1.861   3.767   3.298
 5047SOL    HW116040   1.947   3.737   3.340
 5047SOL    HW216041   1.849   3.721   3.210
 5048SOL     OW16042   2.781   0.389   6.508
 5048SOL    HW116043   2.789   0.305   6.562
 5048SOL    HW216044   2.716   0.375   6.433
 5049SOL     OW16045   4.021   1.852   6.767
 5049SOL    HW116046   4.060   1.762   6.791
 5049SOL    HW216047   4.026   1.912   6.847
 5050SOL     OW16048   1.913   0.644   0.642
 5050SOL    HW116049   1.887   0.737   0.667
 5050SOL    HW216050   2.012   0.641   0.628
 5051SOL     OW16051   4.610   4.708   1.130
 5051SOL    HW116052   4.679   4.725   1.201
 5051SOL    HW216053   4.619   4.776   1.058
 5052SOL     OW16054   2.128   2.683   4.600
 5052SOL    HW116055   2.213   2.725   4.567
 5052SOL    HW216056   2.145   2.641   4.689
 5053SOL     OW16057   6.609   0.840   0.954
 5053SOL    HW116058   6.599   0.843   1.054
 5053SOL    HW216059   6.606   0.746   0.923
 5054SOL     OW16060   3.971   5.271   3.814
 5054SOL    HW116061   3.879   5.235   3.826
 5054SOL    HW216062   3.978   5.317   3.726
 5055SOL     OW16063   0.148   3.474   5.345
 5055SOL    HW116064   0.178   3.528   5.266
 5055SOL    HW216065   0.181   3.515   5.429
 5056SOL     OW16066   6.341   4.021   3.858
 5056SOL    HW116067   6.327   3.951   3.787
 5056SOL    HW216068   6.288   4.103   3.835
 5057SOL     OW16069   6.948   5.833   2.288
 5057SOL    HW116070   0.009   5.825   2.348
 5057SOL    HW216071   6.935   5.930   2.264
 5058SOL     OW16072   2.572   5.576   6.115
 5058SOL    HW116073   2.612   5.666   6.136
 5058SOL    HW216074   2.509   5.585   6.038
 5059SOL     OW16075   6.773   0.296   2.559
 5059SOL    HW116076   6.810   0.333   2.474
 5059SOL    HW216077   6.831   0.220   2.589
 5060SOL     OW16078   6.994   2.254   6.216
 5060SOL    HW116079   7.011   2.248   6.315
 5060SOL    HW216080   0.016   2.173   6.171
 5061SOL     OW16081   5.302   3.632   0.824
 5061SOL    HW116082   5.309   3.533   0.840
 5061SOL    HW216083   5.248   3.649   0.742
 5062SOL     OW16084   6.292   0.038   0.720
 5062SOL    HW116085   6.221   0.020   0.788
 5062SOL    HW216086   6.254   0.023   0.628
 5063SOL     OW16087   1.403   6.252   2.514
 5063SOL    HW116088   1.476   6.234   2.580
 5063SOL    HW216089   1.321   6.200   2.539
 5064SOL     OW16090   5.002   3.841   0.020
 5064SOL    HW116091   5.026   3.938   0.029
 5064SOL    HW216092   4.929   3.818   0.084
 5065SOL     OW16093   2.975   6.508   6.320
 5065SOL    HW116094   3.012   6.468   6.404
 5065SOL    HW216095   2.880   6.479   6.309
 5066SOL     OW16096   4.520   4.924   1.341
 5066SOL    HW116097   4.479   4.938   1.251
 5066SOL    HW216098   4.611   4.884   1.331
 5067SOL     OW16099   5.175   1.265   6.662
 5067SOL    HW116100   5.180   1.327   6.740
 5067SOL    HW216101   5.112   1.190   6.683
 5068SOL     OW16102   3.633   4.765   1.021
 5068SOL    HW116103   3.607   4.680   1.066
 5068SOL    HW216104   3.695   4.745   0.945
 5069SOL     OW16105   6.895   5.355   3.020
 5069SOL    HW116106   6.850   5.269   2.995
 5069SOL    HW216107   6.831   5.412   3.072
 5070SOL     OW16108   4.822   3.130   4.035
 5070SOL    HW116109   4.866   3.200   3.979
 5070SOL    HW216110   4.829   3.154   4.132
 5071SOL     OW16111   4.429   0.681   0.228
 5071SOL    HW116112   4.453   0.584   0.232
 5071SOL    HW216113   4.365   0.703   0.301
 5072SOL     OW16114   0.596   4.101   1.138
 5072SOL    HW116115   0.669   4.121   1.072
 5072SOL    HW216116   0.507   4.104   1.092
 5073SOL     OW16117   4.301   2.356   3.861
 5073SOL    HW116118   4.318   2.416   3.939
 5073SOL    HW216119   4.361   2.382   3.785
 5074SOL     OW16120   4.227   4.803   5.093
 5074SOL    HW116121   4.133   4.786   5.063
 5074SOL    HW216122   4.282   4.722   5.077
 5075SOL     OW16123   6.783   6.565   3.890
 5075SOL    HW116124   6.732   6.622   3.954
 5075SOL    HW216125   6.786   6.611   3.801
 5076SOL     OW16126   4.479   0.418   1.176
 5076SOL    HW116127   4.461   0.323   1.203
 5076SOL    HW216128   4.558   0.421   1.115
 5077SOL     OW16129   6.749   2.794   2.265
 5077SOL    HW116130   6.694   2.711   2.267
 5077SOL    HW216131   6.841   2.772   2.233
 5078SOL     OW16132   0.063   0.782   4.130
 5078SOL    HW116133   0.081   0.684   4.123
 5078SOL    HW216134   0.126   0.822   4.195
 5079SOL     OW16135   4.464   4.904   4.903
 5079SOL    HW116136   4.428   4.985   4.857
 5079SOL    HW216137   4.430   4.822   4.857
 5080SOL     OW16138   5.910   0.634   5.658
 5080SOL    HW116139   5.963   0.623   5.742
 5080SOL    HW216140   5.872   0.727   5.655
 5081SOL     OW16141   3.442   3.296   2.850
 5081SOL    HW116142   3.391   3.302   2.765
 5081SOL    HW216143   3.513   3.226   2.841
 5082SOL     OW16144   0.456   0.782   5.856
 5082SOL    HW116145   0.540   0.837   5.861
 5082SOL    HW216146   0.460   0.708   5.923
 5083SOL     OW16147   0.928   5.177   2.252
 5083SOL    HW116148   0.944   5.166   2.154
 5083SOL    HW216149   1.015   5.171   2.300
 5084SOL     OW16150   1.127   5.700   2.319
 5084SOL    HW116151   1.216   5.702   2.274
 5084SOL    HW216152   1.060   5.750   2.264
 5085SOL     OW16153   6.599   3.187   6.655
 5085SOL    HW116154   6.648   3.251   6.597
 5085SOL    HW216155   6.608   3.094   6.618
 5086SOL     OW16156   6.389   5.467   4.734
 5086SOL    HW116157   6.434   5.458   4.645
 5086SOL    HW216158   6.409   5.388   4.791
 5087SOL     OW16159   6.155   5.477   4.944
 5087SOL    HW116160   6.150   5.548   5.015
 5087SOL    HW216161   6.243   5.483   4.897
 5088SOL     OW16162   5.998   0.901   0.309
 5088SOL    HW116163   5.962   0.808   0.315
 5088SOL    HW216164   5.982   0.948   0.396
 5089SOL     OW16165   5.866   2.551   4.359
 5089SOL    HW116166   5.932   2.606   4.309
 5089SOL    HW216167   5.899   2.457   4.365
 5090SOL     OW16168   1.124   5.415   0.420
 5090SOL    HW116169   1.149   5.323   0.391
 5090SOL    HW216170   1.050   5.450   0.362
 5091SOL     OW16171   0.962   6.361   3.647
 5091SOL    HW116172   1.021   6.387   3.571
 5091SOL    HW216173   0.925   6.270   3.631
 5092SOL     OW16174   3.268   3.116   1.142
 5092SOL    HW116175   3.270   3.067   1.229
 5092SOL    HW216176   3.174   3.141   1.121
 5093SOL     OW16177   1.116   1.809   1.134
 5093SOL    HW116178   1.118   1.872   1.057
 5093SOL    HW216179   1.197   1.822   1.191
 5094SOL     OW16180   0.088   0.280   6.658
 5094SOL    HW116181   0.091   0.253   6.754
 5094SOL    HW216182   0.081   0.198   6.601
 5095SOL     OW16183   2.896   0.168   5.431
 5095SOL    HW116184   2.973   0.180   5.494
 5095SOL    HW216185   2.822   0.120   5.478
 5096SOL     OW16186   3.971   6.248   3.101
 5096SOL    HW116187   4.026   6.313   3.154
 5096SOL    HW216188   3.952   6.287   3.011
 5097SOL     OW16189   1.041   1.471   6.498
 5097SOL    HW116190   1.037   1.451   6.400
 5097SOL    HW216191   1.131   1.445   6.534
 5098SOL     OW16192   6.624   2.576   3.291
 5098SOL    HW116193   6.682   2.527   3.226
 5098SOL    HW216194   6.602   2.666   3.254
 5099SOL     OW16195   1.001   0.949   4.127
 5099SOL    HW116196   0.986   1.036   4.079
 5099SOL    HW216197   1.081   0.958   4.187
 5100SOL     OW16198   4.753   5.264   5.765
 5100SOL    HW116199   4.658   5.258   5.795
 5100SOL    HW216200   4.813   5.244   5.843
 5101SOL     OW16201   4.729   5.956   0.567
 5101SOL    HW116202   4.661   5.945   0.639
 5101SOL    HW216203   4.811   5.999   0.605
 5102SOL     OW16204   3.756   5.314   4.219
 5102SOL    HW116205   3.731   5.381   4.289
 5102SOL    HW216206   3.845   5.274   4.241
 5103SOL     OW16207   1.097   1.898   4.073
 5103SOL    HW116208   1.067   1.930   3.983
 5103SOL    HW216209   1.032   1.831   4.108
 5104SOL     OW16210   0.644   0.829   1.088
 5104SOL    HW116211   0.568   0.764   1.084
 5104SOL    HW216212   0.617   0.910   1.139
 5105SOL     OW16213   1.610   2.695   6.317
 5105SOL    HW116214   1.522   2.662   6.283
 5105SOL    HW216215   1.657   2.745   6.245
 5106SOL     OW16216   2.367   6.881   2.199
 5106SOL    HW116217   2.367   6.800   2.258
 5106SOL    HW216218   2.410   6.957   2.247
 5107SOL     OW16219   2.420   6.854   6.682
 5107SOL    HW116220   2.408   6.922   6.610
 5107SOL    HW216221   2.332   6.810   6.700
 5108SOL     OW16222   3.394   4.030   4.176
 5108SOL    HW116223   3.391   4.078   4.264
 5108SOL    HW216224   3.485   4.038   4.136
 5109SOL     OW16225   6.648   2.020   2.656
 5109SOL    HW116226   6.725   2.081   2.636
 5109SOL    HW216227   6.565   2.074   2.671
 5110SOL     OW16228   2.066   5.985   5.436
 5110SOL    HW116229   2.094   5.906   5.492
 5110SOL    HW216230   2.136   6.056   5.441
 5111SOL     OW16231   1.930   0.809   6.920
 5111SOL    HW116232   1.937   0.880   6.990
 5111SOL    HW216233   1.967   0.724   6.956
 5112SOL     OW16234   0.469   6.581   3.324
 5112SOL    HW116235   0.508   6.536   3.404
 5112SOL    HW216236   0.458   6.679   3.343
 5113SOL     OW16237   0.437   0.588   6.079
 5113SOL    HW116238   0.441   0.491   6.054
 5113SOL    HW216239   0.471   0.600   6.172
 5114SOL     OW16240   4.127   5.768   6.437
 5114SOL    HW116241   4.062   5.843   6.451
 5114SOL    HW216242   4.155   5.731   6.525
 5115SOL     OW16243   2.277   3.843   5.252
 5115SOL    HW116244   2.206   3.803   5.194
 5115SOL    HW216245   2.319   3.920   5.205
 5116SOL     OW16246   6.560   3.646   1.170
 5116SOL    HW116247   6.527   3.560   1.132
 5116SOL    HW216248   6.593   3.705   1.097
 5117SOL     OW16249   2.517   5.241   2.376
 5117SOL    HW116250   2.510   5.185   2.459
 5117SOL    HW216251   2.426   5.256   2.338
 5118SOL     OW16252   3.996   6.807   1.500
 5118SOL    HW116253   3.941   6.887   1.522
 5118SOL    HW216254   3.959   6.763   1.418
 5119SOL     OW16255   6.302   0.025   2.393
 5119SOL    HW116256   6.249   0.104   2.363
 5119SOL    HW216257   6.253   6.996   2.466
 5120SOL     OW16258   3.214   1.361   1.964
 5120SOL    HW116259   3.187   1.389   1.872
 5120SOL    HW216260   3.154   1.405   2.031
 5121SOL     OW16261   0.740   3.612   4.286
 5121SOL    HW116262   0.780   3.586   4.374
 5121SOL    HW216263   0.697   3.702   4.294
 5122SOL     OW16264   2.340   5.198   3.431
 5122SOL    HW116265   2.343   5.099   3.439
 5122SOL    HW216266   2.316   5.239   3.519
 5123SOL     OW16267   6.503   3.281   2.327
 5123SOL    HW116268   6.516   3.227   2.244
 5123SOL    HW216269   6.427   3.344   2.314
 5124SOL     OW16270   2.586   6.234   1.177
 5124SOL    HW116271   2.521   6.201   1.245
 5124SOL    HW216272   2.554   6.322   1.141
 5125SOL     OW16273   0.390   2.205   5.750
 5125SOL    HW116274   0.322   2.168   5.687
 5125SOL    HW216275   0.351   2.206   5.843
 5126SOL     OW16276   3.958   1.801   0.150
 5126SOL    HW116277   3.973   1.713   0.105
 5126SOL    HW216278   4.036   1.822   0.209
 5127SOL     OW16279   4.991   3.115   6.470
 5127SOL    HW116280   5.013   3.178   6.395
 5127SOL    HW216281   4.939   3.038   6.435
 5128SOL     OW16282   6.734   6.983   6.155
 5128SOL    HW116283   6.735   0.064   6.139
 5128SOL    HW216284   6.798   6.959   6.227
 5129SOL     OW16285   4.786   2.878   3.780
 5129SOL    HW116286   4.870   2.931   3.763
 5129SOL    HW216287   4.709   2.924   3.736
 5130SOL     OW16288   1.793   6.216   5.119
 5130SOL    HW116289   1.712   6.214   5.178
 5130SOL    HW216290   1.868   6.260   5.168
 5131SOL     OW16291   3.856   4.825   3.091
 5131SOL    HW116292   3.942   4.842   3.044
 5131SOL    HW216293   3.821   4.735   3.064
 5132SOL     OW16294   3.823   2.175   6.486
 5132SOL    HW116295   3.823   2.179   6.586
 5132SOL    HW216296   3.757   2.241   6.450
 5133SOL     OW16297   4.597   4.589   6.569
 5133SOL    HW116298   4.503   4.586   6.536
 5133SOL    HW216299   4.599   4.570   6.667
 5134SOL     OW16300   5.515   5.833   0.054
 5134SOL    HW116301   5.559   5.916   0.021
 5134SOL    HW216302   5.415   5.843   0.048
 5135SOL     OW16303   0.020   3.043   2.279
 5135SOL    HW116304   6.966   3.102   2.244
 5135SOL    HW216305   0.019   2.956   2.230
 5136SOL     OW16306   0.483   0.644   4.502
 5136SOL    HW116307   0.566   0.596   4.471
 5136SOL    HW216308   0.504   0.698   4.583
 5137SOL     OW16309   5.430   0.481   3.036
 5137SOL    HW116310   5.384   0.546   3.096
 5137SOL    HW216311   5.527   0.504   3.031
 5138SOL     OW16312   2.910   3.625   2.481
 5138SOL    HW116313   2.907   3.526   2.487
 5138SOL    HW216314   3.005   3.655   2.469
 5139SOL     OW16315   4.469   0.159   4.781
 5139SOL    HW116316   4.504   0.226   4.846
 5139SOL    HW216317   4.373   0.139   4.801
 5140SOL     OW16318   3.303   3.599   6.542
 5140SOL    HW116319   3.359   3.583   6.461
 5140SOL    HW216320   3.217   3.549   6.532
 5141SOL     OW16321   0.970   3.341   1.347
 5141SOL    HW116322   1.041   3.406   1.320
 5141SOL    HW216323   1.011   3.265   1.397
 5142SOL     OW16324   0.508   6.828   2.899
 5142SOL    HW116325   0.586   6.890   2.885
 5142SOL    HW216326   0.539   6.749   2.952
 5143SOL     OW16327   6.974   6.115   2.233
 5143SOL    HW116328   6.884   6.143   2.266
 5143SOL    HW216329   6.987   6.149   2.139
 5144SOL     OW16330   1.831   3.165   4.802
 5144SOL    HW116331   1.863   3.147   4.709
 5144SOL    HW216332   1.910   3.167   4.864
 5145SOL     OW16333   2.161   5.792   5.674
 5145SOL    HW116334   2.138   5.710   5.622
 5145SOL    HW216335   2.254   5.821   5.652
 5146SOL     OW16336   5.969   5.634   6.287
 5146SOL    HW116337   5.903   5.690   6.236
 5146SOL    HW216338   6.034   5.593   6.224
 5147SOL     OW16339   5.683   2.018   3.943
 5147SOL    HW116340   5.589   2.049   3.930
 5147SOL    HW216341   5.684   1.936   4.001
 5148SOL     OW16342   5.870   1.302   0.557
 5148SOL    HW116343   5.897   1.398   0.549
 5148SOL    HW216344   5.771   1.294   0.543
 5149SOL     OW16345   3.799   5.866   4.144
 5149SOL    HW116346   3.722   5.838   4.087
 5149SOL    HW216347   3.869   5.909   4.088
 5150SOL     OW16348   6.841   0.659   3.162
 5150SOL    HW116349   6.776   0.700   3.226
 5150SOL    HW216350   6.830   0.560   3.162
 5151SOL     OW16351   5.254   5.050   1.356
 5151SOL    HW116352   5.306   5.088   1.432
 5151SOL    HW216353   5.200   4.972   1.387
 5152SOL     OW16354   2.088   2.118   0.545
 5152SOL    HW116355   2.087   2.214   0.575
 5152SOL    HW216356   2.115   2.114   0.449
 5153SOL     OW16357   2.188   2.623   0.708
 5153SOL    HW116358   2.264   2.675   0.747
 5153SOL    HW216359   2.118   2.686   0.674
 5154SOL     OW16360   0.618   2.464   0.365
 5154SOL    HW116361   0.620   2.548   0.419
 5154SOL    HW216362   0.605   2.486   0.269
 5155SOL     OW16363   1.568   0.923   0.204
 5155SOL    HW116364   1.515   0.984   0.145
 5155SOL    HW216365   1.665   0.946   0.199
 5156SOL     OW16366   4.978   5.255   5.986
 5156SOL    HW116367   4.903   5.230   6.047
 5156SOL    HW216368   5.023   5.172   5.952
 5157SOL     OW16369   3.423   1.126   1.857
 5157SOL    HW116370   3.479   1.078   1.791
 5157SOL    HW216371   3.476   1.199   1.900
 5158SOL     OW16372   1.554   2.313   2.251
 5158SOL    HW116373   1.483   2.374   2.216
 5158SOL    HW216374   1.594   2.261   2.175
 5159SOL     OW16375   6.601   3.191   5.211
 5159SOL    HW116376   6.629   3.283   5.182
 5159SOL    HW216377   6.653   3.123   5.160
 5160SOL     OW16378   0.044   6.858   3.020
 5160SOL    HW116379   0.032   6.848   3.119
 5160SOL    HW216380   0.057   6.768   2.978
 5161SOL     OW16381   1.022   1.941   6.035
 5161SOL    HW116382   0.944   1.926   6.095
 5161SOL    HW216383   1.075   1.857   6.027
 5162SOL     OW16384   0.398   6.974   5.225
 5162SOL    HW116385   0.426   6.906   5.158
 5162SOL    HW216386   0.328   6.936   5.285
 5163SOL     OW16387   2.984   0.615   1.820
 5163SOL    HW116388   3.037   0.577   1.745
 5163SOL    HW216389   3.030   0.597   1.907
 5164SOL     OW16390   2.757   3.679   6.951
 5164SOL    HW116391   2.813   3.623   6.889
 5164SOL    HW216392   2.756   3.637   0.024
 5165SOL     OW16393   1.875   4.951   5.792
 5165SOL    HW116394   1.867   4.861   5.835
 5165SOL    HW216395   1.869   5.021   5.863
 5166SOL     OW16396   6.844   5.874   5.481
 5166SOL    HW116397   6.768   5.939   5.479
 5166SOL    HW216398   6.895   5.881   5.395
 5167SOL     OW16399   6.157   3.807   5.828
 5167SOL    HW116400   6.156   3.762   5.738
 5167SOL    HW216401   6.115   3.897   5.820
 5168SOL     OW16402   4.803   1.815   3.387
 5168SOL    HW116403   4.839   1.804   3.295
 5168SOL    HW216404   4.878   1.805   3.453
 5169SOL     OW16405   5.064   5.536   4.258
 5169SOL    HW116406   5.016   5.616   4.292
 5169SOL    HW216407   5.102   5.556   4.167
 5170SOL     OW16408   1.857   4.269   6.070
 5170SOL    HW116409   1.927   4.298   6.136
 5170SOL    HW216410   1.902   4.226   5.992
 5171SOL     OW16411   2.633   6.712   6.423
 5171SOL    HW116412   2.542   6.730   6.385
 5171SOL    HW216413   2.648   6.613   6.427
 5172SOL     OW16414   5.577   5.479   6.251
 5172SOL    HW116415   5.503   5.497   6.185
 5172SOL    HW216416   5.577   5.551   6.321
 5173SOL     OW16417   4.020   5.536   4.492
 5173SOL    HW116418   4.012   5.588   4.407
 5173SOL    HW216419   4.094   5.469   4.483
 5174SOL     OW16420   0.857   6.258   3.110
 5174SOL    HW116421   0.935   6.202   3.082
 5174SOL    HW216422   0.786   6.200   3.149
 5175SOL     OW16423   2.346   1.725   6.561
 5175SOL    HW116424   2.388   1.637   6.541
 5175SOL    HW216425   2.344   1.740   6.660
 5176SOL     OW16426   6.244   6.257   6.462
 5176SOL    HW116427   6.243   6.205   6.376
 5176SOL    HW216428   6.151   6.286   6.485
 5177SOL     OW16429   5.378   5.665   0.642
 5177SOL    HW116430   5.304   5.703   0.586
 5177SOL    HW216431   5.368   5.565   0.648
 5178SOL     OW16432   0.197   4.017   1.214
 5178SOL    HW116433   0.260   4.065   1.152
 5178SOL    HW216434   0.249   3.951   1.269
 5179SOL     OW16435   4.820   5.249   2.967
 5179SOL    HW116436   4.774   5.219   3.050
 5179SOL    HW216437   4.859   5.169   2.920
 5180SOL     OW16438   1.945   4.705   1.988
 5180SOL    HW116439   1.986   4.762   2.059
 5180SOL    HW216440   1.855   4.672   2.018
 5181SOL     OW16441   6.920   1.084   5.366
 5181SOL    HW116442   6.919   1.156   5.297
 5181SOL    HW216443   6.934   0.995   5.322
 5182SOL     OW16444   2.239   6.606   1.954
 5182SOL    HW116445   2.267   6.614   1.858
 5182SOL    HW216446   2.270   6.518   1.990
 5183SOL     OW16447   4.793   2.299   3.571
 5183SOL    HW116448   4.842   2.322   3.655
 5183SOL    HW216449   4.707   2.350   3.568
 5184SOL     OW16450   2.389   1.744   2.795
 5184SOL    HW116451   2.416   1.772   2.887
 5184SOL    HW216452   2.440   1.797   2.728
 5185SOL     OW16453   6.455   6.849   1.857
 5185SOL    HW116454   6.466   6.944   1.827
 5185SOL    HW216455   6.378   6.843   1.920
 5186SOL     OW16456   6.187   2.277   6.711
 5186SOL    HW116457   6.241   2.360   6.720
 5186SOL    HW216458   6.222   2.207   6.773
 5187SOL     OW16459   1.467   4.956   5.235
 5187SOL    HW116460   1.492   5.031   5.297
 5187SOL    HW216461   1.510   4.970   5.146
 5188SOL     OW16462   0.199   0.396   1.289
 5188SOL    HW116463   0.133   0.385   1.363
 5188SOL    HW216464   0.206   0.310   1.237
 5189SOL     OW16465   4.897   5.940   6.668
 5189SOL    HW116466   4.836   6.008   6.707
 5189SOL    HW216467   4.906   5.956   6.570
 5190SOL     OW16468   1.735   4.807   0.632
 5190SOL    HW116469   1.785   4.893   0.623
 5190SOL    HW216470   1.754   4.768   0.722
 5191SOL     OW16471   2.573   4.314   1.610
 5191SOL    HW116472   2.547   4.306   1.513
 5191SOL    HW216473   2.670   4.338   1.616
 5192SOL     OW16474   0.581   4.693   3.397
 5192SOL    HW116475   0.515   4.731   3.461
 5192SOL    HW216476   0.638   4.625   3.443
 5193SOL     OW16477   4.402   1.077   5.129
 5193SOL    HW116478   4.392   0.978   5.124
 5193SOL    HW216479   4.313   1.120   5.112
 5194SOL     OW16480   4.569   1.497   5.232
 5194SOL    HW116481   4.526   1.425   5.285
 5194SOL    HW216482   4.576   1.580   5.288
 5195SOL     OW16483   1.316   0.949   5.921
 5195SOL    HW116484   1.261   0.985   5.846
 5195SOL    HW216485   1.355   0.861   5.894
 5196SOL     OW16486   5.739   6.582   3.366
 5196SOL    HW116487   5.730   6.493   3.411
 5196SOL    HW216488   5.708   6.575   3.271
 5197SOL     OW16489   1.577   3.406   4.650
 5197SOL    HW116490   1.536   3.472   4.588
 5197SOL    HW216491   1.527   3.319   4.646
 5198SOL     OW16492   6.089   5.370   3.372
 5198SOL    HW116493   6.076   5.287   3.427
 5198SOL    HW216494   6.036   5.363   3.287
 5199SOL     OW16495   0.426   4.857   1.330
 5199SOL    HW116496   0.366   4.843   1.251
 5199SOL    HW216497   0.400   4.942   1.377
 5200SOL     OW16498   6.425   3.818   4.994
 5200SOL    HW116499   6.332   3.833   4.960
 5200SOL    HW216500   6.489   3.873   4.940
 5201SOL     OW16501   1.223   6.500   4.717
 5201SOL    HW116502   1.241   6.416   4.666
 5201SOL    HW216503   1.234   6.579   4.656
 5202SOL     OW16504   6.775   4.606   1.509
 5202SOL    HW116505   6.678   4.596   1.529
 5202SOL    HW216506   6.818   4.663   1.579
 5203SOL     OW16507   6.163   3.095   6.814
 5203SOL    HW116508   6.093   3.118   6.747
 5203SOL    HW216509   6.239   3.160   6.807
 5204SOL     OW16510   5.294   5.276   5.832
 5204SOL    HW116511   5.291   5.367   5.792
 5204SOL    HW216512   5.259   5.280   5.926
 5205SOL     OW16513   2.880   6.328   0.358
 5205SOL    HW116514   2.881   6.299   0.263
 5205SOL    HW216515   2.927   6.260   0.414
 5206SOL     OW16516   0.013   4.804   4.722
 5206SOL    HW116517   0.033   4.717   4.768
 5206SOL    HW216518   0.057   4.806   4.633
 5207SOL     OW16519   1.734   4.771   2.805
 5207SOL    HW116520   1.790   4.690   2.819
 5207SOL    HW216521   1.792   4.851   2.791
 5208SOL     OW16522   5.210   1.662   0.278
 5208SOL    HW116523   5.304   1.683   0.252
 5208SOL    HW216524   5.210   1.595   0.352
 5209SOL     OW16525   5.802   5.106   3.156
 5209SOL    HW116526   5.882   5.062   3.196
 5209SOL    HW216527   5.756   5.161   3.226
 5210SOL     OW16528   4.894   3.787   2.958
 5210SOL    HW116529   4.911   3.717   3.027
 5210SOL    HW216530   4.845   3.864   2.999
 5211SOL     OW16531   2.972   3.750   2.211
 5211SOL    HW116532   3.006   3.844   2.204
 5211SOL    HW216533   2.930   3.737   2.301
 5212SOL     OW16534   0.703   0.129   6.494
 5212SOL    HW116535   0.674   0.219   6.462
 5212SOL    HW216536   0.801   0.118   6.478
 5213SOL     OW16537   4.284   2.213   6.188
 5213SOL    HW116538   4.232   2.271   6.125
 5213SOL    HW216539   4.344   2.152   6.136
 5214SOL     OW16540   4.487   1.911   0.210
 5214SOL    HW116541   4.458   2.000   0.174
 5214SOL    HW216542   4.514   1.921   0.306
 5215SOL     OW16543   5.842   5.140   3.655
 5215SOL    HW116544   5.834   5.046   3.621
 5215SOL    HW216545   5.783   5.200   3.602
 5216SOL     OW16546   4.361   5.959   1.737
 5216SOL    HW116547   4.285   5.948   1.800
 5216SOL    HW216548   4.389   5.870   1.701
 5217SOL     OW16549   2.967   4.833   3.401
 5217SOL    HW116550   2.935   4.918   3.443
 5217SOL    HW216551   2.992   4.768   3.473
 5218SOL     OW16552   1.882   0.257   4.127
 5218SOL    HW116553   1.952   0.326   4.106
 5218SOL    HW216554   1.918   0.193   4.195
 5219SOL     OW16555   2.698   0.461   0.963
 5219SOL    HW116556   2.791   0.435   0.938
 5219SOL    HW216557   2.648   0.490   0.882
 5220SOL     OW16558   1.167   6.806   1.936
 5220SOL    HW116559   1.171   6.827   2.033
 5220SOL    HW216560   1.090   6.745   1.918
 5221SOL     OW16561   4.193   1.140   6.957
 5221SOL    HW116562   4.238   1.164   6.871
 5221SOL    HW216563   4.257   1.089   7.015
 5222SOL     OW16564   0.737   6.571   2.759
 5222SOL    HW116565   0.774   6.480   2.779
 5222SOL    HW216566   0.679   6.601   2.834
 5223SOL     OW16567   4.546   6.598   1.014
 5223SOL    HW116568   4.619   6.546   0.970
 5223SOL    HW216569   4.491   6.643   0.943
 5224SOL     OW16570   5.631   0.890   3.572
 5224SOL    HW116571   5.592   0.817   3.517
 5224SOL    HW216572   5.676   0.957   3.513
 5225SOL     OW16573   6.999   6.870   5.545
 5225SOL    HW116574   0.048   6.944   5.544
 5225SOL    HW216575   6.980   6.844   5.640
 5226SOL     OW16576   2.448   6.790   3.989
 5226SOL    HW116577   2.477   6.843   3.909
 5226SOL    HW216578   2.471   6.840   4.072
 5227SOL     OW16579   5.197   3.701   4.015
 5227SOL    HW116580   5.104   3.697   3.978
 5227SOL    HW216581   5.235   3.793   4.002
 5228SOL     OW16582   5.479   0.747   1.326
 5228SOL    HW116583   5.452   0.828   1.378
 5228SOL    HW216584   5.462   0.665   1.381
 5229SOL     OW16585   1.302   4.414   3.353
 5229SOL    HW116586   1.327   4.318   3.346
 5229SOL    HW216587   1.329   4.462   3.270
 5230SOL     OW16588   1.346   0.713   6.210
 5230SOL    HW116589   1.387   0.640   6.265
 5230SOL    HW216590   1.288   0.674   6.139
 5231SOL     OW16591   3.157   3.041   3.259
 5231SOL    HW116592   3.214   2.995   3.191
 5231SOL    HW216593   3.161   3.140   3.244
 5232SOL     OW16594   5.189   2.818   5.107
 5232SOL    HW116595   5.259   2.816   5.178
 5232SOL    HW216596   5.231   2.793   5.019
 5233SOL     OW16597   1.191   0.329   3.067
 5233SOL    HW116598   1.109   0.339   3.010
 5233SOL    HW216599   1.239   0.416   3.070
 5234SOL     OW16600   4.075   5.227   1.357
 5234SOL    HW116601   3.991   5.267   1.395
 5234SOL    HW216602   4.078   5.130   1.379
 5235SOL     OW16603   0.644   3.242   1.426
 5235SOL    HW116604   0.728   3.199   1.395
 5235SOL    HW216605   0.581   3.172   1.460
 5236SOL     OW16606   6.346   3.549   0.254
 5236SOL    HW116607   6.431   3.531   0.302
 5236SOL    HW216608   6.345   3.498   0.168
 5237SOL     OW16609   2.097   1.454   3.232
 5237SOL    HW116610   2.125   1.523   3.166
 5237SOL    HW216611   2.044   1.497   3.305
 5238SOL     OW16612   1.943   3.549   1.086
 5238SOL    HW116613   1.895   3.637   1.093
 5238SOL    HW216614   1.876   3.474   1.093
 5239SOL     OW16615   3.150   3.366   4.651
 5239SOL    HW116616   3.080   3.433   4.627
 5239SOL    HW216617   3.206   3.401   4.727
 5240SOL     OW16618   3.405   1.786   4.830
 5240SOL    HW116619   3.375   1.801   4.924
 5240SOL    HW216620   3.382   1.867   4.775
 5241SOL     OW16621   2.762   5.458   5.628
 5241SOL    HW116622   2.800   5.538   5.676
 5241SOL    HW216623   2.783   5.375   5.679
 5242SOL     OW16624   4.598   0.390   5.255
 5242SOL    HW116625   4.661   0.465   5.237
 5242SOL    HW216626   4.649   0.306   5.271
 5243SOL     OW16627   0.613   4.229   0.382
 5243SOL    HW116628   0.642   4.251   0.289
 5243SOL    HW216629   0.554   4.302   0.417
 5244SOL     OW16630   5.471   3.330   6.608
 5244SOL    HW116631   5.469   3.286   6.698
 5244SOL    HW216632   5.395   3.394   6.600
 5245SOL     OW16633   4.738   4.783   6.251
 5245SOL    HW116634   4.697   4.693   6.237
 5245SOL    HW216635   4.667   4.849   6.275
 5246SOL     OW16636   1.360   3.858   2.954
 5246SOL    HW116637   1.288   3.789   2.943
 5246SOL    HW216638   1.356   3.897   3.046
 5247SOL     OW16639   0.001   4.702   0.393
 5247SOL    HW116640   6.962   4.628   0.429
 5247SOL    HW216641   6.973   4.789   0.406
 5248SOL     OW16642   5.035   1.282   0.309
 5248SOL    HW116643   5.004   1.203   0.362
 5248SOL    HW216644   4.955   1.327   0.268
 5249SOL     OW16645   1.431   5.737   6.715
 5249SOL    HW116646   1.529   5.746   6.731
 5249SOL    HW216647   1.409   5.771   6.623
 5250SOL     OW16648   1.133   1.363   5.722
 5250SOL    HW116649   1.045   1.360   5.675
 5250SOL    HW216650   1.188   1.438   5.685
 5251SOL     OW16651   0.564   3.122   0.846
 5251SOL    HW116652   0.503   3.167   0.781
 5251SOL    HW216653   0.654   3.109   0.805
 5252SOL     OW16654   5.103   6.758   1.079
 5252SOL    HW116655   5.194   6.775   1.042
 5252SOL    HW216656   5.109   6.695   1.156
 5253SOL     OW16657   5.852   2.568   3.796
 5253SOL    HW116658   5.790   2.623   3.740
 5253SOL    HW216659   5.823   2.574   3.892
 5254SOL     OW16660   5.311   0.213   4.398
 5254SOL    HW116661   5.340   0.221   4.303
 5254SOL    HW216662   5.340   0.295   4.448
 5255SOL     OW16663   2.696   5.779   4.037
 5255SOL    HW116664   2.614   5.835   4.033
 5255SOL    HW216665   2.771   5.826   3.990
 5256SOL     OW16666   5.135   6.692   1.956
 5256SOL    HW116667   5.038   6.682   1.936
 5256SOL    HW216668   5.169   6.609   2.001
 5257SOL     OW16669   2.916   1.282   3.276
 5257SOL    HW116670   2.992   1.340   3.305
 5257SOL    HW216671   2.925   1.192   3.317
 5258SOL     OW16672   6.087   2.016   2.007
 5258SOL    HW116673   5.989   2.032   2.001
 5258SOL    HW216674   6.110   1.984   2.099
 5259SOL     OW16675   5.514   4.488   1.329
 5259SOL    HW116676   5.563   4.429   1.266
 5259SOL    HW216677   5.493   4.438   1.413
 5260SOL     OW16678   4.906   2.702   1.724
 5260SOL    HW116679   4.854   2.631   1.772
 5260SOL    HW216680   4.893   2.789   1.771
 5261SOL     OW16681   2.598   2.526   4.813
 5261SOL    HW116682   2.564   2.551   4.722
 5261SOL    HW216683   2.692   2.558   4.823
 5262SOL     OW16684   1.662   0.254   1.610
 5262SOL    HW116685   1.713   0.334   1.581
 5262SOL    HW216686   1.699   0.221   1.697
 5263SOL     OW16687   1.145   6.824   6.521
 5263SOL    HW116688   1.094   6.746   6.483
 5263SOL    HW216689   1.089   6.870   6.589
 5264SOL     OW16690   0.925   1.584   1.060
 5264SOL    HW116691   0.928   1.683   1.050
 5264SOL    HW216692   0.903   1.561   1.155
 5265SOL     OW16693   5.361   4.899   3.577
 5265SOL    HW116694   5.406   4.825   3.528
 5265SOL    HW216695   5.396   4.903   3.670
 5266SOL     OW16696   1.566   6.742   1.459
 5266SOL    HW116697   1.485   6.791   1.491
 5266SOL    HW216698   1.648   6.781   1.503
 5267SOL     OW16699   4.168   3.687   5.335
 5267SOL    HW116700   4.260   3.695   5.296
 5267SOL    HW216701   4.130   3.598   5.310
 5268SOL     OW16702   5.154   5.206   5.602
 5268SOL    HW116703   5.205   5.221   5.517
 5268SOL    HW216704   5.218   5.183   5.675
 5269SOL     OW16705   1.847   4.650   5.923
 5269SOL    HW116706   1.862   4.638   6.022
 5269SOL    HW216707   1.838   4.560   5.880
 5270SOL     OW16708   6.819   2.530   3.487
 5270SOL    HW116709   6.768   2.580   3.418
 5270SOL    HW216710   6.791   2.434   3.486
 5271SOL     OW16711   5.473   3.685   5.628
 5271SOL    HW116712   5.543   3.708   5.695
 5271SOL    HW216713   5.499   3.721   5.538
 5272SOL     OW16714   2.203   1.334   3.864
 5272SOL    HW116715   2.244   1.259   3.812
 5272SOL    HW216716   2.108   1.346   3.835
 5273SOL     OW16717   6.885   0.297   5.037
 5273SOL    HW116718   6.813   0.239   4.999
 5273SOL    HW216719   6.881   0.295   5.137
 5274SOL     OW16720   0.602   5.659   5.058
 5274SOL    HW116721   0.613   5.757   5.045
 5274SOL    HW216722   0.508   5.632   5.037
 5275SOL     OW16723   1.915   6.689   6.553
 5275SOL    HW116724   1.988   6.710   6.618
 5275SOL    HW216725   1.895   6.770   6.497
 5276SOL     OW16726   0.430   6.860   0.453
 5276SOL    HW116727   0.463   6.808   0.532
 5276SOL    HW216728   0.372   6.935   0.484
 5277SOL     OW16729   0.398   0.956   2.317
 5277SOL    HW116730   0.321   0.942   2.255
 5277SOL    HW216731   0.405   0.877   2.379
 5278SOL     OW16732   0.868   3.644   6.096
 5278SOL    HW116733   0.902   3.725   6.143
 5278SOL    HW216734   0.931   3.568   6.113
 5279SOL     OW16735   3.128   6.665   0.154
 5279SOL    HW116736   3.059   6.667   0.227
 5279SOL    HW216737   3.083   6.661   0.065
 5280SOL     OW16738   4.510   6.628   5.257
 5280SOL    HW116739   4.453   6.590   5.329
 5280SOL    HW216740   4.593   6.668   5.297
 5281SOL     OW16741   2.685   6.841   4.824
 5281SOL    HW116742   2.706   6.911   4.756
 5281SOL    HW216743   2.721   6.868   4.913
 5282SOL     OW16744   0.357   6.429   0.192
 5282SOL    HW116745   0.416   6.455   0.115
 5282SOL    HW216746   0.415   6.400   0.269
 5283SOL     OW16747   1.306   0.796   4.046
 5283SOL    HW116748   1.319   0.777   3.949
 5283SOL    HW216749   1.325   0.892   4.064
 5284SOL     OW16750   4.871   3.273   2.137
 5284SOL    HW116751   4.872   3.328   2.053
 5284SOL    HW216752   4.831   3.183   2.116
 5285SOL     OW16753   1.212   2.204   4.023
 5285SOL    HW116754   1.229   2.106   4.024
 5285SOL    HW216755   1.122   2.223   4.063
 5286SOL     OW16756   6.530   2.850   1.265
 5286SOL    HW116757   6.594   2.918   1.229
 5286SOL    HW216758   6.438   2.872   1.233
 5287SOL     OW16759   1.108   5.451   2.005
 5287SOL    HW116760   1.083   5.522   2.071
 5287SOL    HW216761   1.053   5.461   1.923
 5288SOL     OW16762   4.076   0.705   1.665
 5288SOL    HW116763   3.979   0.724   1.648
 5288SOL    HW216764   4.118   0.782   1.713
 5289SOL     OW16765   2.812   4.817   5.940
 5289SOL    HW116766   2.859   4.794   6.026
 5289SOL    HW216767   2.815   4.738   5.879
 5290SOL     OW16768   1.897   2.858   4.620
 5290SOL    HW116769   1.974   2.811   4.576
 5290SOL    HW216770   1.913   2.864   4.718
 5291SOL     OW16771   3.277   4.995   4.487
 5291SOL    HW116772   3.261   4.955   4.578
 5291SOL    HW216773   3.190   5.008   4.440
 5292SOL     OW16774   0.339   4.068   4.828
 5292SOL    HW116775   0.290   4.135   4.884
 5292SOL    HW216776   0.295   4.060   4.739
 5293SOL     OW16777   2.687   0.427   4.401
 5293SOL    HW116778   2.665   0.507   4.344
 5293SOL    HW216779   2.641   0.436   4.489
 5294SOL     OW16780   5.146   6.507   4.788
 5294SOL    HW116781   5.226   6.555   4.755
 5294SOL    HW216782   5.078   6.573   4.821
 5295SOL     OW16783   2.182   0.765   2.208
 5295SOL    HW116784   2.187   0.841   2.273
 5295SOL    HW216785   2.156   0.800   2.117
 5296SOL     OW16786   4.915   4.764   1.883
 5296SOL    HW116787   4.914   4.852   1.835
 5296SOL    HW216788   4.949   4.779   1.976
 5297SOL     OW16789   2.712   5.342   6.312
 5297SOL    HW116790   2.764   5.367   6.230
 5297SOL    HW216791   2.614   5.349   6.293
 5298SOL     OW16792   2.374   2.206   0.586
 5298SOL    HW116793   2.296   2.152   0.554
 5298SOL    HW216794   2.390   2.283   0.525
 5299SOL     OW16795   2.441   0.731   1.747
 5299SOL    HW116796   2.500   0.657   1.715
 5299SOL    HW216797   2.483   0.819   1.724
 5300SOL     OW16798   3.261   5.074   6.923
 5300SOL    HW116799   3.248   5.168   6.891
 5300SOL    HW216800   3.234   5.010   6.850
 5301SOL     OW16801   5.773   6.882   6.244
 5301SOL    HW116802   5.759   6.811   6.314
 5301SOL    HW216803   5.770   6.972   6.287
 5302SOL     OW16804   4.880   6.083   2.736
 5302SOL    HW116805   4.977   6.060   2.741
 5302SOL    HW216806   4.829   6.027   2.802
 5303SOL     OW16807   1.473   5.473   5.439
 5303SOL    HW116808   1.516   5.548   5.388
 5303SOL    HW216809   1.521   5.461   5.526
 5304SOL     OW16810   0.484   0.803   3.257
 5304SOL    HW116811   0.411   0.749   3.299
 5304SOL    HW216812   0.459   0.824   3.163
 5305SOL     OW16813   7.006   5.472   4.537
 5305SOL    HW116814   0.060   5.540   4.549
 5305SOL    HW216815   6.945   5.475   4.617
 5306SOL     OW16816   0.888   2.034   5.794
 5306SOL    HW116817   0.811   2.093   5.817
 5306SOL    HW216818   0.938   2.011   5.878
 5307SOL     OW16819   6.946   1.365   1.406
 5307SOL    HW116820   6.988   1.382   1.495
 5307SOL    HW216821   6.933   1.452   1.358
 5308SOL     OW16822   1.772   3.970   2.642
 5308SOL    HW116823   1.822   4.019   2.570
 5308SOL    HW216824   1.759   4.030   2.720
 5309SOL     OW16825   5.783   5.600   3.093
 5309SOL    HW116826   5.870   5.554   3.105
 5309SOL    HW216827   5.768   5.664   3.169
 5310SOL     OW16828   6.232   2.681   3.419
 5310SOL    HW116829   6.295   2.752   3.449
 5310SOL    HW216830   6.159   2.670   3.487
 5311SOL     OW16831   6.104   0.168   0.100
 5311SOL    HW116832   6.055   0.091   0.060
 5311SOL    HW216833   6.075   0.182   0.194
 5312SOL     OW16834   6.118   6.270   0.202
 5312SOL    HW116835   6.110   6.350   0.260
 5312SOL    HW216836   6.071   6.193   0.244
 5313SOL     OW16837   0.905   6.841   5.762
 5313SOL    HW116838   0.930   6.928   5.804
 5313SOL    HW216839   0.907   6.851   5.662
 5314SOL     OW16840   5.795   1.465   1.749
 5314SOL    HW116841   5.837   1.501   1.833
 5314SOL    HW216842   5.742   1.383   1.771
 5315SOL     OW16843   4.471   2.120   3.602
 5315SOL    HW116844   4.536   2.046   3.582
 5315SOL    HW216845   4.517   2.193   3.652
 5316SOL     OW16846   0.448   2.471   4.968
 5316SOL    HW116847   0.363   2.511   5.003
 5316SOL    HW216848   0.505   2.443   5.044
 5317SOL     OW16849   5.826   2.564   6.873
 5317SOL    HW116850   5.898   2.587   6.807
 5317SOL    HW216851   5.755   2.511   6.827
 5318SOL     OW16852   0.251   4.012   6.406
 5318SOL    HW116853   0.347   3.984   6.405
 5318SOL    HW216854   0.244   4.104   6.445
 5319SOL     OW16855   3.786   6.206   2.265
 5319SOL    HW116856   3.790   6.287   2.206
 5319SOL    HW216857   3.815   6.230   2.357
 5320SOL     OW16858   4.052   5.788   1.057
 5320SOL    HW116859   4.079   5.822   1.147
 5320SOL    HW216860   3.991   5.855   1.013
 5321SOL     OW16861   1.512   4.595   5.466
 5321SOL    HW116862   1.606   4.593   5.431
 5321SOL    HW216863   1.498   4.519   5.529
 5322SOL     OW16864   4.140   0.119   2.001
 5322SOL    HW116865   4.104   0.025   1.999
 5322SOL    HW216866   4.075   0.180   1.956
 5323SOL     OW16867   4.130   0.570   6.182
 5323SOL    HW116868   4.071   0.623   6.243
 5323SOL    HW216869   4.174   0.631   6.116
 5324SOL     OW16870   1.664   2.160   1.189
 5324SOL    HW116871   1.757   2.195   1.177
 5324SOL    HW216872   1.660   2.105   1.272
 5325SOL     OW16873   2.038   2.643   4.986
 5325SOL    HW116874   1.990   2.585   5.051
 5325SOL    HW216875   2.134   2.652   5.013
 5326SOL     OW16876   6.464   0.038   1.598
 5326SOL    HW116877   6.549   0.051   1.649
 5326SOL    HW216878   6.427   0.126   1.571
 5327SOL     OW16879   6.926   2.434   5.713
 5327SOL    HW116880   6.826   2.433   5.710
 5327SOL    HW216881   6.962   2.490   5.638
 5328SOL     OW16882   4.857   5.191   0.408
 5328SOL    HW116883   4.931   5.251   0.439
 5328SOL    HW216884   4.855   5.191   0.308
 5329SOL     OW16885   2.166   6.976   6.119
 5329SOL    HW116886   2.153   7.018   6.209
 5329SOL    HW216887   2.076   6.961   6.076
 5330SOL     OW16888   2.311   4.826   1.353
 5330SOL    HW116889   2.405   4.843   1.385
 5330SOL    HW216890   2.257   4.788   1.428
 5331SOL     OW16891   6.256   1.001   6.374
 5331SOL    HW116892   6.353   0.996   6.351
 5331SOL    HW216893   6.239   1.082   6.432
 5332SOL     OW16894   6.988   5.021   1.828
 5332SOL    HW116895   0.051   5.011   1.886
 5332SOL    HW216896   6.906   5.025   1.885
 5333SOL     OW16897   1.121   6.163   4.751
 5333SOL    HW116898   1.162   6.072   4.763
 5333SOL    HW216899   1.183   6.220   4.696
 5334SOL     OW16900   3.619   0.373   4.611
 5334SOL    HW116901   3.590   0.467   4.596
 5334SOL    HW216902   3.586   0.315   4.537
 5335SOL     OW16903   0.360   5.489   6.897
 5335SOL    HW116904   0.366   5.586   6.876
 5335SOL    HW216905   0.309   5.476   6.982
 5336SOL     OW16906   1.147   4.161   1.117
 5336SOL    HW116907   1.233   4.126   1.154
 5336SOL    HW216908   1.071   4.126   1.172
 5337SOL     OW16909   5.305   3.821   1.559
 5337SOL    HW116910   5.368   3.773   1.498
 5337SOL    HW216911   5.287   3.765   1.639
 5338SOL     OW16912   5.997   1.891   0.351
 5338SOL    HW116913   5.938   1.972   0.339
 5338SOL    HW216914   5.999   1.839   0.266
 5339SOL     OW16915   6.852   0.301   1.841
 5339SOL    HW116916   6.936   0.341   1.877
 5339SOL    HW216917   6.874   0.222   1.784
 5340SOL     OW16918   5.625   2.331   6.063
 5340SOL    HW116919   5.674   2.381   6.133
 5340SOL    HW216920   5.621   2.385   5.979
 5341SOL     OW16921   4.278   0.411   0.980
 5341SOL    HW116922   4.343   0.414   1.056
 5341SOL    HW216923   4.319   0.452   0.899
 5342SOL     OW16924   2.423   0.945   6.094
 5342SOL    HW116925   2.520   0.934   6.116
 5342SOL    HW216926   2.391   1.033   6.131
 5343SOL     OW16927   3.933   3.943   1.935
 5343SOL    HW116928   3.896   3.980   2.020
 5343SOL    HW216929   4.020   3.988   1.913
 5344SOL     OW16930   1.892   2.479   2.554
 5344SOL    HW116931   1.964   2.515   2.495
 5344SOL    HW216932   1.933   2.437   2.635
 5345SOL     OW16933   4.956   0.131   2.550
 5345SOL    HW116934   4.964   0.035   2.523
 5345SOL    HW216935   4.986   0.189   2.474
 5346SOL     OW16936   2.579   6.807   3.458
 5346SOL    HW116937   2.560   6.773   3.366
 5346SOL    HW216938   2.625   6.896   3.452
 5347SOL     OW16939   6.925   1.694   1.968
 5347SOL    HW116940   7.012   1.731   1.935
 5347SOL    HW216941   6.852   1.720   1.906
 5348SOL     OW16942   6.964   0.668   0.597
 5348SOL    HW116943   6.915   0.586   0.570
 5348SOL    HW216944   6.908   0.722   0.660
 5349SOL     OW16945   6.379   0.291   1.496
 5349SOL    HW116946   6.284   0.292   1.467
 5349SOL    HW216947   6.439   0.310   1.418
 5350SOL     OW16948   2.713   0.631   0.171
 5350SOL    HW116949   2.613   0.642   0.163
 5350SOL    HW216950   2.738   0.627   0.268
 5351SOL     OW16951   4.115   0.474   1.835
 5351SOL    HW116952   4.087   0.551   1.777
 5351SOL    HW216953   4.167   0.509   1.913
 5352SOL     OW16954   3.463   6.344   3.512
 5352SOL    HW116955   3.484   6.271   3.578
 5352SOL    HW216956   3.366   6.342   3.490
 5353SOL     OW16957   5.739   0.428   5.600
 5353SOL    HW116958   5.640   0.438   5.607
 5353SOL    HW216959   5.783   0.514   5.626
 5354SOL     OW16960   1.186   3.536   1.294
 5354SOL    HW116961   1.264   3.488   1.254
 5354SOL    HW216962   1.216   3.586   1.375
 5355SOL     OW16963   4.057   1.503   4.961
 5355SOL    HW116964   4.071   1.555   5.045
 5355SOL    HW216965   4.138   1.511   4.903
 5356SOL     OW16966   5.907   3.273   0.574
 5356SOL    HW116967   5.991   3.277   0.519
 5356SOL    HW216968   5.848   3.199   0.540
 5357SOL     OW16969   3.714   6.430   0.921
 5357SOL    HW116970   3.699   6.411   1.018
 5357SOL    HW216971   3.640   6.389   0.867
 5358SOL     OW16972   4.944   3.558   1.443
 5358SOL    HW116973   4.913   3.472   1.484
 5358SOL    HW216974   4.886   3.633   1.474
 5359SOL     OW16975   3.080   6.994   0.002
 5359SOL    HW116976   2.989   6.955   0.018
 5359SOL    HW216977   3.144   6.955   0.068
 5360SOL     OW16978   4.180   0.419   6.928
 5360SOL    HW116979   4.090   0.456   6.948
 5360SOL    HW216980   4.220   0.467   6.850
 5361SOL     OW16981   1.850   0.410   6.253
 5361SOL    HW116982   1.891   0.346   6.188
 5361SOL    HW216983   1.867   0.504   6.224
 5362SOL     OW16984   3.653   5.490   3.495
 5362SOL    HW116985   3.577   5.482   3.559
 5362SOL    HW216986   3.647   5.576   3.445
 5363SOL     OW16987   0.664   5.333   4.916
 5363SOL    HW116988   0.633   5.268   4.985
 5363SOL    HW216989   0.722   5.402   4.959
 5364SOL     OW16990   1.034   6.211   6.436
 5364SOL    HW116991   0.964   6.266   6.391
 5364SOL    HW216992   1.006   6.194   6.531
 5365SOL     OW16993   3.697   1.674   6.245
 5365SOL    HW116994   3.621   1.634   6.296
 5365SOL    HW216995   3.738   1.748   6.299
 5366SOL     OW16996   3.591   4.358   6.726
 5366SOL    HW116997   3.492   4.345   6.721
 5366SOL    HW216998   3.612   4.447   6.766
 5367SOL     OW16999   0.312   4.557   0.690
 5367SOL    HW117000   0.212   4.558   0.701
 5367SOL    HW217001   0.351   4.640   0.730
 5368SOL     OW17002   6.690   0.885   3.967
 5368SOL    HW117003   6.694   0.920   3.873
 5368SOL    HW217004   6.602   0.839   3.981
 5369SOL     OW17005   1.869   3.644   2.579
 5369SOL    HW117006   1.855   3.549   2.551
 5369SOL    HW217007   1.947   3.649   2.641
 5370SOL     OW17008   3.862   2.769   1.275
 5370SOL    HW117009   3.902   2.861   1.263
 5370SOL    HW217010   3.901   2.726   1.357
 5371SOL     OW17011   1.613   4.039   4.854
 5371SOL    HW117012   1.560   4.016   4.773
 5371SOL    HW217013   1.710   4.024   4.836
 5372SOL     OW17014   2.670   5.950   3.113
 5372SOL    HW117015   2.571   5.957   3.128
 5372SOL    HW217016   2.687   5.904   3.026
 5373SOL     OW17017   1.991   5.088   4.077
 5373SOL    HW117018   1.959   5.177   4.108
 5373SOL    HW217019   2.039   5.042   4.152
 5374SOL     OW17020   3.172   2.792   0.505
 5374SOL    HW117021   3.204   2.698   0.494
 5374SOL    HW217022   3.244   2.847   0.549
 5375SOL     OW17023   1.338   3.805   4.848
 5375SOL    HW117024   1.395   3.771   4.774
 5375SOL    HW217025   1.340   3.905   4.848
 5376SOL     OW17026   3.081   3.886   6.650
 5376SOL    HW117027   3.107   3.838   6.566
 5376SOL    HW217028   3.153   3.951   6.675
 5377SOL     OW17029   0.820   1.588   1.710
 5377SOL    HW117030   0.911   1.549   1.696
 5377SOL    HW217031   0.821   1.644   1.793
 5378SOL     OW17032   4.960   6.885   0.476
 5378SOL    HW117033   5.014   6.960   0.437
 5378SOL    HW217034   5.019   6.830   0.535
 5379SOL     OW17035   0.070   6.554   1.152
 5379SOL    HW117036   6.993   6.543   1.125
 5379SOL    HW217037   0.087   6.649   1.177
 5380SOL     OW17038   2.526   1.053   4.030
 5380SOL    HW117039   2.542   0.956   4.016
 5380SOL    HW217040   2.427   1.071   4.027
 5381SOL     OW17041   5.480   3.514   1.791
 5381SOL    HW117042   5.552   3.581   1.806
 5381SOL    HW217043   5.517   3.422   1.804
 5382SOL     OW17044   1.785   0.174   1.847
 5382SOL    HW117045   1.882   0.180   1.826
 5382SOL    HW217046   1.767   0.208   1.939
 5383SOL     OW17047   2.120   2.320   4.734
 5383SOL    HW117048   2.045   2.355   4.791
 5383SOL    HW217049   2.204   2.370   4.756
 5384SOL     OW17050   5.380   6.873   4.613
 5384SOL    HW117051   5.366   6.774   4.612
 5384SOL    HW217052   5.433   6.899   4.694
 5385SOL     OW17053   3.182   3.888   2.900
 5385SOL    HW117054   3.208   3.981   2.873
 5385SOL    HW217055   3.154   3.887   2.995
 5386SOL     OW17056   5.757   0.193   5.740
 5386SOL    HW117057   5.738   0.270   5.679
 5386SOL    HW217058   5.685   0.124   5.730
 5387SOL     OW17059   3.309   5.113   1.502
 5387SOL    HW117060   3.325   5.148   1.409
 5387SOL    HW217061   3.273   5.020   1.497
 5388SOL     OW17062   6.190   6.440   2.878
 5388SOL    HW117063   6.203   6.342   2.864
 5388SOL    HW217064   6.257   6.491   2.824
 5389SOL     OW17065   5.236   2.319   1.081
 5389SOL    HW117066   5.158   2.286   1.028
 5389SOL    HW217067   5.268   2.246   1.142
 5390SOL     OW17068   6.364   4.660   6.056
 5390SOL    HW117069   6.432   4.628   6.122
 5390SOL    HW217070   6.337   4.754   6.079
 5391SOL     OW17071   3.000   3.241   6.846
 5391SOL    HW117072   2.980   3.170   6.778
 5391SOL    HW217073   3.099   3.258   6.847
 5392SOL     OW17074   6.487   2.735   2.680
 5392SOL    HW117075   6.522   2.727   2.774
 5392SOL    HW217076   6.476   2.644   2.640
 5393SOL     OW17077   6.178   6.546   6.229
 5393SOL    HW117078   6.080   6.558   6.246
 5393SOL    HW217079   6.226   6.536   6.317
 5394SOL     OW17080   1.855   4.010   5.230
 5394SOL    HW117081   1.822   3.964   5.147
 5394SOL    HW217082   1.870   4.107   5.210
 5395SOL     OW17083   4.547   0.690   0.959
 5395SOL    HW117084   4.516   0.785   0.971
 5395SOL    HW217085   4.622   0.671   1.023
 5396SOL     OW17086   4.672   2.482   2.153
 5396SOL    HW117087   4.695   2.575   2.125
 5396SOL    HW217088   4.674   2.475   2.253
 5397SOL     OW17089   0.980   2.610   1.532
 5397SOL    HW117090   1.044   2.684   1.510
 5397SOL    HW217091   1.020   2.523   1.504
 5398SOL     OW17092   3.260   3.399   2.179
 5398SOL    HW117093   3.228   3.305   2.194
 5398SOL    HW217094   3.239   3.426   2.086
 5399SOL     OW17095   0.751   5.586   6.959
 5399SOL    HW117096   0.758   5.668   7.015
 5399SOL    HW217097   0.714   5.511   7.013
 5400SOL     OW17098   2.355   3.683   6.779
 5400SOL    HW117099   2.383   3.600   6.826
 5400SOL    HW217100   2.266   3.669   6.736
 5401SOL     OW17101   6.188   1.884   0.954
 5401SOL    HW117102   6.118   1.950   0.980
 5401SOL    HW217103   6.274   1.931   0.937
 5402SOL     OW17104   1.439   5.961   2.823
 5402SOL    HW117105   1.425   5.970   2.922
 5402SOL    HW217106   1.510   5.893   2.805
 5403SOL     OW17107   6.286   3.407   6.527
 5403SOL    HW117108   6.283   3.504   6.506
 5403SOL    HW217109   6.194   3.374   6.549
 5404SOL     OW17110   1.219   3.205   3.150
 5404SOL    HW117111   1.197   3.117   3.108
 5404SOL    HW217112   1.301   3.196   3.206
 5405SOL     OW17113   7.005   3.803   5.225
 5405SOL    HW117114   6.936   3.756   5.280
 5405SOL    HW217115   0.050   3.735   5.186
 5406SOL     OW17116   1.436   0.329   4.219
 5406SOL    HW117117   1.439   0.342   4.318
 5406SOL    HW217118   1.417   0.233   4.199
 5407SOL     OW17119   4.300   3.112   0.121
 5407SOL    HW117120   4.248   3.191   0.087
 5407SOL    HW217121   4.236   3.036   0.138
 5408SOL     OW17122   3.858   1.209   0.267
 5408SOL    HW117123   3.801   1.166   0.197
 5408SOL    HW217124   3.802   1.268   0.325
 5409SOL     OW17125   4.188   0.707   2.372
 5409SOL    HW117126   4.139   0.785   2.413
 5409SOL    HW217127   4.124   0.649   2.323
 5410SOL     OW17128   1.384   2.523   2.882
 5410SOL    HW117129   1.431   2.436   2.892
 5410SOL    HW217130   1.299   2.510   2.830
 5411SOL     OW17131   1.936   4.796   4.637
 5411SOL    HW117132   1.975   4.782   4.728
 5411SOL    HW217133   1.838   4.814   4.645
 5412SOL     OW17134   6.339   2.158   2.291
 5412SOL    HW117135   6.254   2.132   2.337
 5412SOL    HW217136   6.339   2.122   2.198
 5413SOL     OW17137   2.416   6.961   2.560
 5413SOL    HW117138   2.344   6.930   2.623
 5413SOL    HW217139   2.378   0.008   2.495
 5414SOL     OW17140   4.379   0.642   5.315
 5414SOL    HW117141   4.415   0.643   5.408
 5414SOL    HW217142   4.291   0.691   5.313
 5415SOL     OW17143   6.199   3.838   2.619
 5415SOL    HW117144   6.102   3.818   2.601
 5415SOL    HW217145   6.212   3.851   2.717
 5416SOL     OW17146   4.239   5.373   4.393
 5416SOL    HW117147   4.339   5.375   4.391
 5416SOL    HW217148   4.208   5.280   4.415
 5417SOL     OW17149   3.048   6.716   5.969
 5417SOL    HW117150   2.966   6.765   5.999
 5417SOL    HW217151   3.029   6.671   5.881
 5418SOL     OW17152   4.118   1.008   3.434
 5418SOL    HW117153   4.132   0.991   3.337
 5418SOL    HW217154   4.041   1.072   3.446
 5419SOL     OW17155   3.473   4.230   0.140
 5419SOL    HW117156   3.518   4.292   0.076
 5419SOL    HW217157   3.425   4.158   0.090
 5420SOL     OW17158   0.766   2.651   2.628
 5420SOL    HW117159   0.690   2.707   2.660
 5420SOL    HW217160   0.834   2.643   2.701
 5421SOL     OW17161   1.530   2.746   0.952
 5421SOL    HW117162   1.508   2.760   0.855
 5421SOL    HW217163   1.464   2.682   0.992
 5422SOL     OW17164   1.190   3.932   6.982
 5422SOL    HW117165   1.167   3.894   0.054
 5422SOL    HW217166   1.206   3.857   6.917
 5423SOL     OW17167   5.455   3.174   5.973
 5423SOL    HW117168   5.529   3.110   5.954
 5423SOL    HW217169   5.475   3.262   5.929
 5424SOL     OW17170   5.317   3.647   5.273
 5424SOL    HW117171   5.284   3.716   5.208
 5424SOL    HW217172   5.242   3.620   5.334
 5425SOL     OW17173   5.005   0.349   4.530
 5425SOL    HW117174   5.063   0.301   4.595
 5425SOL    HW217175   5.062   0.396   4.463
 5426SOL     OW17176   0.371   6.812   4.532
 5426SOL    HW117177   0.304   6.738   4.531
 5426SOL    HW217178   0.398   6.829   4.627
 5427SOL     OW17179   4.243   6.502   7.001
 5427SOL    HW117180   4.146   6.502   6.977
 5427SOL    HW217181   4.271   6.594   0.008
 5428SOL     OW17182   2.271   0.757   6.996
 5428SOL    HW117183   2.246   0.673   6.948
 5428SOL    HW217184   2.325   0.816   6.935
 5429SOL     OW17185   1.457   1.862   5.976
 5429SOL    HW117186   1.430   1.886   6.069
 5429SOL    HW217187   1.463   1.762   5.968
 5430SOL     OW17188   2.154   2.147   5.217
 5430SOL    HW117189   2.162   2.057   5.173
 5430SOL    HW217190   2.211   2.213   5.168
 5431SOL     OW17191   3.716   5.953   4.437
 5431SOL    HW117192   3.763   5.947   4.349
 5431SOL    HW217193   3.618   5.937   4.424
 5432SOL     OW17194   5.272   5.793   1.358
 5432SOL    HW117195   5.333   5.755   1.289
 5432SOL    HW217196   5.225   5.719   1.406
 5433SOL     OW17197   0.188   2.015   4.096
 5433SOL    HW117198   0.146   2.099   4.062
 5433SOL    HW217199   0.276   2.037   4.138
 5434SOL     OW17200   2.553   0.076   5.234
 5434SOL    HW117201   2.539   0.043   5.140
 5434SOL    HW217202   2.467   0.113   5.269
 5435SOL     OW17203   4.778   1.482   2.049
 5435SOL    HW117204   4.869   1.451   2.021
 5435SOL    HW217205   4.716   1.404   2.055
 5436SOL     OW17206   4.835   3.924   2.545
 5436SOL    HW117207   4.784   3.974   2.615
 5436SOL    HW217208   4.876   3.989   2.481
 5437SOL     OW17209   3.326   4.400   6.741
 5437SOL    HW117210   3.317   4.473   6.673
 5437SOL    HW217211   3.296   4.434   6.830
 5438SOL     OW17212   6.621   1.067   1.167
 5438SOL    HW117213   6.702   1.124   1.184
 5438SOL    HW217214   6.639   0.974   1.198
 5439SOL     OW17215   1.331   2.974   1.288
 5439SOL    HW117216   1.357   2.953   1.194
 5439SOL    HW217217   1.311   3.072   1.296
 5440SOL     OW17218   1.145   1.152   1.033
 5440SOL    HW117219   1.125   1.249   1.041
 5440SOL    HW217220   1.241   1.140   1.008
 5441SOL     OW17221   3.703   2.110   4.084
 5441SOL    HW117222   3.623   2.114   4.024
 5441SOL    HW217223   3.673   2.124   4.179
 5442SOL     OW17224   3.275   0.653   2.321
 5442SOL    HW117225   3.340   0.648   2.396
 5442SOL    HW217226   3.184   0.624   2.353
 5443SOL     OW17227   2.859   6.902   6.029
 5443SOL    HW117228   2.776   6.857   6.062
 5443SOL    HW217229   2.870   6.990   6.076
 5444SOL     OW17230   0.302   0.631   3.383
 5444SOL    HW117231   0.318   0.604   3.478
 5444SOL    HW217232   0.320   0.553   3.323
 5445SOL     OW17233   6.017   3.407   2.013
 5445SOL    HW117234   5.951   3.335   2.035
 5445SOL    HW217235   6.033   3.464   2.094
 5446SOL     OW17236   6.954   5.736   5.870
 5446SOL    HW117237   6.910   5.785   5.946
 5446SOL    HW217238   0.000   5.669   5.907
 5447SOL     OW17239   2.794   2.282   0.977
 5447SOL    HW117240   2.725   2.256   1.045
 5447SOL    HW217241   2.831   2.372   1.001
 5448SOL     OW17242   5.612   1.844   6.267
 5448SOL    HW117243   5.576   1.760   6.228
 5448SOL    HW217244   5.580   1.922   6.214
 5449SOL     OW17245   0.272   3.022   6.587
 5449SOL    HW117246   0.285   3.094   6.518
 5449SOL    HW217247   0.334   3.037   6.664
 5450SOL     OW17248   2.238   6.188   0.880
 5450SOL    HW117249   2.302   6.230   0.945
 5450SOL    HW217250   2.246   6.089   0.885
 5451SOL     OW17251   1.756   0.179   2.927
 5451SOL    HW117252   1.787   0.274   2.932
 5451SOL    HW217253   1.660   0.174   2.957
 5452SOL     OW17254   2.429   3.666   5.380
 5452SOL    HW117255   2.475   3.721   5.451
 5452SOL    HW217256   2.360   3.722   5.335
 5453SOL     OW17257   0.299   5.038   6.198
 5453SOL    HW117258   0.385   4.989   6.189
 5453SOL    HW217259   0.231   4.978   6.240
 5454SOL     OW17260   0.456   4.066   5.222
 5454SOL    HW117261   0.377   4.107   5.177
 5454SOL    HW217262   0.435   3.971   5.247
 5455SOL     OW17263   0.069   2.970   0.480
 5455SOL    HW117264   0.069   2.871   0.488
 5455SOL    HW217265   0.026   2.997   0.394
 5456SOL     OW17266   3.305   6.793   1.769
 5456SOL    HW117267   3.337   6.886   1.752
 5456SOL    HW217268   3.306   6.741   1.684
 5457SOL     OW17269   6.499   3.790   0.233
 5457SOL    HW117270   6.433   3.715   0.228
 5457SOL    HW217271   6.476   3.850   0.309
 5458SOL     OW17272   2.051   4.413   6.205
 5458SOL    HW117273   2.121   4.473   6.245
 5458SOL    HW217274   2.061   4.411   6.106
 5459SOL     OW17275   2.566   4.627   6.049
 5459SOL    HW117276   2.628   4.610   6.126
 5459SOL    HW217277   2.609   4.599   5.964
 5460SOL     OW17278   4.036   6.935   3.230
 5460SOL    HW117279   4.040   6.875   3.310
 5460SOL    HW217280   4.047   6.880   3.147
 5461SOL     OW17281   4.658   6.423   4.866
 5461SOL    HW117282   4.707   6.336   4.869
 5461SOL    HW217283   4.619   6.436   4.774
 5462SOL     OW17284   0.904   0.619   1.562
 5462SOL    HW117285   0.839   0.543   1.560
 5462SOL    HW217286   0.878   0.688   1.494
 5463SOL     OW17287   6.966   3.492   0.767
 5463SOL    HW117288   7.011   3.519   0.852
 5463SOL    HW217289   6.909   3.412   0.783
 5464SOL     OW17290   2.068   6.508   4.371
 5464SOL    HW117291   2.085   6.423   4.321
 5464SOL    HW217292   2.154   6.539   4.412
 5465SOL     OW17293   2.315   6.115   6.602
 5465SOL    HW117294   2.327   6.144   6.507
 5465SOL    HW217295   2.383   6.045   6.624
 5466SOL     OW17296   5.205   4.775   4.846
 5466SOL    HW117297   5.276   4.820   4.901
 5466SOL    HW217298   5.153   4.712   4.904
 5467SOL     OW17299   5.301   1.591   2.217
 5467SOL    HW117300   5.358   1.509   2.224
 5467SOL    HW217301   5.234   1.578   2.144
 5468SOL     OW17302   4.330   1.803   5.660
 5468SOL    HW117303   4.260   1.769   5.598
 5468SOL    HW217304   4.336   1.744   5.740
 5469SOL     OW17305   4.767   4.348   1.205
 5469SOL    HW117306   4.736   4.257   1.178
 5469SOL    HW217307   4.761   4.410   1.126
 5470SOL     OW17308   0.323   5.166   3.400
 5470SOL    HW117309   0.275   5.205   3.478
 5470SOL    HW217310   0.292   5.072   3.385
 5471SOL     OW17311   6.192   4.872   2.124
 5471SOL    HW117312   6.282   4.835   2.150
 5471SOL    HW217313   6.151   4.918   2.202
 5472SOL     OW17314   3.629   5.471   5.722
 5472SOL    HW117315   3.656   5.378   5.696
 5472SOL    HW217316   3.552   5.467   5.786
 5473SOL     OW17317   1.474   4.210   3.348
 5473SOL    HW117318   1.478   4.139   3.418
 5473SOL    HW217319   1.554   4.269   3.355
 5474SOL     OW17320   1.323   6.156   3.637
 5474SOL    HW117321   1.411   6.149   3.683
 5474SOL    HW217322   1.335   6.206   3.551
 5475SOL     OW17323   3.110   2.879   1.572
 5475SOL    HW117324   3.145   2.970   1.596
 5475SOL    HW217325   3.109   2.821   1.653
 5476SOL     OW17326   1.866   3.163   6.925
 5476SOL    HW117327   1.959   3.128   6.934
 5476SOL    HW217328   1.833   3.149   6.832
 5477SOL     OW17329   1.664   2.989   2.269
 5477SOL    HW117330   1.616   3.072   2.240
 5477SOL    HW217331   1.738   2.970   2.205
 5478SOL     OW17332   0.356   5.598   5.915
 5478SOL    HW117333   0.281   5.573   5.976
 5478SOL    HW217334   0.434   5.537   5.932
 5479SOL     OW17335   4.814   0.027   4.799
 5479SOL    HW117336   4.723   7.003   4.798
 5479SOL    HW217337   4.817   0.102   4.734
 5480SOL     OW17338   1.063   2.538   5.390
 5480SOL    HW117339   1.053   2.630   5.430
 5480SOL    HW217340   0.972   2.498   5.375
 5481SOL     OW17341   4.711   6.493   3.552
 5481SOL    HW117342   4.734   6.545   3.469
 5481SOL    HW217343   4.756   6.534   3.631
 5482SOL     OW17344   1.988   5.465   2.233
 5482SOL    HW117345   2.072   5.410   2.234
 5482SOL    HW217346   1.935   5.443   2.152
 5483SOL     OW17347   0.524   2.638   5.902
 5483SOL    HW117348   0.505   2.649   5.999
 5483SOL    HW217349   0.440   2.656   5.850
 5484SOL     OW17350   4.817   0.116   4.329
 5484SOL    HW117351   4.908   0.091   4.360
 5484SOL    HW217352   4.801   0.077   4.238
 5485SOL     OW17353   3.863   0.488   4.700
 5485SOL    HW117354   3.780   0.448   4.661
 5485SOL    HW217355   3.881   0.447   4.790
 5486SOL     OW17356   3.086   4.879   3.766
 5486SOL    HW117357   3.001   4.825   3.763
 5486SOL    HW217358   3.096   4.919   3.857
 5487SOL     OW17359   3.033   5.328   5.829
 5487SOL    HW117360   3.042   5.427   5.824
 5487SOL    HW217361   3.053   5.288   5.740
 5488SOL     OW17362   4.718   1.520   6.884
 5488SOL    HW117363   4.739   1.572   6.801
 5488SOL    HW217364   4.719   1.581   6.963
 5489SOL     OW17365   0.616   3.385   4.196
 5489SOL    HW117366   0.626   3.484   4.209
 5489SOL    HW217367   0.547   3.368   4.125
 5490SOL     OW17368   1.097   5.493   2.766
 5490SOL    HW117369   1.063   5.587   2.777
 5490SOL    HW217370   1.170   5.477   2.832
 5491SOL     OW17371   6.289   3.813   0.578
 5491SOL    HW117372   6.291   3.893   0.519
 5491SOL    HW217373   6.200   3.768   0.571
 5492SOL     OW17374   6.863   1.518   6.155
 5492SOL    HW117375   6.957   1.551   6.163
 5492SOL    HW217376   6.838   1.470   6.239
 5493SOL     OW17377   4.404   3.999   0.470
 5493SOL    HW117378   4.344   3.965   0.398
 5493SOL    HW217379   4.420   3.927   0.538
 5494SOL     OW17380   6.182   3.061   5.701
 5494SOL    HW117381   6.205   3.066   5.604
 5494SOL    HW217382   6.089   3.026   5.712
 5495SOL     OW17383   5.667   0.101   6.897
 5495SOL    HW117384   5.594   0.052   6.849
 5495SOL    HW217385   5.695   0.180   6.842
 5496SOL     OW17386   4.201   0.064   5.703
 5496SOL    HW117387   4.294   0.086   5.674
 5496SOL    HW217388   4.151   0.149   5.724
 5497SOL     OW17389   0.722   0.437   5.184
 5497SOL    HW117390   0.683   0.345   5.184
 5497SOL    HW217391   0.668   0.496   5.244
 5498SOL     OW17392   0.355   5.062   1.475
 5498SOL    HW117393   0.280   5.083   1.537
 5498SOL    HW217394   0.426   5.131   1.484
 5499SOL     OW17395   2.114   0.408   3.991
 5499SOL    HW117396   2.141   0.484   4.050
 5499SOL    HW217397   2.112   0.439   3.896
 5500SOL     OW17398   2.031   6.844   1.177
 5500SOL    HW117399   2.030   6.937   1.140
 5500SOL    HW217400   2.052   6.847   1.275
 5501SOL     OW17401   4.625   3.523   6.358
 5501SOL    HW117402   4.576   3.555   6.439
 5501SOL    HW217403   4.575   3.446   6.317
 5502SOL     OW17404   4.817   3.709   6.453
 5502SOL    HW117405   4.747   3.690   6.385
 5502SOL    HW217406   4.846   3.805   6.446
 5503SOL     OW17407   5.892   3.249   0.858
 5503SOL    HW117408   5.917   3.258   0.762
 5503SOL    HW217409   5.821   3.180   0.868
 5504SOL     OW17410   3.839   2.058   6.741
 5504SOL    HW117411   3.877   1.996   6.810
 5504SOL    HW217412   3.768   2.010   6.689
 5505SOL     OW17413   3.058   4.891   2.393
 5505SOL    HW117414   2.983   4.915   2.453
 5505SOL    HW217415   3.027   4.893   2.298
 5506SOL     OW17416   6.588   2.390   6.314
 5506SOL    HW117417   6.534   2.307   6.297
 5506SOL    HW217418   6.656   2.400   6.241
 5507SOL     OW17419   3.988   6.837   0.446
 5507SOL    HW117420   4.036   6.899   0.508
 5507SOL    HW217421   4.042   6.754   0.434
 5508SOL     OW17422   0.619   1.461   6.276
 5508SOL    HW117423   0.665   1.483   6.362
 5508SOL    HW217424   0.548   1.393   6.293
 5509SOL     OW17425   6.155   3.879   0.130
 5509SOL    HW117426   6.133   3.783   0.113
 5509SOL    HW217427   6.072   3.934   0.125
 5510SOL     OW17428   5.135   5.128   6.295
 5510SOL    HW117429   5.112   5.037   6.328
 5510SOL    HW217430   5.157   5.187   6.373
 5511SOL     OW17431   0.794   2.502   5.929
 5511SOL    HW117432   0.821   2.536   6.019
 5511SOL    HW217433   0.721   2.559   5.892
 5512SOL     OW17434   1.839   0.225   2.335
 5512SOL    HW117435   1.896   0.300   2.370
 5512SOL    HW217436   1.770   0.202   2.404
 5513SOL     OW17437   3.855   4.577   0.025
 5513SOL    HW117438   3.910   4.593   0.107
 5513SOL    HW217439   3.819   4.484   0.027
 5514SOL     OW17440   3.361   1.135   0.567
 5514SOL    HW117441   3.446   1.104   0.610
 5514SOL    HW217442   3.382   1.178   0.479
 5515SOL     OW17443   3.539   5.406   2.538
 5515SOL    HW117444   3.613   5.448   2.486
 5515SOL    HW217445   3.541   5.307   2.524
 5516SOL     OW17446   1.810   2.225   5.656
 5516SOL    HW117447   1.769   2.133   5.657
 5516SOL    HW217448   1.881   2.229   5.586
 5517SOL     OW17449   1.080   2.215   3.429
 5517SOL    HW117450   1.032   2.127   3.435
 5517SOL    HW217451   1.128   2.232   3.515
 5518SOL     OW17452   4.423   5.249   6.301
 5518SOL    HW117453   4.371   5.320   6.253
 5518SOL    HW217454   4.519   5.277   6.309
 5519SOL     OW17455   5.395   2.427   5.766
 5519SOL    HW117456   5.488   2.434   5.802
 5519SOL    HW217457   5.398   2.383   5.676
 5520SOL     OW17458   4.904   6.458   1.098
 5520SOL    HW117459   4.840   6.494   1.166
 5520SOL    HW217460   4.855   6.399   1.034
 5521SOL     OW17461   4.572   6.927   2.251
 5521SOL    HW117462   4.629   6.857   2.209
 5521SOL    HW217463   4.486   6.887   2.282
 5522SOL     OW17464   5.399   6.512   0.113
 5522SOL    HW117465   5.338   6.434   0.099
 5522SOL    HW217466   5.380   6.582   0.044
 5523SOL     OW17467   5.075   2.210   0.874
 5523SOL    HW117468   4.995   2.241   0.823
 5523SOL    HW217469   5.049   2.133   0.932
 5524SOL     OW17470   2.670   1.339   3.373
 5524SOL    HW117471   2.660   1.241   3.392
 5524SOL    HW217472   2.757   1.354   3.325
 5525SOL     OW17473   0.030   1.651   1.099
 5525SOL    HW117474   0.003   1.735   1.053
 5525SOL    HW217475   6.976   1.621   1.160
 5526SOL     OW17476   5.429   4.349   4.087
 5526SOL    HW117477   5.445   4.331   4.184
 5526SOL    HW217478   5.487   4.288   4.032
 5527SOL     OW17479   6.298   0.404   2.655
 5527SOL    HW117480   6.332   0.492   2.687
 5527SOL    HW217481   6.374   0.350   2.619
 5528SOL     OW17482   1.472   1.384   6.698
 5528SOL    HW117483   1.400   1.425   6.754
 5528SOL    HW217484   1.523   1.456   6.651
 5529SOL     OW17485   2.965   0.740   2.113
 5529SOL    HW117486   2.942   0.785   2.199
 5529SOL    HW217487   2.887   0.685   2.083
 5530SOL     OW17488   0.637   2.129   1.020
 5530SOL    HW117489   0.695   2.181   1.083
 5530SOL    HW217490   0.579   2.192   0.969
 5531SOL     OW17491   1.677   4.269   1.441
 5531SOL    HW117492   1.724   4.292   1.356
 5531SOL    HW217493   1.745   4.238   1.508
 5532SOL     OW17494   0.546   3.756   6.267
 5532SOL    HW117495   0.479   3.682   6.258
 5532SOL    HW217496   0.522   3.831   6.205
 5533SOL     OW17497   3.790   1.309   2.682
 5533SOL    HW117498   3.716   1.316   2.615
 5533SOL    HW217499   3.770   1.367   2.761
 5534SOL     OW17500   1.499   0.287   4.532
 5534SOL    HW117501   1.493   0.190   4.554
 5534SOL    HW217502   1.595   0.312   4.517
 5535SOL     OW17503   6.989   1.977   2.664
 5535SOL    HW117504   6.932   2.041   2.612
 5535SOL    HW217505   6.970   1.884   2.633
 5536SOL     OW17506   4.537   6.746   4.533
 5536SOL    HW117507   4.556   6.714   4.440
 5536SOL    HW217508   4.463   6.812   4.531
 5537SOL     OW17509   2.597   2.273   2.957
 5537SOL    HW117510   2.638   2.349   3.007
 5537SOL    HW217511   2.531   2.307   2.891
 5538SOL     OW17512   4.507   5.428   4.412
 5538SOL    HW117513   4.563   5.473   4.343
 5538SOL    HW217514   4.561   5.355   4.456
 5539SOL     OW17515   2.100   4.235   7.012
 5539SOL    HW117516   2.033   4.221   6.940
 5539SOL    HW217517   2.182   4.277   6.973
 5540SOL     OW17518   4.207   5.561   1.579
 5540SOL    HW117519   4.221   5.464   1.557
 5540SOL    HW217520   4.166   5.568   1.670
 5541SOL     OW17521   4.528   0.673   5.987
 5541SOL    HW117522   4.522   0.596   5.923
 5541SOL    HW217523   4.580   0.747   5.945
 5542SOL     OW17524   5.098   4.596   6.530
 5542SOL    HW117525   5.101   4.559   6.438
 5542SOL    HW217526   5.093   4.521   6.596
 5543SOL     OW17527   0.815   1.745   4.846
 5543SOL    HW117528   0.915   1.744   4.852
 5543SOL    HW217529   0.782   1.836   4.870
 5544SOL     OW17530   5.492   0.973   0.105
 5544SOL    HW117531   5.527   1.023   0.026
 5544SOL    HW217532   5.558   0.977   0.180
 5545SOL     OW17533   2.503   2.266   1.849
 5545SOL    HW117534   2.598   2.256   1.818
 5545SOL    HW217535   2.502   2.292   1.946
 5546SOL     OW17536   3.876   5.530   5.851
 5546SOL    HW117537   3.787   5.497   5.821
 5546SOL    HW217538   3.935   5.544   5.772
 5547SOL     OW17539   3.536   5.649   4.235
 5547SOL    HW117540   3.586   5.637   4.150
 5547SOL    HW217541   3.457   5.709   4.220
 5548SOL     OW17542   0.186   1.731   4.734
 5548SOL    HW117543   0.175   1.760   4.830
 5548SOL    HW217544   0.119   1.778   4.678
 5549SOL     OW17545   3.271   5.311   6.687
 5549SOL    HW117546   3.195   5.310   6.752
 5549SOL    HW217547   3.330   5.389   6.706
 5550SOL     OW17548   2.556   6.359   2.974
 5550SOL    HW117549   2.565   6.450   3.013
 5550SOL    HW217550   2.644   6.312   2.977
 5551SOL     OW17551   0.315   1.103   2.553
 5551SOL    HW117552   0.380   1.060   2.490
 5551SOL    HW217553   0.239   1.041   2.570
 5552SOL     OW17554   1.659   2.796   2.572
 5552SOL    HW117555   1.637   2.736   2.649
 5552SOL    HW217556   1.586   2.792   2.505
 5553SOL     OW17557   4.608   6.228   6.118
 5553SOL    HW117558   4.594   6.275   6.030
 5553SOL    HW217559   4.599   6.294   6.192
 5554SOL     OW17560   3.124   1.042   4.434
 5554SOL    HW117561   3.135   1.128   4.483
 5554SOL    HW217562   3.127   0.966   4.499
 5555SOL     OW17563   0.748   6.241   1.474
 5555SOL    HW117564   0.672   6.289   1.431
 5555SOL    HW217565   0.755   6.149   1.436
 5556SOL     OW17566   0.121   0.992   5.099
 5556SOL    HW117567   0.117   1.089   5.123
 5556SOL    HW217568   0.035   0.964   5.055
 5557SOL     OW17569   3.447   7.010   2.787
 5557SOL    HW117570   3.350   0.016   2.790
 5557SOL    HW217571   3.464   6.933   2.849
 5558SOL     OW17572   5.077   2.097   5.778
 5558SOL    HW117573   5.133   2.180   5.781
 5558SOL    HW217574   5.046   2.075   5.871
 5559SOL     OW17575   2.697   0.732   0.741
 5559SOL    HW117576   2.791   0.733   0.774
 5559SOL    HW217577   2.660   0.639   0.748
 5560SOL     OW17578   0.293   1.005   4.835
 5560SOL    HW117579   0.235   0.984   4.914
 5560SOL    HW217580   0.353   0.927   4.816
 5561SOL     OW17581   1.526   4.492   1.499
 5561SOL    HW117582   1.590   4.420   1.469
 5561SOL    HW217583   1.488   4.467   1.588
 5562SOL     OW17584   3.523   2.148   6.862
 5562SOL    HW117585   3.532   2.093   6.779
 5562SOL    HW217586   3.612   2.189   6.884
 5563SOL     OW17587   3.897   4.415   1.160
 5563SOL    HW117588   3.802   4.395   1.135
 5563SOL    HW217589   3.927   4.351   1.230
 5564SOL     OW17590   6.005   1.673   2.236
 5564SOL    HW117591   5.919   1.684   2.286
 5564SOL    HW217592   6.044   1.763   2.216
 5565SOL     OW17593   2.017   2.729   5.269
 5565SOL    HW117594   2.062   2.814   5.243
 5565SOL    HW217595   2.068   2.686   5.344
 5566SOL     OW17596   2.541   3.667   0.538
 5566SOL    HW117597   2.532   3.631   0.631
 5566SOL    HW217598   2.616   3.733   0.536
 5567SOL     OW17599   1.640   5.443   3.771
 5567SOL    HW117600   1.682   5.531   3.747
 5567SOL    HW217601   1.610   5.397   3.687
 5568SOL     OW17602   3.778   2.550   6.569
 5568SOL    HW117603   3.709   2.527   6.637
 5568SOL    HW217604   3.733   2.591   6.489
 5569SOL     OW17605   4.182   1.854   0.314
 5569SOL    HW117606   4.245   1.788   0.354
 5569SOL    HW217607   4.230   1.909   0.246
 5570SOL     OW17608   1.624   3.198   5.863
 5570SOL    HW117609   1.722   3.208   5.844
 5570SOL    HW217610   1.575   3.185   5.777
 5571SOL     OW17611   0.185   4.238   6.596
 5571SOL    HW117612   0.090   4.267   6.605
 5571SOL    HW217613   0.241   4.282   6.666
 5572SOL     OW17614   0.397   3.215   6.095
 5572SOL    HW117615   0.474   3.154   6.112
 5572SOL    HW217616   0.423   3.282   6.025
 5573SOL     OW17617   6.695   3.634   6.663
 5573SOL    HW117618   6.609   3.621   6.713
 5573SOL    HW217619   6.678   3.685   6.579
 5574SOL     OW17620   1.625   6.646   4.314
 5574SOL    HW117621   1.543   6.674   4.365
 5574SOL    HW217622   1.664   6.565   4.356
 5575SOL     OW17623   1.008   1.402   2.720
 5575SOL    HW117624   1.043   1.382   2.629
 5575SOL    HW217625   0.964   1.492   2.721
 5576SOL     OW17626   5.721   6.406   5.477
 5576SOL    HW117627   5.659   6.469   5.429
 5576SOL    HW217628   5.715   6.422   5.575
 5577SOL     OW17629   1.910   4.350   4.575
 5577SOL    HW117630   1.981   4.417   4.596
 5577SOL    HW217631   1.938   4.297   4.494
 5578SOL     OW17632   3.692   1.780   6.001
 5578SOL    HW117633   3.693   1.734   6.090
 5578SOL    HW217634   3.704   1.878   6.013
 5579SOL     OW17635   4.961   4.405   2.266
 5579SOL    HW117636   5.016   4.368   2.190
 5579SOL    HW217637   5.009   4.389   2.352
 5580SOL     OW17638   5.496   1.678   1.858
 5580SOL    HW117639   5.504   1.766   1.811
 5580SOL    HW217640   5.510   1.604   1.792
 5581SOL     OW17641   3.074   2.977   0.344
 5581SOL    HW117642   3.094   3.062   0.393
 5581SOL    HW217643   3.117   2.900   0.391
 5582SOL     OW17644   3.028   3.169   3.469
 5582SOL    HW117645   3.048   3.121   3.383
 5582SOL    HW217646   2.986   3.105   3.534
 5583SOL     OW17647   3.771   0.646   6.726
 5583SOL    HW117648   3.736   0.696   6.805
 5583SOL    HW217649   3.854   0.690   6.693
 5584SOL     OW17650   5.145   3.228   4.062
 5584SOL    HW117651   5.193   3.308   4.099
 5584SOL    HW217652   5.109   3.173   4.137
 5585SOL     OW17653   0.596   0.238   3.427
 5585SOL    HW117654   0.670   0.195   3.479
 5585SOL    HW217655   0.531   0.168   3.398
 5586SOL     OW17656   2.447   0.701   0.190
 5586SOL    HW117657   2.380   0.736   0.124
 5586SOL    HW217658   2.408   0.623   0.238
 5587SOL     OW17659   3.756   6.326   3.525
 5587SOL    HW117660   3.828   6.256   3.517
 5587SOL    HW217661   3.667   6.282   3.531
 5588SOL     OW17662   5.139   6.526   6.533
 5588SOL    HW117663   5.077   6.555   6.460
 5588SOL    HW217664   5.151   6.601   6.598
 5589SOL     OW17665   1.906   3.763   0.136
 5589SOL    HW117666   1.966   3.708   0.194
 5589SOL    HW217667   1.861   3.832   0.192
 5590SOL     OW17668   6.592   0.432   3.336
 5590SOL    HW117669   6.684   0.406   3.307
 5590SOL    HW217670   6.525   0.374   3.290
 5591SOL     OW17671   5.411   0.015   6.836
 5591SOL    HW117672   5.363   6.980   6.906
 5591SOL    HW217673   5.420   0.110   6.866
 5592SOL     OW17674   1.310   2.840   2.657
 5592SOL    HW117675   1.345   2.839   2.563
 5592SOL    HW217676   1.293   2.746   2.686
 5593SOL     OW17677   2.186   4.131   4.730
 5593SOL    HW117678   2.157   4.054   4.672
 5593SOL    HW217679   2.228   4.096   4.813
 5594SOL     OW17680   2.780   1.410   6.097
 5594SOL    HW117681   2.868   1.446   6.130
 5594SOL    HW217682   2.706   1.448   6.152
 5595SOL     OW17683   0.607   3.176   6.598
 5595SOL    HW117684   0.660   3.125   6.530
 5595SOL    HW217685   0.551   3.112   6.651
 5596SOL     OW17686   4.925   3.489   4.306
 5596SOL    HW117687   5.018   3.465   4.277
 5596SOL    HW217688   4.861   3.425   4.265
 5597SOL     OW17689   7.010   1.978   6.664
 5597SOL    HW117690   0.034   2.067   6.683
 5597SOL    HW217691   0.004   1.954   6.568
 5598SOL     OW17692   6.301   0.922   3.938
 5598SOL    HW117693   6.315   0.874   3.851
 5598SOL    HW217694   6.294   1.020   3.922
 5599SOL     OW17695   5.568   3.556   2.959
 5599SOL    HW117696   5.529   3.531   3.048
 5599SOL    HW217697   5.555   3.480   2.895
 5600SOL     OW17698   1.562   3.192   2.133
 5600SOL    HW117699   1.474   3.237   2.149
 5600SOL    HW217700   1.633   3.260   2.119
 5601SOL     OW17701   6.190   2.637   6.506
 5601SOL    HW117702   6.281   2.625   6.548
 5601SOL    HW217703   6.181   2.575   6.428
 5602SOL     OW17704   6.494   1.820   2.957
 5602SOL    HW117705   6.447   1.748   2.905
 5602SOL    HW217706   6.451   1.908   2.938
 5603SOL     OW17707   3.480   1.544   6.340
 5603SOL    HW117708   3.425   1.477   6.390
 5603SOL    HW217709   3.427   1.627   6.326
 5604SOL     OW17710   1.434   5.030   3.223
 5604SOL    HW117711   1.350   5.057   3.175
 5604SOL    HW217712   1.492   4.976   3.162
 5605SOL     OW17713   3.292   6.771   4.746
 5605SOL    HW117714   3.256   6.818   4.666
 5605SOL    HW217715   3.257   6.677   4.748
 5606SOL     OW17716   4.494   3.692   1.171
 5606SOL    HW117717   4.570   3.682   1.234
 5606SOL    HW217718   4.435   3.767   1.201
 5607SOL     OW17719   0.882   2.045   2.418
 5607SOL    HW117720   0.968   1.994   2.417
 5607SOL    HW217721   0.898   2.138   2.451
 5608SOL     OW17722   6.699   0.043   3.694
 5608SOL    HW117723   6.632   0.107   3.731
 5608SOL    HW217724   6.785   0.091   3.676
 5609SOL     OW17725   6.444   0.714   0.340
 5609SOL    HW117726   6.470   0.646   0.408
 5609SOL    HW217727   6.480   0.687   0.251
 5610SOL     OW17728   5.798   6.517   6.155
 5610SOL    HW117729   5.825   6.558   6.068
 5610SOL    HW217730   5.863   6.445   6.181
 5611SOL     OW17731   6.391   4.021   1.479
 5611SOL    HW117732   6.485   4.038   1.447
 5611SOL    HW217733   6.394   3.990   1.574
 5612SOL     OW17734   4.668   2.622   1.352
 5612SOL    HW117735   4.610   2.686   1.403
 5612SOL    HW217736   4.637   2.529   1.368
 5613SOL     OW17737   6.310   5.118   5.553
 5613SOL    HW117738   6.401   5.158   5.559
 5613SOL    HW217739   6.293   5.061   5.633
 5614SOL     OW17740   5.385   2.498   4.699
 5614SOL    HW117741   5.427   2.452   4.621
 5614SOL    HW217742   5.385   2.436   4.778
 5615SOL     OW17743   0.419   3.291   2.624
 5615SOL    HW117744   0.460   3.235   2.552
 5615SOL    HW217745   0.423   3.241   2.711
 5616SOL     OW17746   1.182   3.400   1.622
 5616SOL    HW117747   1.123   3.474   1.653
 5616SOL    HW217748   1.197   3.335   1.697
 5617SOL     OW17749   0.644   5.354   5.421
 5617SOL    HW117750   0.738   5.377   5.399
 5617SOL    HW217751   0.583   5.389   5.350
 5618SOL     OW17752   4.760   0.916   2.730
 5618SOL    HW117753   4.759   1.015   2.721
 5618SOL    HW217754   4.685   0.886   2.789
 5619SOL     OW17755   3.128   3.822   3.611
 5619SOL    HW117756   3.201   3.889   3.619
 5619SOL    HW217757   3.167   3.733   3.588
 5620SOL     OW17758   4.840   5.145   5.224
 5620SOL    HW117759   4.932   5.111   5.244
 5620SOL    HW217760   4.847   5.225   5.164
 5621SOL     OW17761   1.171   3.229   6.221
 5621SOL    HW117762   1.191   3.178   6.138
 5621SOL    HW217763   1.141   3.166   6.293
 5622SOL     OW17764   5.978   5.796   2.936
 5622SOL    HW117765   5.894   5.742   2.931
 5622SOL    HW217766   5.994   5.826   3.030
 5623SOL     OW17767   4.689   5.057   3.698
 5623SOL    HW117768   4.631   5.069   3.617
 5623SOL    HW217769   4.729   4.965   3.697
 5624SOL     OW17770   4.748   4.190   3.922
 5624SOL    HW117771   4.765   4.116   3.986
 5624SOL    HW217772   4.659   4.232   3.943
 5625SOL     OW17773   3.079   6.916   6.474
 5625SOL    HW117774   3.125   6.864   6.402
 5625SOL    HW217775   3.140   6.989   6.506
 5626SOL     OW17776   1.854   4.617   6.222
 5626SOL    HW117777   1.887   4.523   6.234
 5626SOL    HW217778   1.877   4.670   6.304
 5627SOL     OW17779   1.155   5.326   0.896
 5627SOL    HW117780   1.145   5.248   0.958
 5627SOL    HW217781   1.084   5.322   0.826
 5628SOL     OW17782   1.315   2.880   0.223
 5628SOL    HW117783   1.363   2.843   0.143
 5628SOL    HW217784   1.241   2.818   0.249
 5629SOL     OW17785   6.622   3.586   4.133
 5629SOL    HW117786   6.693   3.589   4.204
 5629SOL    HW217787   6.636   3.507   4.074
 5630SOL     OW17788   1.504   4.095   0.112
 5630SOL    HW117789   1.526   4.031   0.038
 5630SOL    HW217790   1.434   4.159   0.080
 5631SOL     OW17791   4.056   0.845   2.592
 5631SOL    HW117792   4.002   0.771   2.550
 5631SOL    HW217793   3.997   0.925   2.606
 5632SOL     OW17794   3.593   6.806   6.617
 5632SOL    HW117795   3.646   6.824   6.700
 5632SOL    HW217796   3.610   6.713   6.585
 5633SOL     OW17797   1.629   5.366   5.638
 5633SOL    HW117798   1.556   5.299   5.654
 5633SOL    HW217799   1.718   5.321   5.640
 5634SOL     OW17800   2.789   6.992   2.023
 5634SOL    HW117801   2.886   6.982   2.004
 5634SOL    HW217802   2.747   6.902   2.035
 5635SOL     OW17803   3.577   0.395   2.241
 5635SOL    HW117804   3.486   0.379   2.202
 5635SOL    HW217805   3.610   0.310   2.283
 5636SOL     OW17806   5.225   0.333   4.741
 5636SOL    HW117807   5.219   0.234   4.730
 5636SOL    HW217808   5.272   0.373   4.661
 5637SOL     OW17809   5.013   6.835   5.110
 5637SOL    HW117810   4.997   6.933   5.121
 5637SOL    HW217811   5.095   6.821   5.054
 5638SOL     OW17812   0.651   5.447   0.168
 5638SOL    HW117813   0.563   5.399   0.166
 5638SOL    HW217814   0.649   5.515   0.241
 5639SOL     OW17815   2.923   6.645   2.394
 5639SOL    HW117816   2.830   6.630   2.362
 5639SOL    HW217817   2.987   6.636   2.317
 5640SOL     OW17818   3.534   6.878   3.957
 5640SOL    HW117819   3.485   6.956   3.996
 5640SOL    HW217820   3.563   6.817   4.031
 5641SOL     OW17821   6.446   4.725   3.356
 5641SOL    HW117822   6.517   4.694   3.419
 5641SOL    HW217823   6.393   4.798   3.399
 5642SOL     OW17824   2.406   1.958   6.360
 5642SOL    HW117825   2.335   1.911   6.414
 5642SOL    HW217826   2.365   1.993   6.275
 5643SOL     OW17827   5.528   3.146   3.450
 5643SOL    HW117828   5.615   3.195   3.439
 5643SOL    HW217829   5.516   3.082   3.374
 5644SOL     OW17830   3.492   0.709   6.013
 5644SOL    HW117831   3.532   0.785   5.960
 5644SOL    HW217832   3.441   0.649   5.952
 5645SOL     OW17833   5.863   0.179   3.182
 5645SOL    HW117834   5.782   0.131   3.216
 5645SOL    HW217835   5.917   0.211   3.260
 5646SOL     OW17836   6.601   0.479   2.915
 5646SOL    HW117837   6.603   0.393   2.966
 5646SOL    HW217838   6.519   0.530   2.940
 5647SOL     OW17839   6.219   3.645   6.032
 5647SOL    HW117840   6.192   3.560   5.987
 5647SOL    HW217841   6.213   3.721   5.967
 5648SOL     OW17842   1.755   1.554   4.327
 5648SOL    HW117843   1.796   1.477   4.376
 5648SOL    HW217844   1.769   1.638   4.380
 5649SOL     OW17845   0.430   0.504   4.873
 5649SOL    HW117846   0.422   0.447   4.955
 5649SOL    HW217847   0.347   0.493   4.817
 5650SOL     OW17848   6.485   5.143   5.288
 5650SOL    HW117849   6.505   5.194   5.372
 5650SOL    HW217850   6.401   5.091   5.299
 5651SOL     OW17851   6.062   0.373   2.558
 5651SOL    HW117852   6.154   0.383   2.594
 5651SOL    HW217853   6.057   0.416   2.468
 5652SOL     OW17854   5.334   4.569   0.181
 5652SOL    HW117855   5.420   4.536   0.143
 5652SOL    HW217856   5.258   4.529   0.130
 5653SOL     OW17857   1.835   6.129   6.696
 5653SOL    HW117858   1.839   6.143   6.795
 5653SOL    HW217859   1.762   6.185   6.657
 5654SOL     OW17860   2.126   0.076   6.999
 5654SOL    HW117861   2.135   0.147   6.928
 5654SOL    HW217862   2.041   0.026   6.985
 5655SOL     OW17863   6.386   5.538   3.113
 5655SOL    HW117864   6.339   5.507   3.030
 5655SOL    HW217865   6.369   5.473   3.187
 5656SOL     OW17866   3.958   5.396   6.080
 5656SOL    HW117867   3.908   5.450   6.012
 5656SOL    HW217868   3.966   5.449   6.164
 5657SOL     OW17869   4.947   5.217   2.255
 5657SOL    HW117870   4.862   5.168   2.237
 5657SOL    HW217871   5.014   5.153   2.293
 5658SOL     OW17872   4.608   6.906   6.083
 5658SOL    HW117873   4.528   6.888   6.140
 5658SOL    HW217874   4.605   7.000   6.050
 5659SOL     OW17875   3.577   4.118   2.779
 5659SOL    HW117876   3.646   4.184   2.809
 5659SOL    HW217877   3.617   4.057   2.711
 5660SOL     OW17878   6.952   5.876   1.767
 5660SOL    HW117879   0.026   5.889   1.730
 5660SOL    HW217880   6.958   5.826   1.853
 5661SOL     OW17881   6.240   6.028   4.524
 5661SOL    HW117882   6.162   6.063   4.575
 5661SOL    HW217883   6.268   6.095   4.455
 5662SOL     OW17884   1.993   4.742   4.199
 5662SOL    HW117885   1.956   4.751   4.107
 5662SOL    HW217886   1.920   4.755   4.266
 5663SOL     OW17887   2.404   3.829   1.136
 5663SOL    HW117888   2.432   3.735   1.117
 5663SOL    HW217889   2.332   3.856   1.072
 5664SOL     OW17890   6.432   6.433   2.085
 5664SOL    HW117891   6.349   6.380   2.068
 5664SOL    HW217892   6.457   6.425   2.181
 5665SOL     OW17893   1.825   1.210   5.810
 5665SOL    HW117894   1.742   1.227   5.756
 5665SOL    HW217895   1.800   1.197   5.906
 5666SOL     OW17896   5.534   5.533   6.899
 5666SOL    HW117897   5.502   5.439   6.905
 5666SOL    HW217898   5.630   5.534   6.870
 5667SOL     OW17899   5.586   4.508   2.302
 5667SOL    HW117900   5.659   4.457   2.347
 5667SOL    HW217901   5.538   4.564   2.370
 5668SOL     OW17902   0.069   2.241   6.531
 5668SOL    HW117903   6.988   2.252   6.527
 5668SOL    HW217904   0.105   2.292   6.609
 5669SOL     OW17905   0.256   2.525   4.610
 5669SOL    HW117906   0.231   2.512   4.514
 5669SOL    HW217907   0.230   2.445   4.663
 5670SOL     OW17908   1.385   3.425   2.312
 5670SOL    HW117909   1.465   3.476   2.280
 5670SOL    HW217910   1.416   3.345   2.364
 5671SOL     OW17911   0.922   0.758   5.501
 5671SOL    HW117912   0.908   0.807   5.588
 5671SOL    HW217913   0.994   0.803   5.449
 5672SOL     OW17914   4.541   4.187   5.465
 5672SOL    HW117915   4.531   4.088   5.457
 5672SOL    HW217916   4.563   4.225   5.375
 5673SOL     OW17917   1.706   6.748   0.996
 5673SOL    HW117918   1.762   6.688   1.053
 5673SOL    HW217919   1.610   6.722   1.003
 5674SOL     OW17920   0.330   3.320   1.748
 5674SOL    HW117921   0.410   3.361   1.703
 5674SOL    HW217922   0.349   3.224   1.769
 5675SOL     OW17923   4.040   1.259   5.440
 5675SOL    HW117924   3.983   1.299   5.368
 5675SOL    HW217925   4.002   1.284   5.529
 5676SOL     OW17926   2.284   6.394   2.308
 5676SOL    HW117927   2.357   6.354   2.363
 5676SOL    HW217928   2.264   6.487   2.341
 5677SOL     OW17929   6.193   0.261   2.892
 5677SOL    HW117930   6.194   0.172   2.847
 5677SOL    HW217931   6.249   0.325   2.841
 5678SOL     OW17932   0.902   5.147   2.954
 5678SOL    HW117933   0.816   5.170   2.999
 5678SOL    HW217934   0.915   5.206   2.875
 5679SOL     OW17935   3.460   5.751   5.785
 5679SOL    HW117936   3.437   5.655   5.804
 5679SOL    HW217937   3.559   5.761   5.780
 5680SOL     OW17938   2.208   6.754   6.450
 5680SOL    HW117939   2.188   6.849   6.427
 5680SOL    HW217940   2.173   6.735   6.543
 5681SOL     OW17941   3.156   3.810   6.398
 5681SOL    HW117942   3.209   3.735   6.357
 5681SOL    HW217943   3.117   3.866   6.325
 5682SOL     OW17944   1.893   3.418   3.859
 5682SOL    HW117945   1.835   3.499   3.869
 5682SOL    HW217946   1.840   3.336   3.877
 5683SOL     OW17947   3.901   2.949   5.289
 5683SOL    HW117948   3.978   3.010   5.304
 5683SOL    HW217949   3.816   2.996   5.314
 5684SOL     OW17950   3.018   3.708   3.400
 5684SOL    HW117951   3.032   3.772   3.476
 5684SOL    HW217952   2.970   3.627   3.432
 5685SOL     OW17953   0.469   6.102   1.518
 5685SOL    HW117954   0.452   6.200   1.509
 5685SOL    HW217955   0.498   6.065   1.430
 5686SOL     OW17956   3.395   4.677   0.144
 5686SOL    HW117957   3.355   4.593   0.181
 5686SOL    HW217958   3.453   4.655   0.066
 5687SOL     OW17959   4.291   5.959   6.732
 5687SOL    HW117960   4.335   5.951   6.821
 5687SOL    HW217961   4.315   6.046   6.690
 5688SOL     OW17962   5.359   1.568   2.758
 5688SOL    HW117963   5.283   1.504   2.770
 5688SOL    HW217964   5.418   1.565   2.840
 5689SOL     OW17965   4.286   3.418   5.748
 5689SOL    HW117966   4.322   3.332   5.785
 5689SOL    HW217967   4.224   3.398   5.673
 5690SOL     OW17968   3.841   0.090   3.172
 5690SOL    HW117969   3.788   0.036   3.106
 5690SOL    HW217970   3.913   0.033   3.212
 5691SOL     OW17971   3.470   0.333   4.115
 5691SOL    HW117972   3.515   0.415   4.082
 5691SOL    HW217973   3.523   0.252   4.089
 5692SOL     OW17974   5.973   2.322   6.996
 5692SOL    HW117975   5.976   2.279   6.906
 5692SOL    HW217976   5.931   2.412   6.990
 5693SOL     OW17977   4.994   2.584   2.417
 5693SOL    HW117978   4.995   2.484   2.409
 5693SOL    HW217979   4.922   2.621   2.359
 5694SOL     OW17980   1.513   2.152   4.573
 5694SOL    HW117981   1.478   2.231   4.523
 5694SOL    HW217982   1.539   2.180   4.665
 5695SOL     OW17983   1.966   4.228   3.515
 5695SOL    HW117984   1.999   4.235   3.610
 5695SOL    HW217985   2.044   4.232   3.453
 5696SOL     OW17986   2.813   0.955   6.495
 5696SOL    HW117987   2.890   0.921   6.441
 5696SOL    HW217988   2.740   0.887   6.496
 5697SOL     OW17989   6.788   3.754   0.221
 5697SOL    HW117990   6.696   3.738   0.256
 5697SOL    HW217991   6.784   3.816   0.143
 5698SOL     OW17992   1.619   4.395   3.676
 5698SOL    HW117993   1.534   4.411   3.626
 5698SOL    HW217994   1.615   4.307   3.722
 5699SOL     OW17995   0.493   2.040   5.190
 5699SOL    HW117996   0.472   2.136   5.174
 5699SOL    HW217997   0.459   1.985   5.115
 5700SOL     OW17998   1.704   5.175   4.078
 5700SOL    HW117999   1.751   5.122   4.149
 5700SOL    HW218000   1.611   5.138   4.066
 5701SOL     OW18001   4.954   3.553   3.124
 5701SOL    HW118002   4.998   3.589   3.207
 5701SOL    HW218003   5.023   3.537   3.054
 5702SOL     OW18004   3.573   0.217   0.138
 5702SOL    HW118005   3.482   0.181   0.116
 5702SOL    HW218006   3.640   0.181   0.073
 5703SOL     OW18007   4.783   4.229   1.838
 5703SOL    HW118008   4.822   4.319   1.819
 5703SOL    HW218009   4.688   4.240   1.869
 5704SOL     OW18010   4.911   4.477   3.354
 5704SOL    HW118011   4.895   4.569   3.390
 5704SOL    HW218012   4.839   4.454   3.288
 5705SOL     OW18013   6.428   1.297   3.946
 5705SOL    HW118014   6.403   1.387   3.983
 5705SOL    HW218015   6.471   1.242   4.017
 5706SOL     OW18016   2.315   1.259   6.839
 5706SOL    HW118017   2.278   1.191   6.775
 5706SOL    HW218018   2.304   1.350   6.801
 5707SOL     OW18019   3.741   1.543   0.195
 5707SOL    HW118020   3.667   1.578   0.138
 5707SOL    HW218021   3.704   1.484   0.266
 5708SOL     OW18022   0.022   6.673   0.508
 5708SOL    HW118023   7.018   6.607   0.580
 5708SOL    HW218024   0.110   6.648   0.467
 5709SOL     OW18025   1.294   2.518   0.991
 5709SOL    HW118026   1.228   2.575   0.943
 5709SOL    HW218027   1.331   2.450   0.927
 5710SOL     OW18028   3.704   4.580   0.348
 5710SOL    HW118029   3.800   4.558   0.333
 5710SOL    HW218030   3.672   4.640   0.275
 5711SOL     OW18031   5.174   1.730   5.309
 5711SOL    HW118032   5.207   1.680   5.389
 5711SOL    HW218033   5.082   1.700   5.286
 5712SOL     OW18034   6.518   6.612   6.685
 5712SOL    HW118035   6.598   6.576   6.732
 5712SOL    HW218036   6.460   6.661   6.750
 5713SOL     OW18037   0.537   2.754   2.739
 5713SOL    HW118038   0.465   2.785   2.801
 5713SOL    HW218039   0.497   2.701   2.665
 5714SOL     OW18040   2.259   0.610   6.601
 5714SOL    HW118041   2.274   0.577   6.508
 5714SOL    HW218042   2.187   0.680   6.600
 5715SOL     OW18043   1.473   0.487   3.473
 5715SOL    HW118044   1.487   0.470   3.376
 5715SOL    HW218045   1.380   0.519   3.489
 5716SOL     OW18046   1.961   2.446   5.158
 5716SOL    HW118047   1.876   2.401   5.129
 5716SOL    HW218048   2.035   2.379   5.159
 5717SOL     OW18049   0.694   3.065   5.801
 5717SOL    HW118050   0.760   3.135   5.827
 5717SOL    HW218051   0.621   3.107   5.747
 5718SOL     OW18052   2.904   5.502   6.190
 5718SOL    HW118053   2.942   5.496   6.282
 5718SOL    HW218054   2.849   5.585   6.183
 5719SOL     OW18055   2.159   0.797   0.597
 5719SOL    HW118056   2.245   0.746   0.594
 5719SOL    HW218057   2.161   0.862   0.673
 5720SOL     OW18058   1.770   5.842   3.985
 5720SOL    HW118059   1.853   5.834   3.930
 5720SOL    HW218060   1.690   5.829   3.927
 5721SOL     OW18061   6.578   3.863   7.010
 5721SOL    HW118062   6.656   3.924   0.003
 5721SOL    HW218063   6.549   3.829   0.082
 5722SOL     OW18064   5.424   0.947   4.510
 5722SOL    HW118065   5.442   1.001   4.428
 5722SOL    HW218066   5.510   0.909   4.544
 5723SOL     OW18067   0.616   4.391   0.946
 5723SOL    HW118068   0.587   4.422   1.036
 5723SOL    HW218069   0.536   4.362   0.893
 5724SOL     OW18070   5.273   2.932   5.881
 5724SOL    HW118071   5.295   2.836   5.895
 5724SOL    HW218072   5.351   2.979   5.839
 5725SOL     OW18073   5.597   6.684   5.685
 5725SOL    HW118074   5.625   6.776   5.658
 5725SOL    HW218075   5.524   6.653   5.624
 5726SOL     OW18076   4.336   4.910   5.356
 5726SOL    HW118077   4.293   4.842   5.416
 5726SOL    HW218078   4.320   4.884   5.260
 5727SOL     OW18079   5.818   2.839   3.996
 5727SOL    HW118080   5.906   2.792   4.005
 5727SOL    HW218081   5.817   2.920   4.053
 5728SOL     OW18082   4.157   0.811   4.900
 5728SOL    HW118083   4.175   0.796   4.997
 5728SOL    HW218084   4.224   0.876   4.863
 5729SOL     OW18085   1.416   2.784   3.946
 5729SOL    HW118086   1.459   2.874   3.946
 5729SOL    HW218087   1.438   2.737   4.032
 5730SOL     OW18088   3.966   4.576   0.301
 5730SOL    HW118089   3.985   4.659   0.354
 5730SOL    HW218090   4.010   4.498   0.345
 5731SOL     OW18091   4.157   1.118   4.628
 5731SOL    HW118092   4.198   1.036   4.668
 5731SOL    HW218093   4.215   1.197   4.648
 5732SOL     OW18094   5.304   4.494   4.492
 5732SOL    HW118095   5.269   4.490   4.586
 5732SOL    HW218096   5.370   4.568   4.484
 5733SOL     OW18097   2.721   7.001   1.711
 5733SOL    HW118098   2.727   0.014   1.616
 5733SOL    HW218099   2.812   7.006   1.753
 5734SOL     OW18100   1.571   6.896   5.901
 5734SOL    HW118101   1.628   6.899   5.983
 5734SOL    HW218102   1.480   6.862   5.924
 5735SOL     OW18103   5.226   0.902   0.822
 5735SOL    HW118104   5.164   0.974   0.791
 5735SOL    HW218105   5.189   0.861   0.906
 5736SOL     OW18106   5.071   3.842   6.630
 5736SOL    HW118107   5.093   3.768   6.566
 5736SOL    HW218108   5.118   3.828   6.716
 5737SOL     OW18109   4.988   5.572   2.380
 5737SOL    HW118110   5.058   5.554   2.449
 5737SOL    HW218111   4.913   5.507   2.390
 5738SOL     OW18112   2.681   0.737   1.455
 5738SOL    HW118113   2.769   0.781   1.437
 5738SOL    HW218114   2.697   0.645   1.492
 5739SOL     OW18115   2.007   0.507   5.135
 5739SOL    HW118116   2.101   0.491   5.167
 5739SOL    HW218117   1.992   0.456   5.050
 5740SOL     OW18118   4.971   3.489   2.682
 5740SOL    HW118119   4.933   3.458   2.594
 5740SOL    HW218120   5.007   3.581   2.672
 5741SOL     OW18121   1.507   3.050   3.967
 5741SOL    HW118122   1.565   3.131   3.978
 5741SOL    HW218123   1.431   3.071   3.906
 5742SOL     OW18124   5.485   5.586   1.959
 5742SOL    HW118125   5.445   5.570   2.050
 5742SOL    HW218126   5.451   5.518   1.895
 5743SOL     OW18127   4.176   6.004   0.113
 5743SOL    HW118128   4.261   5.979   0.066
 5743SOL    HW218129   4.127   6.072   0.059
 5744SOL     OW18130   5.056   6.167   3.141
 5744SOL    HW118131   4.961   6.172   3.112
 5744SOL    HW218132   5.116   6.162   3.062
 5745SOL     OW18133   0.690   3.459   2.641
 5745SOL    HW118134   0.749   3.383   2.667
 5745SOL    HW218135   0.604   3.454   2.692
 5746SOL     OW18136   5.183   0.485   3.228
 5746SOL    HW118137   5.150   0.578   3.213
 5746SOL    HW218138   5.182   0.434   3.141
 5747SOL     OW18139   2.096   6.989   1.400
 5747SOL    HW118140   2.039   0.053   1.406
 5747SOL    HW218141   2.078   6.931   1.479
 5748SOL     OW18142   6.199   6.637   6.877
 5748SOL    HW118143   6.200   6.540   6.852
 5748SOL    HW218144   6.186   6.646   6.975
 5749SOL     OW18145   2.323   6.101   6.319
 5749SOL    HW118146   2.275   6.013   6.314
 5749SOL    HW218147   2.412   6.092   6.274
 5750SOL     OW18148   6.521   2.607   4.484
 5750SOL    HW118149   6.553   2.661   4.406
 5750SOL    HW218150   6.467   2.665   4.545
 5751SOL     OW18151   0.365   3.793   4.148
 5751SOL    HW118152   0.343   3.858   4.076
 5751SOL    HW218153   0.441   3.735   4.118
 5752SOL     OW18154   5.662   0.980   0.544
 5752SOL    HW118155   5.584   0.983   0.606
 5752SOL    HW218156   5.739   0.936   0.590
 5753SOL     OW18157   3.601   3.937   4.404
 5753SOL    HW118158   3.635   3.875   4.475
 5753SOL    HW218159   3.544   4.008   4.446
 5754SOL     OW18160   6.119   6.083   0.828
 5754SOL    HW118161   6.045   6.123   0.774
 5754SOL    HW218162   6.138   6.141   0.907
 5755SOL     OW18163   1.407   2.951   6.492
 5755SOL    HW118164   1.438   3.018   6.425
 5755SOL    HW218165   1.325   2.985   6.537
 5756SOL     OW18166   6.310   6.276   1.639
 5756SOL    HW118167   6.360   6.253   1.722
 5756SOL    HW218168   6.317   6.201   1.573
 5757SOL     OW18169   0.754   1.393   3.613
 5757SOL    HW118170   0.846   1.354   3.600
 5757SOL    HW218171   0.686   1.325   3.586
 5758SOL     OW18172   6.322   6.940   3.276
 5758SOL    HW118173   6.276   0.011   3.280
 5758SOL    HW218174   6.323   6.907   3.181
 5759SOL     OW18175   2.018   6.671   2.954
 5759SOL    HW118176   2.063   6.754   2.989
 5759SOL    HW218177   1.937   6.652   3.010
 5760SOL     OW18178   0.521   2.189   6.878
 5760SOL    HW118179   0.482   2.132   6.950
 5760SOL    HW218180   0.451   2.255   6.847
 5761SOL     OW18181   6.674   6.380   4.675
 5761SOL    HW118182   6.629   6.443   4.738
 5761SOL    HW218183   6.609   6.353   4.603
 5762SOL     OW18184   0.885   5.438   5.609
 5762SOL    HW118185   0.805   5.460   5.665
 5762SOL    HW218186   0.936   5.363   5.653
 5763SOL     OW18187   4.999   0.268   0.148
 5763SOL    HW118188   5.083   0.318   0.128
 5763SOL    HW218189   4.970   0.289   0.242
 5764SOL     OW18190   4.544   6.455   4.623
 5764SOL    HW118191   4.494   6.542   4.623
 5764SOL    HW218192   4.576   6.435   4.531
 5765SOL     OW18193   0.091   5.847   2.502
 5765SOL    HW118194   0.017   5.797   2.545
 5765SOL    HW218195   0.178   5.800   2.518
 5766SOL     OW18196   0.581   1.336   4.050
 5766SOL    HW118197   0.667   1.387   4.056
 5766SOL    HW218198   0.534   1.338   4.138
 5767SOL     OW18199   5.013   6.641   0.114
 5767SOL    HW118200   5.078   6.676   0.047
 5767SOL    HW218201   4.950   6.714   0.141
 5768SOL     OW18202   1.296   0.874   4.812
 5768SOL    HW118203   1.322   0.797   4.754
 5768SOL    HW218204   1.284   0.843   4.906
 5769SOL     OW18205   0.746   2.621   5.623
 5769SOL    HW118206   0.809   2.547   5.599
 5769SOL    HW218207   0.660   2.582   5.656
 5770SOL     OW18208   1.867   4.513   2.314
 5770SOL    HW118209   1.885   4.421   2.281
 5770SOL    HW218210   1.821   4.508   2.403
 5771SOL     OW18211   2.919   5.349   3.399
 5771SOL    HW118212   2.856   5.348   3.476
 5771SOL    HW218213   2.964   5.438   3.392
 5772SOL     OW18214   2.691   0.164   3.273
 5772SOL    HW118215   2.722   0.123   3.359
 5772SOL    HW218216   2.724   0.110   3.196
 5773SOL     OW18217   5.618   0.718   3.811
 5773SOL    HW118218   5.579   0.797   3.765
 5773SOL    HW218219   5.564   0.697   3.892
 5774SOL     OW18220   1.017   6.692   3.665
 5774SOL    HW118221   0.987   6.613   3.718
 5774SOL    HW218222   0.947   6.763   3.667
 5775SOL     OW18223   6.092   5.044   2.357
 5775SOL    HW118224   6.049   5.047   2.267
 5775SOL    HW218225   6.147   5.126   2.371
 5776SOL     OW18226   2.958   0.932   3.988
 5776SOL    HW118227   2.938   0.917   4.084
 5776SOL    HW218228   3.008   1.018   3.976
 5777SOL     OW18229   1.180   0.584   1.580
 5777SOL    HW118230   1.216   0.493   1.560
 5777SOL    HW218231   1.080   0.582   1.573
 5778SOL     OW18232   0.224   0.142   0.402
 5778SOL    HW118233   0.146   0.195   0.368
 5778SOL    HW218234   0.301   0.203   0.417
 5779SOL     OW18235   5.746   1.600   0.611
 5779SOL    HW118236   5.713   1.605   0.706
 5779SOL    HW218237   5.823   1.662   0.599
 5780SOL     OW18238   5.152   5.000   3.926
 5780SOL    HW118239   5.107   5.078   3.968
 5780SOL    HW218240   5.220   4.963   3.989
 5781SOL     OW18241   1.377   5.312   6.313
 5781SOL    HW118242   1.403   5.325   6.408
 5781SOL    HW218243   1.352   5.216   6.298
 5782SOL     OW18244   6.930   0.707   0.138
 5782SOL    HW118245   6.925   0.768   0.218
 5782SOL    HW218246   0.003   0.714   0.097
 5783SOL     OW18247   2.386   2.674   6.927
 5783SOL    HW118248   2.468   2.680   6.983
 5783SOL    HW218249   2.371   2.578   6.901
 5784SOL     OW18250   0.183   6.142   6.844
 5784SOL    HW118251   0.106   6.080   6.860
 5784SOL    HW218252   0.148   6.233   6.822
 5785SOL     OW18253   1.757   1.366   1.145
 5785SOL    HW118254   1.808   1.352   1.061
 5785SOL    HW218255   1.728   1.462   1.151
 5786SOL     OW18256   6.259   5.536   1.438
 5786SOL    HW118257   6.169   5.527   1.481
 5786SOL    HW218258   6.265   5.625   1.393
 5787SOL     OW18259   2.068   3.398   5.803
 5787SOL    HW118260   2.166   3.398   5.786
 5787SOL    HW218261   2.028   3.482   5.767
 5788SOL     OW18262   3.365   0.751   3.572
 5788SOL    HW118263   3.454   0.760   3.525
 5788SOL    HW218264   3.323   0.842   3.579
 5789SOL     OW18265   3.862   5.100   6.129
 5789SOL    HW118266   3.778   5.149   6.105
 5789SOL    HW218267   3.909   5.072   6.045
 5790SOL     OW18268   1.123   3.962   3.759
 5790SOL    HW118269   1.161   4.055   3.754
 5790SOL    HW218270   1.184   3.904   3.811
 5791SOL     OW18271   1.664   0.536   3.186
 5791SOL    HW118272   1.703   0.496   3.269
 5791SOL    HW218273   1.649   0.634   3.200
 5792SOL     OW18274   0.101   2.316   2.778
 5792SOL    HW118275   0.133   2.408   2.758
 5792SOL    HW218276   0.161   2.250   2.733
 5793SOL     OW18277   6.249   0.614   4.792
 5793SOL    HW118278   6.274   0.536   4.848
 5793SOL    HW218279   6.150   0.617   4.780
 5794SOL     OW18280   6.335   4.110   6.627
 5794SOL    HW118281   6.395   4.088   6.550
 5794SOL    HW218282   6.243   4.075   6.609
 5795SOL     OW18283   5.888   4.206   6.374
 5795SOL    HW118284   5.962   4.261   6.335
 5795SOL    HW218285   5.918   4.166   6.460
 5796SOL     OW18286   2.964   2.529   0.819
 5796SOL    HW118287   2.926   2.491   0.902
 5796SOL    HW218288   2.901   2.598   0.781
 5797SOL     OW18289   2.873   2.597   5.373
 5797SOL    HW118290   2.869   2.555   5.464
 5797SOL    HW218291   2.830   2.536   5.306
 5798SOL     OW18292   6.204   5.175   4.084
 5798SOL    HW118293   6.173   5.188   3.990
 5798SOL    HW218294   6.302   5.193   4.090
 5799SOL     OW18295   5.002   1.018   4.038
 5799SOL    HW118296   5.022   0.981   3.947
 5799SOL    HW218297   4.919   1.073   4.034
 5800SOL     OW18298   6.157   6.100   6.710
 5800SOL    HW118299   6.207   6.115   6.625
 5800SOL    HW218300   6.208   6.035   6.767
 5801SOL     OW18301   2.172   0.880   2.537
 5801SOL    HW118302   2.214   0.898   2.626
 5801SOL    HW218303   2.196   0.952   2.473
 5802SOL     OW18304   0.586   2.748   4.684
 5802SOL    HW118305   0.605   2.652   4.704
 5802SOL    HW218306   0.595   2.802   4.767
 5803SOL     OW18307   1.447   5.125   1.138
 5803SOL    HW118308   1.349   5.149   1.134
 5803SOL    HW218309   1.458   5.036   1.181
 5804SOL     OW18310   0.208   2.617   6.110
 5804SOL    HW118311   0.145   2.659   6.176
 5804SOL    HW218312   0.161   2.605   6.022
 5805SOL     OW18313   5.956   3.351   6.535
 5805SOL    HW118314   5.970   3.255   6.514
 5805SOL    HW218315   5.859   3.373   6.532
 5806SOL     OW18316   6.780   0.106   6.790
 5806SOL    HW118317   6.850   0.035   6.786
 5806SOL    HW218318   6.707   0.085   6.724
 5807SOL     OW18319   2.225   3.453   1.597
 5807SOL    HW118320   2.292   3.462   1.671
 5807SOL    HW218321   2.133   3.464   1.634
 5808SOL     OW18322   6.114   1.633   3.468
 5808SOL    HW118323   6.117   1.732   3.451
 5808SOL    HW218324   6.206   1.596   3.462
 5809SOL     OW18325   0.085   2.900   4.111
 5809SOL    HW118326   0.125   2.809   4.122
 5809SOL    HW218327   0.151   2.969   4.142
 5810SOL     OW18328   2.459   2.002   2.658
 5810SOL    HW118329   2.540   2.043   2.616
 5810SOL    HW218330   2.381   2.013   2.597
 5811SOL     OW18331   3.177   0.033   2.733
 5811SOL    HW118332   3.101   7.000   2.693
 5811SOL    HW218333   3.154   0.059   2.827
 5812SOL     OW18334   4.520   0.659   4.973
 5812SOL    HW118335   4.450   0.599   5.014
 5812SOL    HW218336   4.504   0.664   4.874
 5813SOL     OW18337   1.507   1.200   5.216
 5813SOL    HW118338   1.552   1.122   5.172
 5813SOL    HW218339   1.574   1.251   5.269
 5814SOL     OW18340   6.740   5.281   0.836
 5814SOL    HW118341   6.677   5.266   0.912
 5814SOL    HW218342   6.790   5.196   0.818
 5815SOL     OW18343   3.834   1.009   3.512
 5815SOL    HW118344   3.864   0.914   3.506
 5815SOL    HW218345   3.739   1.012   3.542
 5816SOL     OW18346   5.155   6.697   0.557
 5816SOL    HW118347   5.111   6.660   0.639
 5816SOL    HW218348   5.248   6.661   0.550
 5817SOL     OW18349   6.116   2.339   5.938
 5817SOL    HW118350   6.160   2.250   5.947
 5817SOL    HW218351   6.064   2.360   6.021
 5818SOL     OW18352   6.278   6.127   5.894
 5818SOL    HW118353   6.218   6.207   5.900
 5818SOL    HW218354   6.311   6.117   5.800
 5819SOL     OW18355   5.864   0.199   0.604
 5819SOL    HW118356   5.805   0.260   0.656
 5819SOL    HW218357   5.886   0.118   0.659
 5820SOL     OW18358   5.840   5.318   2.133
 5820SOL    HW118359   5.830   5.378   2.054
 5820SOL    HW218360   5.753   5.315   2.183
 5821SOL     OW18361   3.250   6.640   2.759
 5821SOL    HW118362   3.161   6.642   2.804
 5821SOL    HW218363   3.238   6.651   2.661
 5822SOL     OW18364   0.954   1.088   2.043
 5822SOL    HW118365   0.928   1.101   1.947
 5822SOL    HW218366   1.054   1.096   2.052
 5823SOL     OW18367   1.974   2.815   4.046
 5823SOL    HW118368   1.908   2.805   3.972
 5823SOL    HW218369   1.926   2.825   4.133
 5824SOL     OW18370   4.259   0.449   3.540
 5824SOL    HW118371   4.343   0.491   3.576
 5824SOL    HW218372   4.283   0.373   3.480
 5825SOL     OW18373   3.633   1.037   1.388
 5825SOL    HW118374   3.722   1.022   1.431
 5825SOL    HW218375   3.631   1.128   1.346
 5826SOL     OW18376   0.197   6.696   3.744
 5826SOL    HW118377   0.292   6.681   3.770
 5826SOL    HW218378   0.153   6.608   3.725
 5827SOL     OW18379   1.772   4.622   5.409
 5827SOL    HW118380   1.831   4.683   5.462
 5827SOL    HW218381   1.815   4.604   5.320
 5828SOL     OW18382   6.699   2.088   1.523
 5828SOL    HW118383   6.758   2.035   1.462
 5828SOL    HW218384   6.623   2.031   1.553
 5829SOL     OW18385   1.325   1.453   1.574
 5829SOL    HW118386   1.300   1.417   1.484
 5829SOL    HW218387   1.391   1.393   1.617
 5830SOL     OW18388   2.020   0.804   5.231
 5830SOL    HW118389   2.007   0.795   5.133
 5830SOL    HW218390   1.961   0.738   5.278
 5831SOL     OW18391   6.116   6.126   3.021
 5831SOL    HW118392   6.101   6.083   3.109
 5831SOL    HW218393   6.028   6.145   2.978
 5832SOL     OW18394   3.329   3.251   4.287
 5832SOL    HW118395   3.364   3.257   4.193
 5832SOL    HW218396   3.303   3.342   4.319
 5833SOL     OW18397   3.212   3.467   5.023
 5833SOL    HW118398   3.236   3.370   5.022
 5833SOL    HW218399   3.112   3.477   5.022
 5834SOL     OW18400   6.215   0.649   0.232
 5834SOL    HW118401   6.186   0.745   0.231
 5834SOL    HW218402   6.291   0.638   0.295
 5835SOL     OW18403   5.381   3.044   4.390
 5835SOL    HW118404   5.290   3.074   4.415
 5835SOL    HW218405   5.418   2.983   4.461
 5836SOL     OW18406   3.539   6.850   2.986
 5836SOL    HW118407   3.533   6.897   3.074
 5836SOL    HW218408   3.476   6.772   2.986
 5837SOL     OW18409   4.311   4.507   6.585
 5837SOL    HW118410   4.265   4.532   6.670
 5837SOL    HW218411   4.339   4.411   6.589
 5838SOL     OW18412   1.116   1.137   5.882
 5838SOL    HW118413   1.125   1.175   5.974
 5838SOL    HW218414   1.123   1.211   5.814
 5839SOL     OW18415   0.211   2.361   2.401
 5839SOL    HW118416   0.201   2.262   2.411
 5839SOL    HW218417   0.308   2.385   2.395
 5840SOL     OW18418   3.099   5.466   0.374
 5840SOL    HW118419   3.030   5.398   0.397
 5840SOL    HW218420   3.166   5.426   0.311
 5841SOL     OW18421   6.289   2.490   3.233
 5841SOL    HW118422   6.288   2.573   3.290
 5841SOL    HW218423   6.317   2.412   3.289
 5842SOL     OW18424   3.547   2.854   0.387
 5842SOL    HW118425   3.484   2.789   0.345
 5842SOL    HW218426   3.499   2.940   0.405
 5843SOL     OW18427   0.528   3.242   1.126
 5843SOL    HW118428   0.590   3.228   1.203
 5843SOL    HW218429   0.563   3.194   1.046
 5844SOL     OW18430   1.598   6.319   0.037
 5844SOL    HW118431   1.591   6.388   0.109
 5844SOL    HW218432   1.621   6.363   6.969
 5845SOL     OW18433   1.108   2.524   4.767
 5845SOL    HW118434   1.024   2.562   4.726
 5845SOL    HW218435   1.185   2.543   4.707
 5846SOL     OW18436   0.355   3.224   6.422
 5846SOL    HW118437   0.369   3.298   6.487
 5846SOL    HW218438   0.443   3.182   6.399
 5847SOL     OW18439   1.555   2.367   3.784
 5847SOL    HW118440   1.485   2.378   3.855
 5847SOL    HW218441   1.517   2.393   3.696
 5848SOL     OW18442   1.139   4.846   3.440
 5848SOL    HW118443   1.228   4.806   3.419
 5848SOL    HW218444   1.124   4.928   3.386
 5849SOL     OW18445   3.137   6.451   6.037
 5849SOL    HW118446   3.155   6.547   6.014
 5849SOL    HW218447   3.082   6.447   6.120
 5850SOL     OW18448   0.839   4.620   3.579
 5850SOL    HW118449   0.926   4.604   3.531
 5850SOL    HW218450   0.856   4.622   3.677
 5851SOL     OW18451   5.502   2.953   1.772
 5851SOL    HW118452   5.553   2.881   1.726
 5851SOL    HW218453   5.410   2.959   1.733
 5852SOL     OW18454   4.273   6.239   2.853
 5852SOL    HW118455   4.179   6.228   2.821
 5852SOL    HW218456   4.279   6.315   2.917
 5853SOL     OW18457   4.817   3.890   5.547
 5853SOL    HW118458   4.854   3.929   5.463
 5853SOL    HW218459   4.717   3.892   5.543
 5854SOL     OW18460   1.046   0.888   6.589
 5854SOL    HW118461   1.142   0.885   6.617
 5854SOL    HW218462   1.026   0.977   6.550
 5855SOL     OW18463   1.952   1.589   4.962
 5855SOL    HW118464   1.936   1.493   4.985
 5855SOL    HW218465   2.029   1.596   4.899
 5856SOL     OW18466   1.831   5.178   3.253
 5856SOL    HW118467   1.927   5.206   3.256
 5856SOL    HW218468   1.773   5.258   3.240
 5857SOL     OW18469   0.381   2.335   5.237
 5857SOL    HW118470   0.390   2.428   5.272
 5857SOL    HW218471   0.290   2.324   5.195
 5858SOL     OW18472   3.879   6.902   3.587
 5858SOL    HW118473   3.792   6.903   3.637
 5858SOL    HW218474   3.946   6.847   3.638
 5859SOL     OW18475   6.142   5.994   1.820
 5859SOL    HW118476   6.205   5.948   1.759
 5859SOL    HW218477   6.162   5.969   1.915
 5860SOL     OW18478   0.108   3.802   1.004
 5860SOL    HW118479   0.157   3.862   1.067
 5860SOL    HW218480   0.172   3.739   0.960
 5861SOL     OW18481   5.914   1.720   3.800
 5861SOL    HW118482   5.993   1.762   3.845
 5861SOL    HW218483   5.945   1.648   3.739
 5862SOL     OW18484   4.802   4.811   3.665
 5862SOL    HW118485   4.759   4.793   3.754
 5862SOL    HW218486   4.900   4.796   3.673
 5863SOL     OW18487   2.035   1.338   1.401
 5863SOL    HW118488   2.045   1.248   1.360
 5863SOL    HW218489   2.067   1.408   1.336
 5864SOL     OW18490   4.126   5.627   0.457
 5864SOL    HW118491   4.113   5.589   0.549
 5864SOL    HW218492   4.220   5.659   0.448
 5865SOL     OW18493   4.402   0.844   3.678
 5865SOL    HW118494   4.418   0.940   3.702
 5865SOL    HW218495   4.314   0.814   3.715
 5866SOL     OW18496   3.230   1.905   0.019
 5866SOL    HW118497   3.250   2.000   7.012
 5866SOL    HW218498   3.174   1.862   6.966
 5867SOL     OW18499   6.973   2.713   1.254
 5867SOL    HW118500   6.933   2.803   1.238
 5867SOL    HW218501   6.993   2.670   1.166
 5868SOL     OW18502   1.176   6.701   4.543
 5868SOL    HW118503   1.138   6.672   4.455
 5868SOL    HW218504   1.104   6.745   4.597
 5869SOL     OW18505   3.411   4.893   4.098
 5869SOL    HW118506   3.477   4.964   4.119
 5869SOL    HW218507   3.437   4.808   4.145
 5870SOL     OW18508   5.019   5.722   4.021
 5870SOL    HW118509   5.078   5.701   3.944
 5870SOL    HW218510   5.003   5.821   4.025
 5871SOL     OW18511   2.799   3.577   0.189
 5871SOL    HW118512   2.711   3.559   0.233
 5871SOL    HW218513   2.844   3.490   0.168
 5872SOL     OW18514   4.034   5.426   4.036
 5872SOL    HW118515   3.987   5.401   3.952
 5872SOL    HW218516   4.132   5.414   4.024
 5873SOL     OW18517   1.724   3.023   0.109
 5873SOL    HW118518   1.660   3.096   0.134
 5873SOL    HW218519   1.774   3.049   0.026
 5874SOL     OW18520   1.241   4.423   6.388
 5874SOL    HW118521   1.179   4.353   6.353
 5874SOL    HW218522   1.205   4.460   6.473
 5875SOL     OW18523   3.463   2.399   0.873
 5875SOL    HW118524   3.481   2.393   0.774
 5875SOL    HW218525   3.537   2.448   0.917
 5876SOL     OW18526   4.178   4.121   6.413
 5876SOL    HW118527   4.204   4.157   6.323
 5876SOL    HW218528   4.101   4.175   6.449
 5877SOL     OW18529   6.047   0.156   2.298
 5877SOL    HW118530   5.982   0.166   2.373
 5877SOL    HW218531   6.023   0.076   2.243
 5878SOL     OW18532   4.925   4.100   2.362
 5878SOL    HW118533   4.988   4.035   2.319
 5878SOL    HW218534   4.876   4.151   2.291
 5879SOL     OW18535   3.053   4.301   5.316
 5879SOL    HW118536   2.987   4.355   5.263
 5879SOL    HW218537   3.006   4.254   5.391
 5880SOL     OW18538   5.599   2.309   0.108
 5880SOL    HW118539   5.632   2.255   0.030
 5880SOL    HW218540   5.503   2.288   0.125
 5881SOL     OW18541   1.563   6.170   2.712
 5881SOL    HW118542   1.660   6.143   2.716
 5881SOL    HW218543   1.506   6.091   2.733
 5882SOL     OW18544   1.630   4.962   5.657
 5882SOL    HW118545   1.573   4.915   5.725
 5882SOL    HW218546   1.722   4.973   5.693
 5883SOL     OW18547   6.824   5.354   0.079
 5883SOL    HW118548   6.812   5.358   0.178
 5883SOL    HW218549   6.891   5.284   0.057
 5884SOL     OW18550   6.330   1.110   2.382
 5884SOL    HW118551   6.260   1.122   2.452
 5884SOL    HW218552   6.309   1.029   2.327
 5885SOL     OW18553   0.236   5.368   1.415
 5885SOL    HW118554   0.272   5.347   1.324
 5885SOL    HW218555   0.197   5.285   1.455
 5886SOL     OW18556   2.090   4.635   3.574
 5886SOL    HW118557   2.077   4.676   3.483
 5886SOL    HW218558   2.187   4.636   3.597
 5887SOL     OW18559   3.092   3.333   0.317
 5887SOL    HW118560   3.084   3.298   0.410
 5887SOL    HW218561   3.138   3.265   0.259
 5888SOL     OW18562   2.287   6.159   1.653
 5888SOL    HW118563   2.338   6.132   1.735
 5888SOL    HW218564   2.226   6.235   1.676
 5889SOL     OW18565   5.437   1.730   2.530
 5889SOL    HW118566   5.384   1.789   2.470
 5889SOL    HW218567   5.375   1.687   2.597
 5890SOL     OW18568   2.633   4.983   3.489
 5890SOL    HW118569   2.660   4.888   3.476
 5890SOL    HW218570   2.700   5.029   3.548
 5891SOL     OW18571   2.636   3.210   6.643
 5891SOL    HW118572   2.584   3.148   6.702
 5891SOL    HW218573   2.573   3.273   6.597
 5892SOL     OW18574   1.174   2.849   0.503
 5892SOL    HW118575   1.225   2.919   0.453
 5892SOL    HW218576   1.141   2.780   0.438
 5893SOL     OW18577   0.699   6.286   1.768
 5893SOL    HW118578   0.710   6.244   1.678
 5893SOL    HW218579   0.729   6.222   1.838
 5894SOL     OW18580   2.232   5.650   6.864
 5894SOL    HW118581   2.228   5.651   6.964
 5894SOL    HW218582   2.154   5.599   6.828
 5895SOL     OW18583   5.836   3.950   3.845
 5895SOL    HW118584   5.886   3.904   3.919
 5895SOL    HW218585   5.893   4.023   3.807
 5896SOL     OW18586   5.379   2.591   2.199
 5896SOL    HW118587   5.333   2.565   2.115
 5896SOL    HW218588   5.419   2.682   2.188
 5897SOL     OW18589   3.274   2.178   0.252
 5897SOL    HW118590   3.269   2.136   0.161
 5897SOL    HW218591   3.225   2.265   0.251
 5898SOL     OW18592   2.511   0.513   6.653
 5898SOL    HW118593   2.559   0.571   6.719
 5898SOL    HW218594   2.419   0.549   6.639
 5899SOL     OW18595   6.829   6.614   0.262
 5899SOL    HW118596   6.845   6.712   0.269
 5899SOL    HW218597   6.916   6.566   0.266
 5900SOL     OW18598   5.892   6.700   2.218
 5900SOL    HW118599   5.929   6.792   2.217
 5900SOL    HW218600   5.878   6.671   2.312
 5901SOL     OW18601   2.287   0.391   5.151
 5901SOL    HW118602   2.351   0.448   5.202
 5901SOL    HW218603   2.289   0.298   5.189
 5902SOL     OW18604   4.064   4.260   5.689
 5902SOL    HW118605   3.988   4.297   5.636
 5902SOL    HW218606   4.140   4.237   5.628
 5903SOL     OW18607   6.567   1.937   4.965
 5903SOL    HW118608   6.588   2.035   4.972
 5903SOL    HW218609   6.560   1.911   4.868
 5904SOL     OW18610   0.025   5.040   1.374
 5904SOL    HW118611   0.049   5.074   1.465
 5904SOL    HW218612   6.967   4.976   1.383
 5905SOL     OW18613   6.256   2.663   4.798
 5905SOL    HW118614   6.202   2.659   4.882
 5905SOL    HW218615   6.230   2.587   4.738
 5906SOL     OW18616   4.610   1.047   6.040
 5906SOL    HW118617   4.551   1.113   5.992
 5906SOL    HW218618   4.603   0.958   5.995
 5907SOL     OW18619   1.567   3.520   5.815
 5907SOL    HW118620   1.637   3.586   5.841
 5907SOL    HW218621   1.604   3.428   5.822
 5908SOL     OW18622   4.284   4.017   6.778
 5908SOL    HW118623   4.187   4.034   6.794
 5908SOL    HW218624   4.294   3.943   6.712
 5909SOL     OW18625   5.957   4.855   3.850
 5909SOL    HW118626   5.983   4.875   3.945
 5909SOL    HW218627   5.866   4.891   3.832
 5910SOL     OW18628   3.257   4.663   1.164
 5910SOL    HW118629   3.194   4.630   1.093
 5910SOL    HW218630   3.315   4.735   1.126
 5911SOL     OW18631   6.455   0.265   6.270
 5911SOL    HW118632   6.426   0.284   6.363
 5911SOL    HW218633   6.543   0.308   6.253
 5912SOL     OW18634   0.473   3.397   5.934
 5912SOL    HW118635   0.522   3.484   5.943
 5912SOL    HW218636   0.510   3.346   5.857
 5913SOL     OW18637   1.986   2.535   4.365
 5913SOL    HW118638   1.939   2.527   4.277
 5913SOL    HW218639   1.972   2.627   4.401
 5914SOL     OW18640   1.461   5.865   0.948
 5914SOL    HW118641   1.552   5.906   0.946
 5914SOL    HW218642   1.403   5.915   1.012
 5915SOL     OW18643   5.868   3.391   4.131
 5915SOL    HW118644   5.957   3.416   4.094
 5915SOL    HW218645   5.802   3.464   4.111
 5916SOL     OW18646   3.174   0.409   6.520
 5916SOL    HW118647   3.171   0.498   6.566
 5916SOL    HW218648   3.259   0.362   6.543
 5917SOL     OW18649   3.853   3.934   2.370
 5917SOL    HW118650   3.935   3.878   2.380
 5917SOL    HW218651   3.772   3.877   2.382
 5918SOL     OW18652   2.253   1.836   4.065
 5918SOL    HW118653   2.201   1.835   4.150
 5918SOL    HW218654   2.295   1.747   4.050
 5919SOL     OW18655   1.716   1.599   6.960
 5919SOL    HW118656   1.684   1.621   0.034
 5919SOL    HW218657   1.744   1.503   6.957
 5920SOL     OW18658   2.811   5.033   6.869
 5920SOL    HW118659   2.794   5.125   6.905
 5920SOL    HW218660   2.726   4.980   6.870
 5921SOL     OW18661   3.898   5.257   5.291
 5921SOL    HW118662   3.946   5.180   5.332
 5921SOL    HW218663   3.801   5.253   5.316
 5922SOL     OW18664   6.336   4.829   1.628
 5922SOL    HW118665   6.267   4.836   1.700
 5922SOL    HW218666   6.291   4.834   1.538
 5923SOL     OW18667   0.719   0.674   3.232
 5923SOL    HW118668   0.751   0.616   3.307
 5923SOL    HW218669   0.631   0.714   3.256
 5924SOL     OW18670   5.887   1.641   4.414
 5924SOL    HW118671   5.888   1.729   4.461
 5924SOL    HW218672   5.981   1.610   4.400
 5925SOL     OW18673   6.373   5.909   0.299
 5925SOL    HW118674   6.357   5.998   0.343
 5925SOL    HW218675   6.318   5.903   0.216
 5926SOL     OW18676   3.681   5.782   1.625
 5926SOL    HW118677   3.718   5.700   1.669
 5926SOL    HW218678   3.736   5.805   1.545
 5927SOL     OW18679   2.343   5.230   1.719
 5927SOL    HW118680   2.266   5.167   1.708
 5927SOL    HW218681   2.346   5.261   1.814
 5928SOL     OW18682   0.598   6.135   1.002
 5928SOL    HW118683   0.559   6.169   0.917
 5928SOL    HW218684   0.661   6.060   0.983
 5929SOL     OW18685   0.428   6.698   5.595
 5929SOL    HW118686   0.526   6.688   5.582
 5929SOL    HW218687   0.401   6.793   5.575
 5930SOL     OW18688   6.244   1.191   5.203
 5930SOL    HW118689   6.148   1.193   5.175
 5930SOL    HW218690   6.256   1.122   5.274
 5931SOL     OW18691   6.016   4.946   0.579
 5931SOL    HW118692   6.036   4.939   0.676
 5931SOL    HW218693   5.943   5.014   0.565
 5932SOL     OW18694   2.104   0.255   0.180
 5932SOL    HW118695   2.151   0.205   0.107
 5932SOL    HW218696   2.038   0.195   0.225
 5933SOL     OW18697   6.420   3.408   3.083
 5933SOL    HW118698   6.341   3.465   3.058
 5933SOL    HW218699   6.487   3.410   3.009
 5934SOL     OW18700   4.082   3.767   2.341
 5934SOL    HW118701   4.150   3.734   2.406
 5934SOL    HW218702   4.118   3.757   2.248
 5935SOL     OW18703   4.117   3.299   2.941
 5935SOL    HW118704   4.025   3.259   2.948
 5935SOL    HW218705   4.111   3.398   2.952
 5936SOL     OW18706   6.656   6.228   6.676
 5936SOL    HW118707   6.718   6.231   6.597
 5936SOL    HW218708   6.707   6.207   6.758
 5937SOL     OW18709   1.256   4.182   0.066
 5937SOL    HW118710   1.215   4.095   0.040
 5937SOL    HW218711   1.215   4.214   0.152
 5938SOL     OW18712   2.268   4.537   0.591
 5938SOL    HW118713   2.206   4.580   0.526
 5938SOL    HW218714   2.237   4.443   0.609
 5939SOL     OW18715   1.726   1.223   2.022
 5939SOL    HW118716   1.772   1.307   2.052
 5939SOL    HW218717   1.680   1.181   2.101
 5940SOL     OW18718   3.897   5.003   3.635
 5940SOL    HW118719   3.819   4.961   3.681
 5940SOL    HW218720   3.866   5.082   3.582
 5941SOL     OW18721   6.572   2.839   3.184
 5941SOL    HW118722   6.600   2.815   3.091
 5941SOL    HW218723   6.635   2.907   3.221
 5942SOL     OW18724   0.051   1.415   4.618
 5942SOL    HW118725   6.995   1.467   4.575
 5942SOL    HW218726   0.015   1.326   4.649
 5943SOL     OW18727   1.379   5.033   0.695
 5943SOL    HW118728   1.471   5.049   0.731
 5943SOL    HW218729   1.386   4.985   0.608
 5944SOL     OW18730   5.037   2.407   2.940
 5944SOL    HW118731   5.049   2.493   2.890
 5944SOL    HW218732   5.092   2.409   3.023
 5945SOL     OW18733   6.718   5.455   6.166
 5945SOL    HW118734   6.699   5.401   6.084
 5945SOL    HW218735   6.701   5.551   6.147
 5946SOL     OW18736   3.642   2.672   5.507
 5946SOL    HW118737   3.639   2.768   5.481
 5946SOL    HW218738   3.558   2.626   5.476
 5947SOL     OW18739   4.833   3.948   1.914
 5947SOL    HW118740   4.877   3.914   1.831
 5947SOL    HW218741   4.824   4.047   1.910
 5948SOL     OW18742   3.043   5.244   3.163
 5948SOL    HW118743   3.039   5.145   3.170
 5948SOL    HW218744   2.989   5.285   3.236
 5949SOL     OW18745   4.398   4.661   3.143
 5949SOL    HW118746   4.363   4.739   3.092
 5949SOL    HW218747   4.327   4.626   3.204
 5950SOL     OW18748   6.169   2.653   4.495
 5950SOL    HW118749   6.154   2.578   4.559
 5950SOL    HW218750   6.222   2.619   4.417
 5951SOL     OW18751   2.132   0.370   4.372
 5951SOL    HW118752   2.078   0.356   4.456
 5951SOL    HW218753   2.079   0.425   4.308
 5952SOL     OW18754   0.552   5.937   5.071
 5952SOL    HW118755   0.485   5.964   5.001
 5952SOL    HW218756   0.504   5.923   5.158
 5953SOL     OW18757   1.207   2.941   6.036
 5953SOL    HW118758   1.218   2.999   5.955
 5953SOL    HW218759   1.295   2.927   6.079
 5954SOL     OW18760   1.306   4.888   6.481
 5954SOL    HW118761   1.302   4.981   6.519
 5954SOL    HW218762   1.260   4.887   6.392
 5955SOL     OW18763   4.921   5.057   2.799
 5955SOL    HW118764   4.884   5.041   2.708
 5955SOL    HW218765   4.931   4.969   2.846
 5956SOL     OW18766   0.385   2.072   0.068
 5956SOL    HW118767   0.293   2.088   0.032
 5956SOL    HW218768   0.384   2.080   0.167
 5957SOL     OW18769   4.363   6.542   5.460
 5957SOL    HW118770   4.306   6.466   5.491
 5957SOL    HW218771   4.336   6.625   5.509
 5958SOL     OW18772   1.034   5.460   2.453
 5958SOL    HW118773   1.066   5.514   2.375
 5958SOL    HW218774   1.101   5.465   2.527
 5959SOL     OW18775   1.340   0.825   6.667
 5959SOL    HW118776   1.287   0.749   6.706
 5959SOL    HW218777   1.424   0.788   6.626
 5960SOL     OW18778   3.525   6.677   5.579
 5960SOL    HW118779   3.571   6.639   5.499
 5960SOL    HW218780   3.527   6.777   5.574
 5961SOL     OW18781   2.499   0.973   5.395
 5961SOL    HW118782   2.588   0.939   5.424
 5961SOL    HW218783   2.462   0.915   5.322
 5962SOL     OW18784   5.321   3.785   2.291
 5962SOL    HW118785   5.335   3.718   2.364
 5962SOL    HW218786   5.324   3.739   2.203
 5963SOL     OW18787   4.158   4.013   1.806
 5963SOL    HW118788   4.137   4.099   1.760
 5963SOL    HW218789   4.240   4.025   1.862
 5964SOL     OW18790   1.676   3.764   5.577
 5964SOL    HW118791   1.680   3.666   5.555
 5964SOL    HW218792   1.590   3.802   5.541
 5965SOL     OW18793   2.048   1.790   3.764
 5965SOL    HW118794   2.098   1.861   3.715
 5965SOL    HW218795   2.099   1.704   3.760
 5966SOL     OW18796   2.163   5.728   4.119
 5966SOL    HW118797   2.068   5.713   4.149
 5966SOL    HW218798   2.220   5.652   4.148
 5967SOL     OW18799   4.548   5.867   2.502
 5967SOL    HW118800   4.615   5.904   2.565
 5967SOL    HW218801   4.527   5.935   2.431
 5968SOL     OW18802   0.311   1.611   3.660
 5968SOL    HW118803   0.360   1.594   3.574
 5968SOL    HW218804   0.320   1.532   3.720
 5969SOL     OW18805   5.881   2.671   2.971
 5969SOL    HW118806   5.951   2.742   2.983
 5969SOL    HW218807   5.885   2.636   2.877
 5970SOL     OW18808   1.903   3.481   3.458
 5970SOL    HW118809   1.947   3.571   3.462
 5970SOL    HW218810   1.804   3.493   3.457
 5971SOL     OW18811   2.801   6.538   3.151
 5971SOL    HW118812   2.723   6.556   3.211
 5971SOL    HW218813   2.885   6.561   3.199
 5972SOL     OW18814   5.321   0.165   1.918
 5972SOL    HW118815   5.300   0.261   1.900
 5972SOL    HW218816   5.270   0.108   1.854
 5973SOL     OW18817   1.610   4.422   3.124
 5973SOL    HW118818   1.644   4.391   3.213
 5973SOL    HW218819   1.525   4.473   3.138
 5974SOL     OW18820   1.160   3.788   6.145
 5974SOL    HW118821   1.251   3.821   6.123
 5974SOL    HW218822   1.161   3.688   6.148
 5975SOL     OW18823   2.286   2.511   6.458
 5975SOL    HW118824   2.360   2.554   6.406
 5975SOL    HW218825   2.297   2.532   6.555
 5976SOL     OW18826   3.542   2.946   4.631
 5976SOL    HW118827   3.547   2.916   4.726
 5976SOL    HW218828   3.487   3.029   4.625
 5977SOL     OW18829   0.460   3.553   3.360
 5977SOL    HW118830   0.361   3.543   3.345
 5977SOL    HW218831   0.508   3.543   3.272
 5978SOL     OW18832   4.865   5.471   2.103
 5978SOL    HW118833   4.948   5.524   2.090
 5978SOL    HW218834   4.888   5.374   2.108
 5979SOL     OW18835   0.837   1.188   1.501
 5979SOL    HW118836   0.870   1.200   1.407
 5979SOL    HW218837   0.872   1.263   1.558
 5980SOL     OW18838   6.159   2.892   6.003
 5980SOL    HW118839   6.219   2.839   6.063
 5980SOL    HW218840   6.213   2.937   5.933
 5981SOL     OW18841   4.025   2.238   0.760
 5981SOL    HW118842   4.084   2.166   0.722
 5981SOL    HW218843   3.937   2.200   0.786
 5982SOL     OW18844   6.112   2.132   0.134
 5982SOL    HW118845   6.081   2.216   0.089
 5982SOL    HW218846   6.087   2.053   0.077
 5983SOL     OW18847   1.114   0.491   4.740
 5983SOL    HW118848   1.040   0.557   4.735
 5983SOL    HW218849   1.086   0.405   4.698
 5984SOL     OW18850   0.487   6.874   5.886
 5984SOL    HW118851   0.428   6.948   5.919
 5984SOL    HW218852   0.561   6.913   5.832
 5985SOL     OW18853   5.414   3.291   4.315
 5985SOL    HW118854   5.412   3.196   4.346
 5985SOL    HW218855   5.484   3.301   4.243
 5986SOL     OW18856   3.024   3.080   2.941
 5986SOL    HW118857   3.009   3.158   3.002
 5986SOL    HW218858   3.083   3.013   2.987
 5987SOL     OW18859   4.962   0.301   5.672
 5987SOL    HW118860   4.898   0.260   5.607
 5987SOL    HW218861   4.922   0.298   5.764
 5988SOL     OW18862   3.658   0.357   5.681
 5988SOL    HW118863   3.628   0.412   5.603
 5988SOL    HW218864   3.663   0.414   5.763
 5989SOL     OW18865   2.798   1.867   6.854
 5989SOL    HW118866   2.753   1.954   6.831
 5989SOL    HW218867   2.889   1.865   6.812
 5990SOL     OW18868   3.628   5.116   2.592
 5990SOL    HW118869   3.719   5.140   2.559
 5990SOL    HW218870   3.609   5.020   2.570
 5991SOL     OW18871   2.907   5.078   3.504
 5991SOL    HW118872   2.898   5.171   3.469
 5991SOL    HW218873   2.943   5.081   3.597
 5992SOL     OW18874   4.169   2.161   4.032
 5992SOL    HW118875   4.208   2.212   3.956
 5992SOL    HW218876   4.242   2.114   4.081
 5993SOL     OW18877   2.982   5.661   3.809
 5993SOL    HW118878   2.932   5.706   3.736
 5993SOL    HW218879   2.919   5.608   3.865
 5994SOL     OW18880   6.243   2.042   1.520
 5994SOL    HW118881   6.166   2.066   1.579
 5994SOL    HW218882   6.318   2.107   1.533
 5995SOL     OW18883   1.122   4.689   1.152
 5995SOL    HW118884   1.057   4.673   1.078
 5995SOL    HW218885   1.073   4.723   1.233
 5996SOL     OW18886   0.836   6.012   5.552
 5996SOL    HW118887   0.927   6.026   5.512
 5996SOL    HW218888   0.843   6.010   5.652
 5997SOL     OW18889   0.597   0.580   1.409
 5997SOL    HW118890   0.605   0.680   1.406
 5997SOL    HW218891   0.642   0.540   1.330
 5998SOL     OW18892   4.315   2.298   3.466
 5998SOL    HW118893   4.338   2.392   3.490
 5998SOL    HW218894   4.374   2.235   3.517
 5999SOL     OW18895   2.616   2.466   3.299
 5999SOL    HW118896   2.689   2.418   3.347
 5999SOL    HW218897   2.583   2.542   3.355
 6000SOL     OW18898   4.879   0.581   3.382
 6000SOL    HW118899   4.904   0.484   3.375
 6000SOL    HW218900   4.886   0.610   3.477
 6001SOL     OW18901   6.563   2.017   0.345
 6001SOL    HW118902   6.478   1.968   0.363
 6001SOL    HW218903   6.544   2.115   0.340
 6002SOL     OW18904   1.693   0.236   2.089
 6002SOL    HW118905   1.610   0.291   2.093
 6002SOL    HW218906   1.756   0.264   2.161
 6003SOL     OW18907   5.588   4.527   3.615
 6003SOL    HW118908   5.545   4.562   3.699
 6003SOL    HW218909   5.595   4.427   3.621
 6004SOL     OW18910   0.011   3.403   2.072
 6004SOL    HW118911   0.095   3.438   2.029
 6004SOL    HW218912   6.956   3.401   2.004
 6005SOL     OW18913   1.930   5.986   2.335
 6005SOL    HW118914   2.027   6.001   2.322
 6005SOL    HW218915   1.908   5.991   2.432
 6006SOL     OW18916   2.297   5.802   0.474
 6006SOL    HW118917   2.378   5.860   0.474
 6006SOL    HW218918   2.218   5.855   0.501
 6007SOL     OW18919   5.023   3.311   4.823
 6007SOL    HW118920   4.997   3.347   4.734
 6007SOL    HW218921   5.045   3.386   4.885
 6008SOL     OW18922   4.609   4.037   1.217
 6008SOL    HW118923   4.592   3.995   1.306
 6008SOL    HW218924   4.670   3.978   1.164
 6009SOL     OW18925   4.408   1.762   4.967
 6009SOL    HW118926   4.482   1.767   5.034
 6009SOL    HW218927   4.321   1.749   5.014
 6010SOL     OW18928   1.294   4.067   3.187
 6010SOL    HW118929   1.241   4.120   3.121
 6010SOL    HW218930   1.360   4.128   3.232
 6011SOL     OW18931   6.739   2.462   1.968
 6011SOL    HW118932   6.677   2.398   1.923
 6011SOL    HW218933   6.785   2.519   1.899
 6012SOL     OW18934   0.422   3.042   1.843
 6012SOL    HW118935   0.387   2.958   1.886
 6012SOL    HW218936   0.493   3.017   1.777
 6013SOL     OW18937   5.612   0.805   2.427
 6013SOL    HW118938   5.569   0.842   2.509
 6013SOL    HW218939   5.698   0.854   2.410
 6014SOL     OW18940   6.178   0.364   1.249
 6014SOL    HW118941   6.101   0.413   1.291
 6014SOL    HW218942   6.221   0.422   1.180
 6015SOL     OW18943   5.658   0.476   4.196
 6015SOL    HW118944   5.758   0.478   4.193
 6015SOL    HW218945   5.625   0.390   4.157
 6016SOL     OW18946   2.139   0.021   5.276
 6016SOL    HW118947   2.068   0.086   5.248
 6016SOL    HW218948   2.128   6.954   5.225
 6017SOL     OW18949   7.012   3.767   2.566
 6017SOL    HW118950   6.970   3.850   2.604
 6017SOL    HW218951   0.065   3.734   2.628
 6018SOL     OW18952   2.780   5.200   1.716
 6018SOL    HW118953   2.694   5.177   1.671
 6018SOL    HW218954   2.835   5.257   1.655
 6019SOL     OW18955   5.923   6.097   3.370
 6019SOL    HW118956   5.995   6.145   3.419
 6019SOL    HW218957   5.839   6.151   3.375
 6020SOL     OW18958   2.596   6.844   2.794
 6020SOL    HW118959   2.603   6.936   2.833
 6020SOL    HW218960   2.500   6.826   2.770
 6021SOL     OW18961   4.011   0.419   3.888
 6021SOL    HW118962   4.041   0.326   3.907
 6021SOL    HW218963   4.019   0.475   3.970
 6022SOL     OW18964   4.667   0.767   5.256
 6022SOL    HW118965   4.705   0.764   5.163
 6022SOL    HW218966   4.573   0.734   5.255
 6023SOL     OW18967   0.196   2.106   2.493
 6023SOL    HW118968   0.252   2.124   2.574
 6023SOL    HW218969   0.139   2.025   2.509
 6024SOL     OW18970   6.929   5.999   2.752
 6024SOL    HW118971   6.851   5.957   2.798
 6024SOL    HW218972   6.957   5.941   2.675
 6025SOL     OW18973   4.060   2.183   2.489
 6025SOL    HW118974   3.969   2.176   2.449
 6025SOL    HW218975   4.098   2.274   2.470
 6026SOL     OW18976   0.523   4.632   5.794
 6026SOL    HW118977   0.556   4.540   5.776
 6026SOL    HW218978   0.477   4.669   5.713
 6027SOL     OW18979   3.880   3.241   0.218
 6027SOL    HW118980   3.927   3.280   0.139
 6027SOL    HW218981   3.786   3.275   0.221
 6028SOL     OW18982   0.900   4.062   0.280
 6028SOL    HW118983   0.885   4.156   0.311
 6028SOL    HW218984   0.880   3.998   0.354
 6029SOL     OW18985   0.802   4.773   1.385
 6029SOL    HW118986   0.719   4.726   1.415
 6029SOL    HW218987   0.881   4.714   1.401
 6030SOL     OW18988   1.730   6.582   1.651
 6030SOL    HW118989   1.639   6.543   1.641
 6030SOL    HW218990   1.722   6.678   1.678
 6031SOL     OW18991   5.076   0.678   4.385
 6031SOL    HW118992   4.980   0.657   4.400
 6031SOL    HW218993   5.090   0.707   4.290
 6032SOL     OW18994   0.507   3.491   2.251
 6032SOL    HW118995   0.418   3.516   2.290
 6032SOL    HW218996   0.496   3.412   2.192
 6033SOL     OW18997   0.633   6.628   4.623
 6033SOL    HW118998   0.569   6.688   4.671
 6033SOL    HW218999   0.725   6.668   4.628
 6034SOL     OW19000   2.371   4.452   5.004
 6034SOL    HW119001   2.320   4.409   5.078
 6034SOL    HW219002   2.393   4.383   4.935
 6035SOL     OW19003   5.362   6.935   3.869
 6035SOL    HW119004   5.346   6.868   3.796
 6035SOL    HW219005   5.275   6.976   3.897
 6036SOL     OW19006   6.967   0.745   4.452
 6036SOL    HW119007   6.880   0.754   4.403
 6036SOL    HW219008   0.022   0.725   4.388
 6037SOL     OW19009   0.377   5.559   4.807
 6037SOL    HW119010   0.461   5.611   4.795
 6037SOL    HW219011   0.298   5.618   4.793
 6038SOL     OW19012   6.175   3.736   6.759
 6038SOL    HW119013   6.119   3.653   6.761
 6038SOL    HW219014   6.117   3.815   6.781
 6039SOL     OW19015   3.954   3.199   4.648
 6039SOL    HW119016   3.978   3.257   4.570
 6039SOL    HW219017   3.885   3.133   4.620
 6040SOL     OW19018   1.585   0.876   1.371
 6040SOL    HW119019   1.668   0.868   1.427
 6040SOL    HW219020   1.514   0.818   1.409
 6041SOL     OW19021   0.618   2.688   0.525
 6041SOL    HW119022   0.536   2.740   0.551
 6041SOL    HW219023   0.678   2.746   0.471
 6042SOL     OW19024   5.580   5.649   4.955
 6042SOL    HW119025   5.499   5.704   4.973
 6042SOL    HW219026   5.556   5.570   4.899
 6043SOL     OW19027   0.252   4.650   4.356
 6043SOL    HW119028   0.325   4.657   4.424
 6043SOL    HW219029   0.217   4.557   4.353
 6044SOL     OW19030   1.745   0.516   1.483
 6044SOL    HW119031   1.763   0.558   1.395
 6044SOL    HW219032   1.734   0.586   1.553
 6045SOL     OW19033   6.553   4.123   0.734
 6045SOL    HW119034   6.652   4.110   0.748
 6045SOL    HW219035   6.504   4.089   0.814
 6046SOL     OW19036   2.031   3.342   0.455
 6046SOL    HW119037   2.013   3.366   0.360
 6046SOL    HW219038   2.129   3.348   0.473
 6047SOL     OW19039   0.424   6.383   4.631
 6047SOL    HW119040   0.477   6.341   4.704
 6047SOL    HW219041   0.418   6.482   4.646
 6048SOL     OW19042   4.779   6.244   4.588
 6048SOL    HW119043   4.870   6.273   4.620
 6048SOL    HW219044   4.735   6.321   4.541
 6049SOL     OW19045   6.691   5.572   6.992
 6049SOL    HW119046   6.632   5.621   0.038
 6049SOL    HW219047   6.724   5.488   0.016
 6050SOL     OW19048   5.583   4.642   5.783
 6050SOL    HW119049   5.578   4.733   5.740
 6050SOL    HW219050   5.662   4.592   5.747
 6051SOL     OW19051   2.744   1.698   3.274
 6051SOL    HW119052   2.833   1.670   3.310
 6051SOL    HW219053   2.700   1.759   3.340
 6052SOL     OW19054   6.863   1.368   0.414
 6052SOL    HW119055   6.828   1.453   0.453
 6052SOL    HW219056   6.927   1.390   0.340
 6053SOL     OW19057   1.814   0.141   6.140
 6053SOL    HW119058   1.907   0.146   6.177
 6053SOL    HW219059   1.754   0.097   6.207
 6054SOL     OW19060   1.668   4.158   6.227
 6054SOL    HW119061   1.740   4.197   6.170
 6054SOL    HW219062   1.580   4.170   6.182
 6055SOL     OW19063   5.342   0.362   3.607
 6055SOL    HW119064   5.426   0.416   3.615
 6055SOL    HW219065   5.272   0.418   3.562
 6056SOL     OW19066   5.212   3.515   6.230
 6056SOL    HW119067   5.198   3.497   6.133
 6056SOL    HW219068   5.280   3.587   6.241
 6057SOL     OW19069   3.470   0.819   6.365
 6057SOL    HW119070   3.398   0.848   6.428
 6057SOL    HW219071   3.549   0.879   6.376
 6058SOL     OW19072   5.289   1.962   5.247
 6058SOL    HW119073   5.234   1.899   5.302
 6058SOL    HW219074   5.230   2.031   5.205
 6059SOL     OW19075   6.519   6.118   6.320
 6059SOL    HW119076   6.571   6.192   6.363
 6059SOL    HW219077   6.522   6.129   6.221
 6060SOL     OW19078   3.390   6.339   6.537
 6060SOL    HW119079   3.470   6.295   6.495
 6060SOL    HW219080   3.419   6.419   6.589
 6061SOL     OW19081   2.013   1.712   0.211
 6061SOL    HW119082   1.992   1.707   0.113
 6061SOL    HW219083   2.100   1.759   0.224
 6062SOL     OW19084   1.041   0.209   3.959
 6062SOL    HW119085   1.100   0.281   3.995
 6062SOL    HW219086   0.971   0.187   4.028
 6063SOL     OW19087   5.269   5.924   0.139
 6063SOL    HW119088   5.326   6.006   0.142
 6063SOL    HW219089   5.255   5.890   0.232
 6064SOL     OW19090   0.829   5.297   2.718
 6064SOL    HW119091   0.779   5.377   2.685
 6064SOL    HW219092   0.847   5.235   2.641
 6065SOL     OW19093   5.745   6.748   1.710
 6065SOL    HW119094   5.802   6.708   1.782
 6065SOL    HW219095   5.669   6.686   1.689
 6066SOL     OW19096   4.596   2.096   6.525
 6066SOL    HW119097   4.673   2.161   6.523
 6066SOL    HW219098   4.515   2.143   6.559
 6067SOL     OW19099   5.297   2.490   6.722
 6067SOL    HW119100   5.246   2.508   6.806
 6067SOL    HW219101   5.254   2.413   6.673
 6068SOL     OW19102   5.670   1.735   5.622
 6068SOL    HW119103   5.660   1.738   5.721
 6068SOL    HW219104   5.581   1.749   5.579
 6069SOL     OW19105   5.974   4.421   4.446
 6069SOL    HW119106   6.072   4.430   4.428
 6069SOL    HW219107   5.922   4.480   4.385
 6070SOL     OW19108   4.613   2.915   6.840
 6070SOL    HW119109   4.625   3.009   6.810
 6070SOL    HW219110   4.692   2.861   6.812
 6071SOL     OW19111   5.192   0.020   5.416
 6071SOL    HW119112   5.133   6.959   5.406
 6071SOL    HW219113   5.287   7.012   5.401
 6072SOL     OW19114   6.712   1.579   0.532
 6072SOL    HW119115   6.651   1.541   0.602
 6072SOL    HW219116   6.675   1.666   0.499
 6073SOL     OW19117   6.758   1.640   0.983
 6073SOL    HW119118   6.691   1.656   0.911
 6073SOL    HW219119   6.766   1.541   0.999
 6074SOL     OW19120   0.375   0.358   5.100
 6074SOL    HW119121   0.446   0.288   5.102
 6074SOL    HW219122   0.371   0.403   5.189
 6075SOL     OW19123   4.574   4.091   6.786
 6075SOL    HW119124   4.654   4.034   6.807
 6075SOL    HW219125   4.496   4.060   6.841
 6076SOL     OW19126   2.729   0.173   4.241
 6076SOL    HW119127   2.698   0.243   4.306
 6076SOL    HW219128   2.709   0.203   4.148
 6077SOL     OW19129   5.157   5.122   2.979
 6077SOL    HW119130   5.115   5.078   2.900
 6077SOL    HW219131   5.109   5.208   2.999
 6078SOL     OW19132   2.019   4.308   3.757
 6078SOL    HW119133   2.117   4.323   3.765
 6078SOL    HW219134   1.972   4.352   3.834
 6079SOL     OW19135   2.850   1.578   0.729
 6079SOL    HW119136   2.916   1.539   0.664
 6079SOL    HW219137   2.787   1.507   0.760
 6080SOL     OW19138   6.115   2.741   3.131
 6080SOL    HW119139   6.207   2.708   3.112
 6080SOL    HW219140   6.075   2.689   3.206
 6081SOL     OW19141   0.604   3.768   2.760
 6081SOL    HW119142   0.559   3.690   2.716
 6081SOL    HW219143   0.678   3.801   2.701
 6082SOL     OW19144   3.400   1.548   4.683
 6082SOL    HW119145   3.379   1.547   4.586
 6082SOL    HW219146   3.396   1.642   4.717
 6083SOL     OW19147   1.864   6.639   0.382
 6083SOL    HW119148   1.926   6.649   0.461
 6083SOL    HW219149   1.832   6.545   0.377
 6084SOL     OW19150   6.952   5.533   5.473
 6084SOL    HW119151   6.918   5.479   5.396
 6084SOL    HW219152   7.015   5.603   5.438
 6085SOL     OW19153   5.303   5.246   1.566
 6085SOL    HW119154   5.375   5.180   1.588
 6085SOL    HW219155   5.217   5.217   1.606
 6086SOL     OW19156   3.111   1.616   2.689
 6086SOL    HW119157   3.121   1.681   2.614
 6086SOL    HW219158   3.020   1.574   2.685
 6087SOL     OW19159   3.558   0.528   0.919
 6087SOL    HW119160   3.649   0.490   0.907
 6087SOL    HW219161   3.555   0.621   0.882
 6088SOL     OW19162   0.108   0.202   5.312
 6088SOL    HW119163   0.199   0.244   5.319
 6088SOL    HW219164   0.104   0.145   5.230
 6089SOL     OW19165   6.559   3.763   0.719
 6089SOL    HW119166   6.615   3.720   0.648
 6089SOL    HW219167   6.467   3.780   0.683
 6090SOL     OW19168   0.311   5.643   4.126
 6090SOL    HW119169   0.299   5.554   4.082
 6090SOL    HW219170   0.399   5.646   4.173
 6091SOL     OW19171   6.441   2.222   1.589
 6091SOL    HW119172   6.434   2.309   1.540
 6091SOL    HW219173   6.535   2.208   1.619
 6092SOL     OW19174   0.831   3.142   1.232
 6092SOL    HW119175   0.869   3.233   1.244
 6092SOL    HW219176   0.872   3.098   1.152
 6093SOL     OW19177   1.176   3.948   0.581
 6093SOL    HW119178   1.197   4.001   0.499
 6093SOL    HW219179   1.147   3.856   0.554
 6094SOL     OW19180   0.483   1.200   0.301
 6094SOL    HW119181   0.395   1.235   0.334
 6094SOL    HW219182   0.502   1.237   0.210
 6095SOL     OW19183   0.012   4.239   4.977
 6095SOL    HW119184   0.033   4.162   4.918
 6095SOL    HW219185   6.934   4.265   4.965
 6096SOL     OW19186   4.837   1.976   2.953
 6096SOL    HW119187   4.750   2.022   2.972
 6096SOL    HW219188   4.831   1.928   2.866
 6097SOL     OW19189   3.307   2.110   2.203
 6097SOL    HW119190   3.226   2.165   2.224
 6097SOL    HW219191   3.307   2.088   2.105
 6098SOL     OW19192   1.147   0.326   6.408
 6098SOL    HW119193   1.192   0.305   6.321
 6098SOL    HW219194   1.212   0.369   6.470
 6099SOL     OW19195   5.859   4.376   5.155
 6099SOL    HW119196   5.869   4.289   5.106
 6099SOL    HW219197   5.903   4.370   5.244
 6100SOL     OW19198   0.060   2.487   6.719
 6100SOL    HW119199   6.982   2.493   6.742
 6100SOL    HW219200   0.102   2.578   6.726
 6101SOL     OW19201   6.305   0.001   3.621
 6101SOL    HW119202   6.306   6.990   3.526
 6101SOL    HW219203   6.346   6.947   3.678
 6102SOL     OW19204   2.815   6.924   5.039
 6102SOL    HW119205   2.894   6.886   5.087
 6102SOL    HW219206   2.812   0.005   5.052
 6103SOL     OW19207   5.458   1.540   5.399
 6103SOL    HW119208   5.464   1.578   5.307
 6103SOL    HW219209   5.441   1.613   5.464
 6104SOL     OW19210   1.328   3.015   1.013
 6104SOL    HW119211   1.289   2.945   0.953
 6104SOL    HW219212   1.270   3.096   1.011
 6105SOL     OW19213   3.207   4.912   5.070
 6105SOL    HW119214   3.265   4.921   4.989
 6105SOL    HW219215   3.112   4.897   5.042
 6106SOL     OW19216   3.106   4.974   4.062
 6106SOL    HW119217   3.045   4.924   4.123
 6106SOL    HW219218   3.200   4.947   4.079
 6107SOL     OW19219   2.115   5.001   5.270
 6107SOL    HW119220   2.137   4.979   5.365
 6107SOL    HW219221   2.117   4.917   5.215
 6108SOL     OW19222   5.507   1.821   4.614
 6108SOL    HW119223   5.425   1.828   4.672
 6108SOL    HW219224   5.582   1.782   4.667
 6109SOL     OW19225   6.722   3.682   1.778
 6109SOL    HW119226   6.754   3.661   1.870
 6109SOL    HW219227   6.624   3.665   1.772
 6110SOL     OW19228   3.342   1.917   3.584
 6110SOL    HW119229   3.278   1.914   3.507
 6110SOL    HW219230   3.428   1.959   3.554
 6111SOL     OW19231   0.602   4.754   3.933
 6111SOL    HW119232   0.547   4.701   3.997
 6111SOL    HW219233   0.688   4.706   3.916
 6112SOL     OW19234   1.320   2.349   0.447
 6112SOL    HW119235   1.361   2.267   0.486
 6112SOL    HW219236   1.314   2.420   0.517
 6113SOL     OW19237   1.657   5.362   5.067
 6113SOL    HW119238   1.724   5.381   5.139
 6113SOL    HW219239   1.703   5.361   4.978
 6114SOL     OW19240   4.850   4.603   0.752
 6114SOL    HW119241   4.944   4.624   0.724
 6114SOL    HW219242   4.787   4.637   0.682
 6115SOL     OW19243   6.280   4.539   1.881
 6115SOL    HW119244   6.378   4.548   1.898
 6115SOL    HW219245   6.248   4.618   1.828
 6116SOL     OW19246   3.198   2.427   0.986
 6116SOL    HW119247   3.295   2.411   0.965
 6116SOL    HW219248   3.168   2.363   1.057
 6117SOL     OW19249   5.635   6.828   4.159
 6117SOL    HW119250   5.545   6.829   4.204
 6117SOL    HW219251   5.641   6.905   4.096
 6118SOL     OW19252   6.556   0.086   3.408
 6118SOL    HW119253   6.612   0.099   3.490
 6118SOL    HW219254   6.462   0.068   3.434
 6119SOL     OW19255   5.353   6.017   4.107
 6119SOL    HW119256   5.416   5.941   4.089
 6119SOL    HW219257   5.356   6.039   4.205
 6120SOL     OW19258   2.429   1.844   3.257
 6120SOL    HW119259   2.441   1.766   3.194
 6120SOL    HW219260   2.346   1.894   3.234
 6121SOL     OW19261   6.836   1.384   4.811
 6121SOL    HW119262   6.743   1.409   4.834
 6121SOL    HW219263   6.897   1.404   4.887
 6122SOL     OW19264   3.825   6.320   4.178
 6122SOL    HW119265   3.736   6.306   4.136
 6122SOL    HW219266   3.815   6.374   4.262
 6123SOL     OW19267   5.658   1.410   2.826
 6123SOL    HW119268   5.749   1.386   2.861
 6123SOL    HW219269   5.592   1.408   2.901
 6124SOL     OW19270   2.955   0.421   4.570
 6124SOL    HW119271   2.969   0.323   4.587
 6124SOL    HW219272   2.866   0.436   4.527
 6125SOL     OW19273   0.991   4.483   2.054
 6125SOL    HW119274   0.973   4.460   1.959
 6125SOL    HW219275   0.909   4.526   2.093
 6126SOL     OW19276   3.842   6.093   2.617
 6126SOL    HW119277   3.804   6.031   2.548
 6126SOL    HW219278   3.851   6.185   2.579
 6127SOL     OW19279   2.038   5.157   2.017
 6127SOL    HW119280   2.128   5.171   2.057
 6127SOL    HW219281   2.000   5.245   1.988
 6128SOL     OW19282   4.980   3.423   1.208
 6128SOL    HW119283   4.985   3.456   1.302
 6128SOL    HW219284   4.887   3.431   1.173
 6129SOL     OW19285   6.575   3.877   3.324
 6129SOL    HW119286   6.607   3.966   3.356
 6129SOL    HW219287   6.621   3.854   3.238
 6130SOL     OW19288   5.213   4.074   2.707
 6130SOL    HW119289   5.122   4.079   2.748
 6130SOL    HW219290   5.206   4.086   2.608
 6131SOL     OW19291   6.335   1.221   4.931
 6131SOL    HW119292   6.333   1.319   4.948
 6131SOL    HW219293   6.306   1.172   5.013
 6132SOL     OW19294   6.461   2.583   0.532
 6132SOL    HW119295   6.536   2.549   0.476
 6132SOL    HW219296   6.470   2.547   0.625
 6133SOL     OW19297   1.623   4.399   0.377
 6133SOL    HW119298   1.639   4.342   0.296
 6133SOL    HW219299   1.709   4.440   0.406
 6134SOL     OW19300   4.914   4.051   0.292
 6134SOL    HW119301   4.851   4.076   0.218
 6134SOL    HW219302   4.862   4.038   0.376
 6135SOL     OW19303   5.847   0.442   2.708
 6135SOL    HW119304   5.862   0.411   2.802
 6135SOL    HW219305   5.920   0.408   2.649
 6136SOL     OW19306   0.998   1.350   2.359
 6136SOL    HW119307   0.904   1.341   2.391
 6136SOL    HW219308   1.009   1.437   2.310
 6137SOL     OW19309   3.219   0.125   6.596
 6137SOL    HW119310   3.130   0.146   6.638
 6137SOL    HW219311   3.292   0.139   6.663
 6138SOL     OW19312   5.148   0.301   3.015
 6138SOL    HW119313   5.155   0.258   3.105
 6138SOL    HW219314   5.159   0.231   2.944
 6139SOL     OW19315   2.268   5.939   3.745
 6139SOL    HW119316   2.224   6.023   3.717
 6139SOL    HW219317   2.364   5.939   3.715
 6140SOL     OW19318   1.872   5.537   1.182
 6140SOL    HW119319   1.884   5.515   1.279
 6140SOL    HW219320   1.785   5.585   1.169
 6141SOL     OW19321   0.073   5.982   5.297
 6141SOL    HW119322   0.074   6.018   5.203
 6141SOL    HW219323   0.115   6.049   5.358
 6142SOL     OW19324   0.499   4.361   3.526
 6142SOL    HW119325   0.500   4.390   3.430
 6142SOL    HW219326   0.525   4.264   3.532
 6143SOL     OW19327   6.565   4.307   6.328
 6143SOL    HW119328   6.505   4.244   6.278
 6143SOL    HW219329   6.631   4.347   6.266
 6144SOL     OW19330   0.251   5.093   4.198
 6144SOL    HW119331   0.202   5.075   4.284
 6144SOL    HW219332   0.346   5.062   4.207
 6145SOL     OW19333   5.727   5.269   3.364
 6145SOL    HW119334   5.644   5.245   3.414
 6145SOL    HW219335   5.745   5.367   3.374
 6146SOL     OW19336   5.725   2.325   3.796
 6146SOL    HW119337   5.805   2.383   3.780
 6146SOL    HW219338   5.755   2.230   3.805
 6147SOL     OW19339   1.059   3.922   2.877
 6147SOL    HW119340   1.096   3.830   2.883
 6147SOL    HW219341   1.053   3.950   2.781
 6148SOL     OW19342   6.259   6.117   2.786
 6148SOL    HW119343   6.340   6.059   2.775
 6148SOL    HW219344   6.231   6.117   2.882
 6149SOL     OW19345   1.511   5.885   4.859
 6149SOL    HW119346   1.576   5.822   4.817
 6149SOL    HW219347   1.545   5.912   4.950
 6150SOL     OW19348   4.347   6.254   5.786
 6150SOL    HW119349   4.439   6.279   5.815
 6150SOL    HW219350   4.282   6.321   5.820
 6151SOL     OW19351   4.623   0.290   5.665
 6151SOL    HW119352   4.685   0.233   5.611
 6151SOL    HW219353   4.655   0.384   5.663
 6152SOL     OW19354   6.352   4.511   5.063
 6152SOL    HW119355   6.415   4.530   5.138
 6152SOL    HW219356   6.265   4.557   5.079
 6153SOL     OW19357   4.397   4.994   6.545
 6153SOL    HW119358   4.481   5.040   6.517
 6153SOL    HW219359   4.399   4.976   6.643
 6154SOL     OW19360   5.395   3.239   3.686
 6154SOL    HW119361   5.313   3.222   3.740
 6154SOL    HW219362   5.409   3.164   3.622
 6155SOL     OW19363   2.449   4.882   4.885
 6155SOL    HW119364   2.519   4.817   4.914
 6155SOL    HW219365   2.440   4.954   4.953
 6156SOL     OW19366   5.760   0.361   4.597
 6156SOL    HW119367   5.757   0.269   4.634
 6156SOL    HW219368   5.854   0.383   4.569
 6157SOL     OW19369   0.974   1.664   3.675
 6157SOL    HW119370   1.072   1.646   3.663
 6157SOL    HW219371   0.924   1.578   3.674
 6158SOL     OW19372   5.410   6.796   0.121
 6158SOL    HW119373   5.471   6.876   0.126
 6158SOL    HW219374   5.375   6.775   0.212
 6159SOL     OW19375   4.983   3.469   6.733
 6159SOL    HW119376   5.059   3.416   6.696
 6159SOL    HW219377   4.897   3.422   6.714
 6160SOL     OW19378   6.388   4.320   0.559
 6160SOL    HW119379   6.400   4.416   0.534
 6160SOL    HW219380   6.457   4.294   0.626
 6161SOL     OW19381   6.252   0.101   6.483
 6161SOL    HW119382   6.332   0.155   6.509
 6161SOL    HW219383   6.282   0.021   6.429
 6162SOL     OW19384   5.272   4.930   4.173
 6162SOL    HW119385   5.258   4.903   4.268
 6162SOL    HW219386   5.363   4.969   4.163
 6163SOL     OW19387   0.048   4.116   2.594
 6163SOL    HW119388   0.105   4.106   2.513
 6163SOL    HW219389   6.998   4.044   2.597
 6164SOL     OW19390   4.309   3.019   0.741
 6164SOL    HW119391   4.235   2.966   0.780
 6164SOL    HW219392   4.344   2.972   0.659
 6165SOL     OW19393   3.891   0.347   1.469
 6165SOL    HW119394   3.891   0.351   1.369
 6165SOL    HW219395   3.812   0.398   1.504
 6166SOL     OW19396   3.830   1.328   0.649
 6166SOL    HW119397   3.792   1.366   0.565
 6166SOL    HW219398   3.763   1.265   0.690
 6167SOL     OW19399   6.679   5.415   3.988
 6167SOL    HW119400   6.692   5.471   4.070
 6167SOL    HW219401   6.733   5.452   3.913
 6168SOL     OW19402   0.290   3.232   1.294
 6168SOL    HW119403   0.287   3.142   1.338
 6168SOL    HW219404   0.377   3.243   1.247
 6169SOL     OW19405   2.026   4.443   1.522
 6169SOL    HW119406   2.105   4.394   1.558
 6169SOL    HW219407   1.982   4.495   1.596
 6170SOL     OW19408   6.586   1.792   3.493
 6170SOL    HW119409   6.646   1.715   3.516
 6170SOL    HW219410   6.553   1.835   3.577
 6171SOL     OW19411   6.060   1.000   5.841
 6171SOL    HW119412   5.970   1.039   5.823
 6171SOL    HW219413   6.080   1.006   5.939
 6172SOL     OW19414   0.867   4.553   4.407
 6172SOL    HW119415   0.821   4.618   4.467
 6172SOL    HW219416   0.966   4.555   4.424
 6173SOL     OW19417   5.510   6.352   3.039
 6173SOL    HW119418   5.436   6.317   3.097
 6173SOL    HW219419   5.536   6.283   2.972
 6174SOL     OW19420   6.531   2.222   3.095
 6174SOL    HW119421   6.589   2.154   3.049
 6174SOL    HW219422   6.530   2.203   3.194
 6175SOL     OW19423   3.883   1.420   6.844
 6175SOL    HW119424   3.810   1.464   6.790
 6175SOL    HW219425   3.897   1.471   6.929
 6176SOL     OW19426   2.699   4.343   6.570
 6176SOL    HW119427   2.671   4.278   6.500
 6176SOL    HW219428   2.795   4.366   6.558
 6177SOL     OW19429   5.753   5.215   1.677
 6177SOL    HW119430   5.831   5.191   1.620
 6177SOL    HW219431   5.730   5.138   1.736
 6178SOL     OW19432   4.078   4.786   2.090
 6178SOL    HW119433   3.992   4.818   2.129
 6178SOL    HW219434   4.061   4.741   2.002
 6179SOL     OW19435   5.381   5.209   4.786
 6179SOL    HW119436   5.292   5.245   4.816
 6179SOL    HW219437   5.370   5.160   4.700
 6180SOL     OW19438   2.118   4.093   6.702
 6180SOL    HW119439   2.208   4.070   6.737
 6180SOL    HW219440   2.048   4.069   6.770
 6181SOL     OW19441   6.366   6.171   0.081
 6181SOL    HW119442   6.394   6.267   0.075
 6181SOL    HW219443   6.268   6.166   0.101
 6182SOL     OW19444   2.417   2.396   6.814
 6182SOL    HW119445   2.371   2.352   6.891
 6182SOL    HW219446   2.454   2.326   6.753
 6183SOL     OW19447   0.246   0.639   0.604
 6183SOL    HW119448   0.146   0.646   0.603
 6183SOL    HW219449   0.280   0.667   0.694
 6184SOL     OW19450   3.156   6.758   5.557
 6184SOL    HW119451   3.210   6.738   5.475
 6184SOL    HW219452   3.131   6.673   5.603
 6185SOL     OW19453   3.313   3.010   5.593
 6185SOL    HW119454   3.245   3.069   5.548
 6185SOL    HW219455   3.287   2.914   5.581
 6186SOL     OW19456   1.147   1.997   2.459
 6186SOL    HW119457   1.222   2.040   2.409
 6186SOL    HW219458   1.145   2.033   2.552
 6187SOL     OW19459   3.173   1.972   6.168
 6187SOL    HW119460   3.086   1.991   6.214
 6187SOL    HW219461   3.243   1.955   6.237
 6188SOL     OW19462   1.798   1.473   5.668
 6188SOL    HW119463   1.752   1.390   5.639
 6188SOL    HW219464   1.739   1.523   5.732
 6189SOL     OW19465   6.674   4.874   0.221
 6189SOL    HW119466   6.603   4.811   0.191
 6189SOL    HW219467   6.662   4.962   0.175
 6190SOL     OW19468   0.653   2.735   3.519
 6190SOL    HW119469   0.557   2.706   3.524
 6190SOL    HW219470   0.686   2.757   3.611
 6191SOL     OW19471   2.470   4.038   0.604
 6191SOL    HW119472   2.522   4.122   0.615
 6191SOL    HW219473   2.413   4.044   0.521
 6192SOL     OW19474   3.244   1.718   1.337
 6192SOL    HW119475   3.146   1.703   1.331
 6192SOL    HW219476   3.267   1.755   1.427
 6193SOL     OW19477   4.025   5.975   6.793
 6193SOL    HW119478   4.037   6.022   6.881
 6193SOL    HW219479   4.114   5.967   6.748
 6194SOL     OW19480   5.356   0.116   6.136
 6194SOL    HW119481   5.283   0.069   6.087
 6194SOL    HW219482   5.330   0.128   6.232
 6195SOL     OW19483   4.674   5.820   5.738
 6195SOL    HW119484   4.620   5.738   5.758
 6195SOL    HW219485   4.630   5.900   5.781
 6196SOL     OW19486   6.484   3.591   3.273
 6196SOL    HW119487   6.464   3.516   3.211
 6196SOL    HW219488   6.554   3.650   3.233
 6197SOL     OW19489   0.842   5.089   0.972
 6197SOL    HW119490   0.902   5.108   1.049
 6197SOL    HW219491   0.754   5.055   1.005
 6198SOL     OW19492   5.931   1.241   6.402
 6198SOL    HW119493   6.026   1.214   6.412
 6198SOL    HW219494   5.907   1.245   6.305
 6199SOL     OW19495   2.561   0.052   6.023
 6199SOL    HW119496   2.635   0.061   5.956
 6199SOL    HW219497   2.475   0.084   5.982
 6200SOL     OW19498   1.552   0.193   0.869
 6200SOL    HW119499   1.623   0.192   0.799
 6200SOL    HW219500   1.549   0.104   0.915
 6201SOL     OW19501   0.195   5.232   3.655
 6201SOL    HW119502   0.143   5.151   3.684
 6201SOL    HW219503   0.139   5.314   3.669
 6202SOL     OW19504   5.809   0.743   2.048
 6202SOL    HW119505   5.740   0.816   2.047
 6202SOL    HW219506   5.818   0.705   1.956
 6203SOL     OW19507   6.243   0.995   1.934
 6203SOL    HW119508   6.284   0.917   1.886
 6203SOL    HW219509   6.223   0.970   2.029
 6204SOL     OW19510   0.892   5.764   4.859
 6204SOL    HW119511   0.869   5.833   4.927
 6204SOL    HW219512   0.807   5.726   4.821
 6205SOL     OW19513   6.142   4.458   3.175
 6205SOL    HW119514   6.116   4.521   3.248
 6205SOL    HW219515   6.238   4.432   3.185
 6206SOL     OW19516   5.410   2.161   3.498
 6206SOL    HW119517   5.457   2.073   3.492
 6206SOL    HW219518   5.477   2.235   3.493
 6207SOL     OW19519   1.770   5.682   3.670
 6207SOL    HW119520   1.715   5.728   3.600
 6207SOL    HW219521   1.862   5.664   3.633
 6208SOL     OW19522   3.907   4.474   6.412
 6208SOL    HW119523   3.941   4.401   6.471
 6208SOL    HW219524   3.966   4.483   6.332
 6209SOL     OW19525   3.747   1.347   1.956
 6209SOL    HW119526   3.727   1.357   1.858
 6209SOL    HW219527   3.661   1.341   2.007
 6210SOL     OW19528   5.583   1.049   4.234
 6210SOL    HW119529   5.682   1.065   4.239
 6210SOL    HW219530   5.545   1.101   4.157
 6211SOL     OW19531   5.311   3.097   5.433
 6211SOL    HW119532   5.243   3.155   5.478
 6211SOL    HW219533   5.359   3.150   5.364
 6212SOL     OW19534   4.810   4.477   5.144
 6212SOL    HW119535   4.720   4.476   5.100
 6212SOL    HW219536   4.818   4.399   5.206
 6213SOL     OW19537   5.286   5.953   0.538
 6213SOL    HW119538   5.365   5.933   0.597
 6213SOL    HW219539   5.283   5.886   0.464
 6214SOL     OW19540   6.514   0.225   6.571
 6214SOL    HW119541   6.500   0.254   6.666
 6214SOL    HW219542   6.555   0.134   6.570
 6215SOL     OW19543   5.737   2.135   5.214
 6215SOL    HW119544   5.670   2.089   5.156
 6215SOL    HW219545   5.737   2.094   5.305
 6216SOL     OW19546   5.124   2.150   5.408
 6216SOL    HW119547   5.135   2.201   5.322
 6216SOL    HW219548   5.039   2.096   5.403
 6217SOL     OW19549   6.972   4.355   2.441
 6217SOL    HW119550   6.996   4.426   2.507
 6217SOL    HW219551   6.991   4.265   2.480
 6218SOL     OW19552   4.792   6.740   0.782
 6218SOL    HW119553   4.757   6.834   0.782
 6218SOL    HW219554   4.789   6.704   0.689
 6219SOL     OW19555   2.476   0.454   6.975
 6219SOL    HW119556   2.533   0.519   6.925
 6219SOL    HW219557   2.463   0.486   0.051
 6220SOL     OW19558   3.335   6.736   2.210
 6220SOL    HW119559   3.418   6.704   2.164
 6220SOL    HW219560   3.327   6.692   2.299
 6221SOL     OW19561   4.363   5.623   5.339
 6221SOL    HW119562   4.391   5.591   5.430
 6221SOL    HW219563   4.270   5.657   5.342
 6222SOL     OW19564   6.053   1.499   2.498
 6222SOL    HW119565   6.016   1.412   2.465
 6222SOL    HW219566   6.011   1.574   2.448
 6223SOL     OW19567   6.336   5.303   4.401
 6223SOL    HW119568   6.406   5.352   4.452
 6223SOL    HW219569   6.370   5.279   4.310
 6224SOL     OW19570   4.363   6.568   0.294
 6224SOL    HW119571   4.291   6.573   0.363
 6224SOL    HW219572   4.349   6.639   0.226
 6225SOL     OW19573   4.960   6.194   6.307
 6225SOL    HW119574   5.030   6.197   6.236
 6225SOL    HW219575   4.963   6.105   6.353
 6226SOL     OW19576   0.773   0.959   3.819
 6226SOL    HW119577   0.812   0.909   3.742
 6226SOL    HW219578   0.681   0.990   3.796
 6227SOL     OW19579   2.230   4.961   6.019
 6227SOL    HW119580   2.286   4.887   5.983
 6227SOL    HW219581   2.181   4.930   6.100
 6228SOL     OW19582   0.705   3.311   3.870
 6228SOL    HW119583   0.772   3.360   3.925
 6228SOL    HW219584   0.614   3.322   3.912
 6229SOL     OW19585   0.095   4.406   4.439
 6229SOL    HW119586   7.017   4.431   4.449
 6229SOL    HW219587   0.136   4.396   4.530
 6230SOL     OW19588   0.590   0.886   1.575
 6230SOL    HW119589   0.602   0.857   1.670
 6230SOL    HW219590   0.566   0.983   1.572
 6231SOL     OW19591   2.166   5.473   6.207
 6231SOL    HW119592   2.180   5.571   6.192
 6231SOL    HW219593   2.094   5.460   6.276
 6232SOL     OW19594   4.509   6.947   6.969
 6232SOL    HW119595   4.545   6.994   6.889
 6232SOL    HW219596   4.496   6.850   6.948
 6233SOL     OW19597   0.084   4.145   1.409
 6233SOL    HW119598   0.161   4.184   1.459
 6233SOL    HW219599   0.118   4.092   1.331
 6234SOL     OW19600   4.824   6.030   3.831
 6234SOL    HW119601   4.817   6.108   3.769
 6234SOL    HW219602   4.822   5.945   3.778
 6235SOL     OW19603   0.677   0.477   1.906
 6235SOL    HW119604   0.670   0.378   1.907
 6235SOL    HW219605   0.630   0.513   1.825
 6236SOL     OW19606   6.995   5.969   1.398
 6236SOL    HW119607   6.917   5.973   1.462
 6236SOL    HW219608   0.055   5.926   1.444
 6237SOL     OW19609   3.666   0.972   2.461
 6237SOL    HW119610   3.668   0.959   2.561
 6237SOL    HW219611   3.581   0.933   2.424
 6238SOL     OW19612   2.454   0.618   3.636
 6238SOL    HW119613   2.460   0.708   3.680
 6238SOL    HW219614   2.459   0.547   3.706
 6239SOL     OW19615   4.050   1.458   3.826
 6239SOL    HW119616   4.020   1.374   3.781
 6239SOL    HW219617   4.090   1.437   3.915
 6240SOL     OW19618   3.862   3.080   4.201
 6240SOL    HW119619   3.781   3.076   4.260
 6240SOL    HW219620   3.941   3.045   4.250
 6241SOL     OW19621   3.326   0.118   3.642
 6241SOL    HW119622   3.315   0.032   3.591
 6241SOL    HW219623   3.368   0.187   3.583
 6242SOL     OW19624   3.614   2.086   4.323
 6242SOL    HW119625   3.649   2.032   4.400
 6242SOL    HW219626   3.515   2.096   4.332
 6243SOL     OW19627   4.425   1.082   0.227
 6243SOL    HW119628   4.489   1.106   0.154
 6243SOL    HW219629   4.453   0.996   0.270
 6244SOL     OW19630   4.423   2.075   2.022
 6244SOL    HW119631   4.346   2.044   2.078
 6244SOL    HW219632   4.418   2.174   2.010
 6245SOL     OW19633   6.838   5.064   1.610
 6245SOL    HW119634   6.898   5.034   1.684
 6245SOL    HW219635   6.777   4.990   1.584
 6246SOL     OW19636   0.824   6.235   5.230
 6246SOL    HW119637   0.868   6.236   5.140
 6246SOL    HW219638   0.860   6.310   5.286
 6247SOL     OW19639   5.752   5.222   2.887
 6247SOL    HW119640   5.660   5.210   2.923
 6247SOL    HW219641   5.817   5.177   2.949
 6248SOL     OW19642   4.488   2.649   5.584
 6248SOL    HW119643   4.476   2.668   5.486
 6248SOL    HW219644   4.546   2.721   5.624
 6249SOL     OW19645   5.551   2.856   3.310
 6249SOL    HW119646   5.637   2.907   3.309
 6249SOL    HW219647   5.567   2.764   3.344
 6250SOL     OW19648   5.499   0.056   5.732
 6250SOL    HW119649   5.513   0.124   5.805
 6250SOL    HW219650   5.427   7.010   5.759
 6251SOL     OW19651   3.055   0.583   4.324
 6251SOL    HW119652   3.108   0.507   4.361
 6251SOL    HW219653   2.991   0.548   4.254
 6252SOL     OW19654   3.119   5.245   0.619
 6252SOL    HW119655   3.190   5.205   0.677
 6252SOL    HW219656   3.098   5.183   0.544
 6253SOL     OW19657   4.935   6.243   3.546
 6253SOL    HW119658   4.989   6.196   3.616
 6253SOL    HW219659   4.842   6.258   3.580
 6254SOL     OW19660   0.817   0.371   1.575
 6254SOL    HW119661   0.799   0.315   1.493
 6254SOL    HW219662   0.740   0.363   1.638
 6255SOL     OW19663   1.805   0.851   0.943
 6255SOL    HW119664   1.796   0.868   0.845
 6255SOL    HW219665   1.713   0.843   0.984
 6256SOL     OW19666   6.001   5.561   2.107
 6256SOL    HW119667   6.043   5.492   2.165
 6256SOL    HW219668   5.906   5.577   2.137
 6257SOL     OW19669   3.857   3.410   0.879
 6257SOL    HW119670   3.924   3.432   0.950
 6257SOL    HW219671   3.900   3.414   0.789
 6258SOL     OW19672   4.014   5.174   4.925
 6258SOL    HW119673   4.020   5.231   4.843
 6258SOL    HW219674   3.955   5.095   4.906
 6259SOL     OW19675   4.306   1.348   4.646
 6259SOL    HW119676   4.248   1.429   4.660
 6259SOL    HW219677   4.381   1.371   4.584
 6260SOL     OW19678   3.128   2.064   0.445
 6260SOL    HW119679   3.108   2.131   0.516
 6260SOL    HW219680   3.191   2.104   0.378
 6261SOL     OW19681   4.152   0.124   0.893
 6261SOL    HW119682   4.214   0.124   0.972
 6261SOL    HW219683   4.057   0.130   0.926
 6262SOL     OW19684   5.832   1.230   2.663
 6262SOL    HW119685   5.859   1.195   2.753
 6262SOL    HW219686   5.774   1.311   2.676
 6263SOL     OW19687   6.259   5.982   6.330
 6263SOL    HW119688   6.272   5.898   6.277
 6263SOL    HW219689   6.348   6.019   6.356
 6264SOL     OW19690   1.084   6.213   0.798
 6264SOL    HW119691   1.175   6.239   0.765
 6264SOL    HW219692   1.025   6.192   0.720
 6265SOL     OW19693   3.898   0.032   6.652
 6265SOL    HW119694   3.888   0.099   6.579
 6265SOL    HW219695   3.933   6.964   6.614
 6266SOL     OW19696   3.251   5.313   2.985
 6266SOL    HW119697   3.340   5.302   3.029
 6266SOL    HW219698   3.179   5.289   3.050
 6267SOL     OW19699   0.511   6.156   4.300
 6267SOL    HW119700   0.595   6.176   4.351
 6267SOL    HW219701   0.449   6.103   4.358
 6268SOL     OW19702   3.852   1.729   1.096
 6268SOL    HW119703   3.846   1.669   1.016
 6268SOL    HW219704   3.765   1.778   1.108
 6269SOL     OW19705   6.775   6.149   6.917
 6269SOL    HW119706   6.690   6.098   6.928
 6269SOL    HW219707   6.809   6.177   7.007
 6270SOL     OW19708   1.263   6.690   0.751
 6270SOL    HW119709   1.255   6.599   0.792
 6270SOL    HW219710   1.178   6.741   0.765
 6271SOL     OW19711   6.742   3.106   5.519
 6271SOL    HW119712   6.764   3.201   5.541
 6271SOL    HW219713   6.656   3.101   5.469
 6272SOL     OW19714   0.672   0.944   0.143
 6272SOL    HW119715   0.724   0.859   0.150
 6272SOL    HW219716   0.705   1.008   0.212
 6273SOL     OW19717   0.401   6.293   3.491
 6273SOL    HW119718   0.393   6.286   3.392
 6273SOL    HW219719   0.481   6.349   3.514
 6274SOL     OW19720   2.850   6.300   4.218
 6274SOL    HW119721   2.941   6.301   4.259
 6274SOL    HW219722   2.787   6.353   4.275
 6275SOL     OW19723   2.675   6.026   0.782
 6275SOL    HW119724   2.642   6.111   0.741
 6275SOL    HW219725   2.645   5.948   0.727
 6276SOL     OW19726   1.932   5.225   2.868
 6276SOL    HW119727   1.976   5.314   2.862
 6276SOL    HW219728   1.846   5.226   2.816
 6277SOL     OW19729   5.040   2.639   1.055
 6277SOL    HW119730   5.080   2.585   1.130
 6277SOL    HW219731   5.023   2.732   1.086
 6278SOL     OW19732   3.352   2.565   0.306
 6278SOL    HW119733   3.379   2.550   0.401
 6278SOL    HW219734   3.395   2.496   0.247
 6279SOL     OW19735   1.842   6.395   2.252
 6279SOL    HW119736   1.762   6.346   2.216
 6279SOL    HW219737   1.892   6.437   2.176
 6280SOL     OW19738   5.035   1.176   6.876
 6280SOL    HW119739   4.964   1.203   6.941
 6280SOL    HW219740   5.000   1.102   6.817
 6281SOL     OW19741   5.110   4.217   6.148
 6281SOL    HW119742   5.127   4.300   6.095
 6281SOL    HW219743   5.033   4.167   6.108
 6282SOL     OW19744   0.767   3.578   5.826
 6282SOL    HW119745   0.809   3.597   5.915
 6282SOL    HW219746   0.739   3.664   5.784
 6283SOL     OW19747   2.655   0.637   4.593
 6283SOL    HW119748   2.671   0.630   4.692
 6283SOL    HW219749   2.596   0.716   4.575
 6284SOL     OW19750   1.802   3.541   6.236
 6284SOL    HW119751   1.740   3.585   6.301
 6284SOL    HW219752   1.895   3.572   6.253
 6285SOL     OW19753   0.839   3.966   3.043
 6285SOL    HW119754   0.833   3.905   3.122
 6285SOL    HW219755   0.898   3.924   2.974
 6286SOL     OW19756   0.967   2.426   6.543
 6286SOL    HW119757   0.967   2.347   6.604
 6286SOL    HW219758   0.958   2.395   6.448
 6287SOL     OW19759   4.506   4.994   4.534
 6287SOL    HW119760   4.556   4.908   4.546
 6287SOL    HW219761   4.419   4.990   4.584
 6288SOL     OW19762   3.129   3.569   5.880
 6288SOL    HW119763   3.080   3.646   5.921
 6288SOL    HW219764   3.227   3.590   5.877
 6289SOL     OW19765   2.582   4.669   4.985
 6289SOL    HW119766   2.669   4.642   5.028
 6289SOL    HW219767   2.512   4.602   5.007
 6290SOL     OW19768   6.719   6.797   3.394
 6290SOL    HW119769   6.759   6.718   3.347
 6290SOL    HW219770   6.619   6.787   3.397
 6291SOL     OW19771   3.226   3.749   1.904
 6291SOL    HW119772   3.172   3.833   1.906
 6291SOL    HW219773   3.290   3.748   1.981
 6292SOL     OW19774   1.465   4.333   4.560
 6292SOL    HW119775   1.445   4.368   4.469
 6292SOL    HW219776   1.554   4.365   4.590
 6293SOL     OW19777   3.198   1.067   6.870
 6293SOL    HW119778   3.208   1.095   6.965
 6293SOL    HW219779   3.115   1.012   6.861
 6294SOL     OW19780   1.932   0.984   2.232
 6294SOL    HW119781   1.908   0.990   2.135
 6294SOL    HW219782   1.914   1.072   2.277
 6295SOL     OW19783   4.556   3.048   6.128
 6295SOL    HW119784   4.456   3.040   6.127
 6295SOL    HW219785   4.587   3.068   6.220
 6296SOL     OW19786   0.197   2.733   0.258
 6296SOL    HW119787   0.117   2.719   0.316
 6296SOL    HW219788   0.185   2.684   0.171
 6297SOL     OW19789   6.490   0.847   4.298
 6297SOL    HW119790   6.398   0.847   4.338
 6297SOL    HW219791   6.557   0.864   4.370
 6298SOL     OW19792   6.962   6.929   6.782
 6298SOL    HW119793   6.987   6.942   6.878
 6298SOL    HW219794   6.929   6.835   6.769
 6299SOL     OW19795   3.584   1.777   4.002
 6299SOL    HW119796   3.547   1.742   3.916
 6299SOL    HW219797   3.680   1.750   4.010
 6300SOL     OW19798   2.636   1.785   1.194
 6300SOL    HW119799   2.697   1.864   1.199
 6300SOL    HW219800   2.545   1.813   1.225
 6301SOL     OW19801   4.165   6.622   0.452
 6301SOL    HW119802   4.225   6.615   0.532
 6301SOL    HW219803   4.072   6.596   0.478
 6302SOL     OW19804   1.609   3.429   0.108
 6302SOL    HW119805   1.577   3.401   0.199
 6302SOL    HW219806   1.573   3.366   0.039
 6303SOL     OW19807   6.700   5.089   4.582
 6303SOL    HW119808   6.662   5.023   4.517
 6303SOL    HW219809   6.720   5.043   4.668
 6304SOL     OW19810   2.204   1.577   3.692
 6304SOL    HW119811   2.223   1.486   3.728
 6304SOL    HW219812   2.288   1.616   3.653
 6305SOL     OW19813   0.573   5.443   5.699
 6305SOL    HW119814   0.610   5.427   5.608
 6305SOL    HW219815   0.485   5.489   5.692
 6306SOL     OW19816   0.740   4.349   4.264
 6306SOL    HW119817   0.746   4.330   4.166
 6306SOL    HW219818   0.789   4.434   4.284
 6307SOL     OW19819   3.297   2.965   3.027
 6307SOL    HW119820   3.280   2.918   2.941
 6307SOL    HW219821   3.375   3.026   3.017
 6308SOL     OW19822   1.135   1.790   0.808
 6308SOL    HW119823   1.049   1.797   0.859
 6308SOL    HW219824   1.128   1.845   0.724
 6309SOL     OW19825   2.455   5.551   5.173
 6309SOL    HW119826   2.371   5.508   5.142
 6309SOL    HW219827   2.502   5.491   5.238
 6310SOL     OW19828   0.351   6.855   3.267
 6310SOL    HW119829   0.254   6.832   3.271
 6310SOL    HW219830   0.396   6.830   3.353
 6311SOL     OW19831   6.501   1.341   6.715
 6311SOL    HW119832   6.444   1.422   6.704
 6311SOL    HW219833   6.583   1.364   6.768
 6312SOL     OW19834   3.505   5.477   1.181
 6312SOL    HW119835   3.410   5.457   1.205
 6312SOL    HW219836   3.512   5.491   1.082
 6313SOL     OW19837   5.754   4.894   3.570
 6313SOL    HW119838   5.689   4.903   3.646
 6313SOL    HW219839   5.704   4.880   3.484
 6314SOL     OW19840   2.028   0.045   3.641
 6314SOL    HW119841   1.957   0.066   3.708
 6314SOL    HW219842   2.059   6.969   3.654
 6315SOL     OW19843   2.836   2.172   3.197
 6315SOL    HW119844   2.876   2.090   3.156
 6315SOL    HW219845   2.737   2.165   3.195
 6316SOL     OW19846   4.265   0.536   5.096
 6316SOL    HW119847   4.320   0.566   5.174
 6316SOL    HW219848   4.172   0.518   5.126
 6317SOL     OW19849   4.463   4.521   2.926
 6317SOL    HW119850   4.510   4.591   2.872
 6317SOL    HW219851   4.428   4.562   3.010
 6318SOL     OW19852   6.362   6.848   6.739
 6318SOL    HW119853   6.322   6.899   6.815
 6318SOL    HW219854   6.304   6.769   6.718
 6319SOL     OW19855   4.831   2.243   4.576
 6319SOL    HW119856   4.864   2.337   4.568
 6319SOL    HW219857   4.846   2.195   4.489
 6320SOL     OW19858   6.212   1.345   6.207
 6320SOL    HW119859   6.270   1.337   6.126
 6320SOL    HW219860   6.145   1.418   6.193
 6321SOL     OW19861   0.504   3.786   0.545
 6321SOL    HW119862   0.425   3.727   0.530
 6321SOL    HW219863   0.517   3.846   0.466
 6322SOL     OW19864   1.822   1.668   2.719
 6322SOL    HW119865   1.723   1.658   2.729
 6322SOL    HW219866   1.868   1.620   2.794
 6323SOL     OW19867   2.212   5.823   1.309
 6323SOL    HW119868   2.187   5.877   1.389
 6323SOL    HW219869   2.304   5.849   1.279
 6324SOL     OW19870   5.070   3.192   0.896
 6324SOL    HW119871   5.004   3.231   0.832
 6324SOL    HW219872   5.025   3.171   0.983
 6325SOL     OW19873   1.324   3.815   3.866
 6325SOL    HW119874   1.373   3.799   3.952
 6325SOL    HW219875   1.377   3.779   3.790
 6326SOL     OW19876   4.834   5.351   5.066
 6326SOL    HW119877   4.877   5.377   4.979
 6326SOL    HW219878   4.768   5.421   5.093
 6327SOL     OW19879   0.723   0.886   2.664
 6327SOL    HW119880   0.766   0.970   2.631
 6327SOL    HW219881   0.685   0.835   2.587
 6328SOL     OW19882   3.758   3.583   5.556
 6328SOL    HW119883   3.724   3.596   5.649
 6328SOL    HW219884   3.789   3.671   5.520
 6329SOL     OW19885   0.390   2.889   5.040
 6329SOL    HW119886   0.448   2.866   4.962
 6329SOL    HW219887   0.324   2.815   5.055
 6330SOL     OW19888   4.106   1.989   3.612
 6330SOL    HW119889   4.110   2.078   3.658
 6330SOL    HW219890   4.176   1.986   3.540
 6331SOL     OW19891   1.888   3.880   3.963
 6331SOL    HW119892   1.938   3.800   3.996
 6331SOL    HW219893   1.936   3.919   3.885
 6332SOL     OW19894   4.350   1.496   0.056
 6332SOL    HW119895   4.413   1.569   0.028
 6332SOL    HW219896   4.282   1.482   7.002
 6333SOL     OW19897   5.916   0.651   0.344
 6333SOL    HW119898   5.838   0.641   0.405
 6333SOL    HW219899   5.997   0.612   0.388
 6334SOL     OW19900   2.481   1.360   1.808
 6334SOL    HW119901   2.465   1.353   1.709
 6334SOL    HW219902   2.486   1.268   1.847
 6335SOL     OW19903   6.840   3.341   5.604
 6335SOL    HW119904   6.805   3.398   5.678
 6335SOL    HW219905   6.860   3.399   5.525
 6336SOL     OW19906   0.961   4.240   5.361
 6336SOL    HW119907   0.979   4.321   5.305
 6336SOL    HW219908   1.040   4.224   5.421
 6337SOL     OW19909   6.059   6.819   4.994
 6337SOL    HW119910   6.040   6.917   4.988
 6337SOL    HW219911   6.007   6.771   4.924
 6338SOL     OW19912   0.738   0.447   2.688
 6338SOL    HW119913   0.663   0.472   2.628
 6338SOL    HW219914   0.781   0.530   2.725
 6339SOL     OW19915   0.514   4.086   3.539
 6339SOL    HW119916   0.454   4.018   3.497
 6339SOL    HW219917   0.603   4.045   3.558
 6340SOL     OW19918   2.800   5.129   6.498
 6340SOL    HW119919   2.878   5.105   6.439
 6340SOL    HW219920   2.761   5.215   6.468
 6341SOL     OW19921   0.239   4.687   3.083
 6341SOL    HW119922   0.253   4.590   3.060
 6341SOL    HW219923   0.207   4.736   3.001
 6342SOL     OW19924   2.192   0.730   1.598
 6342SOL    HW119925   2.280   0.741   1.645
 6342SOL    HW219926   2.183   0.636   1.565
 6343SOL     OW19927   1.428   5.102   6.854
 6343SOL    HW119928   1.395   5.118   6.761
 6343SOL    HW219929   1.357   5.054   6.906
 6344SOL     OW19930   1.381   1.702   4.579
 6344SOL    HW119931   1.402   1.776   4.515
 6344SOL    HW219932   1.467   1.664   4.614
 6345SOL     OW19933   0.042   3.272   3.497
 6345SOL    HW119934   0.096   3.342   3.544
 6345SOL    HW219935   7.015   3.213   3.564
 6346SOL     OW19936   0.552   4.790   4.356
 6346SOL    HW119937   0.514   4.860   4.294
 6346SOL    HW219938   0.481   4.724   4.379
 6347SOL     OW19939   2.214   2.789   3.449
 6347SOL    HW119940   2.140   2.807   3.384
 6347SOL    HW219941   2.193   2.706   3.500
 6348SOL     OW19942   0.793   2.855   6.595
 6348SOL    HW119943   0.795   2.924   6.667
 6348SOL    HW219944   0.699   2.833   6.572
 6349SOL     OW19945   6.013   1.075   0.559
 6349SOL    HW119946   6.106   1.098   0.586
 6349SOL    HW219947   5.959   1.159   0.548
 6350SOL     OW19948   0.778   5.971   1.418
 6350SOL    HW119949   0.840   5.918   1.361
 6350SOL    HW219950   0.693   5.989   1.368
 6351SOL     OW19951   5.949   2.733   1.828
 6351SOL    HW119952   5.907   2.796   1.893
 6351SOL    HW219953   6.045   2.717   1.855
 6352SOL     OW19954   4.462   0.601   4.490
 6352SOL    HW119955   4.434   0.514   4.532
 6352SOL    HW219956   4.440   0.600   4.393
 6353SOL     OW19957   3.455   6.455   6.096
 6353SOL    HW119958   3.474   6.531   6.158
 6353SOL    HW219959   3.395   6.486   6.022
 6354SOL     OW19960   5.504   5.059   2.730
 6354SOL    HW119961   5.480   5.117   2.809
 6354SOL    HW219962   5.423   5.047   2.673
 6355SOL     OW19963   4.728   5.889   0.279
 6355SOL    HW119964   4.731   5.926   0.371
 6355SOL    HW219965   4.667   5.810   0.277
 6356SOL     OW19966   0.177   6.910   6.203
 6356SOL    HW119967   0.216   6.845   6.138
 6356SOL    HW219968   0.099   6.868   6.250
 6357SOL     OW19969   4.906   2.161   3.195
 6357SOL    HW119970   4.928   2.156   3.293
 6357SOL    HW219971   4.838   2.091   3.173
 6358SOL     OW19972   1.179   2.030   4.339
 6358SOL    HW119973   1.083   2.026   4.368
 6358SOL    HW219974   1.185   2.006   4.242
 6359SOL     OW19975   5.920   4.858   1.131
 6359SOL    HW119976   5.824   4.876   1.112
 6359SOL    HW219977   5.935   4.852   1.229
 6360SOL     OW19978   2.073   3.146   1.096
 6360SOL    HW119979   2.152   3.155   1.035
 6360SOL    HW219980   2.006   3.217   1.075
 6361SOL     OW19981   0.178   1.827   2.401
 6361SOL    HW119982   0.214   1.901   2.344
 6361SOL    HW219983   0.236   1.747   2.393
 6362SOL     OW19984   1.551   5.107   0.325
 6362SOL    HW119985   1.542   5.048   0.405
 6362SOL    HW219986   1.648   5.127   0.310
 6363SOL     OW19987   1.090   2.333   1.759
 6363SOL    HW119988   1.150   2.300   1.833
 6363SOL    HW219989   1.126   2.303   1.671
 6364SOL     OW19990   2.872   1.144   3.742
 6364SOL    HW119991   2.773   1.132   3.749
 6364SOL    HW219992   2.892   1.227   3.691
 6365SOL     OW19993   6.569   6.991   2.617
 6365SOL    HW119994   6.539   6.930   2.544
 6365SOL    HW219995   6.659   6.962   2.650
 6366SOL     OW19996   5.717   1.474   5.211
 6366SOL    HW119997   5.817   1.469   5.212
 6366SOL    HW219998   5.679   1.411   5.278
 6367SOL     OW19999   0.984   2.510   4.368
 6367SOL    HW120000   0.891   2.545   4.377
 6367SOL    HW220001   0.987   2.416   4.401
 6368SOL     OW20002   4.997   3.437   5.104
 6368SOL    HW120003   4.961   3.529   5.090
 6368SOL    HW220004   4.922   3.375   5.126
 6369SOL     OW20005   3.305   4.193   0.990
 6369SOL    HW120006   3.294   4.230   1.082
 6369SOL    HW220007   3.294   4.093   0.992
 6370SOL     OW20008   5.917   4.023   4.777
 6370SOL    HW120009   5.929   4.083   4.856
 6370SOL    HW220010   5.969   4.059   4.699
 6371SOL     OW20011   5.801   3.959   0.866
 6371SOL    HW120012   5.893   3.957   0.827
 6371SOL    HW220013   5.742   4.015   0.808
 6372SOL     OW20014   6.421   1.199   1.021
 6372SOL    HW120015   6.494   1.152   1.070
 6372SOL    HW220016   6.334   1.184   1.068
 6373SOL     OW20017   5.294   2.135   1.302
 6373SOL    HW120018   5.379   2.083   1.300
 6373SOL    HW220019   5.293   2.193   1.383
 6374SOL     OW20020   4.506   3.305   6.280
 6374SOL    HW120021   4.413   3.284   6.310
 6374SOL    HW220022   4.505   3.325   6.182
 6375SOL     OW20023   5.014   0.946   1.882
 6375SOL    HW120024   5.070   0.947   1.799
 6375SOL    HW220025   4.983   0.853   1.901
 6376SOL     OW20026   2.686   6.410   0.546
 6376SOL    HW120027   2.764   6.375   0.494
 6376SOL    HW220028   2.601   6.381   0.502
 6377SOL     OW20029   0.485   0.864   0.382
 6377SOL    HW120030   0.578   0.899   0.387
 6377SOL    HW220031   0.436   0.887   0.466
 6378SOL     OW20032   6.235   3.928   2.932
 6378SOL    HW120033   6.150   3.892   2.969
 6378SOL    HW220034   6.309   3.862   2.949
 6379SOL     OW20035   3.126   5.319   6.928
 6379SOL    HW120036   3.095   5.234   6.971
 6379SOL    HW220037   3.051   5.385   6.928
 6380SOL     OW20038   2.166   3.224   4.582
 6380SOL    HW120039   2.216   3.191   4.502
 6380SOL    HW220040   2.072   3.190   4.579
 6381SOL     OW20041   3.605   3.617   0.768
 6381SOL    HW120042   3.569   3.569   0.848
 6381SOL    HW220043   3.531   3.631   0.702
 6382SOL     OW20044   2.032   1.101   1.244
 6382SOL    HW120045   2.063   1.042   1.319
 6382SOL    HW220046   1.934   1.091   1.232
 6383SOL     OW20047   2.693   2.082   2.581
 6383SOL    HW120048   2.737   2.031   2.508
 6383SOL    HW220049   2.762   2.115   2.645
 6384SOL     OW20050   6.704   1.924   2.100
 6384SOL    HW120051   6.664   1.933   2.191
 6384SOL    HW220052   6.649   1.861   2.045
 6385SOL     OW20053   6.739   3.826   1.283
 6385SOL    HW120054   6.807   3.782   1.343
 6385SOL    HW220055   6.674   3.757   1.252
 6386SOL     OW20056   2.945   3.912   0.369
 6386SOL    HW120057   2.971   3.833   0.313
 6386SOL    HW220058   2.894   3.881   0.449
 6387SOL     OW20059   6.378   0.684   6.080
 6387SOL    HW120060   6.307   0.750   6.058
 6387SOL    HW220061   6.343   0.619   6.147
 6388SOL     OW20062   5.958   4.578   1.703
 6388SOL    HW120063   6.007   4.631   1.772
 6388SOL    HW220064   5.894   4.638   1.655
 6389SOL     OW20065   6.578   6.383   0.656
 6389SOL    HW120066   6.615   6.471   0.685
 6389SOL    HW220067   6.607   6.312   0.721
 6390SOL     OW20068   4.932   6.615   6.370
 6390SOL    HW120069   4.910   6.664   6.286
 6390SOL    HW220070   4.853   6.561   6.398
 6391SOL     OW20071   1.540   2.283   4.811
 6391SOL    HW120072   1.519   2.360   4.751
 6391SOL    HW220073   1.633   2.293   4.847
 6392SOL     OW20074   5.135   6.669   4.026
 6392SOL    HW120075   5.126   6.570   4.033
 6392SOL    HW220076   5.114   6.697   3.932
 6393SOL     OW20077   2.441   5.290   0.758
 6393SOL    HW120078   2.347   5.302   0.792
 6393SOL    HW220079   2.506   5.325   0.826
 6394SOL     OW20080   1.643   5.488   2.187
 6394SOL    HW120081   1.705   5.547   2.135
 6394SOL    HW220082   1.624   5.405   2.134
 6395SOL     OW20083   1.627   3.976   4.382
 6395SOL    HW120084   1.606   4.049   4.317
 6395SOL    HW220085   1.565   3.982   4.460
 6396SOL     OW20086   1.650   3.400   5.157
 6396SOL    HW120087   1.742   3.382   5.194
 6396SOL    HW220088   1.649   3.379   5.059
 6397SOL     OW20089   6.954   2.952   4.988
 6397SOL    HW120090   6.927   2.980   4.896
 6397SOL    HW220091   0.025   2.992   5.010
 6398SOL     OW20092   1.307   0.527   2.541
 6398SOL    HW120093   1.221   0.579   2.542
 6398SOL    HW220094   1.312   0.470   2.624
 6399SOL     OW20095   2.570   0.157   0.092
 6399SOL    HW120096   2.645   0.173   0.157
 6399SOL    HW220097   2.552   0.241   0.042
 6400SOL     OW20098   0.808   6.319   2.813
 6400SOL    HW120099   0.906   6.299   2.824
 6400SOL    HW220100   0.755   6.241   2.846
 6401SOL     OW20101   4.008   4.963   1.841
 6401SOL    HW120102   3.914   4.988   1.819
 6401SOL    HW220103   4.017   4.947   1.939
 6402SOL     OW20104   3.975   3.757   6.297
 6402SOL    HW120105   4.033   3.728   6.221
 6402SOL    HW220106   3.922   3.838   6.270
 6403SOL     OW20107   4.486   5.484   5.539
 6403SOL    HW120108   4.554   5.478   5.467
 6403SOL    HW220109   4.476   5.394   5.583
 6404SOL     OW20110   5.035   5.593   6.651
 6404SOL    HW120111   5.030   5.524   6.723
 6404SOL    HW220112   4.967   5.665   6.670
 6405SOL     OW20113   4.388   1.031   2.530
 6405SOL    HW120114   4.291   1.056   2.538
 6405SOL    HW220115   4.406   0.997   2.438
 6406SOL     OW20116   0.566   3.678   1.990
 6406SOL    HW120117   0.637   3.615   2.020
 6406SOL    HW220118   0.504   3.697   2.066
 6407SOL     OW20119   0.467   6.830   1.532
 6407SOL    HW120120   0.475   6.814   1.434
 6407SOL    HW220121   0.558   6.829   1.574
 6408SOL     OW20122   0.294   1.286   1.576
 6408SOL    HW120123   0.291   1.296   1.477
 6408SOL    HW220124   0.204   1.310   1.614
 6409SOL     OW20125   5.813   4.161   3.431
 6409SOL    HW120126   5.747   4.196   3.498
 6409SOL    HW220127   5.903   4.151   3.475
 6410SOL     OW20128   2.003   1.046   0.544
 6410SOL    HW120129   1.982   1.141   0.518
 6410SOL    HW220130   2.102   1.032   0.541
 6411SOL     OW20131   1.194   2.586   3.523
 6411SOL    HW120132   1.169   2.672   3.478
 6411SOL    HW220133   1.182   2.597   3.622
 6412SOL     OW20134   3.852   6.878   0.164
 6412SOL    HW120135   3.872   6.800   0.223
 6412SOL    HW220136   3.883   6.858   0.071
 6413SOL     OW20137   4.560   6.000   2.925
 6413SOL    HW120138   4.474   5.952   2.908
 6413SOL    HW220139   4.592   5.979   3.018
 6414SOL     OW20140   3.219   0.076   0.306
 6414SOL    HW120141   3.213   0.165   0.260
 6414SOL    HW220142   3.259   0.009   0.244
 6415SOL     OW20143   0.733   2.152   3.596
 6415SOL    HW120144   0.655   2.186   3.542
 6415SOL    HW220145   0.791   2.095   3.538
 6416SOL     OW20146   2.876   4.842   0.448
 6416SOL    HW120147   2.857   4.774   0.519
 6416SOL    HW220148   2.866   4.800   0.358
 6417SOL     OW20149   4.247   3.412   6.595
 6417SOL    HW120150   4.317   3.483   6.592
 6417SOL    HW220151   4.190   3.425   6.676
 6418SOL     OW20152   4.713   5.488   0.412
 6418SOL    HW120153   4.760   5.402   0.394
 6418SOL    HW220154   4.715   5.544   0.329
 6419SOL     OW20155   0.974   6.733   6.226
 6419SOL    HW120156   0.960   6.671   6.303
 6419SOL    HW220157   1.018   6.684   6.151
 6420SOL     OW20158   2.751   4.749   3.224
 6420SOL    HW120159   2.697   4.668   3.245
 6420SOL    HW220160   2.826   4.757   3.289
 6421SOL     OW20161   5.711   6.799   1.441
 6421SOL    HW120162   5.772   6.862   1.393
 6421SOL    HW220163   5.728   6.806   1.540
 6422SOL     OW20164   0.453   1.998   4.613
 6422SOL    HW120165   0.459   2.089   4.571
 6422SOL    HW220166   0.534   1.982   4.668
 6423SOL     OW20167   1.107   4.314   4.351
 6423SOL    HW120168   1.084   4.218   4.332
 6423SOL    HW220169   1.050   4.347   4.426
 6424SOL     OW20170   6.844   3.768   5.455
 6424SOL    HW120171   6.785   3.849   5.458
 6424SOL    HW220172   6.799   3.695   5.404
 6425SOL     OW20173   0.763   6.814   4.900
 6425SOL    HW120174   0.717   6.733   4.936
 6425SOL    HW220175   0.837   6.841   4.962
 6426SOL     OW20176   3.710   5.867   3.752
 6426SOL    HW120177   3.785   5.835   3.693
 6426SOL    HW220178   3.743   5.942   3.809
 6427SOL     OW20179   3.953   3.273   3.523
 6427SOL    HW120180   3.985   3.294   3.615
 6427SOL    HW220181   4.025   3.223   3.474
 6428SOL     OW20182   6.011   2.287   0.456
 6428SOL    HW120183   5.925   2.314   0.412
 6428SOL    HW220184   6.079   2.359   0.443
 6429SOL     OW20185   2.532   1.489   4.873
 6429SOL    HW120186   2.500   1.454   4.784
 6429SOL    HW220187   2.530   1.415   4.940
 6430SOL     OW20188   5.544   1.352   4.662
 6430SOL    HW120189   5.524   1.307   4.575
 6430SOL    HW220190   5.625   1.410   4.651
 6431SOL     OW20191   3.233   5.133   2.794
 6431SOL    HW120192   3.239   5.212   2.856
 6431SOL    HW220193   3.201   5.053   2.845
 6432SOL     OW20194   4.270   3.255   6.386
 6432SOL    HW120195   4.301   3.161   6.400
 6432SOL    HW220196   4.263   3.301   6.475
 6433SOL     OW20197   3.430   5.215   6.280
 6433SOL    HW120198   3.465   5.179   6.367
 6433SOL    HW220199   3.335   5.245   6.291
 6434SOL     OW20200   6.614   4.997   6.189
 6434SOL    HW120201   6.699   5.041   6.217
 6434SOL    HW220202   6.567   4.960   6.269
 6435SOL     OW20203   4.505   1.187   1.309
 6435SOL    HW120204   4.560   1.103   1.311
 6435SOL    HW220205   4.444   1.185   1.230
 6436SOL     OW20206   0.412   3.001   3.513
 6436SOL    HW120207   0.418   2.902   3.500
 6436SOL    HW220208   0.504   3.039   3.526
 6437SOL     OW20209   1.778   2.961   5.466
 6437SOL    HW120210   1.720   2.889   5.505
 6437SOL    HW220211   1.781   2.951   5.367
 6438SOL     OW20212   0.265   5.106   0.936
 6438SOL    HW120213   0.201   5.068   1.002
 6438SOL    HW220214   0.215   5.145   0.859
 6439SOL     OW20215   5.298   6.584   3.165
 6439SOL    HW120216   5.275   6.675   3.128
 6439SOL    HW220217   5.214   6.538   3.194
 6440SOL     OW20218   2.499   1.757   5.404
 6440SOL    HW120219   2.561   1.683   5.378
 6440SOL    HW220220   2.542   1.845   5.385
 6441SOL     OW20221   1.251   2.138   1.962
 6441SOL    HW120222   1.203   2.062   2.006
 6441SOL    HW220223   1.329   2.102   1.911
 6442SOL     OW20224   2.551   1.574   4.297
 6442SOL    HW120225   2.628   1.524   4.335
 6442SOL    HW220226   2.544   1.664   4.340
 6443SOL     OW20227   2.473   2.650   6.224
 6443SOL    HW120228   2.532   2.697   6.158
 6443SOL    HW220229   2.450   2.559   6.189
 6444SOL     OW20230   0.024   3.766   4.816
 6444SOL    HW120231   0.117   3.784   4.850
 6444SOL    HW220232   6.983   3.743   4.893
 6445SOL     OW20233   3.744   2.886   3.535
 6445SOL    HW120234   3.701   2.973   3.559
 6445SOL    HW220235   3.674   2.815   3.529
 6446SOL     OW20236   1.839   1.252   1.762
 6446SOL    HW120237   1.780   1.237   1.841
 6446SOL    HW220238   1.927   1.206   1.777
 6447SOL     OW20239   5.828   3.703   1.196
 6447SOL    HW120240   5.853   3.624   1.252
 6447SOL    HW220241   5.871   3.785   1.233
 6448SOL     OW20242   4.011   4.270   1.365
 6448SOL    HW120243   3.955   4.188   1.375
 6448SOL    HW220244   4.023   4.314   1.454
 6449SOL     OW20245   4.234   5.075   0.678
 6449SOL    HW120246   4.280   5.087   0.590
 6449SOL    HW220247   4.259   5.149   0.739
 6450SOL     OW20248   5.037   3.585   7.010
 6450SOL    HW120249   5.010   3.678   6.983
 6450SOL    HW220250   4.976   3.519   6.967
 6451SOL     OW20251   4.291   2.855   1.484
 6451SOL    HW120252   4.281   2.882   1.389
 6451SOL    HW220253   4.214   2.889   1.537
 6452SOL     OW20254   4.237   1.830   4.492
 6452SOL    HW120255   4.264   1.835   4.588
 6452SOL    HW220256   4.145   1.868   4.482
 6453SOL     OW20257   2.429   0.477   2.948
 6453SOL    HW120258   2.415   0.386   2.988
 6453SOL    HW220259   2.521   0.482   2.908
 6454SOL     OW20260   5.176   3.736   4.724
 6454SOL    HW120261   5.083   3.702   4.737
 6454SOL    HW220262   5.233   3.704   4.799
 6455SOL     OW20263   0.463   2.651   4.254
 6455SOL    HW120264   0.450   2.696   4.165
 6455SOL    HW220265   0.443   2.716   4.327
 6456SOL     OW20266   6.161   2.012   3.260
 6456SOL    HW120267   6.118   1.932   3.303
 6456SOL    HW220268   6.118   2.028   3.171
 6457SOL     OW20269   1.772   5.993   3.084
 6457SOL    HW120270   1.696   6.036   3.035
 6457SOL    HW220271   1.785   6.038   3.172
 6458SOL     OW20272   1.312   0.477   4.454
 6458SOL    HW120273   1.228   0.475   4.399
 6458SOL    HW220274   1.329   0.386   4.493
 6459SOL     OW20275   0.515   3.169   2.856
 6459SOL    HW120276   0.545   3.127   2.941
 6459SOL    HW220277   0.578   3.144   2.782
 6460SOL     OW20278   1.941   5.123   6.004
 6460SOL    HW120279   1.951   5.067   6.087
 6460SOL    HW220280   2.016   5.189   5.999
 6461SOL     OW20281   0.411   6.676   1.302
 6461SOL    HW120282   0.376   6.753   1.248
 6461SOL    HW220283   0.335   6.621   1.335
 6462SOL     OW20284   2.415   4.307   5.641
 6462SOL    HW120285   2.400   4.212   5.613
 6462SOL    HW220286   2.368   4.369   5.578
 6463SOL     OW20287   4.703   3.095   1.042
 6463SOL    HW120288   4.685   3.000   1.067
 6463SOL    HW220289   4.661   3.115   0.953
 6464SOL     OW20290   1.088   3.638   3.269
 6464SOL    HW120291   1.147   3.609   3.194
 6464SOL    HW220292   1.022   3.705   3.235
 6465SOL     OW20293   2.330   1.593   3.369
 6465SOL    HW120294   2.349   1.685   3.401
 6465SOL    HW220295   2.232   1.586   3.347
 6466SOL     OW20296   6.756   4.727   6.380
 6466SOL    HW120297   6.812   4.670   6.320
 6466SOL    HW220298   6.808   4.808   6.408
 6467SOL     OW20299   2.510   3.214   5.906
 6467SOL    HW120300   2.540   3.160   5.985
 6467SOL    HW220301   2.580   3.282   5.884
 6468SOL     OW20302   1.045   0.470   1.098
 6468SOL    HW120303   1.133   0.504   1.133
 6468SOL    HW220304   0.974   0.490   1.165
 6469SOL     OW20305   2.328   0.940   1.144
 6469SOL    HW120306   2.233   0.919   1.119
 6469SOL    HW220307   2.383   0.948   1.062
 6470SOL     OW20308   6.060   1.731   6.447
 6470SOL    HW120309   6.056   1.820   6.491
 6470SOL    HW220310   6.004   1.732   6.364
 6471SOL     OW20311   0.715   6.151   5.862
 6471SOL    HW120312   0.686   6.061   5.828
 6471SOL    HW220313   0.670   6.222   5.809
 6472SOL     OW20314   0.676   6.639   1.418
 6472SOL    HW120315   0.598   6.638   1.356
 6472SOL    HW220316   0.644   6.628   1.512
 6473SOL     OW20317   2.619   1.857   3.487
 6473SOL    HW120318   2.548   1.919   3.453
 6473SOL    HW220319   2.708   1.889   3.456
 6474SOL     OW20320   3.709   6.830   4.416
 6474SOL    HW120321   3.752   6.910   4.457
 6474SOL    HW220322   3.632   6.801   4.474
 6475SOL     OW20323   5.095   5.960   3.344
 6475SOL    HW120324   5.123   5.899   3.270
 6475SOL    HW220325   5.085   6.053   3.309
 6476SOL     OW20326   4.731   4.069   5.748
 6476SOL    HW120327   4.792   3.997   5.713
 6476SOL    HW220328   4.767   4.158   5.722
 6477SOL     OW20329   0.510   6.259   0.781
 6477SOL    HW120330   0.425   6.207   0.766
 6477SOL    HW220331   0.488   6.349   0.818
 6478SOL     OW20332   1.487   6.410   0.946
 6478SOL    HW120333   1.489   6.505   0.977
 6478SOL    HW220334   1.578   6.370   0.955
 6479SOL     OW20335   4.480   6.104   3.860
 6479SOL    HW120336   4.438   6.094   3.950
 6479SOL    HW220337   4.430   6.049   3.793
 6480SOL     OW20338   3.336   1.539   5.459
 6480SOL    HW120339   3.303   1.486   5.382
 6480SOL    HW220340   3.275   1.616   5.476
 6481SOL     OW20341   4.380   3.108   1.720
 6481SOL    HW120342   4.462   3.093   1.776
 6481SOL    HW220343   4.357   3.024   1.670
 6482SOL     OW20344   5.222   3.293   5.079
 6482SOL    HW120345   5.152   3.364   5.088
 6482SOL    HW220346   5.185   3.217   5.025
 6483SOL     OW20347   1.863   5.717   5.933
 6483SOL    HW120348   1.778   5.667   5.921
 6483SOL    HW220349   1.861   5.766   6.021
 6484SOL     OW20350   3.994   1.747   3.022
 6484SOL    HW120351   3.906   1.793   3.008
 6484SOL    HW220352   3.977   1.650   3.042
 6485SOL     OW20353   2.560   5.037   4.423
 6485SOL    HW120354   2.583   5.009   4.517
 6485SOL    HW220355   2.474   5.087   4.424
 6486SOL     OW20356   0.100   4.015   2.143
 6486SOL    HW120357   0.117   3.926   2.101
 6486SOL    HW220358   0.030   4.064   2.092
 6487SOL     OW20359   5.930   5.261   4.146
 6487SOL    HW120360   6.028   5.242   4.142
 6487SOL    HW220361   5.902   5.311   4.064
 6488SOL     OW20362   4.074   5.046   3.971
 6488SOL    HW120363   4.066   5.086   4.063
 6488SOL    HW220364   4.042   5.112   3.903
 6489SOL     OW20365   6.457   3.077   4.960
 6489SOL    HW120366   6.466   3.167   4.916
 6489SOL    HW220367   6.543   3.027   4.952
 6490SOL     OW20368   1.845   3.154   0.465
 6490SOL    HW120369   1.846   3.119   0.371
 6490SOL    HW220370   1.922   3.216   0.478
 6491SOL     OW20371   1.899   0.629   1.800
 6491SOL    HW120372   1.954   0.546   1.811
 6491SOL    HW220373   1.871   0.638   1.704
 6492SOL     OW20374   3.988   3.654   4.082
 6492SOL    HW120375   4.004   3.703   4.167
 6492SOL    HW220376   3.892   3.626   4.077
 6493SOL     OW20377   1.258   4.859   4.143
 6493SOL    HW120378   1.180   4.918   4.164
 6493SOL    HW220379   1.231   4.763   4.151
 6494SOL     OW20380   6.544   0.977   1.510
 6494SOL    HW120381   6.472   0.944   1.449
 6494SOL    HW220382   6.615   0.907   1.518
 6495SOL     OW20383   6.566   6.457   2.560
 6495SOL    HW120384   6.590   6.366   2.592
 6495SOL    HW220385   6.644   6.518   2.570
 6496SOL     OW20386   2.935   2.335   1.510
 6496SOL    HW120387   2.996   2.414   1.510
 6496SOL    HW220388   2.988   2.252   1.488
 6497SOL     OW20389   0.989   2.210   0.889
 6497SOL    HW120390   0.937   2.266   0.825
 6497SOL    HW220391   0.984   2.250   0.981
 6498SOL     OW20392   2.316   4.773   4.278
 6498SOL    HW120393   2.278   4.708   4.212
 6498SOL    HW220394   2.416   4.777   4.266
 6499SOL     OW20395   5.519   2.306   2.761
 6499SOL    HW120396   5.432   2.341   2.728
 6499SOL    HW220397   5.578   2.382   2.787
 6500SOL     OW20398   1.604   3.733   2.613
 6500SOL    HW120399   1.593   3.824   2.655
 6500SOL    HW220400   1.701   3.715   2.599
 6501SOL     OW20401   6.710   0.653   2.569
 6501SOL    HW120402   6.713   0.680   2.665
 6501SOL    HW220403   6.695   0.554   2.562
 6502SOL     OW20404   0.970   3.132   1.741
 6502SOL    HW120405   1.065   3.109   1.764
 6502SOL    HW220406   0.956   3.122   1.643
 6503SOL     OW20407   0.132   2.491   5.465
 6503SOL    HW120408   0.131   2.586   5.497
 6503SOL    HW220409   0.226   2.457   5.467
 6504SOL     OW20410   4.105   6.899   5.868
 6504SOL    HW120411   4.062   6.821   5.824
 6504SOL    HW220412   4.145   6.960   5.799
 6505SOL     OW20413   0.098   6.419   0.134
 6505SOL    HW120414   0.188   6.427   0.178
 6505SOL    HW220415   0.102   6.459   0.043
 6506SOL     OW20416   6.868   3.470   1.607
 6506SOL    HW120417   6.789   3.527   1.632
 6506SOL    HW220418   6.847   3.420   1.524
 6507SOL     OW20419   4.291   5.718   0.955
 6507SOL    HW120420   4.317   5.624   0.931
 6507SOL    HW220421   4.201   5.718   0.997
 6508SOL     OW20422   6.810   0.490   4.004
 6508SOL    HW120423   6.883   0.431   4.041
 6508SOL    HW220424   6.774   0.547   4.078
 6509SOL     OW20425   2.281   1.828   0.541
 6509SOL    HW120426   2.211   1.838   0.612
 6509SOL    HW220427   2.236   1.811   0.452
 6510SOL     OW20428   3.539   4.954   4.414
 6510SOL    HW120429   3.439   4.963   4.421
 6510SOL    HW220430   3.569   4.983   4.324
 6511SOL     OW20431   3.269   2.609   6.610
 6511SOL    HW120432   3.284   2.707   6.621
 6511SOL    HW220433   3.223   2.593   6.522
 6512SOL     OW20434   5.141   0.799   1.061
 6512SOL    HW120435   5.151   0.699   1.068
 6512SOL    HW220436   5.100   0.834   1.145
 6513SOL     OW20437   3.233   4.891   2.587
 6513SOL    HW120438   3.244   4.978   2.635
 6513SOL    HW220439   3.153   4.895   2.528
 6514SOL     OW20440   5.086   5.478   5.455
 6514SOL    HW120441   5.029   5.403   5.486
 6514SOL    HW220442   5.087   5.550   5.525
 6515SOL     OW20443   0.602   4.812   2.106
 6515SOL    HW120444   0.666   4.871   2.156
 6515SOL    HW220445   0.628   4.811   2.009
 6516SOL     OW20446   5.764   0.993   3.965
 6516SOL    HW120447   5.806   1.002   3.875
 6516SOL    HW220448   5.671   1.029   3.962
 6517SOL     OW20449   6.809   4.066   0.826
 6517SOL    HW120450   6.868   4.140   0.856
 6517SOL    HW220451   6.811   3.992   0.893
 6518SOL     OW20452   1.094   1.567   2.205
 6518SOL    HW120453   1.180   1.600   2.243
 6518SOL    HW220454   1.020   1.628   2.232
 6519SOL     OW20455   1.106   1.488   3.302
 6519SOL    HW120456   1.037   1.557   3.323
 6519SOL    HW220457   1.109   1.421   3.376
 6520SOL     OW20458   6.169   5.579   6.712
 6520SOL    HW120459   6.189   5.486   6.681
 6520SOL    HW220460   6.109   5.624   6.645
 6521SOL     OW20461   1.688   4.494   4.408
 6521SOL    HW120462   1.703   4.592   4.394
 6521SOL    HW220463   1.765   4.455   4.458
 6522SOL     OW20464   2.077   3.132   4.957
 6522SOL    HW120465   2.091   3.230   4.941
 6522SOL    HW220466   2.162   3.091   4.990
 6523SOL     OW20467   5.499   6.594   0.362
 6523SOL    HW120468   5.431   6.667   0.371
 6523SOL    HW220469   5.488   6.550   0.272
 6524SOL     OW20470   3.226   2.922   1.336
 6524SOL    HW120471   3.175   2.898   1.418
 6524SOL    HW220472   3.263   2.840   1.294
 6525SOL     OW20473   2.117   4.687   3.845
 6525SOL    HW120474   2.211   4.653   3.847
 6525SOL    HW220475   2.078   4.672   3.754
 6526SOL     OW20476   6.680   5.958   0.332
 6526SOL    HW120477   6.680   5.947   0.431
 6526SOL    HW220478   6.659   6.054   0.309
 6527SOL     OW20479   5.103   2.044   1.098
 6527SOL    HW120480   5.037   1.969   1.091
 6527SOL    HW220481   5.146   2.042   1.188
 6528SOL     OW20482   4.588   6.605   0.123
 6528SOL    HW120483   4.667   6.659   0.149
 6528SOL    HW220484   4.543   6.569   0.205
 6529SOL     OW20485   4.397   0.369   1.834
 6529SOL    HW120486   4.302   0.355   1.865
 6529SOL    HW220487   4.412   0.318   1.750
 6530SOL     OW20488   0.170   2.651   4.060
 6530SOL    HW120489   0.160   2.686   3.967
 6530SOL    HW220490   0.203   2.556   4.056
 6531SOL     OW20491   3.694   3.169   3.578
 6531SOL    HW120492   3.786   3.136   3.561
 6531SOL    HW220493   3.698   3.261   3.617
 6532SOL     OW20494   0.930   5.535   0.247
 6532SOL    HW120495   0.848   5.481   0.228
 6532SOL    HW220496   0.907   5.610   0.309
 6533SOL     OW20497   5.313   5.237   1.131
 6533SOL    HW120498   5.305   5.196   1.222
 6533SOL    HW220499   5.234   5.296   1.113
 6534SOL     OW20500   6.692   3.085   4.135
 6534SOL    HW120501   6.600   3.050   4.157
 6534SOL    HW220502   6.689   3.132   4.047
 6535SOL     OW20503   5.294   3.736   5.926
 6535SOL    HW120504   5.317   3.778   5.839
 6535SOL    HW220505   5.280   3.807   5.995
 6536SOL     OW20506   0.338   5.270   5.616
 6536SOL    HW120507   0.396   5.211   5.559
 6536SOL    HW220508   0.361   5.255   5.712
 6537SOL     OW20509   6.560   5.449   4.533
 6537SOL    HW120510   6.644   5.395   4.522
 6537SOL    HW220511   6.584   5.546   4.541
 6538SOL     OW20512   1.454   3.472   3.582
 6538SOL    HW120513   1.537   3.483   3.527
 6538SOL    HW220514   1.381   3.434   3.525
 6539SOL     OW20515   5.126   6.924   6.389
 6539SOL    HW120516   5.179   7.007   6.407
 6539SOL    HW220517   5.188   6.852   6.356
 6540SOL     OW20518   0.805   2.338   4.766
 6540SOL    HW120519   0.882   2.277   4.745
 6540SOL    HW220520   0.721   2.299   4.730
 6541SOL     OW20521   3.808   1.496   5.472
 6541SOL    HW120522   3.790   1.411   5.422
 6541SOL    HW220523   3.872   1.477   5.547
 6542SOL     OW20524   1.595   4.299   1.995
 6542SOL    HW120525   1.658   4.345   1.932
 6542SOL    HW220526   1.533   4.240   1.943
 6543SOL     OW20527   3.899   1.548   4.155
 6543SOL    HW120528   3.856   1.551   4.065
 6543SOL    HW220529   3.986   1.597   4.153
 6544SOL     OW20530   1.030   0.261   0.919
 6544SOL    HW120531   1.025   0.166   0.951
 6544SOL    HW220532   1.051   0.321   0.995
 6545SOL     OW20533   5.769   5.739   0.772
 6545SOL    HW120534   5.862   5.702   0.779
 6545SOL    HW220535   5.751   5.767   0.678
 6546SOL     OW20536   4.561   5.274   5.185
 6546SOL    HW120537   4.472   5.319   5.175
 6546SOL    HW220538   4.557   5.183   5.143
 6547SOL     OW20539   1.054   6.541   5.258
 6547SOL    HW120540   1.034   6.620   5.200
 6547SOL    HW220541   0.969   6.492   5.279
 6548SOL     OW20542   1.271   2.061   6.230
 6548SOL    HW120543   1.250   1.976   6.182
 6548SOL    HW220544   1.352   2.103   6.189
 6549SOL     OW20545   3.589   1.445   2.547
 6549SOL    HW120546   3.519   1.389   2.593
 6549SOL    HW220547   3.551   1.481   2.462
 6550SOL     OW20548   6.164   6.972   1.834
 6550SOL    HW120549   6.190   7.005   1.743
 6550SOL    HW220550   6.165   6.872   1.834
 6551SOL     OW20551   2.759   4.805   1.205
 6551SOL    HW120552   2.754   4.724   1.146
 6551SOL    HW220553   2.698   4.876   1.169
 6552SOL     OW20554   2.085   3.896   6.946
 6552SOL    HW120555   2.068   3.857   0.018
 6552SOL    HW220556   2.000   3.932   6.908
 6553SOL     OW20557   6.984   1.995   3.264
 6553SOL    HW120558   6.978   1.929   3.189
 6553SOL    HW220559   6.892   2.023   3.292
 6554SOL     OW20560   1.606   2.248   3.419
 6554SOL    HW120561   1.682   2.235   3.482
 6554SOL    HW220562   1.571   2.341   3.428
 6555SOL     OW20563   1.320   3.991   2.711
 6555SOL    HW120564   1.308   3.942   2.798
 6555SOL    HW220565   1.387   4.064   2.723
 6556SOL     OW20566   4.861   3.346   3.287
 6556SOL    HW120567   4.889   3.368   3.380
 6556SOL    HW220568   4.880   3.424   3.227
 6557SOL     OW20569   1.705   0.170   2.582
 6557SOL    HW120570   1.629   0.154   2.644
 6557SOL    HW220571   1.788   0.190   2.635
 6558SOL     OW20572   5.024   5.534   0.867
 6558SOL    HW120573   5.031   5.631   0.889
 6558SOL    HW220574   4.949   5.520   0.801
 6559SOL     OW20575   0.414   2.016   6.646
 6559SOL    HW120576   0.367   2.104   6.631
 6559SOL    HW220577   0.480   2.025   6.721
 6560SOL     OW20578   6.931   4.578   6.246
 6560SOL    HW120579   6.937   4.479   6.243
 6560SOL    HW220580   0.005   4.617   6.234
 6561SOL     OW20581   2.746   5.593   0.937
 6561SOL    HW120582   2.694   5.592   0.851
 6561SOL    HW220583   2.813   5.519   0.936
 6562SOL     OW20584   4.817   2.300   2.020
 6562SOL    HW120585   4.777   2.371   2.078
 6562SOL    HW220586   4.795   2.210   2.058
 6563SOL     OW20587   6.052   5.648   5.142
 6563SOL    HW120588   5.970   5.626   5.088
 6563SOL    HW220589   6.033   5.634   5.239
 6564SOL     OW20590   5.228   3.421   2.469
 6564SOL    HW120591   5.192   3.391   2.381
 6564SOL    HW220592   5.182   3.372   2.543
 6565SOL     OW20593   4.959   5.847   2.352
 6565SOL    HW120594   4.868   5.850   2.311
 6565SOL    HW220595   5.003   5.760   2.330
 6566SOL     OW20596   5.215   5.819   3.763
 6566SOL    HW120597   5.131   5.834   3.712
 6566SOL    HW220598   5.238   5.722   3.761
 6567SOL     OW20599   3.034   0.888   2.717
 6567SOL    HW120600   3.019   0.958   2.786
 6567SOL    HW220601   3.098   0.922   2.648
 6568SOL     OW20602   5.409   0.968   1.085
 6568SOL    HW120603   5.317   0.947   1.053
 6568SOL    HW220604   5.438   0.898   1.151
 6569SOL     OW20605   1.586   4.728   3.295
 6569SOL    HW120606   1.659   4.675   3.337
 6569SOL    HW220607   1.625   4.797   3.234
 6570SOL     OW20608   4.611   0.211   2.706
 6570SOL    HW120609   4.630   0.132   2.648
 6570SOL    HW220610   4.632   0.295   2.655
 6571SOL     OW20611   2.829   6.337   2.955
 6571SOL    HW120612   2.833   6.405   3.028
 6571SOL    HW220613   2.915   6.340   2.903
 6572SOL     OW20614   1.528   6.133   3.861
 6572SOL    HW120615   1.557   6.047   3.819
 6572SOL    HW220616   1.561   6.137   3.955
 6573SOL     OW20617   0.284   1.956   3.101
 6573SOL    HW120618   0.257   2.046   3.137
 6573SOL    HW220619   0.380   1.958   3.075
 6574SOL     OW20620   0.488   5.130   2.095
 6574SOL    HW120621   0.524   5.131   2.001
 6574SOL    HW220622   0.555   5.086   2.155
 6575SOL     OW20623   0.015   1.382   3.447
 6575SOL    HW120624   6.987   1.344   3.527
 6575SOL    HW220625   6.969   1.440   3.396
 6576SOL     OW20626   3.836   0.111   1.799
 6576SOL    HW120627   3.888   0.083   1.717
 6576SOL    HW220628   3.882   0.188   1.843
 6577SOL     OW20629   3.598   1.026   5.171
 6577SOL    HW120630   3.622   1.120   5.148
 6577SOL    HW220631   3.507   1.005   5.136
 6578SOL     OW20632   1.035   5.649   6.639
 6578SOL    HW120633   0.961   5.702   6.599
 6578SOL    HW220634   0.999   5.588   6.710
 6579SOL     OW20635   1.599   1.770   3.590
 6579SOL    HW120636   1.527   1.825   3.548
 6579SOL    HW220637   1.687   1.793   3.550
 6580SOL     OW20638   2.943   2.571   0.106
 6580SOL    HW120639   2.918   2.659   0.147
 6580SOL    HW220640   2.870   2.541   0.045
 6581SOL     OW20641   0.610   2.554   2.183
 6581SOL    HW120642   0.570   2.646   2.184
 6581SOL    HW220643   0.626   2.526   2.089
 6582SOL     OW20644   4.570   0.606   3.064
 6582SOL    HW120645   4.493   0.661   3.097
 6582SOL    HW220646   4.656   0.656   3.080
 6583SOL     OW20647   2.788   4.605   0.951
 6583SOL    HW120648   2.809   4.640   0.860
 6583SOL    HW220649   2.856   4.537   0.978
 6584SOL     OW20650   3.795   2.958   6.286
 6584SOL    HW120651   3.798   3.055   6.259
 6584SOL    HW220652   3.709   2.918   6.254
 6585SOL     OW20653   5.639   0.201   1.831
 6585SOL    HW120654   5.601   0.227   1.919
 6585SOL    HW220655   5.667   0.104   1.834
 6586SOL     OW20656   6.539   1.598   0.016
 6586SOL    HW120657   6.470   1.585   6.963
 6586SOL    HW220658   6.497   1.643   0.096
 6587SOL     OW20659   3.236   5.165   5.207
 6587SOL    HW120660   3.143   5.187   5.238
 6587SOL    HW220661   3.233   5.082   5.151
 6588SOL     OW20662   0.848   1.217   0.296
 6588SOL    HW120663   0.912   1.293   0.303
 6588SOL    HW220664   0.845   1.168   0.383
 6589SOL     OW20665   6.220   6.820   1.308
 6589SOL    HW120666   6.232   6.913   1.273
 6589SOL    HW220667   6.188   6.824   1.403
 6590SOL     OW20668   1.537   6.451   4.673
 6590SOL    HW120669   1.559   6.411   4.584
 6590SOL    HW220670   1.505   6.379   4.735
 6591SOL     OW20671   6.495   3.350   3.525
 6591SOL    HW120672   6.572   3.307   3.571
 6591SOL    HW220673   6.486   3.314   3.433
 6592SOL     OW20674   0.242   0.655   3.878
 6592SOL    HW120675   0.307   0.710   3.929
 6592SOL    HW220676   0.236   0.688   3.784
 6593SOL     OW20677   1.641   0.645   2.793
 6593SOL    HW120678   1.555   0.657   2.842
 6593SOL    HW220679   1.635   0.565   2.733
 6594SOL     OW20680   5.733   0.592   6.715
 6594SOL    HW120681   5.748   0.666   6.780
 6594SOL    HW220682   5.643   0.604   6.671
 6595SOL     OW20683   1.469   1.557   5.048
 6595SOL    HW120684   1.488   1.606   5.134
 6595SOL    HW220685   1.435   1.466   5.069
 6596SOL     OW20686   5.495   1.013   3.221
 6596SOL    HW120687   5.582   0.964   3.229
 6596SOL    HW220688   5.510   1.097   3.167
 6597SOL     OW20689   0.988   5.164   1.227
 6597SOL    HW120690   0.917   5.130   1.289
 6597SOL    HW220691   0.971   5.260   1.206
 6598SOL     OW20692   1.081   4.974   1.789
 6598SOL    HW120693   1.156   4.996   1.727
 6598SOL    HW220694   1.118   4.952   1.879
 6599SOL     OW20695   0.811   5.431   6.445
 6599SOL    HW120696   0.747   5.487   6.392
 6599SOL    HW220697   0.761   5.384   6.519
 6600SOL     OW20698   4.210   6.271   4.835
 6600SOL    HW120699   4.230   6.350   4.892
 6600SOL    HW220700   4.287   6.253   4.774
 6601SOL     OW20701   0.905   2.662   2.062
 6601SOL    HW120702   0.878   2.566   2.048
 6601SOL    HW220703   0.997   2.676   2.025
 6602SOL     OW20704   6.192   5.845   0.939
 6602SOL    HW120705   6.135   5.772   0.901
 6602SOL    HW220706   6.181   5.928   0.884
 6603SOL     OW20707   0.349   4.276   2.319
 6603SOL    HW120708   0.361   4.294   2.221
 6603SOL    HW220709   0.271   4.214   2.332
 6604SOL     OW20710   1.126   5.135   2.438
 6604SOL    HW120711   1.160   5.172   2.525
 6604SOL    HW220712   1.168   5.185   2.362
 6605SOL     OW20713   0.069   5.000   1.099
 6605SOL    HW120714   0.098   4.904   1.103
 6605SOL    HW220715   0.065   5.038   1.192
 6606SOL     OW20716   1.578   4.413   2.466
 6606SOL    HW120717   1.552   4.490   2.409
 6606SOL    HW220718   1.512   4.339   2.455
 6607SOL     OW20719   6.939   3.622   4.315
 6607SOL    HW120720   6.977   3.588   4.229
 6607SOL    HW220721   6.889   3.707   4.298
 6608SOL     OW20722   1.056   0.230   5.552
 6608SOL    HW120723   1.034   0.318   5.512
 6608SOL    HW220724   1.140   0.237   5.606
 6609SOL     OW20725   2.769   2.385   6.646
 6609SOL    HW120726   2.685   2.439   6.645
 6609SOL    HW220727   2.809   2.388   6.738
 6610SOL     OW20728   3.098   6.670   1.528
 6610SOL    HW120729   3.122   6.725   1.448
 6610SOL    HW220730   3.001   6.683   1.550
 6611SOL     OW20731   3.184   1.548   4.439
 6611SOL    HW120732   3.242   1.628   4.425
 6611SOL    HW220733   3.164   1.504   4.351
 6612SOL     OW20734   0.305   6.759   0.046
 6612SOL    HW120735   0.306   6.749   0.146
 6612SOL    HW220736   0.301   6.855   0.022
 6613SOL     OW20737   3.891   6.668   1.281
 6613SOL    HW120738   3.947   6.663   1.199
 6613SOL    HW220739   3.801   6.706   1.258
 6614SOL     OW20740   3.617   4.490   1.073
 6614SOL    HW120741   3.610   4.400   1.030
 6614SOL    HW220742   3.547   4.500   1.143
 6615SOL     OW20743   3.102   5.638   5.816
 6615SOL    HW120744   3.110   5.661   5.719
 6615SOL    HW220745   3.158   5.701   5.870
 6616SOL     OW20746   4.088   2.055   6.581
 6616SOL    HW120747   4.094   1.965   6.625
 6616SOL    HW220748   3.998   2.095   6.601
 6617SOL     OW20749   3.431   1.464   4.082
 6617SOL    HW120750   3.500   1.470   4.155
 6617SOL    HW220751   3.446   1.538   4.017
 6618SOL     OW20752   5.809   3.408   3.677
 6618SOL    HW120753   5.852   3.487   3.635
 6618SOL    HW220754   5.737   3.438   3.740
 6619SOL     OW20755   4.959   5.187   4.023
 6619SOL    HW120756   4.954   5.130   4.105
 6619SOL    HW220757   4.924   5.278   4.043
 6620SOL     OW20758   1.395   2.935   3.284
 6620SOL    HW120759   1.457   2.857   3.276
 6620SOL    HW220760   1.376   2.971   3.193
 6621SOL     OW20761   3.497   3.684   3.559
 6621SOL    HW120762   3.589   3.686   3.521
 6621SOL    HW220763   3.430   3.692   3.485
 6622SOL     OW20764   0.179   4.709   1.044
 6622SOL    HW120765   0.099   4.650   1.044
 6622SOL    HW220766   0.225   4.702   0.956
 6623SOL     OW20767   3.520   3.417   3.625
 6623SOL    HW120768   3.487   3.512   3.619
 6623SOL    HW220769   3.442   3.355   3.618
 6624SOL     OW20770   2.452   1.985   2.928
 6624SOL    HW120771   2.525   2.031   2.979
 6624SOL    HW220772   2.467   1.997   2.830
 6625SOL     OW20773   6.975   4.516   5.352
 6625SOL    HW120774   0.041   4.461   5.346
 6625SOL    HW220775   6.994   4.609   5.321
 6626SOL     OW20776   2.788   5.638   5.864
 6626SOL    HW120777   2.760   5.583   5.943
 6626SOL    HW220778   2.886   5.658   5.870
 6627SOL     OW20779   2.393   6.725   4.327
 6627SOL    HW120780   2.310   6.758   4.283
 6627SOL    HW220781   2.374   6.704   4.422
 6628SOL     OW20782   3.705   0.518   3.253
 6628SOL    HW120783   3.740   0.450   3.317
 6628SOL    HW220784   3.630   0.568   3.296
 6629SOL     OW20785   4.672   5.790   4.842
 6629SOL    HW120786   4.674   5.890   4.834
 6629SOL    HW220787   4.600   5.764   4.906
 6630SOL     OW20788   1.976   0.093   0.368
 6630SOL    HW120789   2.053   0.085   0.431
 6630SOL    HW220790   1.917   0.168   0.397
 6631SOL     OW20791   1.453   2.338   5.353
 6631SOL    HW120792   1.472   2.264   5.289
 6631SOL    HW220793   1.536   2.362   5.403
 6632SOL     OW20794   1.379   0.058   6.494
 6632SOL    HW120795   1.351   0.055   6.398
 6632SOL    HW220796   1.347   0.142   6.537
 6633SOL     OW20797   4.604   6.633   5.974
 6633SOL    HW120798   4.629   6.726   6.000
 6633SOL    HW220799   4.542   6.635   5.896
 6634SOL     OW20800   2.818   2.202   3.668
 6634SOL    HW120801   2.811   2.252   3.754
 6634SOL    HW220802   2.881   2.125   3.680
 6635SOL     OW20803   4.974   5.885   6.039
 6635SOL    HW120804   4.932   5.869   5.950
 6635SOL    HW220805   4.980   5.799   6.089
 6636SOL     OW20806   4.033   1.142   1.009
 6636SOL    HW120807   4.098   1.183   0.945
 6636SOL    HW220808   4.066   1.153   1.103
 6637SOL     OW20809   0.143   2.082   6.945
 6637SOL    HW120810   0.149   2.005   6.882
 6637SOL    HW220811   0.088   2.056   0.006
 6638SOL     OW20812   2.955   3.425   3.485
 6638SOL    HW120813   2.953   3.329   3.459
 6638SOL    HW220814   2.915   3.436   3.576
 6639SOL     OW20815   4.752   2.832   1.188
 6639SOL    HW120816   4.713   2.774   1.260
 6639SOL    HW220817   4.742   2.786   1.100
 6640SOL     OW20818   1.222   3.933   4.494
 6640SOL    HW120819   1.228   3.933   4.394
 6640SOL    HW220820   1.185   3.845   4.525
 6641SOL     OW20821   6.148   2.486   0.167
 6641SOL    HW120822   6.072   2.422   0.175
 6641SOL    HW220823   6.113   2.578   0.147
 6642SOL     OW20824   0.703   5.130   6.058
 6642SOL    HW120825   0.635   5.172   6.117
 6642SOL    HW220826   0.671   5.132   5.963
 6643SOL     OW20827   4.109   5.651   6.062
 6643SOL    HW120828   4.060   5.598   5.993
 6643SOL    HW220829   4.046   5.715   6.106
 6644SOL     OW20830   1.804   0.617   3.608
 6644SOL    HW120831   1.714   0.634   3.647
 6644SOL    HW220832   1.838   0.700   3.564
 6645SOL     OW20833   4.655   2.318   5.764
 6645SOL    HW120834   4.556   2.314   5.753
 6645SOL    HW220835   4.677   2.362   5.851
 6646SOL     OW20836   4.734   0.294   6.307
 6646SOL    HW120837   4.811   0.314   6.368
 6646SOL    HW220838   4.665   0.241   6.356
 6647SOL     OW20839   3.959   4.683   1.226
 6647SOL    HW120840   4.055   4.706   1.211
 6647SOL    HW220841   3.936   4.601   1.174
 6648SOL     OW20842   3.356   5.158   5.810
 6648SOL    HW120843   3.318   5.139   5.719
 6648SOL    HW220844   3.446   5.115   5.818
 6649SOL     OW20845   5.182   2.328   5.908
 6649SOL    HW120846   5.099   2.368   5.870
 6649SOL    HW220847   5.262   2.368   5.863
 6650SOL     OW20848   2.466   1.317   5.076
 6650SOL    HW120849   2.524   1.321   5.158
 6650SOL    HW220850   2.463   1.223   5.042
 6651SOL     OW20851   6.883   1.408   4.221
 6651SOL    HW120852   6.818   1.393   4.296
 6651SOL    HW220853   6.944   1.483   4.245
 6652SOL     OW20854   0.315   4.384   6.793
 6652SOL    HW120855   0.392   4.448   6.799
 6652SOL    HW220856   0.250   4.403   6.867
 6653SOL     OW20857   5.653   4.274   6.639
 6653SOL    HW120858   5.620   4.197   6.694
 6653SOL    HW220859   5.597   4.281   6.556
 6654SOL     OW20860   6.718   2.028   3.338
 6654SOL    HW120861   6.684   1.952   3.394
 6654SOL    HW220862   6.676   2.024   3.247
 6655SOL     OW20863   6.922   5.977   1.146
 6655SOL    HW120864   6.957   5.991   1.239
 6655SOL    HW220865   6.843   5.915   1.149
 6656SOL     OW20866   4.185   1.143   1.986
 6656SOL    HW120867   4.143   1.101   2.066
 6656SOL    HW220868   4.115   1.190   1.932
 6657SOL     OW20869   4.752   1.914   4.774
 6657SOL    HW120870   4.814   1.836   4.764
 6657SOL    HW220871   4.779   1.968   4.855
 6658SOL     OW20872   6.905   5.892   4.591
 6658SOL    HW120873   6.951   5.805   4.571
 6658SOL    HW220874   6.881   5.937   4.506
 6659SOL     OW20875   0.516   5.642   0.855
 6659SOL    HW120876   0.418   5.644   0.837
 6659SOL    HW220877   0.558   5.725   0.817
 6660SOL     OW20878   0.884   0.188   4.309
 6660SOL    HW120879   0.827   0.154   4.234
 6660SOL    HW220880   0.965   0.131   4.319
 6661SOL     OW20881   4.175   6.285   3.863
 6661SOL    HW120882   4.268   6.317   3.880
 6661SOL    HW220883   4.176   6.216   3.791
 6662SOL     OW20884   3.402   6.905   2.471
 6662SOL    HW120885   3.409   6.974   2.544
 6662SOL    HW220886   3.352   6.826   2.505
 6663SOL     OW20887   1.835   4.338   5.490
 6663SOL    HW120888   1.830   4.438   5.486
 6663SOL    HW220889   1.869   4.303   5.402
 6664SOL     OW20890   3.370   0.258   2.018
 6664SOL    HW120891   3.454   0.212   1.987
 6664SOL    HW220892   3.332   0.209   2.096
 6665SOL     OW20893   2.733   0.692   0.441
 6665SOL    HW120894   2.768   0.680   0.533
 6665SOL    HW220895   2.691   0.782   0.432
 6666SOL     OW20896   2.597   6.039   5.764
 6666SOL    HW120897   2.695   6.052   5.782
 6666SOL    HW220898   2.572   5.945   5.785
 6667SOL     OW20899   1.726   5.682   0.148
 6667SOL    HW120900   1.790   5.610   0.174
 6667SOL    HW220901   1.633   5.656   0.176
 6668SOL     OW20902   0.052   3.685   6.653
 6668SOL    HW120903   0.016   3.778   6.662
 6668SOL    HW220904   0.152   3.689   6.648
 6669SOL     OW20905   1.140   2.840   3.427
 6669SOL    HW120906   1.227   2.874   3.393
 6669SOL    HW220907   1.066   2.872   3.367
 6670SOL     OW20908   2.955   3.534   0.632
 6670SOL    HW120909   2.991   3.494   0.716
 6670SOL    HW220910   2.900   3.466   0.583
 6671SOL     OW20911   4.360   5.115   0.461
 6671SOL    HW120912   4.300   5.128   0.382
 6671SOL    HW220913   4.428   5.188   0.464
 6672SOL     OW20914   1.726   2.843   1.386
 6672SOL    HW120915   1.767   2.754   1.407
 6672SOL    HW220916   1.637   2.850   1.430
 6673SOL     OW20917   5.604   3.536   3.819
 6673SOL    HW120918   5.653   3.581   3.894
 6673SOL    HW220919   5.508   3.526   3.843
 6674SOL     OW20920   6.838   0.163   0.629
 6674SOL    HW120921   6.851   0.069   0.598
 6674SOL    HW220922   6.927   0.202   0.655
 6675SOL     OW20923   4.520   1.373   0.264
 6675SOL    HW120924   4.473   1.285   0.268
 6675SOL    HW220925   4.486   1.425   0.186
 6676SOL     OW20926   0.739   4.275   5.057
 6676SOL    HW120927   0.719   4.283   5.155
 6676SOL    HW220928   0.706   4.187   5.024
 6677SOL     OW20929   0.231   2.299   6.796
 6677SOL    HW120930   0.162   2.365   6.768
 6677SOL    HW220931   0.193   2.240   6.867
 6678SOL     OW20932   2.854   4.182   6.360
 6678SOL    HW120933   2.887   4.206   6.451
 6678SOL    HW220934   2.800   4.098   6.365
 6679SOL     OW20935   1.192   0.393   4.100
 6679SOL    HW120936   1.283   0.366   4.131
 6679SOL    HW220937   1.132   0.403   4.179
 6680SOL     OW20938   6.124   5.047   1.715
 6680SOL    HW120939   6.059   5.104   1.766
 6680SOL    HW220940   6.198   5.104   1.680
 6681SOL     OW20941   2.883   5.879   1.236
 6681SOL    HW120942   2.914   5.959   1.184
 6681SOL    HW220943   2.950   5.805   1.227
 6682SOL     OW20944   2.491   5.624   6.504
 6682SOL    HW120945   2.520   5.561   6.432
 6682SOL    HW220946   2.415   5.679   6.470
 6683SOL     OW20947   6.482   6.118   6.057
 6683SOL    HW120948   6.397   6.132   6.006
 6683SOL    HW220949   6.558   6.113   5.992
 6684SOL     OW20950   2.669   5.833   6.169
 6684SOL    HW120951   2.753   5.820   6.117
 6684SOL    HW220952   2.632   5.924   6.152
 6685SOL     OW20953   4.208   2.491   1.171
 6685SOL    HW120954   4.220   2.441   1.086
 6685SOL    HW220955   4.133   2.556   1.161
 6686SOL     OW20956   4.862   4.808   5.400
 6686SOL    HW120957   4.858   4.714   5.433
 6686SOL    HW220958   4.772   4.837   5.370
 6687SOL     OW20959   0.462   2.252   1.520
 6687SOL    HW120960   0.380   2.306   1.538
 6687SOL    HW220961   0.494   2.269   1.427
 6688SOL     OW20962   4.551   5.963   0.781
 6688SOL    HW120963   4.457   5.995   0.772
 6688SOL    HW220964   4.552   5.875   0.828
 6689SOL     OW20965   3.365   4.854   6.485
 6689SOL    HW120966   3.297   4.922   6.512
 6689SOL    HW220967   3.381   4.859   6.387
 6690SOL     OW20968   1.124   0.331   0.488
 6690SOL    HW120969   1.205   0.331   0.546
 6690SOL    HW220970   1.143   0.381   0.403
 6691SOL     OW20971   2.869   1.802   2.048
 6691SOL    HW120972   2.955   1.803   2.098
 6691SOL    HW220973   2.812   1.727   2.081
 6692SOL     OW20974   4.367   6.613   2.160
 6692SOL    HW120975   4.336   6.642   2.070
 6692SOL    HW220976   4.292   6.569   2.209
 6693SOL     OW20977   3.684   1.629   5.767
 6693SOL    HW120978   3.656   1.662   5.858
 6693SOL    HW220979   3.639   1.685   5.697
 6694SOL     OW20980   4.323   3.841   1.580
 6694SOL    HW120981   4.380   3.921   1.563
 6694SOL    HW220982   4.272   3.854   1.665
 6695SOL     OW20983   2.812   2.699   0.415
 6695SOL    HW120984   2.873   2.624   0.437
 6695SOL    HW220985   2.842   2.744   0.331
 6696SOL     OW20986   3.537   2.942   5.422
 6696SOL    HW120987   3.590   3.021   5.392
 6696SOL    HW220988   3.453   2.973   5.466
 6697SOL     OW20989   4.352   1.889   2.413
 6697SOL    HW120990   4.433   1.841   2.381
 6697SOL    HW220991   4.272   1.855   2.363
 6698SOL     OW20992   2.703   3.700   1.690
 6698SOL    HW120993   2.758   3.713   1.772
 6698SOL    HW220994   2.761   3.701   1.609
 6699SOL     OW20995   1.495   3.161   6.366
 6699SOL    HW120996   1.439   3.241   6.347
 6699SOL    HW220997   1.559   3.147   6.290
 6700SOL     OW20998   5.807   0.759   1.329
 6700SOL    HW120999   5.749   0.791   1.254
 6700SOL    HW221000   5.750   0.721   1.401
 6701SOL     OW21001   5.821   0.022   1.615
 6701SOL    HW121002   5.872   6.955   1.614
 6701SOL    HW221003   5.873   0.092   1.663
 6702SOL     OW21004   4.086   2.925   0.883
 6702SOL    HW121005   4.034   2.942   0.800
 6702SOL    HW221006   4.026   2.889   0.954
 6703SOL     OW21007   0.725   1.457   0.252
 6703SOL    HW121008   0.766   1.366   0.249
 6703SOL    HW221009   0.663   1.467   0.174
 6704SOL     OW21010   3.116   0.233   5.586
 6704SOL    HW121011   3.040   0.284   5.626
 6704SOL    HW221012   3.186   0.217   5.656
 6705SOL     OW21013   6.906   4.451   2.205
 6705SOL    HW121014   6.942   4.419   2.293
 6705SOL    HW221015   6.949   4.399   2.131
 6706SOL     OW21016   0.031   5.999   0.276
 6706SOL    HW121017   6.994   6.034   0.201
 6706SOL    HW221018   0.125   6.032   0.266
 6707SOL     OW21019   4.156   1.111   2.865
 6707SOL    HW121020   4.099   1.087   2.787
 6707SOL    HW221021   4.251   1.118   2.835
 6708SOL     OW21022   0.497   2.996   0.340
 6708SOL    HW121023   0.440   2.980   0.260
 6708SOL    HW221024   0.495   3.093   0.364
 6709SOL     OW21025   2.385   4.443   2.209
 6709SOL    HW121026   2.445   4.430   2.288
 6709SOL    HW221027   2.435   4.491   2.137
 6710SOL     OW21028   4.553   1.556   1.104
 6710SOL    HW121029   4.579   1.611   1.183
 6710SOL    HW221030   4.635   1.527   1.055
 6711SOL     OW21031   3.908   5.755   6.259
 6711SOL    HW121032   3.831   5.700   6.292
 6711SOL    HW221033   3.984   5.748   6.323
 6712SOL     OW21034   5.042   4.037   1.305
 6712SOL    HW121035   4.974   3.965   1.287
 6712SOL    HW221036   5.056   4.046   1.404
 6713SOL     OW21037   2.005   4.256   4.331
 6713SOL    HW121038   2.065   4.326   4.294
 6713SOL    HW221039   2.041   4.165   4.308
 6714SOL     OW21040   5.086   1.364   1.506
 6714SOL    HW121041   5.081   1.267   1.482
 6714SOL    HW221042   4.997   1.394   1.540
 6715SOL     OW21043   1.068   0.193   6.031
 6715SOL    HW121044   1.137   0.250   6.075
 6715SOL    HW221045   0.979   0.209   6.074
 6716SOL     OW21046   1.239   5.333   1.654
 6716SOL    HW121047   1.155   5.326   1.599
 6716SOL    HW221048   1.277   5.242   1.670
 6717SOL     OW21049   6.493   2.046   5.332
 6717SOL    HW121050   6.482   1.989   5.250
 6717SOL    HW221051   6.440   2.006   5.407
 6718SOL     OW21052   4.560   2.183   1.225
 6718SOL    HW121053   4.633   2.126   1.262
 6718SOL    HW221054   4.472   2.137   1.241
 6719SOL     OW21055   1.751   1.342   0.602
 6719SOL    HW121056   1.745   1.404   0.680
 6719SOL    HW221057   1.843   1.346   0.564
 6720SOL     OW21058   1.367   1.562   5.445
 6720SOL    HW121059   1.325   1.623   5.378
 6720SOL    HW221060   1.351   1.467   5.417
 6721SOL     OW21061   6.465   6.337   6.903
 6721SOL    HW121062   6.524   6.397   6.849
 6721SOL    HW221063   6.459   6.247   6.859
 6722SOL     OW21064   5.992   4.591   1.015
 6722SOL    HW121065   5.959   4.679   1.049
 6722SOL    HW221066   5.935   4.562   0.938
 6723SOL     OW21067   1.322   3.285   4.303
 6723SOL    HW121068   1.319   3.282   4.203
 6723SOL    HW221069   1.267   3.363   4.335
 6724SOL     OW21070   2.063   3.959   4.523
 6724SOL    HW121071   1.975   3.988   4.562
 6724SOL    HW221072   2.092   3.874   4.567
 6725SOL     OW21073   4.883   3.137   4.310
 6725SOL    HW121074   4.828   3.141   4.394
 6725SOL    HW221075   4.969   3.090   4.330
 6726SOL     OW21076   0.052   1.570   6.819
 6726SOL    HW121077   7.017   1.654   6.812
 6726SOL    HW221078   0.006   1.506   6.880
 6727SOL     OW21079   0.641   4.924   5.394
 6727SOL    HW121080   0.669   4.950   5.302
 6727SOL    HW221081   0.615   4.827   5.394
 6728SOL     OW21082   3.379   1.235   3.979
 6728SOL    HW121083   3.407   1.318   4.028
 6728SOL    HW221084   3.368   1.160   4.044
 6729SOL     OW21085   3.868   1.008   1.552
 6729SOL    HW121086   3.953   1.037   1.594
 6729SOL    HW221087   3.886   0.935   1.486
 6730SOL     OW21088   0.308   1.950   1.075
 6730SOL    HW121089   0.249   1.920   1.001
 6730SOL    HW221090   0.400   1.911   1.063
 6731SOL     OW21091   3.952   0.404   5.992
 6731SOL    HW121092   3.977   0.450   6.077
 6731SOL    HW221093   3.983   0.309   5.996
 6732SOL     OW21094   6.452   4.904   5.755
 6732SOL    HW121095   6.455   4.804   5.765
 6732SOL    HW221096   6.527   4.944   5.807
 6733SOL     OW21097   4.771   4.986   4.861
 6733SOL    HW121098   4.870   4.999   4.865
 6733SOL    HW221099   4.726   5.075   4.849
 6734SOL     OW21100   5.696   2.446   5.275
 6734SOL    HW121101   5.727   2.351   5.273
 6734SOL    HW221102   5.691   2.478   5.370
 6735SOL     OW21103   5.132   2.844   4.472
 6735SOL    HW121104   5.131   2.897   4.557
 6735SOL    HW221105   5.206   2.778   4.475
 6736SOL     OW21106   3.604   4.162   0.558
 6736SOL    HW121107   3.528   4.187   0.619
 6736SOL    HW221108   3.618   4.063   0.562
 6737SOL     OW21109   6.146   3.685   0.978
 6737SOL    HW121110   6.065   3.625   0.974
 6737SOL    HW221111   6.184   3.682   1.070
 6738SOL     OW21112   2.294   6.544   4.518
 6738SOL    HW121113   2.262   6.569   4.610
 6738SOL    HW221114   2.352   6.463   4.524
 6739SOL     OW21115   6.939   6.791   5.793
 6739SOL    HW121116   6.911   6.696   5.781
 6739SOL    HW221117   6.883   6.834   5.864
 6740SOL     OW21118   0.485   6.980   1.814
 6740SOL    HW121119   0.495   7.006   1.910
 6740SOL    HW221120   0.513   6.885   1.801
 6741SOL     OW21121   3.347   1.665   0.453
 6741SOL    HW121122   3.366   1.699   0.361
 6741SOL    HW221123   3.248   1.665   0.468
 6742SOL     OW21124   6.517   4.668   2.533
 6742SOL    HW121125   6.584   4.593   2.538
 6742SOL    HW221126   6.425   4.629   2.526
 6743SOL     OW21127   3.767   3.559   6.936
 6743SOL    HW121128   3.701   3.522   6.871
 6743SOL    HW221129   3.826   3.625   6.889
 6744SOL     OW21130   6.532   6.830   5.530
 6744SOL    HW121131   6.619   6.843   5.483
 6744SOL    HW221132   6.524   6.898   5.604
 6745SOL     OW21133   6.678   3.987   5.447
 6745SOL    HW121134   6.662   4.047   5.368
 6745SOL    HW221135   6.622   4.016   5.524
 6746SOL     OW21136   1.337   2.113   3.088
 6746SOL    HW121137   1.425   2.088   3.048
 6746SOL    HW221138   1.352   2.179   3.161
 6747SOL     OW21139   0.997   6.277   4.966
 6747SOL    HW121140   1.038   6.368   4.967
 6747SOL    HW221141   1.022   6.230   4.881
 6748SOL     OW21142   1.893   1.344   5.010
 6748SOL    HW121143   1.825   1.318   4.941
 6748SOL    HW221144   1.868   1.305   5.098
 6749SOL     OW21145   4.325   4.985   2.107
 6749SOL    HW121146   4.318   5.076   2.150
 6749SOL    HW221147   4.407   4.982   2.049
 6750SOL     OW21148   3.405   1.181   5.687
 6750SOL    HW121149   3.482   1.244   5.688
 6750SOL    HW221150   3.326   1.225   5.730
 6751SOL     OW21151   4.349   0.929   4.730
 6751SOL    HW121152   4.333   0.924   4.632
 6751SOL    HW221153   4.447   0.924   4.749
 6752SOL     OW21154   2.111   4.819   2.832
 6752SOL    HW121155   2.183   4.800   2.899
 6752SOL    HW221156   2.136   4.899   2.778
 6753SOL     OW21157   3.711   3.903   0.078
 6753SOL    HW121158   3.775   3.910   0.155
 6753SOL    HW221159   3.702   3.993   0.034
 6754SOL     OW21160   6.288   1.054   0.577
 6754SOL    HW121161   6.324   0.971   0.618
 6754SOL    HW221162   6.315   1.059   0.480
 6755SOL     OW21163   3.160   5.671   6.103
 6755SOL    HW121164   3.213   5.753   6.124
 6755SOL    HW221165   3.122   5.633   6.187
 6756SOL     OW21166   3.432   3.341   6.401
 6756SOL    HW121167   3.429   3.296   6.312
 6756SOL    HW221168   3.493   3.421   6.396
 6757SOL     OW21169   4.408   0.211   1.591
 6757SOL    HW121170   4.392   0.113   1.581
 6757SOL    HW221171   4.324   0.261   1.570
 6758SOL     OW21172   5.294   3.316   3.124
 6758SOL    HW121173   5.314   3.219   3.114
 6758SOL    HW221174   5.291   3.360   3.034
 6759SOL     OW21175   1.545   1.677   2.756
 6759SOL    HW121176   1.529   1.661   2.854
 6759SOL    HW221177   1.505   1.764   2.729
 6760SOL     OW21178   5.491   2.135   5.387
 6760SOL    HW121179   5.582   2.095   5.400
 6760SOL    HW221180   5.429   2.066   5.349
 6761SOL     OW21181   3.091   1.191   4.885
 6761SOL    HW121182   3.009   1.246   4.895
 6761SOL    HW221183   3.132   1.174   4.975
 6762SOL     OW21184   5.498   4.695   4.474
 6762SOL    HW121185   5.583   4.670   4.429
 6762SOL    HW221186   5.516   4.720   4.569
 6763SOL     OW21187   5.847   0.080   4.252
 6763SOL    HW121188   5.846   0.085   4.152
 6763SOL    HW221189   5.907   0.152   4.289
 6764SOL     OW21190   0.377   4.883   1.763
 6764SOL    HW121191   0.352   4.797   1.719
 6764SOL    HW221192   0.390   4.953   1.694
 6765SOL     OW21193   0.185   3.576   2.306
 6765SOL    HW121194   0.147   3.611   2.391
 6765SOL    HW221195   0.154   3.482   2.291
 6766SOL     OW21196   6.025   0.163   1.130
 6766SOL    HW121197   6.098   0.224   1.163
 6766SOL    HW221198   5.957   0.150   1.202
 6767SOL     OW21199   2.805   0.355   1.300
 6767SOL    HW121200   2.825   0.450   1.323
 6767SOL    HW221201   2.714   0.349   1.260
 6768SOL     OW21202   1.857   6.839   6.830
 6768SOL    HW121203   1.765   6.808   6.808
 6768SOL    HW221204   1.860   6.939   6.826
 6769SOL     OW21205   4.963   3.141   1.137
 6769SOL    HW121206   4.868   3.137   1.107
 6769SOL    HW221207   4.982   3.230   1.178
 6770SOL     OW21208   0.033   1.442   1.667
 6770SOL    HW121209   0.034   1.431   1.766
 6770SOL    HW221210   0.037   1.540   1.644
 6771SOL     OW21211   5.125   1.925   3.308
 6771SOL    HW121212   5.116   1.949   3.211
 6771SOL    HW221213   5.202   1.862   3.319
 6772SOL     OW21214   3.753   1.716   4.434
 6772SOL    HW121215   3.692   1.669   4.370
 6772SOL    HW221216   3.823   1.765   4.384
 6773SOL     OW21217   0.736   3.820   1.558
 6773SOL    HW121218   0.660   3.764   1.589
 6773SOL    HW221219   0.725   3.842   1.461
 6774SOL     OW21220   0.849   2.577   6.169
 6774SOL    HW121221   0.794   2.597   6.251
 6774SOL    HW221222   0.915   2.652   6.155
 6775SOL     OW21223   1.235   4.114   6.751
 6775SOL    HW121224   1.230   4.050   6.828
 6775SOL    HW221225   1.262   4.065   6.669
 6776SOL     OW21226   5.917   5.775   6.809
 6776SOL    HW121227   6.010   5.812   6.814
 6776SOL    HW221228   5.886   5.751   6.901
 6777SOL     OW21229   4.870   5.214   0.122
 6777SOL    HW121230   4.807   5.286   0.092
 6777SOL    HW221231   4.949   5.212   0.062
 6778SOL     OW21232   6.370   5.792   3.213
 6778SOL    HW121233   6.462   5.811   3.178
 6778SOL    HW221234   6.344   5.699   3.187
 6779SOL     OW21235   6.098   3.672   6.266
 6779SOL    HW121236   6.137   3.663   6.175
 6779SOL    HW221237   6.008   3.628   6.269
 6780SOL     OW21238   0.810   3.321   1.899
 6780SOL    HW121239   0.859   3.304   1.814
 6780SOL    HW221240   0.816   3.239   1.957
 6781SOL     OW21241   5.875   4.802   5.617
 6781SOL    HW121242   5.903   4.898   5.619
 6781SOL    HW221243   5.884   4.764   5.709
 6782SOL     OW21244   5.884   0.708   3.464
 6782SOL    HW121245   5.953   0.679   3.397
 6782SOL    HW221246   5.802   0.739   3.416
 6783SOL     OW21247   0.842   5.791   6.514
 6783SOL    HW121248   0.833   5.887   6.541
 6783SOL    HW221249   0.815   5.780   6.418
 6784SOL     OW21250   4.123   2.866   6.973
 6784SOL    HW121251   4.062   2.839   6.898
 6784SOL    HW221252   4.070   2.908   0.028
 6785SOL     OW21253   5.926   5.627   2.398
 6785SOL    HW121254   5.913   5.539   2.444
 6785SOL    HW221255   5.860   5.636   2.324
 6786SOL     OW21256   1.788   3.896   5.803
 6786SOL    HW121257   1.860   3.835   5.837
 6786SOL    HW221258   1.744   3.855   5.723
 6787SOL     OW21259   1.051   3.690   1.506
 6787SOL    HW121260   1.069   3.787   1.519
 6787SOL    HW221261   1.021   3.674   1.412
 6788SOL     OW21262   2.956   4.401   0.994
 6788SOL    HW121263   2.907   4.333   0.938
 6788SOL    HW221264   3.035   4.435   0.943
 6789SOL     OW21265   0.942   5.435   3.481
 6789SOL    HW121266   0.907   5.438   3.387
 6789SOL    HW221267   0.874   5.393   3.541
 6790SOL     OW21268   1.131   2.625   0.817
 6790SOL    HW121269   1.045   2.636   0.767
 6790SOL    HW221270   1.205   2.607   0.752
 6791SOL     OW21271   3.244   3.913   5.906
 6791SOL    HW121272   3.278   3.910   5.812
 6791SOL    HW221273   3.288   3.842   5.960
 6792SOL     OW21274   0.416   5.114   6.942
 6792SOL    HW121275   0.470   5.036   6.911
 6792SOL    HW221276   0.348   5.083   7.009
 6793SOL     OW21277   5.756   1.713   1.558
 6793SOL    HW121278   5.752   1.667   1.646
 6793SOL    HW221279   5.759   1.645   1.485
 6794SOL     OW21280   4.046   1.094   4.142
 6794SOL    HW121281   3.972   1.161   4.154
 6794SOL    HW221282   4.058   1.042   4.227
 6795SOL     OW21283   3.680   6.223   0.313
 6795SOL    HW121284   3.760   6.171   0.283
 6795SOL    HW221285   3.708   6.315   0.339
 6796SOL     OW21286   3.927   1.854   3.290
 6796SOL    HW121287   3.938   1.871   3.192
 6796SOL    HW221288   4.007   1.888   3.339
 6797SOL     OW21289   6.964   2.309   2.077
 6797SOL    HW121290   6.971   2.213   2.049
 6797SOL    HW221291   6.881   2.349   2.038
 6798SOL     OW21292   6.573   0.355   2.331
 6798SOL    HW121293   6.554   0.309   2.418
 6798SOL    HW221294   6.669   0.339   2.305
 6799SOL     OW21295   5.081   5.822   1.755
 6799SOL    HW121296   5.004   5.774   1.798
 6799SOL    HW221297   5.159   5.821   1.817
 6800SOL     OW21298   3.316   3.996   6.501
 6800SOL    HW121299   3.263   3.923   6.458
 6800SOL    HW221300   3.310   4.078   6.445
 6801SOL     OW21301   0.991   2.366   2.782
 6801SOL    HW121302   0.992   2.465   2.801
 6801SOL    HW221303   1.038   2.317   2.855
 6802SOL     OW21304   2.715   4.664   2.500
 6802SOL    HW121305   2.704   4.697   2.406
 6802SOL    HW221306   2.811   4.675   2.528
 6803SOL     OW21307   3.659   2.468   0.644
 6803SOL    HW121308   3.737   2.426   0.689
 6803SOL    HW221309   3.671   2.466   0.545
 6804SOL     OW21310   1.062   0.099   3.719
 6804SOL    HW121311   1.064   0.155   3.802
 6804SOL    HW221312   1.151   0.102   3.674
 6805SOL     OW21313   5.639   0.916   5.116
 6805SOL    HW121314   5.560   0.900   5.056
 6805SOL    HW221315   5.659   1.014   5.118
 6806SOL     OW21316   5.422   6.365   5.208
 6806SOL    HW121317   5.421   6.365   5.108
 6806SOL    HW221318   5.441   6.457   5.241
 6807SOL     OW21319   3.596   3.450   6.776
 6807SOL    HW121320   3.599   3.376   6.708
 6807SOL    HW221321   3.509   3.498   6.769
 6808SOL     OW21322   2.089   3.421   3.659
 6808SOL    HW121323   2.022   3.437   3.586
 6808SOL    HW221324   2.041   3.402   3.744
 6809SOL     OW21325   1.697   3.403   6.780
 6809SOL    HW121326   1.661   3.350   6.857
 6809SOL    HW221327   1.797   3.401   6.782
 6810SOL     OW21328   5.645   1.598   3.238
 6810SOL    HW121329   5.679   1.648   3.158
 6810SOL    HW221330   5.718   1.542   3.277
 6811SOL     OW21331   4.658   5.686   2.080
 6811SOL    HW121332   4.591   5.650   2.014
 6811SOL    HW221333   4.694   5.610   2.134
 6812SOL     OW21334   3.658   3.066   2.523
 6812SOL    HW121335   3.596   3.063   2.444
 6812SOL    HW221336   3.727   3.137   2.509
 6813SOL     OW21337   5.268   3.373   0.936
 6813SOL    HW121338   5.215   3.318   0.870
 6813SOL    HW221339   5.357   3.331   0.951
 6814SOL     OW21340   2.357   2.847   0.735
 6814SOL    HW121341   2.394   2.882   0.821
 6814SOL    HW221342   2.387   2.905   0.659
 6815SOL     OW21343   1.221   0.013   1.393
 6815SOL    HW121344   1.145   0.073   1.365
 6815SOL    HW221345   1.215   7.014   1.491
 6816SOL     OW21346   6.285   3.796   1.410
 6816SOL    HW121347   6.205   3.768   1.463
 6816SOL    HW221348   6.329   3.873   1.455
 6817SOL     OW21349   0.654   2.362   6.432
 6817SOL    HW121350   0.754   2.352   6.427
 6817SOL    HW221351   0.616   2.362   6.340
 6818SOL     OW21352   3.748   5.461   1.489
 6818SOL    HW121353   3.754   5.537   1.424
 6818SOL    HW221354   3.748   5.375   1.439
 6819SOL     OW21355   3.066   1.295   3.548
 6819SOL    HW121356   3.122   1.283   3.466
 6819SOL    HW221357   3.121   1.276   3.629
 6820SOL     OW21358   2.143   5.314   3.880
 6820SOL    HW121359   2.053   5.340   3.914
 6820SOL    HW221360   2.213   5.367   3.928
 6821SOL     OW21361   2.313   2.485   4.473
 6821SOL    HW121362   2.315   2.386   4.464
 6821SOL    HW221363   2.221   2.514   4.497
 6822SOL     OW21364   5.146   1.939   6.294
 6822SOL    HW121365   5.228   1.971   6.342
 6822SOL    HW221366   5.067   1.950   6.353
 6823SOL     OW21367   4.122   3.378   2.194
 6823SOL    HW121368   4.188   3.400   2.122
 6823SOL    HW221369   4.040   3.433   2.183
 6824SOL     OW21370   1.341   5.037   6.217
 6824SOL    HW121371   1.252   4.993   6.226
 6824SOL    HW221372   1.413   4.967   6.211
 6825SOL     OW21373   5.624   6.983   3.937
 6825SOL    HW121374   5.528   6.961   3.917
 6825SOL    HW221375   5.666   0.009   3.858
 6826SOL     OW21376   0.717   2.938   2.532
 6826SOL    HW121377   0.631   2.887   2.533
 6826SOL    HW221378   0.773   2.907   2.456
 6827SOL     OW21379   5.747   6.217   4.958
 6827SOL    HW121380   5.840   6.182   4.948
 6827SOL    HW221381   5.684   6.141   4.972
 6828SOL     OW21382   2.076   1.760   1.357
 6828SOL    HW121383   2.067   1.825   1.282
 6828SOL    HW221384   2.106   1.808   1.440
 6829SOL     OW21385   5.489   5.132   3.425
 6829SOL    HW121386   5.520   5.063   3.359
 6829SOL    HW221387   5.473   5.088   3.513
 6830SOL     OW21388   4.904   2.134   4.271
 6830SOL    HW121389   4.968   2.210   4.257
 6830SOL    HW221390   4.824   2.147   4.213
 6831SOL     OW21391   6.634   1.343   5.876
 6831SOL    HW121392   6.594   1.361   5.786
 6831SOL    HW221393   6.727   1.310   5.865
 6832SOL     OW21394   3.011   5.489   1.889
 6832SOL    HW121395   3.104   5.454   1.883
 6832SOL    HW221396   2.978   5.481   1.983
 6833SOL     OW21397   4.355   5.640   7.011
 6833SOL    HW121398   4.268   5.638   0.043
 6833SOL    HW221399   4.414   5.566   0.027
 6834SOL     OW21400   3.694   5.495   2.318
 6834SOL    HW121401   3.744   5.438   2.252
 6834SOL    HW221402   3.731   5.588   2.317
 6835SOL     OW21403   4.218   0.048   4.820
 6835SOL    HW121404   4.185   6.976   4.846
 6835SOL    HW221405   4.198   0.114   4.893
 6836SOL     OW21406   3.727   5.718   6.629
 6836SOL    HW121407   3.639   5.765   6.623
 6836SOL    HW221408   3.749   5.677   6.540
 6837SOL     OW21409   0.161   3.019   2.716
 6837SOL    HW121410   0.127   3.112   2.732
 6837SOL    HW221411   0.085   2.955   2.712
 6838SOL     OW21412   2.707   1.943   0.730
 6838SOL    HW121413   2.644   1.934   0.807
 6838SOL    HW221414   2.656   1.963   0.647
 6839SOL     OW21415   4.438   0.628   1.768
 6839SOL    HW121416   4.416   0.536   1.802
 6839SOL    HW221417   4.409   0.636   1.673
 6840SOL     OW21418   0.703   1.050   6.748
 6840SOL    HW121419   0.709   1.121   6.678
 6840SOL    HW221420   0.690   0.961   6.704
 6841SOL     OW21421   0.260   3.111   5.630
 6841SOL    HW121422   0.234   3.057   5.550
 6841SOL    HW221423   0.190   3.180   5.647
 6842SOL     OW21424   2.532   5.061   2.591
 6842SOL    HW121425   2.484   5.062   2.679
 6842SOL    HW221426   2.538   4.967   2.558
 6843SOL     OW21427   4.412   0.154   1.220
 6843SOL    HW121428   4.420   0.106   1.133
 6843SOL    HW221429   4.456   0.100   1.293
 6844SOL     OW21430   5.533   0.604   5.780
 6844SOL    HW121431   5.594   0.642   5.850
 6844SOL    HW221432   5.525   0.668   5.704
 6845SOL     OW21433   5.121   1.997   3.042
 6845SOL    HW121434   5.139   2.000   2.944
 6845SOL    HW221435   5.039   2.051   3.062
 6846SOL     OW21436   2.217   3.443   0.123
 6846SOL    HW121437   2.125   3.418   0.152
 6846SOL    HW221438   2.272   3.468   0.203
 6847SOL     OW21439   6.778   2.535   4.590
 6847SOL    HW121440   6.700   2.592   4.616
 6847SOL    HW221441   6.846   2.590   4.542
 6848SOL     OW21442   6.657   4.946   3.608
 6848SOL    HW121443   6.653   5.045   3.623
 6848SOL    HW221444   6.724   4.927   3.536
 6849SOL     OW21445   2.793   4.885   6.258
 6849SOL    HW121446   2.845   4.948   6.317
 6849SOL    HW221447   2.707   4.861   6.303
 6850SOL     OW21448   4.814   0.346   4.048
 6850SOL    HW121449   4.806   0.248   4.061
 6850SOL    HW221450   4.904   0.377   4.081
 6851SOL     OW21451   1.895   3.791   2.900
 6851SOL    HW121452   1.944   3.835   2.825
 6851SOL    HW221453   1.828   3.855   2.939
 6852SOL     OW21454   4.530   4.407   0.357
 6852SOL    HW121455   4.446   4.461   0.370
 6852SOL    HW221456   4.511   4.331   0.295
 6853SOL     OW21457   4.125   4.932   6.525
 6853SOL    HW121458   4.114   4.840   6.487
 6853SOL    HW221459   4.221   4.949   6.545
 6854SOL     OW21460   4.993   5.510   5.836
 6854SOL    HW121461   4.935   5.430   5.850
 6854SOL    HW221462   5.074   5.503   5.895
 6855SOL     OW21463   4.391   5.441   3.138
 6855SOL    HW121464   4.404   5.365   3.075
 6855SOL    HW221465   4.475   5.458   3.188
 6856SOL     OW21466   6.998   2.763   6.940
 6856SOL    HW121467   0.033   2.833   6.893
 6856SOL    HW221468   6.900   2.779   6.925
 6857SOL     OW21469   1.223   4.358   5.768
 6857SOL    HW121470   1.172   4.290   5.821
 6857SOL    HW221471   1.196   4.450   5.797
 6858SOL     OW21472   1.395   4.225   1.781
 6858SOL    HW121473   1.308   4.177   1.798
 6858SOL    HW221474   1.401   4.246   1.683
 6859SOL     OW21475   2.134   1.852   1.597
 6859SOL    HW121476   2.071   1.776   1.612
 6859SOL    HW221477   2.194   1.862   1.676
 6860SOL     OW21478   0.298   6.028   0.200
 6860SOL    HW121479   0.322   6.098   0.133
 6860SOL    HW221480   0.335   5.940   0.171
 6861SOL     OW21481   5.973   3.105   6.174
 6861SOL    HW121482   5.912   3.084   6.250
 6861SOL    HW221483   6.067   3.079   6.197
 6862SOL     OW21484   1.352   4.369   3.899
 6862SOL    HW121485   1.387   4.445   3.845
 6862SOL    HW221486   1.425   4.332   3.956
 6863SOL     OW21487   5.602   1.690   5.068
 6863SOL    HW121488   5.503   1.687   5.061
 6863SOL    HW221489   5.633   1.625   5.137
 6864SOL     OW21490   1.357   3.384   6.336
 6864SOL    HW121491   1.344   3.473   6.292
 6864SOL    HW221492   1.288   3.320   6.303
 6865SOL     OW21493   2.483   0.630   4.200
 6865SOL    HW121494   2.492   0.692   4.279
 6865SOL    HW221495   2.386   0.610   4.185
 6866SOL     OW21496   1.777   4.673   0.388
 6866SOL    HW121497   1.742   4.708   0.475
 6866SOL    HW221498   1.766   4.743   0.317
 6867SOL     OW21499   2.196   3.104   6.870
 6867SOL    HW121500   2.157   3.055   6.792
 6867SOL    HW221501   2.175   3.202   6.862
 6868SOL     OW21502   3.649   4.982   3.224
 6868SOL    HW121503   3.629   5.042   3.147
 6868SOL    HW221504   3.736   4.935   3.208
 6869SOL     OW21505   2.117   0.746   5.756
 6869SOL    HW121506   2.194   0.784   5.705
 6869SOL    HW221507   2.071   0.819   5.807
 6870SOL     OW21508   5.565   2.207   6.856
 6870SOL    HW121509   5.650   2.171   6.895
 6870SOL    HW221510   5.559   2.179   6.760
 6871SOL     OW21511   6.687   3.126   2.492
 6871SOL    HW121512   6.618   3.174   2.438
 6871SOL    HW221513   6.757   3.192   2.521
 6872SOL     OW21514   1.453   4.088   1.122
 6872SOL    HW121515   1.537   4.095   1.069
 6872SOL    HW221516   1.475   4.058   1.215
 6873SOL     OW21517   0.582   4.422   2.973
 6873SOL    HW121518   0.636   4.360   2.915
 6873SOL    HW221519   0.641   4.497   3.004
 6874SOL     OW21520   4.636   6.531   2.233
 6874SOL    HW121521   4.654   6.565   2.325
 6874SOL    HW221522   4.545   6.559   2.204
 6875SOL     OW21523   2.758   1.288   0.370
 6875SOL    HW121524   2.828   1.229   0.410
 6875SOL    HW221525   2.796   1.379   0.353
 6876SOL     OW21526   5.473   5.401   3.326
 6876SOL    HW121527   5.507   5.394   3.232
 6876SOL    HW221528   5.461   5.310   3.365
 6877SOL     OW21529   0.681   4.546   1.657
 6877SOL    HW121530   0.634   4.482   1.718
 6877SOL    HW221531   0.706   4.498   1.573
 6878SOL     OW21532   2.163   0.740   4.761
 6878SOL    HW121533   2.080   0.707   4.715
 6878SOL    HW221534   2.196   0.669   4.823
 6879SOL     OW21535   1.323   1.569   1.249
 6879SOL    HW121536   1.355   1.661   1.271
 6879SOL    HW221537   1.402   1.508   1.235
 6880SOL     OW21538   1.585   5.988   0.420
 6880SOL    HW121539   1.632   6.038   0.347
 6880SOL    HW221540   1.487   6.008   0.414
 6881SOL     OW21541   6.864   3.253   0.280
 6881SOL    HW121542   6.808   3.216   0.354
 6881SOL    HW221543   6.811   3.321   0.229
 6882SOL     OW21544   3.188   6.451   0.549
 6882SOL    HW121545   3.100   6.486   0.581
 6882SOL    HW221546   3.261   6.486   0.607
 6883SOL     OW21547   5.496   0.541   1.132
 6883SOL    HW121548   5.506   0.623   1.190
 6883SOL    HW221549   5.521   0.460   1.185
 6884SOL     OW21550   2.418   4.865   3.619
 6884SOL    HW121551   2.358   4.927   3.670
 6884SOL    HW221552   2.477   4.919   3.558
 6885SOL     OW21553   5.933   4.596   4.955
 6885SOL    HW121554   5.921   4.517   5.016
 6885SOL    HW221555   5.867   4.590   4.880
 6886SOL     OW21556   5.577   3.578   6.913
 6886SOL    HW121557   5.574   3.489   6.867
 6886SOL    HW221558   5.516   3.641   6.866
 6887SOL     OW21559   5.340   6.047   5.727
 6887SOL    HW121560   5.247   6.033   5.692
 6887SOL    HW221561   5.345   6.013   5.821
 6888SOL     OW21562   6.287   4.106   0.051
 6888SOL    HW121563   6.253   4.149   0.134
 6888SOL    HW221564   6.275   4.007   0.058
 6889SOL     OW21565   0.161   1.590   5.404
 6889SOL    HW121566   0.109   1.588   5.319
 6889SOL    HW221567   0.106   1.550   5.478
 6890SOL     OW21568   4.866   4.413   4.049
 6890SOL    HW121569   4.831   4.333   4.000
 6890SOL    HW221570   4.965   4.421   4.034
 6891SOL     OW21571   1.378   1.661   0.900
 6891SOL    HW121572   1.291   1.703   0.874
 6891SOL    HW221573   1.375   1.563   0.880
 6892SOL     OW21574   2.984   0.986   5.131
 6892SOL    HW121575   3.043   0.914   5.093
 6892SOL    HW221576   2.902   0.995   5.075
 6893SOL     OW21577   6.118   2.754   0.369
 6893SOL    HW121578   6.132   2.668   0.418
 6893SOL    HW221579   6.025   2.757   0.332
 6894SOL     OW21580   5.600   4.864   0.011
 6894SOL    HW121581   5.560   4.773   0.014
 6894SOL    HW221582   5.670   4.868   6.958
 6895SOL     OW21583   0.851   5.661   2.198
 6895SOL    HW121584   0.842   5.576   2.146
 6895SOL    HW221585   0.920   5.719   2.154
 6896SOL     OW21586   4.861   1.431   5.952
 6896SOL    HW121587   4.879   1.444   6.050
 6896SOL    HW221588   4.821   1.515   5.914
 6897SOL     OW21589   4.444   2.654   5.301
 6897SOL    HW121590   4.356   2.609   5.285
 6897SOL    HW221591   4.465   2.714   5.224
 6898SOL     OW21592   1.482   6.518   1.322
 6898SOL    HW121593   1.393   6.490   1.358
 6898SOL    HW221594   1.517   6.594   1.377
 6899SOL     OW21595   5.647   5.859   2.737
 6899SOL    HW121596   5.738   5.877   2.775
 6899SOL    HW221597   5.578   5.874   2.808
 6900SOL     OW21598   6.865   3.728   4.566
 6900SOL    HW121599   6.883   3.656   4.499
 6900SOL    HW221600   6.942   3.792   4.567
 6901SOL     OW21601   5.285   4.861   5.731
 6901SOL    HW121602   5.309   4.831   5.639
 6901SOL    HW221603   5.186   4.880   5.735
 6902SOL     OW21604   0.576   5.791   5.530
 6902SOL    HW121605   0.667   5.759   5.502
 6902SOL    HW221606   0.519   5.713   5.555
 6903SOL     OW21607   1.445   6.212   4.848
 6903SOL    HW121608   1.384   6.208   4.927
 6903SOL    HW221609   1.515   6.142   4.856
 6904SOL     OW21610   0.498   0.589   5.595
 6904SOL    HW121611   0.494   0.637   5.683
 6904SOL    HW221612   0.405   0.563   5.568
 6905SOL     OW21613   4.891   5.970   5.769
 6905SOL    HW121614   4.958   5.941   5.702
 6905SOL    HW221615   4.808   5.915   5.760
 6906SOL     OW21616   2.508   0.785   3.965
 6906SOL    HW121617   2.517   0.716   4.037
 6906SOL    HW221618   2.583   0.776   3.900
 6907SOL     OW21619   5.663   1.638   0.852
 6907SOL    HW121620   5.643   1.566   0.918
 6907SOL    HW221621   5.584   1.699   0.845
 6908SOL     OW21622   3.624   5.436   0.632
 6908SOL    HW121623   3.527   5.413   0.620
 6908SOL    HW221624   3.633   5.536   0.639
 6909SOL     OW21625   5.660   4.193   2.243
 6909SOL    HW121626   5.680   4.230   2.334
 6909SOL    HW221627   5.671   4.094   2.245
 6910SOL     OW21628   0.969   2.295   2.503
 6910SOL    HW121629   0.952   2.287   2.601
 6910SOL    HW221630   0.889   2.336   2.459
 6911SOL     OW21631   2.795   6.541   5.729
 6911SOL    HW121632   2.740   6.470   5.685
 6911SOL    HW221633   2.812   6.615   5.664
 6912SOL     OW21634   3.337   4.055   6.970
 6912SOL    HW121635   3.272   3.983   6.995
 6912SOL    HW221636   3.302   4.106   6.892
 6913SOL     OW21637   4.489   5.596   5.791
 6913SOL    HW121638   4.417   5.666   5.787
 6913SOL    HW221639   4.500   5.555   5.701
 6914SOL     OW21640   6.415   2.390   2.383
 6914SOL    HW121641   6.393   2.294   2.363
 6914SOL    HW221642   6.358   2.450   2.326
 6915SOL     OW21643   0.266   3.385   3.717
 6915SOL    HW121644   0.358   3.393   3.679
 6915SOL    HW221645   0.253   3.293   3.752
 6916SOL     OW21646   4.602   6.354   5.885
 6916SOL    HW121647   4.617   6.447   5.920
 6916SOL    HW221648   4.686   6.321   5.842
 6917SOL     OW21649   3.525   6.094   1.979
 6917SOL    HW121650   3.427   6.077   1.990
 6917SOL    HW221651   3.576   6.011   2.005
 6918SOL     OW21652   1.721   3.511   0.432
 6918SOL    HW121653   1.704   3.420   0.394
 6918SOL    HW221654   1.737   3.503   0.531
 6919SOL     OW21655   6.311   6.066   3.255
 6919SOL    HW121656   6.364   6.101   3.177
 6919SOL    HW221657   6.308   5.966   3.251
 6920SOL     OW21658   6.757   2.184   5.540
 6920SOL    HW121659   6.732   2.266   5.593
 6920SOL    HW221660   6.675   2.141   5.503
 6921SOL     OW21661   3.834   0.021   4.215
 6921SOL    HW121662   3.772   0.051   4.287
 6921SOL    HW221663   3.867   6.947   4.234
 6922SOL     OW21664   2.932   5.356   6.678
 6922SOL    HW121665   2.889   5.288   6.619
 6922SOL    HW221666   2.915   5.332   6.774
 6923SOL     OW21667   5.158   0.111   2.813
 6923SOL    HW121668   5.061   0.136   2.818
 6923SOL    HW221669   5.187   0.111   2.718
 6924SOL     OW21670   3.580   5.646   1.905
 6924SOL    HW121671   3.596   5.550   1.930
 6924SOL    HW221672   3.515   5.651   1.830
 6925SOL     OW21673   5.797   6.431   4.750
 6925SOL    HW121674   5.883   6.404   4.708
 6925SOL    HW221675   5.770   6.364   4.819
 6926SOL     OW21676   2.947   2.491   0.514
 6926SOL    HW121677   2.963   2.420   0.445
 6926SOL    HW221678   2.985   2.460   0.602
 6927SOL     OW21679   3.629   0.283   6.723
 6927SOL    HW121680   3.720   0.269   6.683
 6927SOL    HW221681   3.637   0.345   6.802
 6928SOL     OW21682   3.323   5.378   0.141
 6928SOL    HW121683   3.420   5.369   0.122
 6928SOL    HW221684   3.271   5.370   0.056
 6929SOL     OW21685   4.685   4.747   2.580
 6929SOL    HW121686   4.746   4.669   2.564
 6929SOL    HW221687   4.738   4.830   2.592
 6930SOL     OW21688   0.759   6.123   1.971
 6930SOL    HW121689   0.810   6.187   2.028
 6930SOL    HW221690   0.691   6.076   2.026
 6931SOL     OW21691   2.951   3.202   1.098
 6931SOL    HW121692   2.918   3.131   1.036
 6931SOL    HW221693   2.896   3.201   1.182
 6932SOL     OW21694   4.252   0.093   6.175
 6932SOL    HW121695   4.198   0.088   6.259
 6932SOL    HW221696   4.263   0.188   6.147
 6933SOL     OW21697   2.542   6.064   6.129
 6933SOL    HW121698   2.611   6.135   6.121
 6933SOL    HW221699   2.456   6.096   6.088
 6934SOL     OW21700   5.091   5.203   6.959
 6934SOL    HW121701   5.180   5.165   6.936
 6934SOL    HW221702   5.095   5.303   6.955
 6935SOL     OW21703   3.947   6.199   1.905
 6935SOL    HW121704   3.980   6.201   1.811
 6935SOL    HW221705   3.870   6.263   1.915
 6936SOL     OW21706   0.872   1.880   6.389
 6936SOL    HW121707   0.793   1.942   6.380
 6936SOL    HW221708   0.927   1.907   6.468
 6937SOL     OW21709   5.814   5.403   0.593
 6937SOL    HW121710   5.733   5.407   0.534
 6937SOL    HW221711   5.894   5.379   0.537
 6938SOL     OW21712   3.008   0.852   4.624
 6938SOL    HW121713   2.947   0.929   4.644
 6938SOL    HW221714   2.976   0.803   4.544
 6939SOL     OW21715   5.779   3.251   3.425
 6939SOL    HW121716   5.812   3.325   3.484
 6939SOL    HW221717   5.808   3.268   3.331
 6940SOL     OW21718   2.272   6.840   1.058
 6940SOL    HW121719   2.303   6.749   1.028
 6940SOL    HW221720   2.176   6.836   1.085
 6941SOL     OW21721   3.923   2.997   2.687
 6941SOL    HW121722   3.869   3.014   2.604
 6941SOL    HW221723   3.956   2.903   2.686
 6942SOL     OW21724   6.294   5.198   2.841
 6942SOL    HW121725   6.342   5.111   2.854
 6942SOL    HW221726   6.323   5.239   2.754
 6943SOL     OW21727   4.522   5.006   6.212
 6943SOL    HW121728   4.488   5.094   6.246
 6943SOL    HW221729   4.447   4.941   6.206
 6944SOL     OW21730   0.812   4.676   5.072
 6944SOL    HW121731   0.837   4.766   5.108
 6944SOL    HW221732   0.831   4.673   4.974
 6945SOL     OW21733   4.976   1.997   0.561
 6945SOL    HW121734   4.973   2.093   0.531
 6945SOL    HW221735   4.931   1.988   0.650
 6946SOL     OW21736   5.454   6.055   2.544
 6946SOL    HW121737   5.552   6.070   2.547
 6946SOL    HW221738   5.410   6.129   2.493
 6947SOL     OW21739   6.488   4.239   5.067
 6947SOL    HW121740   6.423   4.305   5.029
 6947SOL    HW221741   6.578   4.253   5.026
 6948SOL     OW21742   6.944   3.940   6.735
 6948SOL    HW121743   6.978   4.001   6.663
 6948SOL    HW221744   6.846   3.956   6.749
 6949SOL     OW21745   3.164   1.223   2.766
 6949SOL    HW121746   3.191   1.291   2.834
 6949SOL    HW221747   3.158   1.267   2.676
 6950SOL     OW21748   1.584   1.019   3.744
 6950SOL    HW121749   1.684   1.028   3.737
 6950SOL    HW221750   1.543   1.108   3.761
 6951SOL     OW21751   1.171   3.711   6.814
 6951SOL    HW121752   1.159   3.612   6.820
 6951SOL    HW221753   1.082   3.756   6.801
 6952SOL     OW21754   4.415   5.942   3.220
 6952SOL    HW121755   4.361   5.995   3.154
 6952SOL    HW221756   4.455   5.863   3.174
 6953SOL     OW21757   6.771   1.281   1.803
 6953SOL    HW121758   6.701   1.211   1.784
 6953SOL    HW221759   6.795   1.327   1.717
 6954SOL     OW21760   6.978   4.301   6.292
 6954SOL    HW121761   0.030   4.266   6.230
 6954SOL    HW221762   6.971   4.241   6.372
 6955SOL     OW21763   4.679   5.480   3.092
 6955SOL    HW121764   4.702   5.399   3.037
 6955SOL    HW221765   4.670   5.559   3.032
 6956SOL     OW21766   5.280   5.515   1.494
 6956SOL    HW121767   5.308   5.420   1.506
 6956SOL    HW221768   5.184   5.518   1.467
 6957SOL     OW21769   5.854   5.162   5.158
 6957SOL    HW121770   5.874   5.083   5.217
 6957SOL    HW221771   5.938   5.190   5.111
 6958SOL     OW21772   3.637   3.621   2.337
 6958SOL    HW121773   3.681   3.577   2.415
 6958SOL    HW221774   3.614   3.716   2.361
 6959SOL     OW21775   1.704   4.159   2.810
 6959SOL    HW121776   1.679   4.244   2.763
 6959SOL    HW221777   1.757   4.180   2.892
 6960SOL     OW21778   5.237   4.707   1.330
 6960SOL    HW121779   5.212   4.733   1.424
 6960SOL    HW221780   5.334   4.725   1.315
 6961SOL     OW21781   4.823   2.724   5.448
 6961SOL    HW121782   4.797   2.788   5.521
 6961SOL    HW221783   4.829   2.632   5.485
 6962SOL     OW21784   2.764   6.048   0.300
 6962SOL    HW121785   2.799   6.051   0.394
 6962SOL    HW221786   2.814   6.114   0.244
 6963SOL     OW21787   0.485   6.488   6.736
 6963SOL    HW121788   0.560   6.444   6.786
 6963SOL    HW221789   0.502   6.586   6.730
 6964SOL     OW21790   2.141   1.724   4.756
 6964SOL    HW121791   2.071   1.793   4.774
 6964SOL    HW221792   2.209   1.725   4.830
 6965SOL     OW21793   1.944   1.335   0.106
 6965SOL    HW121794   1.874   1.329   0.034
 6965SOL    HW221795   1.913   1.396   0.178
 6966SOL     OW21796   1.200   6.855   1.123
 6966SOL    HW121797   1.223   6.901   1.209
 6966SOL    HW221798   1.169   6.761   1.142
 6967SOL     OW21799   3.597   0.483   6.935
 6967SOL    HW121800   3.565   0.449   0.006
 6967SOL    HW221801   3.594   0.583   6.935
 6968SOL     OW21802   3.253   0.450   2.897
 6968SOL    HW121803   3.197   0.416   2.972
 6968SOL    HW221804   3.194   0.487   2.825
 6969SOL     OW21805   1.811   2.707   1.826
 6969SOL    HW121806   1.734   2.759   1.863
 6969SOL    HW221807   1.863   2.666   1.901
 6970SOL     OW21808   2.969   5.949   5.544
 6970SOL    HW121809   2.906   5.963   5.620
 6970SOL    HW221810   3.022   5.866   5.560
 6971SOL     OW21811   5.824   3.975   6.547
 6971SOL    HW121812   5.776   3.955   6.461
 6971SOL    HW221813   5.792   3.911   6.617
 6972SOL     OW21814   5.566   3.682   1.427
 6972SOL    HW121815   5.585   3.772   1.466
 6972SOL    HW221816   5.609   3.612   1.483
 6973SOL     OW21817   0.807   1.401   3.020
 6973SOL    HW121818   0.900   1.436   3.005
 6973SOL    HW221819   0.804   1.354   3.109
 6974SOL     OW21820   4.068   3.573   2.920
 6974SOL    HW121821   4.055   3.576   2.821
 6974SOL    HW221822   4.013   3.643   2.963
 6975SOL     OW21823   2.897   5.182   4.716
 6975SOL    HW121824   2.984   5.209   4.675
 6975SOL    HW221825   2.893   5.214   4.810
 6976SOL     OW21826   4.271   5.401   6.147
 6976SOL    HW121827   4.328   5.445   6.078
 6976SOL    HW221828   4.177   5.432   6.137
 6977SOL     OW21829   4.941   4.739   2.405
 6977SOL    HW121830   4.919   4.671   2.475
 6977SOL    HW221831   4.962   4.692   2.319
 6978SOL     OW21832   0.814   3.819   0.790
 6978SOL    HW121833   0.784   3.735   0.745
 6978SOL    HW221834   0.742   3.889   0.782
 6979SOL     OW21835   1.213   3.470   2.663
 6979SOL    HW121836   1.171   3.429   2.582
 6979SOL    HW221837   1.308   3.494   2.644
 6980SOL     OW21838   2.303   4.796   3.030
 6980SOL    HW121839   2.402   4.788   3.021
 6980SOL    HW221840   2.280   4.865   3.099
 6981SOL     OW21841   4.496   3.041   6.521
 6981SOL    HW121842   4.561   3.116   6.531
 6981SOL    HW221843   4.450   3.025   6.608
 6982SOL     OW21844   6.997   0.279   1.448
 6982SOL    HW121845   0.005   0.220   1.524
 6982SOL    HW221846   6.937   0.228   1.386
 6983SOL     OW21847   6.451   6.882   4.285
 6983SOL    HW121848   6.528   6.895   4.348
 6983SOL    HW221849   6.454   6.952   4.213
 6984SOL     OW21850   1.470   3.860   3.225
 6984SOL    HW121851   1.554   3.899   3.188
 6984SOL    HW221852   1.398   3.930   3.227
 6985SOL     OW21853   5.108   2.920   0.384
 6985SOL    HW121854   5.014   2.947   0.404
 6985SOL    HW221855   5.170   2.964   0.450
 6986SOL     OW21856   4.139   5.279   5.627
 6986SOL    HW121857   4.231   5.288   5.667
 6986SOL    HW221858   4.095   5.368   5.626
 6987SOL     OW21859   6.884   1.019   6.582
 6987SOL    HW121860   6.803   1.063   6.622
 6987SOL    HW221861   6.870   1.009   6.483
 6988SOL     OW21862   2.326   1.172   6.187
 6988SOL    HW121863   2.283   1.188   6.276
 6988SOL    HW221864   2.302   1.246   6.124
 6989SOL     OW21865   0.611   4.525   2.588
 6989SOL    HW121866   0.570   4.540   2.498
 6989SOL    HW221867   0.710   4.515   2.578
 6990SOL     OW21868   3.716   3.756   6.564
 6990SOL    HW121869   3.627   3.713   6.552
 6990SOL    HW221870   3.787   3.699   6.523
 6991SOL     OW21871   6.001   3.830   3.087
 6991SOL    HW121872   5.947   3.835   3.003
 6991SOL    HW221873   5.939   3.823   3.166
 6992SOL     OW21874   1.650   4.949   6.965
 6992SOL    HW121875   1.717   5.017   6.936
 6992SOL    HW221876   1.558   4.984   6.949
 6993SOL     OW21877   3.829   2.230   1.685
 6993SOL    HW121878   3.773   2.226   1.768
 6993SOL    HW221879   3.866   2.322   1.674
 6994SOL     OW21880   3.060   0.864   3.107
 6994SOL    HW121881   3.058   0.930   3.032
 6994SOL    HW221882   3.144   0.810   3.101
 6995SOL     OW21883   0.298   4.359   0.382
 6995SOL    HW121884   0.362   4.414   0.436
 6995SOL    HW221885   0.350   4.295   0.325
 6996SOL     OW21886   0.753   1.269   6.577
 6996SOL    HW121887   0.791   1.220   6.498
 6996SOL    HW221888   0.753   1.367   6.559
 6997SOL     OW21889   6.117   6.381   5.957
 6997SOL    HW121890   6.059   6.455   5.922
 6997SOL    HW221891   6.101   6.370   6.055
 6998SOL     OW21892   0.675   0.359   0.400
 6998SOL    HW121893   0.717   0.408   0.475
 6998SOL    HW221894   0.712   0.266   0.395
 6999SOL     OW21895   6.719   2.713   6.894
 6999SOL    HW121896   6.647   2.779   6.873
 6999SOL    HW221897   6.719   2.641   6.824
 7000SOL     OW21898   0.548   5.394   3.406
 7000SOL    HW121899   0.582   5.358   3.493
 7000SOL    HW221900   0.475   5.334   3.371
 7001SOL     OW21901   0.167   1.247   3.828
 7001SOL    HW121902   0.135   1.320   3.889
 7001SOL    HW221903   0.261   1.266   3.800
 7002SOL     OW21904   0.873   4.845   2.602
 7002SOL    HW121905   0.887   4.942   2.581
 7002SOL    HW221906   0.914   4.789   2.530
 7003SOL     OW21907   0.712   5.278   6.658
 7003SOL    HW121908   0.630   5.266   6.602
 7003SOL    HW221909   0.696   5.351   6.725
 7004SOL     OW21910   2.163   0.008   6.408
 7004SOL    HW121911   2.117   0.088   6.446
 7004SOL    HW221912   2.260   0.009   6.434
 7005SOL     OW21913   1.739   5.449   0.571
 7005SOL    HW121914   1.804   5.413   0.638
 7005SOL    HW221915   1.790   5.493   0.496
 7006SOL     OW21916   0.583   0.544   3.760
 7006SOL    HW121917   0.649   0.495   3.702
 7006SOL    HW221918   0.632   0.588   3.835
 7007SOL     OW21919   2.078   0.231   6.193
 7007SOL    HW121920   2.074   0.266   6.099
 7007SOL    HW221921   2.168   0.251   6.232
 7008SOL     OW21922   5.043   3.063   3.412
 7008SOL    HW121923   5.091   2.996   3.356
 7008SOL    HW221924   5.073   3.155   3.387
 7009SOL     OW21925   5.235   6.073   2.152
 7009SOL    HW121926   5.290   6.156   2.161
 7009SOL    HW221927   5.144   6.089   2.190
 7010SOL     OW21928   5.254   3.277   2.758
 7010SOL    HW121929   5.260   3.208   2.685
 7010SOL    HW221930   5.168   3.266   2.807
 7011SOL     OW21931   2.632   6.798   6.088
 7011SOL    HW121932   2.563   6.870   6.076
 7011SOL    HW221933   2.607   6.740   6.165
 7012SOL     OW21934   0.081   3.710   0.666
 7012SOL    HW121935   0.037   3.626   0.696
 7012SOL    HW221936   0.017   3.763   0.610
 7013SOL     OW21937   3.521   2.749   6.915
 7013SOL    HW121938   3.448   2.744   6.984
 7013SOL    HW221939   3.551   2.657   6.891
 7014SOL     OW21940   6.009   3.118   0.050
 7014SOL    HW121941   6.045   3.129   0.143
 7014SOL    HW221942   6.077   3.070   7.012
 7015SOL     OW21943   6.257   6.214   1.081
 7015SOL    HW121944   6.325   6.145   1.105
 7015SOL    HW221945   6.205   6.240   1.163
 7016SOL     OW21946   3.152   4.853   1.403
 7016SOL    HW121947   3.127   4.901   1.319
 7016SOL    HW221948   3.129   4.756   1.393
 7017SOL     OW21949   6.064   4.595   6.464
 7017SOL    HW121950   6.151   4.546   6.457
 7017SOL    HW221951   5.997   4.536   6.510
 7018SOL     OW21952   5.598   3.599   5.102
 7018SOL    HW121953   5.565   3.570   5.191
 7018SOL    HW221954   5.628   3.695   5.107
 7019SOL     OW21955   3.842   5.399   2.134
 7019SOL    HW121956   3.853   5.428   2.039
 7019SOL    HW221957   3.793   5.312   2.137
 7020SOL     OW21958   0.944   2.205   6.694
 7020SOL    HW121959   0.991   2.211   6.782
 7020SOL    HW221960   0.937   2.109   6.667
 7021SOL     OW21961   1.120   1.654   4.678
 7021SOL    HW121962   1.216   1.655   4.651
 7021SOL    HW221963   1.062   1.670   4.598
 7022SOL     OW21964   2.175   3.830   0.944
 7022SOL    HW121965   2.105   3.855   1.011
 7022SOL    HW221966   2.171   3.732   0.927
 7023SOL     OW21967   0.327   1.637   0.737
 7023SOL    HW121968   0.259   1.576   0.777
 7023SOL    HW221969   0.417   1.617   0.775
 7024SOL     OW21970   3.374   3.962   5.368
 7024SOL    HW121971   3.450   3.897   5.374
 7024SOL    HW221972   3.332   3.957   5.277
 7025SOL     OW21973   3.074   0.853   1.238
 7025SOL    HW121974   3.126   0.936   1.258
 7025SOL    HW221975   3.069   0.840   1.139
 7026SOL     OW21976   3.084   2.270   1.168
 7026SOL    HW121977   3.067   2.352   1.222
 7026SOL    HW221978   3.088   2.190   1.229
 7027SOL     OW21979   3.293   4.846   1.943
 7027SOL    HW121980   3.368   4.794   1.983
 7027SOL    HW221981   3.224   4.783   1.907
 7028SOL     OW21982   3.450   0.266   3.446
 7028SOL    HW121983   3.395   0.275   3.363
 7028SOL    HW221984   3.469   0.358   3.483
 7029SOL     OW21985   3.593   4.084   3.688
 7029SOL    HW121986   3.669   4.025   3.716
 7029SOL    HW221987   3.604   4.108   3.591
 7030SOL     OW21988   6.179   0.001   5.377
 7030SOL    HW121989   6.226   7.011   5.289
 7030SOL    HW221990   6.240   0.045   5.443
 7031SOL     OW21991   4.665   5.681   0.881
 7031SOL    HW121992   4.710   5.652   0.797
 7031SOL    HW221993   4.610   5.605   0.917
 7032SOL     OW21994   4.273   4.974   4.655
 7032SOL    HW121995   4.274   5.039   4.731
 7032SOL    HW221996   4.260   4.882   4.691
 7033SOL     OW21997   2.018   1.676   5.306
 7033SOL    HW121998   1.998   1.725   5.221
 7033SOL    HW221999   2.057   1.740   5.373
 7034SOL     OW22000   6.433   1.754   2.157
 7034SOL    HW122001   6.476   1.763   2.247
 7034SOL    HW222002   6.434   1.657   2.130
 7035SOL     OW22003   2.867   1.836   1.437
 7035SOL    HW122004   2.842   1.887   1.520
 7035SOL    HW222005   2.864   1.897   1.358
 7036SOL     OW22006   6.094   1.703   1.749
 7036SOL    HW122007   6.119   1.661   1.661
 7036SOL    HW222008   5.995   1.707   1.756
 7037SOL     OW22009   1.654   0.330   6.439
 7037SOL    HW122010   1.697   0.305   6.526
 7037SOL    HW222011   1.726   0.351   6.372
 7038SOL     OW22012   0.766   4.568   0.303
 7038SOL    HW122013   0.847   4.614   0.268
 7038SOL    HW222014   0.752   4.482   0.253
 7039SOL     OW22015   6.652   0.072   1.785
 7039SOL    HW122016   6.712   0.003   1.744
 7039SOL    HW222017   6.708   0.141   1.831
 7040SOL     OW22018   5.678   2.965   5.294
 7040SOL    HW122019   5.615   2.944   5.369
 7040SOL    HW222020   5.678   3.063   5.277
 7041SOL     OW22021   0.971   0.480   3.928
 7041SOL    HW122022   1.046   0.510   3.987
 7041SOL    HW222023   0.893   0.453   3.983
 7042SOL     OW22024   6.105   6.119   5.280
 7042SOL    HW122025   6.038   6.070   5.223
 7042SOL    HW222026   6.071   6.210   5.300
 7043SOL     OW22027   2.206   6.068   0.563
 7043SOL    HW122028   2.123   6.093   0.515
 7043SOL    HW222029   2.183   6.011   0.642
 7044SOL     OW22030   4.555   6.313   5.322
 7044SOL    HW122031   4.525   6.404   5.295
 7044SOL    HW222032   4.635   6.320   5.381
 7045SOL     OW22033   5.818   6.378   2.026
 7045SOL    HW122034   5.772   6.334   1.949
 7045SOL    HW222035   5.875   6.453   1.993
 7046SOL     OW22036   2.434   1.619   3.066
 7046SOL    HW122037   2.368   1.559   3.112
 7046SOL    HW222038   2.526   1.595   3.095
 7047SOL     OW22039   1.418   6.996   1.022
 7047SOL    HW122040   1.324   6.961   1.022
 7047SOL    HW222041   1.427   0.051   1.090
 7048SOL     OW22042   0.598   6.100   3.697
 7048SOL    HW122043   0.577   6.196   3.717
 7048SOL    HW222044   0.566   6.043   3.772
 7049SOL     OW22045   3.400   1.248   4.660
 7049SOL    HW122046   3.307   1.243   4.622
 7049SOL    HW222047   3.400   1.314   4.736
 7050SOL     OW22048   3.921   4.047   0.936
 7050SOL    HW122049   3.827   4.054   0.970
 7050SOL    HW222050   3.943   4.130   0.885
 7051SOL     OW22051   1.505   1.967   1.911
 7051SOL    HW122052   1.581   1.915   1.873
 7051SOL    HW222053   1.439   1.905   1.953
 7052SOL     OW22054   4.797   2.637   2.934
 7052SOL    HW122055   4.776   2.606   3.027
 7052SOL    HW222056   4.888   2.678   2.933
 7053SOL     OW22057   1.339   5.052   3.737
 7053SOL    HW122058   1.396   5.014   3.664
 7053SOL    HW222059   1.360   5.007   3.823
 7054SOL     OW22060   5.279   0.096   0.185
 7054SOL    HW122061   5.367   0.112   0.140
 7054SOL    HW222062   5.207   0.089   0.116
 7055SOL     OW22063   2.154   0.065   0.585
 7055SOL    HW122064   2.248   0.051   0.617
 7055SOL    HW222065   2.127   0.160   0.602
 7056SOL     OW22066   6.558   5.756   0.823
 7056SOL    HW122067   6.599   5.846   0.816
 7056SOL    HW222068   6.552   5.730   0.919
 7057SOL     OW22069   3.594   5.631   4.742
 7057SOL    HW122070   3.523   5.649   4.675
 7057SOL    HW222071   3.683   5.656   4.705
 7058SOL     OW22072   6.429   2.164   6.303
 7058SOL    HW122073   6.447   2.067   6.318
 7058SOL    HW222074   6.357   2.194   6.366
 7059SOL     OW22075   1.960   0.210   5.175
 7059SOL    HW122076   1.893   0.211   5.101
 7059SOL    HW222077   1.978   0.303   5.206
 7060SOL     OW22078   3.163   2.503   1.502
 7060SOL    HW122079   3.262   2.492   1.495
 7060SOL    HW222080   3.141   2.560   1.581
 7061SOL     OW22081   2.088   0.958   1.517
 7061SOL    HW122082   2.133   0.869   1.516
 7061SOL    HW222083   2.126   1.013   1.591
 7062SOL     OW22084   3.504   0.648   4.233
 7062SOL    HW122085   3.520   0.747   4.235
 7062SOL    HW222086   3.590   0.600   4.216
 7063SOL     OW22087   0.246   0.991   1.924
 7063SOL    HW122088   0.342   0.969   1.936
 7063SOL    HW222089   0.237   1.076   1.872
 7064SOL     OW22090   2.961   1.257   5.647
 7064SOL    HW122091   2.947   1.356   5.656
 7064SOL    HW222092   2.912   1.223   5.567
 7065SOL     OW22093   3.668   6.205   4.820
 7065SOL    HW122094   3.623   6.268   4.884
 7065SOL    HW222095   3.767   6.207   4.835
 7066SOL     OW22096   3.093   0.615   1.535
 7066SOL    HW122097   3.021   0.630   1.467
 7066SOL    HW222098   3.180   0.650   1.500
 7067SOL     OW22099   2.289   4.545   6.275
 7067SOL    HW122100   2.376   4.543   6.226
 7067SOL    HW222101   2.306   4.551   6.374
 7068SOL     OW22102   5.018   4.258   4.518
 7068SOL    HW122103   5.053   4.183   4.573
 7068SOL    HW222104   5.094   4.313   4.483
 7069SOL     OW22105   4.801   0.767   5.497
 7069SOL    HW122106   4.855   0.848   5.473
 7069SOL    HW222107   4.743   0.742   5.419
 7070SOL     OW22108   0.383   1.089   6.043
 7070SOL    HW122109   0.467   1.047   6.007
 7070SOL    HW222110   0.331   1.128   5.967
 7071SOL     OW22111   4.523   5.807   6.589
 7071SOL    HW122112   4.430   5.787   6.620
 7071SOL    HW222113   4.523   5.894   6.540
 7072SOL     OW22114   0.917   3.834   6.330
 7072SOL    HW122115   0.994   3.771   6.334
 7072SOL    HW222116   0.845   3.804   6.393
 7073SOL     OW22117   4.443   1.106   3.730
 7073SOL    HW122118   4.513   1.076   3.794
 7073SOL    HW222119   4.463   1.199   3.700
 7074SOL     OW22120   5.891   3.847   1.848
 7074SOL    HW122121   5.925   3.936   1.818
 7074SOL    HW222122   5.954   3.808   1.916
 7075SOL     OW22123   2.297   5.443   2.327
 7075SOL    HW122124   2.288   5.456   2.426
 7075SOL    HW222125   2.328   5.528   2.285
 7076SOL     OW22126   5.804   1.727   1.165
 7076SOL    HW122127   5.779   1.708   1.260
 7076SOL    HW222128   5.887   1.677   1.141
 7077SOL     OW22129   3.808   6.094   1.375
 7077SOL    HW122130   3.756   6.149   1.440
 7077SOL    HW222131   3.816   6.000   1.410
 7078SOL     OW22132   6.839   1.373   6.385
 7078SOL    HW122133   6.859   1.459   6.431
 7078SOL    HW222134   6.759   1.330   6.427
 7079SOL     OW22135   2.245   5.428   5.057
 7079SOL    HW122136   2.168   5.381   5.101
 7079SOL    HW222137   2.250   5.400   4.961
 7080SOL     OW22138   4.124   1.536   5.954
 7080SOL    HW122139   4.061   1.459   5.955
 7080SOL    HW222140   4.081   1.614   5.910
 7081SOL     OW22141   2.094   6.408   0.387
 7081SOL    HW122142   2.087   6.329   0.448
 7081SOL    HW222143   2.094   6.492   0.440
 7082SOL     OW22144   0.612   4.305   2.108
 7082SOL    HW122145   0.646   4.232   2.167
 7082SOL    HW222146   0.522   4.279   2.072
 7083SOL     OW22147   5.218   3.005   2.851
 7083SOL    HW122148   5.284   3.010   2.777
 7083SOL    HW222149   5.148   2.937   2.829
 7084SOL     OW22150   1.099   5.100   0.619
 7084SOL    HW122151   1.038   5.174   0.649
 7084SOL    HW222152   1.180   5.098   0.679
 7085SOL     OW22153   0.450   4.297   2.587
 7085SOL    HW122154   0.408   4.286   2.497
 7085SOL    HW222155   0.493   4.387   2.593
 7086SOL     OW22156   4.647   0.741   3.747
 7086SOL    HW122157   4.549   0.759   3.738
 7086SOL    HW222158   4.697   0.804   3.689
 7087SOL     OW22159   5.357   2.535   3.491
 7087SOL    HW122160   5.410   2.490   3.563
 7087SOL    HW222161   5.319   2.621   3.526
 7088SOL     OW22162   5.890   2.729   4.876
 7088SOL    HW122163   5.962   2.670   4.912
 7088SOL    HW222164   5.845   2.776   4.951
 7089SOL     OW22165   3.138   5.718   1.214
 7089SOL    HW122166   3.099   5.633   1.247
 7089SOL    HW222167   3.128   5.724   1.114
 7090SOL     OW22168   4.724   2.863   0.691
 7090SOL    HW122169   4.820   2.834   0.687
 7090SOL    HW222170   4.715   2.952   0.646
 7091SOL     OW22171   6.022   0.256   6.822
 7091SOL    HW122172   6.074   0.311   6.888
 7091SOL    HW222173   6.021   0.302   6.733
 7092SOL     OW22174   4.328   0.091   6.591
 7092SOL    HW122175   4.416   0.044   6.584
 7092SOL    HW222176   4.312   0.118   6.686
 7093SOL     OW22177   3.764   3.208   0.504
 7093SOL    HW122178   3.681   3.173   0.547
 7093SOL    HW222179   3.746   3.229   0.408
 7094SOL     OW22180   4.562   1.130   4.920
 7094SOL    HW122181   4.659   1.106   4.912
 7094SOL    HW222182   4.527   1.095   5.007
 7095SOL     OW22183   2.873   4.819   4.153
 7095SOL    HW122184   2.826   4.732   4.164
 7095SOL    HW222185   2.818   4.880   4.096
 7096SOL     OW22186   6.336   6.137   0.444
 7096SOL    HW122187   6.297   6.086   0.520
 7096SOL    HW222188   6.346   6.233   0.470
 7097SOL     OW22189   4.933   1.597   2.913
 7097SOL    HW122190   4.844   1.577   2.873
 7097SOL    HW222191   4.976   1.672   2.863
 7098SOL     OW22192   0.586   1.211   2.626
 7098SOL    HW122193   0.497   1.165   2.617
 7098SOL    HW222194   0.588   1.260   2.713
 7099SOL     OW22195   3.615   1.906   4.562
 7099SOL    HW122196   3.526   1.863   4.548
 7099SOL    HW222197   3.688   1.839   4.546
 7100SOL     OW22198   0.266   4.311   1.533
 7100SOL    HW122199   0.284   4.404   1.500
 7100SOL    HW222200   0.352   4.259   1.535
 7101SOL     OW22201   2.975   5.421   4.153
 7101SOL    HW122202   3.054   5.480   4.172
 7101SOL    HW222203   2.914   5.468   4.089
 7102SOL     OW22204   5.228   1.376   3.113
 7102SOL    HW122205   5.143   1.419   3.141
 7102SOL    HW222206   5.270   1.330   3.192
 7103SOL     OW22207   5.575   4.061   3.841
 7103SOL    HW122208   5.665   4.032   3.808
 7103SOL    HW222209   5.581   4.083   3.938
 7104SOL     OW22210   4.929   2.726   4.611
 7104SOL    HW122211   5.000   2.761   4.550
 7104SOL    HW222212   4.959   2.640   4.652
 7105SOL     OW22213   3.325   3.978   2.275
 7105SOL    HW122214   3.355   3.926   2.195
 7105SOL    HW222215   3.403   3.992   2.336
 7106SOL     OW22216   2.920   2.194   2.278
 7106SOL    HW122217   2.937   2.229   2.185
 7106SOL    HW222218   2.827   2.219   2.305
 7107SOL     OW22219   3.910   1.011   6.655
 7107SOL    HW122220   3.895   1.075   6.730
 7107SOL    HW222221   3.830   1.010   6.595
 7108SOL     OW22222   3.619   0.394   1.815
 7108SOL    HW122223   3.632   0.296   1.799
 7108SOL    HW222224   3.522   0.414   1.822
 7109SOL     OW22225   3.223   4.667   5.716
 7109SOL    HW122226   3.267   4.707   5.635
 7109SOL    HW222227   3.171   4.738   5.764
 7110SOL     OW22228   2.514   5.996   5.394
 7110SOL    HW122229   2.536   5.917   5.451
 7110SOL    HW222230   2.598   6.045   5.371
 7111SOL     OW22231   6.627   1.104   4.907
 7111SOL    HW122232   6.531   1.131   4.919
 7111SOL    HW222233   6.671   1.165   4.841
 7112SOL     OW22234   0.061   5.109   5.617
 7112SOL    HW122235   0.123   5.117   5.539
 7112SOL    HW222236   0.114   5.092   5.700
 7113SOL     OW22237   3.127   6.793   5.114
 7113SOL    HW122238   3.225   6.784   5.127
 7113SOL    HW222239   3.079   6.729   5.174
 7114SOL     OW22240   5.436   3.884   0.902
 7114SOL    HW122241   5.393   3.805   0.858
 7114SOL    HW222242   5.459   3.861   0.997
 7115SOL     OW22243   4.673   2.866   5.676
 7115SOL    HW122244   4.636   2.893   5.588
 7115SOL    HW222245   4.701   2.947   5.727
 7116SOL     OW22246   6.455   4.877   4.809
 7116SOL    HW122247   6.369   4.922   4.787
 7116SOL    HW222248   6.495   4.839   4.725
 7117SOL     OW22249   4.696   0.629   2.821
 7117SOL    HW122250   4.770   0.569   2.850
 7117SOL    HW222251   4.634   0.645   2.898
 7118SOL     OW22252   4.440   4.314   6.048
 7118SOL    HW122253   4.535   4.333   6.073
 7118SOL    HW222254   4.425   4.339   5.953
 7119SOL     OW22255   2.870   6.462   4.631
 7119SOL    HW122256   2.958   6.426   4.600
 7119SOL    HW222257   2.800   6.440   4.563
 7120SOL     OW22258   4.297   1.509   1.508
 7120SOL    HW122259   4.282   1.458   1.423
 7120SOL    HW222260   4.218   1.565   1.529
 7121SOL     OW22261   1.199   6.041   2.295
 7121SOL    HW122262   1.245   6.124   2.266
 7121SOL    HW222263   1.100   6.056   2.298
 7122SOL     OW22264   3.857   1.930   6.332
 7122SOL    HW122265   3.936   1.961   6.279
 7122SOL    HW222266   3.817   2.008   6.380
 7123SOL     OW22267   5.072   4.535   6.234
 7123SOL    HW122268   5.074   4.528   6.135
 7123SOL    HW222269   4.978   4.544   6.266
 7124SOL     OW22270   2.674   2.912   0.195
 7124SOL    HW122271   2.607   2.838   0.196
 7124SOL    HW222272   2.649   2.979   0.125
 7125SOL     OW22273   0.900   6.448   1.731
 7125SOL    HW122274   0.822   6.393   1.760
 7125SOL    HW222275   0.985   6.397   1.742
 7126SOL     OW22276   4.216   4.768   1.177
 7126SOL    HW122277   4.279   4.692   1.165
 7126SOL    HW222278   4.261   4.842   1.227
 7127SOL     OW22279   2.716   6.261   6.063
 7127SOL    HW122280   2.683   6.354   6.048
 7127SOL    HW222281   2.799   6.246   6.008
 7128SOL     OW22282   3.372   4.078   0.390
 7128SOL    HW122283   3.401   4.108   0.299
 7128SOL    HW222284   3.440   4.108   0.458
 7129SOL     OW22285   0.227   0.514   6.997
 7129SOL    HW122286   0.236   0.527   0.077
 7129SOL    HW222287   0.162   0.440   6.979
 7130SOL     OW22288   3.625   0.505   3.966
 7130SOL    HW122289   3.593   0.586   3.917
 7130SOL    HW222290   3.698   0.531   4.029
 7131SOL     OW22291   2.557   1.727   2.364
 7131SOL    HW122292   2.495   1.776   2.303
 7131SOL    HW222293   2.508   1.653   2.410
 7132SOL     OW22294   5.017   4.206   2.048
 7132SOL    HW122295   4.923   4.191   2.076
 7132SOL    HW222296   5.027   4.297   2.008
 7133SOL     OW22297   4.485   6.345   2.647
 7133SOL    HW122298   4.473   6.306   2.738
 7133SOL    HW222299   4.569   6.309   2.605
 7134SOL     OW22300   4.772   4.952   0.173
 7134SOL    HW122301   4.803   5.040   0.136
 7134SOL    HW222302   4.852   4.894   0.192
 7135SOL     OW22303   1.941   4.628   1.327
 7135SOL    HW122304   1.974   4.553   1.383
 7135SOL    HW222305   2.012   4.655   1.262
 7136SOL     OW22306   1.157   2.804   1.441
 7136SOL    HW122307   1.226   2.749   1.488
 7136SOL    HW222308   1.199   2.851   1.364
 7137SOL     OW22309   2.531   0.757   2.239
 7137SOL    HW122310   2.617   0.762   2.289
 7137SOL    HW222311   2.457   0.733   2.302
 7138SOL     OW22312   6.892   3.069   6.712
 7138SOL    HW122313   6.931   3.160   6.719
 7138SOL    HW222314   6.796   3.071   6.741
 7139SOL     OW22315   5.628   5.487   1.133
 7139SOL    HW122316   5.620   5.419   1.060
 7139SOL    HW222317   5.702   5.461   1.194
 7140SOL     OW22318   0.125   5.268   0.277
 7140SOL    HW122319   0.054   5.313   0.332
 7140SOL    HW222320   0.156   5.329   0.205
 7141SOL     OW22321   3.642   1.344   1.017
 7141SOL    HW122322   3.548   1.325   0.986
 7141SOL    HW222323   3.679   1.421   0.966
 7142SOL     OW22324   4.736   0.124   5.245
 7142SOL    HW122325   4.645   0.085   5.230
 7142SOL    HW222326   4.798   0.092   5.174
 7143SOL     OW22327   2.901   2.686   6.134
 7143SOL    HW122328   2.922   2.654   6.042
 7143SOL    HW222329   2.928   2.782   6.143
 7144SOL     OW22330   6.587   1.381   5.595
 7144SOL    HW122331   6.657   1.311   5.582
 7144SOL    HW222332   6.533   1.389   5.511
 7145SOL     OW22333   6.715   2.216   5.928
 7145SOL    HW122334   6.641   2.158   5.895
 7145SOL    HW222335   6.768   2.250   5.850
 7146SOL     OW22336   0.294   1.802   4.462
 7146SOL    HW122337   0.353   1.795   4.542
 7146SOL    HW222338   0.276   1.710   4.426
 7147SOL     OW22339   6.883   6.814   0.822
 7147SOL    HW122340   6.950   6.860   0.881
 7147SOL    HW222341   6.909   6.827   0.726
 7148SOL     OW22342   5.595   6.549   0.866
 7148SOL    HW122343   5.583   6.461   0.910
 7148SOL    HW222344   5.599   6.537   0.766
 7149SOL     OW22345   5.557   4.152   5.998
 7149SOL    HW122346   5.594   4.200   5.919
 7149SOL    HW222347   5.627   4.144   6.069
 7150SOL     OW22348   2.966   2.308   6.910
 7150SOL    HW122349   2.911   2.373   6.964
 7150SOL    HW222350   2.963   2.218   6.954
 7151SOL     OW22351   5.525   1.331   0.173
 7151SOL    HW122352   5.541   1.286   0.261
 7151SOL    HW222353   5.427   1.337   0.156
 7152SOL     OW22354   4.801   0.167   5.507
 7152SOL    HW122355   4.784   0.165   5.409
 7152SOL    HW222356   4.803   0.074   5.543
 7153SOL     OW22357   3.977   5.847   0.728
 7153SOL    HW122358   3.954   5.760   0.683
 7153SOL    HW222359   4.045   5.895   0.674
 7154SOL     OW22360   5.083   0.747   1.669
 7154SOL    HW122361   5.102   0.676   1.602
 7154SOL    HW222362   5.104   0.713   1.761
 7155SOL     OW22363   1.903   0.195   1.417
 7155SOL    HW122364   1.823   0.162   1.467
 7155SOL    HW222365   1.883   0.285   1.378
 7156SOL     OW22366   6.489   3.783   5.254
 7156SOL    HW122367   6.456   3.800   5.161
 7156SOL    HW222368   6.431   3.833   5.319
 7157SOL     OW22369   0.299   3.606   5.562
 7157SOL    HW122370   0.270   3.561   5.647
 7157SOL    HW222371   0.244   3.688   5.548
 7158SOL     OW22372   5.215   0.376   3.854
 7158SOL    HW122373   5.173   0.467   3.849
 7158SOL    HW222374   5.267   0.360   3.770
 7159SOL     OW22375   0.727   6.164   3.383
 7159SOL    HW122376   0.673   6.220   3.447
 7159SOL    HW222377   0.816   6.145   3.423
 7160SOL     OW22378   5.837   0.073   2.522
 7160SOL    HW122379   5.784   0.129   2.459
 7160SOL    HW222380   5.786   0.061   2.607
 7161SOL     OW22381   3.854   3.627   2.128
 7161SOL    HW122382   3.815   3.682   2.201
 7161SOL    HW222383   3.794   3.631   2.048
 7162SOL     OW22384   0.329   6.040   0.733
 7162SOL    HW122385   0.311   5.942   0.729
 7162SOL    HW222386   0.352   6.074   0.641
 7163SOL     OW22387   6.879   6.870   0.559
 7163SOL    HW122388   6.787   6.832   0.550
 7163SOL    HW222389   6.945   6.810   0.513
 7164SOL     OW22390   1.794   0.231   0.049
 7164SOL    HW122391   1.863   0.282   7.016
 7164SOL    HW222392   1.771   0.282   0.132
 7165SOL     OW22393   4.983   2.111   6.718
 7165SOL    HW122394   5.039   2.165   6.655
 7165SOL    HW222395   4.917   2.170   6.764
 7166SOL     OW22396   6.792   5.549   5.017
 7166SOL    HW122397   6.862   5.612   5.048
 7166SOL    HW222398   6.742   5.589   4.940
 7167SOL     OW22399   0.492   3.220   5.709
 7167SOL    HW122400   0.530   3.242   5.619
 7167SOL    HW222401   0.400   3.182   5.697
 7168SOL     OW22402   1.351   1.065   2.484
 7168SOL    HW122403   1.286   1.064   2.408
 7168SOL    HW222404   1.307   1.102   2.565
 7169SOL     OW22405   1.552   4.686   5.806
 7169SOL    HW122406   1.642   4.727   5.796
 7169SOL    HW222407   1.518   4.659   5.716
 7170SOL     OW22408   3.917   2.058   1.052
 7170SOL    HW122409   3.826   2.025   1.026
 7170SOL    HW222410   3.945   2.015   1.138
 7171SOL     OW22411   6.764   4.658   0.993
 7171SOL    HW122412   6.694   4.608   1.044
 7171SOL    HW222413   6.725   4.697   0.910
 7172SOL     OW22414   0.711   2.502   3.395
 7172SOL    HW122415   0.809   2.488   3.405
 7172SOL    HW222416   0.683   2.582   3.447
 7173SOL     OW22417   3.688   5.754   5.008
 7173SOL    HW122418   3.640   5.704   4.936
 7173SOL    HW222419   3.678   5.706   5.095
 7174SOL     OW22420   6.628   3.818   2.115
 7174SOL    HW122421   6.564   3.793   2.042
 7174SOL    HW222422   6.606   3.766   2.197
 7175SOL     OW22423   6.862   3.670   6.012
 7175SOL    HW122424   6.925   3.659   6.089
 7175SOL    HW222425   6.780   3.615   6.028
 7176SOL     OW22426   0.374   1.303   6.283
 7176SOL    HW122427   0.375   1.245   6.201
 7176SOL    HW222428   0.294   1.364   6.281
 7177SOL     OW22429   1.385   5.411   3.349
 7177SOL    HW122430   1.423   5.319   3.356
 7177SOL    HW222431   1.349   5.439   3.438
 7178SOL     OW22432   1.043   6.499   5.589
 7178SOL    HW122433   1.121   6.438   5.601
 7178SOL    HW222434   1.076   6.591   5.568
 7179SOL     OW22435   4.358   4.720   5.964
 7179SOL    HW122436   4.313   4.807   5.979
 7179SOL    HW222437   4.303   4.665   5.901
 7180SOL     OW22438   1.273   2.818   1.782
 7180SOL    HW122439   1.230   2.732   1.755
 7180SOL    HW222440   1.251   2.889   1.716
 7181SOL     OW22441   2.907   1.041   0.429
 7181SOL    HW122442   2.856   0.982   0.491
 7181SOL    HW222443   2.963   1.105   0.482
 7182SOL     OW22444   2.101   1.211   3.108
 7182SOL    HW122445   2.190   1.172   3.127
 7182SOL    HW222446   2.092   1.299   3.156
 7183SOL     OW22447   1.282   0.244   1.558
 7183SOL    HW122448   1.349   0.195   1.613
 7183SOL    HW222449   1.261   0.192   1.475
 7184SOL     OW22450   6.957   0.897   3.901
 7184SOL    HW122451   6.865   0.860   3.914
 7184SOL    HW222452   7.011   0.882   3.984
 7185SOL     OW22453   3.858   0.473   3.678
 7185SOL    HW122454   3.880   0.399   3.613
 7185SOL    HW222455   3.906   0.456   3.764
 7186SOL     OW22456   6.551   1.023   6.338
 7186SOL    HW122457   6.645   0.994   6.319
 7186SOL    HW222458   6.551   1.117   6.371
 7187SOL     OW22459   3.395   3.274   4.030
 7187SOL    HW122460   3.378   3.363   3.987
 7187SOL    HW222461   3.475   3.232   3.988
 7188SOL     OW22462   5.091   4.993   0.384
 7188SOL    HW122463   5.030   5.057   0.430
 7188SOL    HW222464   5.044   4.906   0.370
 7189SOL     OW22465   6.770   2.391   6.127
 7189SOL    HW122466   6.743   2.339   6.045
 7189SOL    HW222467   6.823   2.332   6.187
 7190SOL     OW22468   6.211   5.621   0.168
 7190SOL    HW122469   6.309   5.627   0.147
 7190SOL    HW222470   6.159   5.680   0.106
 7191SOL     OW22471   7.013   5.077   2.156
 7191SOL    HW122472   0.090   5.060   2.130
 7191SOL    HW222473   6.970   4.990   2.181
 7192SOL     OW22474   2.763   3.870   5.341
 7192SOL    HW122475   2.700   3.946   5.331
 7192SOL    HW222476   2.793   3.839   5.251
 7193SOL     OW22477   3.620   1.491   3.744
 7193SOL    HW122478   3.678   1.505   3.824
 7193SOL    HW222479   3.550   1.562   3.741
 7194SOL     OW22480   2.656   2.370   5.904
 7194SOL    HW122481   2.684   2.334   5.992
 7194SOL    HW222482   2.636   2.468   5.913
 7195SOL     OW22483   0.762   3.241   6.077
 7195SOL    HW122484   0.730   3.320   6.130
 7195SOL    HW222485   0.833   3.270   6.014
 7196SOL     OW22486   2.917   3.749   1.471
 7196SOL    HW122487   2.960   3.675   1.418
 7196SOL    HW222488   2.988   3.796   1.524
 7197SOL     OW22489   3.477   5.037   0.081
 7197SOL    HW122490   3.443   5.067   0.170
 7197SOL    HW222491   3.410   5.060   0.010
 7198SOL     OW22492   1.212   0.381   1.979
 7198SOL    HW122493   1.204   0.328   2.063
 7198SOL    HW222494   1.143   0.350   1.913
 7199SOL     OW22495   6.009   1.008   3.453
 7199SOL    HW122496   6.068   1.083   3.424
 7199SOL    HW222497   6.034   0.925   3.403
 7200SOL     OW22498   0.925   3.046   6.739
 7200SOL    HW122499   0.983   3.121   6.707
 7200SOL    HW222500   0.980   2.963   6.747
 7201SOL     OW22501   6.091   6.271   3.839
 7201SOL    HW122502   6.059   6.240   3.929
 7201SOL    HW222503   6.179   6.230   3.820
 7202SOL     OW22504   4.747   0.414   5.982
 7202SOL    HW122505   4.834   0.446   6.019
 7202SOL    HW222506   4.751   0.315   5.966
 7203SOL     OW22507   0.567   1.821   1.021
 7203SOL    HW122508   0.585   1.744   1.082
 7203SOL    HW222509   0.633   1.894   1.040
 7204SOL     OW22510   5.542   1.117   2.508
 7204SOL    HW122511   5.626   1.137   2.558
 7204SOL    HW222512   5.494   1.041   2.552
 7205SOL     OW22513   3.047   1.193   4.033
 7205SOL    HW122514   2.953   1.216   4.008
 7205SOL    HW222515   3.110   1.262   3.996
 7206SOL     OW22516   2.218   3.401   6.881
 7206SOL    HW122517   2.310   3.414   6.843
 7206SOL    HW222518   2.217   3.430   6.977
 7207SOL     OW22519   1.789   1.244   2.784
 7207SOL    HW122520   1.875   1.192   2.774
 7207SOL    HW222521   1.803   1.318   2.849
 7208SOL     OW22522   3.626   0.234   3.815
 7208SOL    HW122523   3.645   0.324   3.853
 7208SOL    HW222524   3.533   0.231   3.779
 7209SOL     OW22525   3.501   1.110   2.185
 7209SOL    HW122526   3.420   1.052   2.191
 7209SOL    HW222527   3.479   1.192   2.132
 7210SOL     OW22528   3.637   1.524   4.274
 7210SOL    HW122529   3.636   1.451   4.343
 7210SOL    HW222530   3.732   1.549   4.255
 7211SOL     OW22531   3.840   6.223   5.852
 7211SOL    HW122532   3.795   6.299   5.900
 7211SOL    HW222533   3.773   6.175   5.796
 7212SOL     OW22534   0.807   5.678   5.494
 7212SOL    HW122535   0.853   5.753   5.542
 7212SOL    HW222536   0.846   5.591   5.524
 7213SOL     OW22537   4.574   2.908   0.346
 7213SOL    HW122538   4.528   2.997   0.340
 7213SOL    HW222539   4.525   2.849   0.411
 7214SOL     OW22540   5.963   0.911   6.326
 7214SOL    HW122541   5.900   0.842   6.361
 7214SOL    HW222542   6.057   0.880   6.340
 7215SOL     OW22543   6.434   1.727   2.481
 7215SOL    HW122544   6.413   1.646   2.426
 7215SOL    HW222545   6.529   1.723   2.511
 7216SOL     OW22546   5.260   6.942   3.547
 7216SOL    HW122547   5.326   7.017   3.556
 7216SOL    HW222548   5.291   6.878   3.476
 7217SOL     OW22549   1.004   3.224   3.296
 7217SOL    HW122550   0.979   3.320   3.306
 7217SOL    HW222551   1.080   3.216   3.232
 7218SOL     OW22552   6.585   2.206   5.061
 7218SOL    HW122553   6.586   2.296   5.016
 7218SOL    HW222554   6.507   2.202   5.123
 7219SOL     OW22555   2.330   6.324   2.044
 7219SOL    HW122556   2.340   6.368   2.133
 7219SOL    HW222557   2.248   6.268   2.043
 7220SOL     OW22558   6.627   4.125   3.417
 7220SOL    HW122559   6.604   4.156   3.510
 7220SOL    HW222560   6.655   4.203   3.362
 7221SOL     OW22561   4.141   5.226   3.540
 7221SOL    HW122562   4.076   5.276   3.484
 7221SOL    HW222563   4.117   5.129   3.540
 7222SOL     OW22564   0.281   5.920   4.078
 7222SOL    HW122565   0.187   5.926   4.044
 7222SOL    HW222566   0.304   5.824   4.095
 7223SOL     OW22567   6.748   5.117   1.917
 7223SOL    HW122568   6.676   5.120   1.847
 7223SOL    HW222569   6.715   5.065   1.996
 7224SOL     OW22570   4.538   2.113   2.757
 7224SOL    HW122571   4.526   2.037   2.820
 7224SOL    HW222572   4.453   2.164   2.749
 7225SOL     OW22573   1.009   6.040   0.318
 7225SOL    HW122574   1.030   6.137   0.328
 7225SOL    HW222575   1.094   5.987   0.324
 7226SOL     OW22576   5.787   6.410   0.111
 7226SOL    HW122577   5.721   6.485   0.111
 7226SOL    HW222578   5.857   6.428   0.042
 7227SOL     OW22579   1.906   1.239   2.388
 7227SOL    HW122580   1.970   1.213   2.461
 7227SOL    HW222581   1.824   1.280   2.429
 7228SOL     OW22582   5.822   3.347   2.728
 7228SOL    HW122583   5.842   3.414   2.800
 7228SOL    HW222584   5.723   3.343   2.712
 7229SOL     OW22585   5.981   0.020   4.811
 7229SOL    HW122586   5.934   0.096   4.858
 7229SOL    HW222587   5.914   6.986   4.759
 7230SOL     OW22588   2.315   5.285   4.813
 7230SOL    HW122589   2.295   5.203   4.866
 7230SOL    HW222590   2.409   5.281   4.779
 7231SOL     OW22591   3.875   3.541   6.471
 7231SOL    HW122592   3.906   3.595   6.393
 7231SOL    HW222593   3.941   3.469   6.490
 7232SOL     OW22594   4.354   6.099   3.439
 7232SOL    HW122595   4.366   6.046   3.356
 7232SOL    HW222596   4.385   6.193   3.423
 7233SOL     OW22597   0.514   1.746   6.232
 7233SOL    HW122598   0.553   1.657   6.257
 7233SOL    HW222599   0.461   1.782   6.308
 7234SOL     OW22600   5.561   4.903   3.322
 7234SOL    HW122601   5.489   4.837   3.344
 7234SOL    HW222602   5.648   4.855   3.312
 7235SOL     OW22603   6.652   0.477   1.896
 7235SOL    HW122604   6.722   0.408   1.877
 7235SOL    HW222605   6.568   0.454   1.849
 7236SOL     OW22606   1.193   3.650   2.888
 7236SOL    HW122607   1.222   3.593   2.810
 7236SOL    HW222608   1.181   3.592   2.968
 7237SOL     OW22609   5.309   1.261   0.604
 7237SOL    HW122610   5.265   1.340   0.560
 7237SOL    HW222611   5.385   1.293   0.660
 7238SOL     OW22612   4.201   3.467   0.064
 7238SOL    HW122613   4.175   3.385   0.013
 7238SOL    HW222614   4.122   3.528   0.070
 7239SOL     OW22615   5.897   2.321   2.118
 7239SOL    HW122616   5.974   2.300   2.178
 7239SOL    HW222617   5.851   2.236   2.091
 7240SOL     OW22618   0.017   1.458   0.225
 7240SOL    HW122619   0.082   1.384   0.208
 7240SOL    HW222620   0.067   1.543   0.239
 7241SOL     OW22621   2.003   6.885   2.599
 7241SOL    HW122622   1.981   6.801   2.550
 7241SOL    HW222623   1.921   6.920   2.644
 7242SOL     OW22624   6.715   4.715   5.727
 7242SOL    HW122625   6.706   4.690   5.823
 7242SOL    HW222626   6.780   4.790   5.717
 7243SOL     OW22627   5.285   4.734   6.143
 7243SOL    HW122628   5.242   4.672   6.209
 7243SOL    HW222629   5.341   4.682   6.079
 7244SOL     OW22630   6.973   5.976   6.830
 7244SOL    HW122631   6.907   6.042   6.866
 7244SOL    HW222632   6.966   5.891   6.882
 7245SOL     OW22633   1.113   2.810   6.852
 7245SOL    HW122634   1.080   2.735   6.795
 7245SOL    HW222635   1.200   2.783   6.895
 7246SOL     OW22636   4.158   0.120   3.485
 7246SOL    HW122637   4.092   0.090   3.416
 7246SOL    HW222638   4.109   0.151   3.567
 7247SOL     OW22639   2.953   3.726   4.398
 7247SOL    HW122640   2.980   3.696   4.306
 7247SOL    HW222641   2.988   3.818   4.414
 7248SOL     OW22642   3.411   1.790   5.764
 7248SOL    HW122643   3.424   1.817   5.669
 7248SOL    HW222644   3.364   1.702   5.769
 7249SOL     OW22645   3.686   5.711   2.696
 7249SOL    HW122646   3.738   5.794   2.710
 7249SOL    HW222647   3.592   5.734   2.671
 7250SOL     OW22648   5.716   5.192   5.538
 7250SOL    HW122649   5.653   5.222   5.610
 7250SOL    HW222650   5.673   5.207   5.449
 7251SOL     OW22651   0.939   5.509   4.353
 7251SOL    HW122652   1.034   5.529   4.328
 7251SOL    HW222653   0.934   5.418   4.395
 7252SOL     OW22654   4.110   3.440   2.454
 7252SOL    HW122655   4.129   3.413   2.360
 7252SOL    HW222656   4.101   3.358   2.511
 7253SOL     OW22657   2.348   5.227   4.476
 7253SOL    HW122658   2.269   5.167   4.459
 7253SOL    HW222659   2.317   5.321   4.486
 7254SOL     OW22660   6.303   3.659   3.879
 7254SOL    HW122661   6.368   3.714   3.931
 7254SOL    HW222662   6.215   3.705   3.876
 7255SOL     OW22663   4.727   3.984   0.513
 7255SOL    HW122664   4.687   3.948   0.597
 7255SOL    HW222665   4.714   4.083   0.509
 7256SOL     OW22666   3.248   0.335   4.453
 7256SOL    HW122667   3.177   0.304   4.516
 7256SOL    HW222668   3.274   0.430   4.475
 7257SOL     OW22669   0.897   1.396   4.720
 7257SOL    HW122670   0.915   1.487   4.757
 7257SOL    HW222671   0.946   1.385   4.633
 7258SOL     OW22672   6.110   2.982   2.069
 7258SOL    HW122673   6.136   2.886   2.080
 7258SOL    HW222674   6.191   3.035   2.043
 7259SOL     OW22675   1.363   4.290   2.742
 7259SOL    HW122676   1.293   4.356   2.717
 7259SOL    HW222677   1.434   4.335   2.795
 7260SOL     OW22678   6.132   2.953   0.628
 7260SOL    HW122679   6.213   2.908   0.590
 7260SOL    HW222680   6.049   2.913   0.587
 7261SOL     OW22681   6.681   4.007   6.758
 7261SOL    HW122682   6.626   3.949   6.818
 7261SOL    HW222683   6.653   4.103   6.769
 7262SOL     OW22684   5.118   1.515   4.986
 7262SOL    HW122685   5.036   1.487   4.937
 7262SOL    HW222686   5.175   1.435   5.004
 7263SOL     OW22687   6.856   5.517   5.732
 7263SOL    HW122688   6.874   5.609   5.769
 7263SOL    HW222689   6.913   5.503   5.651
 7264SOL     OW22690   5.313   1.513   1.513
 7264SOL    HW122691   5.229   1.460   1.504
 7264SOL    HW222692   5.390   1.461   1.476
 7265SOL     OW22693   3.947   0.794   5.524
 7265SOL    HW122694   3.994   0.880   5.504
 7265SOL    HW222695   3.989   0.719   5.473
 7266SOL     OW22696   0.302   0.776   3.062
 7266SOL    HW122697   0.204   0.793   3.067
 7266SOL    HW222698   0.323   0.688   3.105
 7267SOL     OW22699   6.829   4.231   4.475
 7267SOL    HW122700   6.912   4.201   4.428
 7267SOL    HW222701   6.812   4.328   4.456
 7268SOL     OW22702   6.163   6.460   4.116
 7268SOL    HW122703   6.185   6.526   4.188
 7268SOL    HW222704   6.091   6.497   4.057
 7269SOL     OW22705   2.598   4.628   4.703
 7269SOL    HW122706   2.601   4.642   4.802
 7269SOL    HW222707   2.654   4.698   4.658
 7270SOL     OW22708   0.700   0.527   4.884
 7270SOL    HW122709   0.731   0.558   4.974
 7270SOL    HW222710   0.602   0.510   4.886
 7271SOL     OW22711   0.599   5.066   3.428
 7271SOL    HW122712   0.510   5.098   3.397
 7271SOL    HW222713   0.590   5.022   3.517
 7272SOL     OW22714   6.472   3.595   1.444
 7272SOL    HW122715   6.404   3.664   1.469
 7272SOL    HW222716   6.492   3.602   1.346
 7273SOL     OW22717   0.820   1.542   5.261
 7273SOL    HW122718   0.734   1.543   5.210
 7273SOL    HW222719   0.801   1.552   5.359
 7274SOL     OW22720   0.275   5.235   5.896
 7274SOL    HW122721   0.194   5.287   5.869
 7274SOL    HW222722   0.253   5.175   5.973
 7275SOL     OW22723   0.929   5.688   3.930
 7275SOL    HW122724   0.864   5.614   3.949
 7275SOL    HW222725   0.923   5.715   3.834
 7276SOL     OW22726   4.723   5.995   3.461
 7276SOL    HW122727   4.817   6.026   3.475
 7276SOL    HW222728   4.662   6.074   3.461
 7277SOL     OW22729   4.700   0.871   0.203
 7277SOL    HW122730   4.672   0.792   0.150
 7277SOL    HW222731   4.666   0.955   0.160
 7278SOL     OW22732   3.418   3.083   2.344
 7278SOL    HW122733   3.346   3.117   2.283
 7278SOL    HW222734   3.376   3.034   2.420
 7279SOL     OW22735   3.402   6.725   6.207
 7279SOL    HW122736   3.429   6.764   6.119
 7279SOL    HW222737   3.303   6.715   6.210
 7280SOL     OW22738   4.772   1.709   5.917
 7280SOL    HW122739   4.814   1.770   5.985
 7280SOL    HW222740   4.675   1.699   5.937
 7281SOL     OW22741   5.299   0.870   6.268
 7281SOL    HW122742   5.291   0.970   6.263
 7281SOL    HW222743   5.236   0.829   6.201
 7282SOL     OW22744   5.497   5.927   2.209
 7282SOL    HW122745   5.399   5.915   2.223
 7282SOL    HW222746   5.547   5.889   2.287
 7283SOL     OW22747   2.254   1.083   4.057
 7283SOL    HW122748   2.233   1.082   3.959
 7283SOL    HW222749   2.170   1.074   4.109
 7284SOL     OW22750   0.720   1.926   5.315
 7284SOL    HW122751   0.674   1.983   5.247
 7284SOL    HW222752   0.734   1.979   5.399
 7285SOL     OW22753   5.715   4.719   1.568
 7285SOL    HW122754   5.686   4.760   1.482
 7285SOL    HW222755   5.711   4.619   1.560
 7286SOL     OW22756   2.174   4.289   0.641
 7286SOL    HW122757   2.221   4.214   0.690
 7286SOL    HW222758   2.078   4.290   0.668
 7287SOL     OW22759   5.925   1.613   5.659
 7287SOL    HW122760   5.860   1.689   5.662
 7287SOL    HW222761   5.888   1.536   5.711
 7288SOL     OW22762   2.858   6.853   0.157
 7288SOL    HW122763   2.768   6.884   0.128
 7288SOL    HW222764   2.862   6.753   0.151
 7289SOL     OW22765   5.163   2.314   4.146
 7289SOL    HW122766   5.229   2.379   4.184
 7289SOL    HW222767   5.212   2.236   4.108
 7290SOL     OW22768   2.583   5.756   4.788
 7290SOL    HW122769   2.549   5.765   4.694
 7290SOL    HW222770   2.505   5.756   4.851
 7291SOL     OW22771   3.564   5.114   1.650
 7291SOL    HW122772   3.522   5.109   1.740
 7291SOL    HW222773   3.495   5.135   1.581
 7292SOL     OW22774   3.137   6.991   4.851
 7292SOL    HW122775   3.082   0.004   4.929
 7292SOL    HW222776   3.178   6.903   4.873
 7293SOL     OW22777   1.919   1.862   6.561
 7293SOL    HW122778   1.878   1.843   6.650
 7293SOL    HW222779   1.864   1.929   6.512
 7294SOL     OW22780   4.379   5.693   0.477
 7294SOL    HW122781   4.458   5.665   0.532
 7294SOL    HW222782   4.402   5.776   0.426
 7295SOL     OW22783   5.550   0.137   1.510
 7295SOL    HW122784   5.638   0.096   1.535
 7295SOL    HW222785   5.476   0.091   1.559
 7296SOL     OW22786   4.112   5.249   1.727
 7296SOL    HW122787   4.058   5.166   1.739
 7296SOL    HW222788   4.209   5.228   1.737
 7297SOL     OW22789   5.308   6.294   2.534
 7297SOL    HW122790   5.217   6.271   2.569
 7297SOL    HW222791   5.364   6.332   2.608
 7298SOL     OW22792   6.463   3.792   4.037
 7298SOL    HW122793   6.523   3.854   3.987
 7298SOL    HW222794   6.512   3.706   4.055
 7299SOL     OW22795   5.367   3.782   6.251
 7299SOL    HW122796   5.411   3.789   6.341
 7299SOL    HW222797   5.369   3.871   6.207
 7300SOL     OW22798   4.985   5.176   1.353
 7300SOL    HW122799   5.006   5.274   1.348
 7300SOL    HW222800   5.070   5.123   1.352
 7301SOL     OW22801   6.572   0.946   5.993
 7301SOL    HW122802   6.480   0.979   5.971
 7301SOL    HW222803   6.580   0.935   6.092
 7302SOL     OW22804   5.645   1.097   6.210
 7302SOL    HW122805   5.682   1.084   6.302
 7302SOL    HW222806   5.545   1.104   6.216
 7303SOL     OW22807   3.490   0.767   0.783
 7303SOL    HW122808   3.552   0.787   0.708
 7303SOL    HW222809   3.504   0.833   0.857
 7304SOL     OW22810   3.594   3.831   5.325
 7304SOL    HW122811   3.590   3.745   5.274
 7304SOL    HW222812   3.676   3.830   5.383
 7305SOL     OW22813   5.624   1.272   0.452
 7305SOL    HW122814   5.594   1.177   0.455
 7305SOL    HW222815   5.585   1.321   0.531
 7306SOL     OW22816   5.050   5.059   2.032
 7306SOL    HW122817   5.148   5.058   2.013
 7306SOL    HW222818   4.999   5.072   1.947
 7307SOL     OW22819   4.054   6.782   2.210
 7307SOL    HW122820   3.992   6.825   2.276
 7307SOL    HW222821   4.026   6.687   2.195
 7308SOL     OW22822   6.167   1.094   4.201
 7308SOL    HW122823   6.193   1.104   4.105
 7308SOL    HW222824   6.228   1.028   4.246
 7309SOL     OW22825   4.350   5.446   2.232
 7309SOL    HW122826   4.252   5.442   2.251
 7309SOL    HW222827   4.376   5.541   2.213
 7310SOL     OW22828   1.941   5.624   1.533
 7310SOL    HW122829   1.914   5.529   1.547
 7310SOL    HW222830   2.037   5.636   1.558
 7311SOL     OW22831   2.669   2.308   2.111
 7311SOL    HW122832   2.754   2.333   2.066
 7311SOL    HW222833   2.676   2.327   2.209
 7312SOL     OW22834   6.815   1.869   5.822
 7312SOL    HW122835   6.753   1.824   5.758
 7312SOL    HW222836   6.775   1.867   5.914
 7313SOL     OW22837   3.719   2.319   6.280
 7313SOL    HW122838   3.708   2.346   6.184
 7313SOL    HW222839   3.778   2.385   6.326
 7314SOL     OW22840   0.939   2.796   4.595
 7314SOL    HW122841   0.907   2.860   4.525
 7314SOL    HW222842   1.024   2.831   4.634
 7315SOL     OW22843   6.892   0.708   5.573
 7315SOL    HW122844   6.986   0.742   5.569
 7315SOL    HW222845   6.830   0.783   5.597
 7316SOL     OW22846   3.615   3.561   5.204
 7316SOL    HW122847   3.546   3.594   5.140
 7316SOL    HW222848   3.695   3.529   5.153
 7317SOL     OW22849   3.306   1.006   3.531
 7317SOL    HW122850   3.279   1.025   3.437
 7317SOL    HW222851   3.279   1.083   3.589
 7318SOL     OW22852   1.355   1.847   1.311
 7318SOL    HW122853   1.376   1.894   1.397
 7318SOL    HW222854   1.429   1.861   1.246
 7319SOL     OW22855   0.067   4.004   6.137
 7319SOL    HW122856   0.125   4.041   6.210
 7319SOL    HW222857   0.114   3.927   6.094
 7320SOL     OW22858   6.819   2.443   2.403
 7320SOL    HW122859   6.821   2.414   2.499
 7320SOL    HW222860   6.905   2.489   2.381
 7321SOL     OW22861   2.863   1.223   4.452
 7321SOL    HW122862   2.850   1.149   4.519
 7321SOL    HW222863   2.961   1.231   4.432
 7322SOL     OW22864   0.407   3.902   1.775
 7322SOL    HW122865   0.317   3.946   1.774
 7322SOL    HW222866   0.458   3.932   1.855
 7323SOL     OW22867   2.242   4.011   2.940
 7323SOL    HW122868   2.196   3.977   2.858
 7323SOL    HW222869   2.338   3.981   2.939
 7324SOL     OW22870   5.385   5.548   2.204
 7324SOL    HW122871   5.351   5.634   2.242
 7324SOL    HW222872   5.310   5.482   2.199
 7325SOL     OW22873   2.976   6.539   0.981
 7325SOL    HW122874   3.038   6.502   1.050
 7325SOL    HW222875   2.931   6.621   1.017
 7326SOL     OW22876   2.466   0.766   4.872
 7326SOL    HW122877   2.519   0.698   4.922
 7326SOL    HW222878   2.373   0.731   4.857
 7327SOL     OW22879   1.685   2.534   4.967
 7327SOL    HW122880   1.690   2.605   4.896
 7327SOL    HW222881   1.598   2.486   4.960
 7328SOL     OW22882   2.771   6.536   6.889
 7328SOL    HW122883   2.693   6.599   6.884
 7328SOL    HW222884   2.754   6.458   6.830
 7329SOL     OW22885   4.494   3.423   1.277
 7329SOL    HW122886   4.450   3.387   1.359
 7329SOL    HW222887   4.442   3.501   1.243
 7330SOL     OW22888   4.421   2.137   0.835
 7330SOL    HW122889   4.437   2.048   0.794
 7330SOL    HW222890   4.486   2.153   0.909
 7331SOL     OW22891   5.180   1.096   2.048
 7331SOL    HW122892   5.122   1.054   1.979
 7331SOL    HW222893   5.171   1.046   2.135
 7332SOL     OW22894   3.415   5.196   1.268
 7332SOL    HW122895   3.339   5.183   1.205
 7332SOL    HW222896   3.475   5.116   1.264
 7333SOL     OW22897   0.328   4.703   2.602
 7333SOL    HW122898   0.248   4.644   2.614
 7333SOL    HW222899   0.404   4.650   2.565
 7334SOL     OW22900   3.906   6.731   4.643
 7334SOL    HW122901   3.817   6.776   4.657
 7334SOL    HW222902   3.911   6.649   4.699
 7335SOL     OW22903   2.281   2.736   2.593
 7335SOL    HW122904   2.361   2.692   2.634
 7335SOL    HW222905   2.198   2.706   2.641
 7336SOL     OW22906   1.846   6.439   4.128
 7336SOL    HW122907   1.866   6.342   4.117
 7336SOL    HW222908   1.929   6.488   4.153
 7337SOL     OW22909   4.785   2.065   2.180
 7337SOL    HW122910   4.686   2.056   2.183
 7337SOL    HW222911   4.822   2.060   2.273
 7338SOL     OW22912   6.677   3.024   6.940
 7338SOL    HW122913   6.671   3.084   0.001
 7338SOL    HW222914   6.585   3.001   6.909
 7339SOL     OW22915   1.121   5.652   4.609
 7339SOL    HW122916   1.109   5.681   4.704
 7339SOL    HW222917   1.059   5.705   4.551
 7340SOL     OW22918   2.563   6.698   6.845
 7340SOL    HW122919   2.518   6.772   6.796
 7340SOL    HW222920   2.497   6.625   6.863
 7341SOL     OW22921   6.714   1.866   0.502
 7341SOL    HW122922   6.659   1.910   0.431
 7341SOL    HW222923   6.804   1.844   0.465
 7342SOL     OW22924   0.358   6.392   2.099
 7342SOL    HW122925   0.443   6.439   2.075
 7342SOL    HW222926   0.379   6.298   2.128
 7343SOL     OW22927   5.825   3.042   0.383
 7343SOL    HW122928   5.731   3.050   0.414
 7343SOL    HW222929   5.842   2.950   0.348
 7344SOL     OW22930   1.955   6.339   6.197
 7344SOL    HW122931   1.942   6.435   6.220
 7344SOL    HW222932   1.874   6.287   6.224
 7345SOL     OW22933   3.042   5.460   6.411
 7345SOL    HW122934   3.037   5.455   6.510
 7345SOL    HW222935   3.089   5.544   6.384
 7346SOL     OW22936   4.264   5.121   2.553
 7346SOL    HW122937   4.234   5.050   2.490
 7346SOL    HW222938   4.364   5.130   2.549
 7347SOL     OW22939   6.398   1.670   0.252
 7347SOL    HW122940   6.356   1.710   0.334
 7347SOL    HW222941   6.348   1.588   0.224
 7348SOL     OW22942   6.254   4.261   0.276
 7348SOL    HW122943   6.237   4.334   0.209
 7348SOL    HW222944   6.322   4.292   0.342
 7349SOL     OW22945   3.803   1.589   1.732
 7349SOL    HW122946   3.726   1.612   1.792
 7349SOL    HW222947   3.881   1.648   1.753
 7350SOL     OW22948   4.018   0.771   3.972
 7350SOL    HW122949   4.020   0.782   4.071
 7350SOL    HW222950   3.957   0.839   3.932
 7351SOL     OW22951   2.354   4.509   3.870
 7351SOL    HW122952   2.352   4.412   3.891
 7351SOL    HW222953   2.434   4.551   3.913
 7352SOL     OW22954   6.022   3.630   3.905
 7352SOL    HW122955   6.030   3.654   4.002
 7352SOL    HW222956   6.059   3.538   3.891
 7353SOL     OW22957   6.640   0.476   5.485
 7353SOL    HW122958   6.625   0.551   5.549
 7353SOL    HW222959   6.700   0.408   5.526
 7354SOL     OW22960   0.581   1.287   2.891
 7354SOL    HW122961   0.544   1.204   2.934
 7354SOL    HW222962   0.661   1.318   2.943
 7355SOL     OW22963   3.057   1.687   0.157
 7355SOL    HW122964   2.965   1.710   0.123
 7355SOL    HW222965   3.071   1.730   0.246
 7356SOL     OW22966   3.950   3.831   5.888
 7356SOL    HW122967   3.856   3.796   5.880
 7356SOL    HW222968   3.948   3.924   5.923
 7357SOL     OW22969   5.189   6.461   2.110
 7357SOL    HW122970   5.249   6.471   2.189
 7357SOL    HW222971   5.098   6.432   2.139
 7358SOL     OW22972   5.547   0.670   3.400
 7358SOL    HW122973   5.546   0.615   3.483
 7358SOL    HW222974   5.459   0.717   3.390
 7359SOL     OW22975   4.444   0.058   2.017
 7359SOL    HW122976   4.349   0.048   2.045
 7359SOL    HW222977   4.505   0.038   2.094
 7360SOL     OW22978   2.895   3.304   4.880
 7360SOL    HW122979   2.900   3.248   4.798
 7360SOL    HW222980   2.803   3.298   4.919
 7361SOL     OW22981   0.005   0.524   2.925
 7361SOL    HW122982   0.028   0.449   2.987
 7361SOL    HW222983   0.055   0.607   2.952
 7362SOL     OW22984   3.420   5.554   0.339
 7362SOL    HW122985   3.378   5.495   0.271
 7362SOL    HW222986   3.461   5.633   0.294
 7363SOL     OW22987   4.295   0.782   1.138
 7363SOL    HW122988   4.227   0.759   1.207
 7363SOL    HW222989   4.340   0.699   1.106
 7364SOL     OW22990   5.818   6.291   1.696
 7364SOL    HW122991   5.754   6.250   1.631
 7364SOL    HW222992   5.831   6.230   1.774
 7365SOL     OW22993   4.886   3.712   2.333
 7365SOL    HW122994   4.966   3.771   2.322
 7365SOL    HW222995   4.824   3.752   2.400
 7366SOL     OW22996   2.069   0.529   3.744
 7366SOL    HW122997   1.987   0.576   3.710
 7366SOL    HW222998   2.103   0.466   3.674
 7367SOL     OW22999   3.987   0.885   6.907
 7367SOL    HW123000   3.965   0.870   6.810
 7367SOL    HW223001   4.019   0.979   6.920
 7368SOL     OW23002   3.650   3.368   3.332
 7368SOL    HW123003   3.640   3.275   3.367
 7368SOL    HW223004   3.636   3.433   3.407
 7369SOL     OW23005   5.270   3.250   0.186
 7369SOL    HW123006   5.209   3.256   0.108
 7369SOL    HW223007   5.270   3.156   0.222
 7370SOL     OW23008   2.067   1.018   4.481
 7370SOL    HW123009   2.072   1.113   4.449
 7370SOL    HW223010   2.086   0.956   4.404
 7371SOL     OW23011   3.950   1.210   3.699
 7371SOL    HW123012   4.039   1.177   3.728
 7371SOL    HW223013   3.918   1.157   3.621
 7372SOL     OW23014   5.485   1.307   5.268
 7372SOL    HW123015   5.505   1.231   5.329
 7372SOL    HW223016   5.476   1.391   5.321
 7373SOL     OW23017   6.169   3.207   4.776
 7373SOL    HW123018   6.210   3.131   4.826
 7373SOL    HW223019   6.117   3.172   4.698
 7374SOL     OW23020   0.085   1.871   6.211
 7374SOL    HW123021   0.155   1.927   6.255
 7374SOL    HW223022   0.074   1.899   6.116
 7375SOL     OW23023   1.586   3.670   0.928
 7375SOL    HW123024   1.514   3.736   0.947
 7375SOL    HW223025   1.674   3.717   0.922
 7376SOL     OW23026   6.872   3.906   1.050
 7376SOL    HW123027   6.842   3.897   1.145
 7376SOL    HW223028   6.953   3.849   1.035
 7377SOL     OW23029   2.556   5.837   1.322
 7377SOL    HW123030   2.539   5.862   1.227
 7377SOL    HW223031   2.653   5.819   1.335
 7378SOL     OW23032   2.021   5.315   4.699
 7378SOL    HW123033   2.093   5.337   4.765
 7378SOL    HW223034   2.043   5.228   4.653
 7379SOL     OW23035   4.215   1.540   2.679
 7379SOL    HW123036   4.177   1.632   2.686
 7379SOL    HW223037   4.245   1.523   2.585
 7380SOL     OW23038   5.320   3.317   1.580
 7380SOL    HW123039   5.372   3.394   1.617
 7380SOL    HW223040   5.255   3.284   1.648
 7381SOL     OW23041   3.560   0.068   1.876
 7381SOL    HW123042   3.651   0.094   1.846
 7381SOL    HW223043   3.501   0.054   1.797
 7382SOL     OW23044   6.396   1.302   6.015
 7382SOL    HW123045   6.484   1.333   5.979
 7382SOL    HW223046   6.351   1.245   5.947
 7383SOL     OW23047   1.996   6.909   0.748
 7383SOL    HW123048   1.951   6.940   0.832
 7383SOL    HW223049   2.007   6.987   0.686
 7384SOL     OW23050   6.705   6.647   0.706
 7384SOL    HW123051   6.782   6.698   0.746
 7384SOL    HW223052   6.633   6.711   0.681
 7385SOL     OW23053   6.156   4.873   3.003
 7385SOL    HW123054   6.065   4.834   2.991
 7385SOL    HW223055   6.223   4.800   3.013
 7386SOL     OW23056   5.205   3.772   6.867
 7386SOL    HW123057   5.214   3.677   6.894
 7386SOL    HW223058   5.143   3.819   6.930
 7387SOL     OW23059   6.320   5.772   4.795
 7387SOL    HW123060   6.311   5.774   4.695
 7387SOL    HW223061   6.407   5.727   4.819
 7388SOL     OW23062   2.281   4.244   2.672
 7388SOL    HW123063   2.335   4.283   2.598
 7388SOL    HW223064   2.185   4.244   2.647
 7389SOL     OW23065   6.243   2.956   0.229
 7389SOL    HW123066   6.241   2.886   0.300
 7389SOL    HW223067   6.183   3.031   0.254
 7390SOL     OW23068   2.273   2.652   4.029
 7390SOL    HW123069   2.244   2.566   4.073
 7390SOL    HW223070   2.295   2.719   4.100
 7391SOL     OW23071   3.543   4.006   3.069
 7391SOL    HW123072   3.542   3.909   3.091
 7391SOL    HW223073   3.489   4.022   2.986
 7392SOL     OW23074   3.319   6.863   0.147
 7392SOL    HW123075   3.397   6.864   0.209
 7392SOL    HW223076   3.260   6.784   0.169
 7393SOL     OW23077   4.838   5.614   3.594
 7393SOL    HW123078   4.813   5.545   3.662
 7393SOL    HW223079   4.757   5.668   3.570
 7394SOL     OW23080   2.177   1.958   5.664
 7394SOL    HW123081   2.250   1.989   5.725
 7394SOL    HW223082   2.209   1.959   5.570
 7395SOL     OW23083   2.949   6.104   1.112
 7395SOL    HW123084   3.017   6.113   1.040
 7395SOL    HW223085   2.977   6.159   1.191
 7396SOL     OW23086   1.499   5.299   2.559
 7396SOL    HW123087   1.508   5.248   2.474
 7396SOL    HW223088   1.514   5.396   2.541
 7397SOL     OW23089   5.999   4.564   3.772
 7397SOL    HW123090   6.096   4.546   3.785
 7397SOL    HW223091   5.982   4.663   3.780
 7398SOL     OW23092   3.267   4.918   2.222
 7398SOL    HW123093   3.216   4.875   2.296
 7398SOL    HW223094   3.228   4.892   2.134
 7399SOL     OW23095   5.246   1.349   6.025
 7399SOL    HW123096   5.177   1.285   5.993
 7399SOL    HW223097   5.225   1.441   5.993
 7400SOL     OW23098   4.794   3.568   5.537
 7400SOL    HW123099   4.764   3.504   5.467
 7400SOL    HW223100   4.828   3.652   5.494
 7401SOL     OW23101   1.379   2.426   3.985
 7401SOL    HW123102   1.303   2.363   4.007
 7401SOL    HW223103   1.404   2.478   4.066
 7402SOL     OW23104   3.641   5.480   4.434
 7402SOL    HW123105   3.715   5.539   4.464
 7402SOL    HW223106   3.596   5.520   4.354
 7403SOL     OW23107   2.140   4.511   4.251
 7403SOL    HW123108   2.119   4.570   4.174
 7403SOL    HW223109   2.094   4.546   4.333
 7404SOL     OW23110   2.846   3.780   0.616
 7404SOL    HW123111   2.893   3.693   0.627
 7404SOL    HW223112   2.869   3.841   0.692
 7405SOL     OW23113   3.894   6.753   5.441
 7405SOL    HW123114   3.829   6.818   5.479
 7405SOL    HW223115   3.899   6.765   5.342
 7406SOL     OW23116   0.935   2.265   4.458
 7406SOL    HW123117   0.916   2.235   4.552
 7406SOL    HW223118   0.924   2.187   4.396
 7407SOL     OW23119   1.219   6.075   5.484
 7407SOL    HW123120   1.287   6.054   5.413
 7407SOL    HW223121   1.193   5.990   5.530
 7408SOL     OW23122   4.567   5.493   4.989
 7408SOL    HW123123   4.476   5.454   5.004
 7408SOL    HW223124   4.590   5.553   5.065
 7409SOL     OW23125   6.846   4.227   1.481
 7409SOL    HW123126   6.754   4.189   1.469
 7409SOL    HW223127   6.909   4.181   1.419
 7410SOL     OW23128   6.810   0.509   1.139
 7410SOL    HW123129   6.753   0.547   1.067
 7410SOL    HW223130   6.851   0.423   1.108
 7411SOL     OW23131   2.921   1.915   4.843
 7411SOL    HW123132   2.869   1.846   4.893
 7411SOL    HW223133   2.858   1.987   4.812
 7412SOL     OW23134   4.075   6.995   0.665
 7412SOL    HW123135   3.988   0.025   0.664
 7412SOL    HW223136   4.132   0.011   0.739
 7413SOL     OW23137   4.756   0.878   3.540
 7413SOL    HW123138   4.761   0.958   3.481
 7413SOL    HW223139   4.711   0.803   3.490
 7414SOL     OW23140   2.716   0.805   3.784
 7414SOL    HW123141   2.784   0.733   3.794
 7414SOL    HW223142   2.757   0.893   3.808
 7415SOL     OW23143   4.014   6.815   6.591
 7415SOL    HW123144   4.091   6.773   6.638
 7415SOL    HW223145   3.959   6.743   6.548
 7416SOL     OW23146   1.824   0.864   1.967
 7416SOL    HW123147   1.745   0.815   2.005
 7416SOL    HW223148   1.887   0.798   1.926
 7417SOL     OW23149   0.646   0.848   2.190
 7417SOL    HW123150   0.711   0.923   2.203
 7417SOL    HW223151   0.556   0.876   2.223
 7418SOL     OW23152   1.380   3.907   6.038
 7418SOL    HW123153   1.362   4.004   6.056
 7418SOL    HW223154   1.418   3.896   5.946
 7419SOL     OW23155   0.335   3.575   4.358
 7419SOL    HW123156   0.317   3.626   4.441
 7419SOL    HW223157   0.344   3.638   4.281
 7420SOL     OW23158   0.034   6.105   0.795
 7420SOL    HW123159   0.017   6.148   0.706
 7420SOL    HW223160   0.132   6.091   0.807
 7421SOL     OW23161   5.740   3.711   0.935
 7421SOL    HW123162   5.740   3.723   1.034
 7421SOL    HW223163   5.773   3.795   0.891
 7422SOL     OW23164   5.584   3.212   1.770
 7422SOL    HW123165   5.589   3.238   1.866
 7422SOL    HW223166   5.556   3.116   1.762
 7423SOL     OW23167   4.841   2.456   6.278
 7423SOL    HW123168   4.766   2.419   6.224
 7423SOL    HW223169   4.876   2.539   6.235
 7424SOL     OW23170   0.457   2.506   3.148
 7424SOL    HW123171   0.441   2.600   3.119
 7424SOL    HW223172   0.530   2.504   3.216
 7425SOL     OW23173   5.467   0.986   0.742
 7425SOL    HW123174   5.541   1.012   0.803
 7425SOL    HW223175   5.391   0.948   0.794
 7426SOL     OW23176   2.627   2.818   5.999
 7426SOL    HW123177   2.610   2.847   5.904
 7426SOL    HW223178   2.702   2.751   6.000
 7427SOL     OW23179   2.862   0.435   3.523
 7427SOL    HW123180   2.920   0.376   3.467
 7427SOL    HW223181   2.908   0.523   3.537
 7428SOL     OW23182   3.405   6.773   5.180
 7428SOL    HW123183   3.456   6.729   5.254
 7428SOL    HW223184   3.415   6.872   5.187
 7429SOL     OW23185   0.748   6.854   2.385
 7429SOL    HW123186   0.808   6.934   2.385
 7429SOL    HW223187   0.791   6.780   2.333
 7430SOL     OW23188   6.465   4.761   3.079
 7430SOL    HW123189   6.406   4.707   3.019
 7430SOL    HW223190   6.462   4.723   3.171
 7431SOL     OW23191   0.952   1.944   3.513
 7431SOL    HW123192   0.907   1.861   3.545
 7431SOL    HW223193   1.047   1.924   3.487
 7432SOL     OW23194   1.990   1.047   2.762
 7432SOL    HW123195   2.089   1.036   2.772
 7432SOL    HW223196   1.947   0.957   2.758
 7433SOL     OW23197   3.005   6.661   6.939
 7433SOL    HW123198   3.069   6.666   6.862
 7433SOL    HW223199   2.912   6.648   6.904
 7434SOL     OW23200   4.318   6.848   3.520
 7434SOL    HW123201   4.303   6.947   3.515
 7434SOL    HW223202   4.242   6.805   3.570
 7435SOL     OW23203   4.637   4.316   3.575
 7435SOL    HW123204   4.597   4.346   3.488
 7435SOL    HW223205   4.693   4.235   3.560
 7436SOL     OW23206   5.637   3.002   5.894
 7436SOL    HW123207   5.655   2.989   5.796
 7436SOL    HW223208   5.715   3.049   5.936
 7437SOL     OW23209   3.053   0.368   1.081
 7437SOL    HW123210   3.005   0.371   0.994
 7437SOL    HW223211   2.988   0.360   1.156
 7438SOL     OW23212   2.207   0.353   6.866
 7438SOL    HW123213   2.192   0.423   6.796
 7438SOL    HW223214   2.300   0.361   6.902
 7439SOL     OW23215   0.899   4.825   6.137
 7439SOL    HW123216   0.876   4.768   6.057
 7439SOL    HW223217   0.925   4.916   6.106
 7440SOL     OW23218   5.649   4.179   4.064
 7440SOL    HW123219   5.737   4.222   4.043
 7440SOL    HW223220   5.656   4.131   4.152
 7441SOL     OW23221   4.777   5.855   1.079
 7441SOL    HW123222   4.801   5.944   1.040
 7441SOL    HW223223   4.755   5.792   1.005
 7442SOL     OW23224   5.074   0.877   6.478
 7442SOL    HW123225   5.000   0.897   6.414
 7442SOL    HW223226   5.153   0.843   6.427
 7443SOL     OW23227   0.470   0.206   1.090
 7443SOL    HW123228   0.481   0.179   0.994
 7443SOL    HW223229   0.380   0.247   1.103
 7444SOL     OW23230   1.731   6.293   0.363
 7444SOL    HW123231   1.689   6.376   0.399
 7444SOL    HW223232   1.757   6.308   0.267
 7445SOL     OW23233   3.892   5.974   2.094
 7445SOL    HW123234   3.951   5.991   2.015
 7445SOL    HW223235   3.870   6.061   2.138
 7446SOL     OW23236   5.763   4.789   6.771
 7446SOL    HW123237   5.845   4.732   6.774
 7446SOL    HW223238   5.783   4.878   6.811
 7447SOL     OW23239   0.530   5.098   0.710
 7447SOL    HW123240   0.488   5.049   0.634
 7447SOL    HW223241   0.607   5.045   0.745
 7448SOL     OW23242   4.762   5.429   6.629
 7448SOL    HW123243   4.844   5.373   6.617
 7448SOL    HW223244   4.784   5.525   6.617
 7449SOL     OW23245   6.500   4.226   6.005
 7449SOL    HW123246   6.580   4.280   6.030
 7449SOL    HW223247   6.523   4.129   6.005
 7450SOL     OW23248   5.773   2.135   6.360
 7450SOL    HW123249   5.687   2.160   6.316
 7450SOL    HW223250   5.849   2.179   6.313
 7451SOL     OW23251   4.738   4.387   3.143
 7451SOL    HW123252   4.720   4.343   3.055
 7451SOL    HW223253   4.665   4.364   3.208
 7452SOL     OW23254   6.432   5.318   5.896
 7452SOL    HW123255   6.372   5.240   5.882
 7452SOL    HW223256   6.376   5.400   5.911
 7453SOL     OW23257   3.894   6.010   6.138
 7453SOL    HW123258   3.897   5.916   6.172
 7453SOL    HW223259   3.986   6.039   6.112
 7454SOL     OW23260   3.362   2.691   1.437
 7454SOL    HW123261   3.420   2.709   1.516
 7454SOL    HW223262   3.402   2.617   1.382
 7455SOL     OW23263   6.705   1.204   3.176
 7455SOL    HW123264   6.681   1.231   3.082
 7455SOL    HW223265   6.805   1.208   3.186
 7456SOL     OW23266   2.856   2.165   6.121
 7456SOL    HW123267   2.918   2.181   6.045
 7456SOL    HW223268   2.771   2.124   6.087
 7457SOL     OW23269   1.358   1.410   2.637
 7457SOL    HW123270   1.449   1.396   2.674
 7457SOL    HW223271   1.364   1.426   2.539
 7458SOL     OW23272   1.576   5.658   5.221
 7458SOL    HW123273   1.580   5.757   5.216
 7458SOL    HW223274   1.644   5.618   5.159
 7459SOL     OW23275   5.466   0.223   3.116
 7459SOL    HW123276   5.420   0.309   3.095
 7459SOL    HW223277   5.442   0.155   3.047
 7460SOL     OW23278   1.455   0.459   1.445
 7460SOL    HW123279   1.552   0.448   1.466
 7460SOL    HW223280   1.401   0.401   1.507
 7461SOL     OW23281   1.834   4.519   4.895
 7461SOL    HW123282   1.857   4.424   4.871
 7461SOL    HW223283   1.735   4.528   4.902
 7462SOL     OW23284   1.671   4.199   0.604
 7462SOL    HW123285   1.654   4.145   0.522
 7462SOL    HW223286   1.586   4.244   0.633
 7463SOL     OW23287   4.809   5.064   1.532
 7463SOL    HW123288   4.715   5.085   1.503
 7463SOL    HW223289   4.873   5.099   1.464
 7464SOL     OW23290   6.392   6.099   5.341
 7464SOL    HW123291   6.375   6.194   5.313
 7464SOL    HW223292   6.319   6.041   5.309
 7465SOL     OW23293   1.325   4.359   6.860
 7465SOL    HW123294   1.301   4.297   6.934
 7465SOL    HW223295   1.325   4.309   6.773
 7466SOL     OW23296   0.118   0.385   4.975
 7466SOL    HW123297   0.040   0.352   5.030
 7466SOL    HW223298   0.198   0.394   5.034
 7467SOL     OW23299   0.752   3.704   4.819
 7467SOL    HW123300   0.804   3.790   4.824
 7467SOL    HW223301   0.814   3.627   4.830
 7468SOL     OW23302   5.668   2.725   5.872
 7468SOL    HW123303   5.621   2.790   5.931
 7468SOL    HW223304   5.705   2.773   5.793
 7469SOL     OW23305   0.406   1.971   0.520
 7469SOL    HW123306   0.425   2.069   0.516
 7469SOL    HW223307   0.439   1.927   0.437
 7470SOL     OW23308   5.300   2.820   3.868
 7470SOL    HW123309   5.212   2.781   3.896
 7470SOL    HW223310   5.331   2.884   3.938
 7471SOL     OW23311   3.799   6.903   6.866
 7471SOL    HW123312   3.874   6.936   6.808
 7471SOL    HW223313   3.757   6.981   6.913
 7472SOL     OW23314   0.073   0.166   5.822
 7472SOL    HW123315   0.079   0.208   5.732
 7472SOL    HW223316   0.101   0.070   5.816
 7473SOL     OW23317   3.855   5.844   3.497
 7473SOL    HW123318   3.935   5.816   3.444
 7473SOL    HW223319   3.773   5.804   3.455
 7474SOL     OW23320   5.896   1.997   0.748
 7474SOL    HW123321   5.812   2.045   0.721
 7474SOL    HW223322   5.903   1.912   0.696
 7475SOL     OW23323   4.967   2.782   0.660
 7475SOL    HW123324   5.030   2.854   0.690
 7475SOL    HW223325   4.997   2.694   0.697
 7476SOL     OW23326   2.734   0.935   2.725
 7476SOL    HW123327   2.774   1.023   2.701
 7476SOL    HW223328   2.798   0.884   2.782
 7477SOL     OW23329   2.164   3.597   6.278
 7477SOL    HW123330   2.130   3.691   6.272
 7477SOL    HW223331   2.263   3.597   6.287
 7478SOL     OW23332   0.248   1.833   5.669
 7478SOL    HW123333   0.213   1.885   5.747
 7478SOL    HW223334   0.172   1.814   5.606
 7479SOL     OW23335   5.104   2.604   1.566
 7479SOL    HW123336   5.076   2.549   1.488
 7479SOL    HW223337   5.026   2.658   1.599
 7480SOL     OW23338   3.997   6.246   2.798
 7480SOL    HW123339   4.004   6.331   2.745
 7480SOL    HW223340   3.948   6.177   2.745
 7481SOL     OW23341   0.239   3.722   6.406
 7481SOL    HW123342   0.186   3.804   6.384
 7481SOL    HW223343   0.283   3.734   6.495
 7482SOL     OW23344   5.676   2.418   4.086
 7482SOL    HW123345   5.703   2.394   3.992
 7482SOL    HW223346   5.660   2.335   4.138
 7483SOL     OW23347   4.444   1.721   6.352
 7483SOL    HW123348   4.383   1.800   6.356
 7483SOL    HW223349   4.405   1.652   6.291
 7484SOL     OW23350   3.201   0.205   3.871
 7484SOL    HW123351   3.255   0.174   3.792
 7484SOL    HW223352   3.168   0.125   3.922
 7485SOL     OW23353   3.911   0.142   6.396
 7485SOL    HW123354   3.846   0.216   6.382
 7485SOL    HW223355   4.004   0.178   6.389
 7486SOL     OW23356   4.302   0.248   0.662
 7486SOL    HW123357   4.227   0.298   0.619
 7486SOL    HW223358   4.264   0.176   0.721
 7487SOL     OW23359   3.284   6.521   3.865
 7487SOL    HW123360   3.206   6.547   3.808
 7487SOL    HW223361   3.361   6.496   3.806
 7488SOL     OW23362   1.183   5.556   4.227
 7488SOL    HW123363   1.229   5.614   4.160
 7488SOL    HW223364   1.122   5.492   4.179
 7489SOL     OW23365   5.782   2.978   6.985
 7489SOL    HW123366   5.866   3.014   0.009
 7489SOL    HW223367   5.706   3.039   7.006
 7490SOL     OW23368   1.141   2.717   2.005
 7490SOL    HW123369   1.184   2.756   1.924
 7490SOL    HW223370   1.210   2.672   2.062
 7491SOL     OW23371   4.147   3.815   0.034
 7491SOL    HW123372   4.101   3.890   7.004
 7491SOL    HW223373   4.080   3.745   0.059
 7492SOL     OW23374   1.664   0.429   4.122
 7492SOL    HW123375   1.726   0.352   4.109
 7492SOL    HW223376   1.584   0.399   4.175
 7493SOL     OW23377   6.093   4.814   4.908
 7493SOL    HW123378   6.037   4.732   4.906
 7493SOL    HW223379   6.146   4.817   4.993
 7494SOL     OW23380   6.244   1.387   2.643
 7494SOL    HW123381   6.183   1.442   2.585
 7494SOL    HW223382   6.209   1.386   2.737
 7495SOL     OW23383   1.747   3.029   5.093
 7495SOL    HW123384   1.737   3.003   4.997
 7495SOL    HW223385   1.664   3.004   5.143
 7496SOL     OW23386   6.261   4.082   2.441
 7496SOL    HW123387   6.234   4.071   2.346
 7496SOL    HW223388   6.264   3.993   2.486
 7497SOL     OW23389   6.245   6.789   1.601
 7497SOL    HW123390   6.323   6.850   1.585
 7497SOL    HW223391   6.278   6.695   1.610
 7498SOL     OW23392   3.195   6.373   3.494
 7498SOL    HW123393   3.156   6.286   3.524
 7498SOL    HW223394   3.170   6.445   3.558
 7499SOL     OW23395   3.248   1.308   3.317
 7499SOL    HW123396   3.272   1.308   3.220
 7499SOL    HW223397   3.324   1.269   3.370
 7500SOL     OW23398   4.163   0.744   3.753
 7500SOL    HW123399   4.151   0.651   3.716
 7500SOL    HW223400   4.118   0.750   3.841
 7501SOL     OW23401   6.654   1.966   4.581
 7501SOL    HW123402   6.652   2.060   4.615
 7501SOL    HW223403   6.691   1.966   4.488
 7502SOL     OW23404   4.368   0.749   3.997
 7502SOL    HW123405   4.307   0.676   3.967
 7502SOL    HW223406   4.321   0.837   3.987
 7503SOL     OW23407   1.796   5.666   2.034
 7503SOL    HW123408   1.866   5.719   1.986
 7503SOL    HW223409   1.774   5.710   2.121
 7504SOL     OW23410   5.515   6.474   4.368
 7504SOL    HW123411   5.434   6.438   4.321
 7504SOL    HW223412   5.556   6.402   4.424
 7505SOL     OW23413   0.327   6.198   5.091
 7505SOL    HW123414   0.243   6.150   5.070
 7505SOL    HW223415   0.334   6.211   5.190
 7506SOL     OW23416   2.995   2.066   3.889
 7506SOL    HW123417   2.948   1.979   3.876
 7506SOL    HW223418   3.088   2.060   3.850
 7507SOL     OW23419   6.629   4.271   6.789
 7507SOL    HW123420   6.613   4.254   6.886
 7507SOL    HW223421   6.573   4.348   6.759
 7508SOL     OW23422   2.897   6.288   0.734
 7508SOL    HW123423   2.834   6.271   0.811
 7508SOL    HW223424   2.909   6.386   0.722
 7509SOL     OW23425   6.137   4.198   2.187
 7509SOL    HW123426   6.052   4.148   2.169
 7509SOL    HW223427   6.150   4.268   2.117
 7510SOL     OW23428   3.775   4.063   2.132
 7510SOL    HW123429   3.814   4.008   2.206
 7510SOL    HW223430   3.730   4.144   2.170
 7511SOL     OW23431   4.365   6.066   4.101
 7511SOL    HW123432   4.352   5.967   4.104
 7511SOL    HW223433   4.301   6.110   4.165
 7512SOL     OW23434   3.943   0.706   0.958
 7512SOL    HW123435   4.023   0.763   0.941
 7512SOL    HW223436   3.865   0.765   0.981
 7513SOL     OW23437   1.249   1.117   2.085
 7513SOL    HW123438   1.283   1.059   2.011
 7513SOL    HW223439   1.301   1.203   2.087
 7514SOL     OW23440   0.116   6.797   1.270
 7514SOL    HW123441   0.068   6.778   1.356
 7514SOL    HW223442   0.177   6.874   1.283
 7515SOL     OW23443   0.205   4.403   5.381
 7515SOL    HW123444   0.192   4.321   5.438
 7515SOL    HW223445   0.267   4.382   5.306
 7516SOL     OW23446   1.722   6.279   5.506
 7516SOL    HW123447   1.665   6.198   5.490
 7516SOL    HW223448   1.783   6.263   5.584
 7517SOL     OW23449   0.790   1.445   6.068
 7517SOL    HW123450   0.798   1.545   6.061
 7517SOL    HW223451   0.707   1.423   6.119
 7518SOL     OW23452   4.357   1.742   4.237
 7518SOL    HW123453   4.453   1.761   4.256
 7518SOL    HW223454   4.313   1.709   4.321
 7519SOL     OW23455   4.027   0.139   4.634
 7519SOL    HW123456   4.077   0.094   4.708
 7519SOL    HW223457   4.077   0.221   4.605
 7520SOL     OW23458   2.071   1.610   0.645
 7520SOL    HW123459   2.160   1.572   0.673
 7520SOL    HW223460   2.079   1.651   0.555
 7521SOL     OW23461   4.194   1.582   4.715
 7521SOL    HW123462   4.108   1.621   4.682
 7521SOL    HW223463   4.268   1.646   4.698
 7522SOL     OW23464   1.855   0.202   3.828
 7522SOL    HW123465   1.864   0.302   3.834
 7522SOL    HW223466   1.844   0.164   3.920
 7523SOL     OW23467   5.878   0.905   0.733
 7523SOL    HW123468   5.849   0.953   0.815
 7523SOL    HW223469   5.919   0.970   0.668
 7524SOL     OW23470   0.593   3.856   4.468
 7524SOL    HW123471   0.538   3.909   4.403
 7524SOL    HW223472   0.534   3.800   4.525
 7525SOL     OW23473   3.240   4.475   6.345
 7525SOL    HW123474   3.142   4.473   6.324
 7525SOL    HW223475   3.256   4.528   6.428
 7526SOL     OW23476   2.278   4.053   0.791
 7526SOL    HW123477   2.256   3.969   0.842
 7526SOL    HW223478   2.368   4.043   0.750
 7527SOL     OW23479   2.925   5.156   2.931
 7527SOL    HW123480   2.980   5.088   2.882
 7527SOL    HW223481   2.967   5.176   3.019
 7528SOL     OW23482   6.452   2.095   5.846
 7528SOL    HW123483   6.416   2.002   5.839
 7528SOL    HW223484   6.403   2.155   5.783
 7529SOL     OW23485   6.386   3.339   4.113
 7529SOL    HW123486   6.340   3.334   4.202
 7529SOL    HW223487   6.324   3.378   4.045
 7530SOL     OW23488   1.160   2.962   3.027
 7530SOL    HW123489   1.160   2.939   2.930
 7530SOL    HW223490   1.119   2.887   3.079
 7531SOL     OW23491   3.866   2.146   3.842
 7531SOL    HW123492   3.792   2.183   3.785
 7531SOL    HW223493   3.829   2.121   3.931
 7532SOL     OW23494   4.478   6.010   6.381
 7532SOL    HW123495   4.519   5.994   6.291
 7532SOL    HW223496   4.387   6.049   6.369
 7533SOL     OW23497   4.253   4.447   1.738
 7533SOL    HW123498   4.305   4.469   1.656
 7533SOL    HW223499   4.279   4.357   1.771
 7534SOL     OW23500   4.877   5.991   5.240
 7534SOL    HW123501   4.877   6.076   5.292
 7534SOL    HW223502   4.856   6.011   5.144
 7535SOL     OW23503   0.504   6.354   3.833
 7535SOL    HW123504   0.575   6.413   3.870
 7535SOL    HW223505   0.415   6.397   3.845
 7536SOL     OW23506   6.317   5.996   3.553
 7536SOL    HW123507   6.298   6.063   3.481
 7536SOL    HW223508   6.235   5.943   3.573
 7537SOL     OW23509   1.664   6.530   2.893
 7537SOL    HW123510   1.678   6.549   2.796
 7537SOL    HW223511   1.720   6.591   2.948
 7538SOL     OW23512   0.458   4.644   0.162
 7538SOL    HW123513   0.538   4.646   0.103
 7538SOL    HW223514   0.378   4.614   0.110
 7539SOL     OW23515   6.663   6.989   4.411
 7539SOL    HW123516   6.593   0.041   4.395
 7539SOL    HW223517   6.738   7.002   4.347
 7540SOL     OW23518   5.353   4.745   3.068
 7540SOL    HW123519   5.347   4.659   3.120
 7540SOL    HW223520   5.358   4.725   2.971
 7541SOL     OW23521   2.777   4.047   5.848
 7541SOL    HW123522   2.714   4.071   5.923
 7541SOL    HW223523   2.750   4.097   5.766
 7542SOL     OW23524   6.057   5.714   4.820
 7542SOL    HW123525   6.078   5.621   4.850
 7542SOL    HW223526   6.142   5.763   4.800
 7543SOL     OW23527   2.418   1.515   0.306
 7543SOL    HW123528   2.430   1.575   0.227
 7543SOL    HW223529   2.436   1.567   0.390
 7544SOL     OW23530   6.573   1.314   4.401
 7544SOL    HW123531   6.592   1.295   4.305
 7544SOL    HW223532   6.650   1.283   4.457
 7545SOL     OW23533   1.940   5.537   5.756
 7545SOL    HW123534   1.926   5.600   5.833
 7545SOL    HW223535   2.038   5.524   5.740
 7546SOL     OW23536   2.359   2.779   1.923
 7546SOL    HW123537   2.290   2.707   1.927
 7546SOL    HW223538   2.412   2.770   1.839
 7547SOL     OW23539   3.959   0.315   1.958
 7547SOL    HW123540   3.883   0.367   1.997
 7547SOL    HW223541   4.022   0.377   1.912
 7548SOL     OW23542   2.805   2.547   6.403
 7548SOL    HW123543   2.813   2.502   6.492
 7548SOL    HW223544   2.827   2.644   6.414
 7549SOL     OW23545   5.351   0.463   4.529
 7549SOL    HW123546   5.311   0.551   4.555
 7549SOL    HW223547   5.444   0.478   4.494
 7550SOL     OW23548   2.433   5.778   4.557
 7550SOL    HW123549   2.404   5.685   4.579
 7550SOL    HW223550   2.409   5.800   4.462
 7551SOL     OW23551   6.209   2.492   6.268
 7551SOL    HW123552   6.128   2.472   6.213
 7551SOL    HW223553   6.283   2.522   6.209
 7552SOL     OW23554   2.537   6.523   4.733
 7552SOL    HW123555   2.451   6.564   4.762
 7552SOL    HW223556   2.525   6.424   4.722
 7553SOL     OW23557   6.299   6.441   5.783
 7553SOL    HW123558   6.235   6.422   5.857
 7553SOL    HW223559   6.308   6.540   5.770
 7554SOL     OW23560   4.732   1.352   0.616
 7554SOL    HW123561   4.644   1.336   0.661
 7554SOL    HW223562   4.732   1.307   0.527
 7555SOL     OW23563   4.562   4.876   4.255
 7555SOL    HW123564   4.500   4.807   4.217
 7555SOL    HW223565   4.595   4.845   4.344
 7556SOL     OW23566   1.256   6.060   1.441
 7556SOL    HW123567   1.291   6.011   1.521
 7556SOL    HW223568   1.195   6.133   1.470
 7557SOL     OW23569   4.288   6.986   1.616
 7557SOL    HW123570   4.202   6.949   1.652
 7557SOL    HW223571   4.340   6.913   1.572
 7558SOL     OW23572   0.621   1.873   3.354
 7558SOL    HW123573   0.643   1.841   3.262
 7558SOL    HW223574   0.585   1.798   3.408
 7559SOL     OW23575   2.801   1.308   4.775
 7559SOL    HW123576   2.706   1.323   4.802
 7559SOL    HW223577   2.859   1.377   4.818
 7560SOL     OW23578   1.215   1.379   6.014
 7560SOL    HW123579   1.306   1.344   6.036
 7560SOL    HW223580   1.213   1.410   5.919
 7561SOL     OW23581   5.201   1.249   5.592
 7561SOL    HW123582   5.112   1.246   5.639
 7561SOL    HW223583   5.187   1.242   5.494
 7562SOL     OW23584   2.173   5.739   3.239
 7562SOL    HW123585   2.111   5.674   3.282
 7562SOL    HW223586   2.253   5.691   3.204
 7563SOL     OW23587   3.701   5.903   3.037
 7563SOL    HW123588   3.775   5.933   3.097
 7563SOL    HW223589   3.676   5.978   2.976
 7564SOL     OW23590   4.159   1.743   5.067
 7564SOL    HW123591   4.107   1.802   5.128
 7564SOL    HW223592   4.141   1.769   4.972
 7565SOL     OW23593   6.414   3.439   5.701
 7565SOL    HW123594   6.366   3.408   5.783
 7565SOL    HW223595   6.512   3.442   5.718
 7566SOL     OW23596   4.868   4.485   1.813
 7566SOL    HW123597   4.920   4.569   1.827
 7566SOL    HW223598   4.773   4.507   1.793
 7567SOL     OW23599   1.099   6.999   4.579
 7567SOL    HW123600   1.178   6.994   4.640
 7567SOL    HW223601   1.061   0.073   4.582
 7568SOL     OW23602   5.922   4.278   1.362
 7568SOL    HW123603   5.885   4.185   1.358
 7568SOL    HW223604   6.021   4.274   1.374
 7569SOL     OW23605   5.100   3.526   0.258
 7569SOL    HW123606   5.078   3.612   0.306
 7569SOL    HW223607   5.071   3.533   0.163
 7570SOL     OW23608   1.053   3.383   2.030
 7570SOL    HW123609   0.998   3.374   2.113
 7570SOL    HW223610   0.993   3.409   1.954
 7571SOL     OW23611   4.426   1.454   2.800
 7571SOL    HW123612   4.346   1.495   2.755
 7571SOL    HW223613   4.423   1.355   2.788
 7572SOL     OW23614   4.740   0.066   4.067
 7572SOL    HW123615   4.781   7.015   4.008
 7572SOL    HW223616   4.673   0.023   4.127
 7573SOL     OW23617   4.273   6.503   5.992
 7573SOL    HW123618   4.271   6.439   6.068
 7573SOL    HW223619   4.259   6.596   6.026
 7574SOL     OW23620   0.620   2.373   4.010
 7574SOL    HW123621   0.623   2.290   3.956
 7574SOL    HW223622   0.705   2.425   3.997
 7575SOL     OW23623   6.906   6.531   1.811
 7575SOL    HW123624   6.842   6.483   1.751
 7575SOL    HW223625   6.855   6.596   1.868
 7576SOL     OW23626   4.676   2.525   6.722
 7576SOL    HW123627   4.742   2.593   6.753
 7576SOL    HW223628   4.626   2.489   6.801
 7577SOL     OW23629   0.921   0.366   6.959
 7577SOL    HW123630   0.826   0.340   6.944
 7577SOL    HW223631   0.937   0.377   0.039
 7578SOL     OW23632   6.567   6.244   3.523
 7578SOL    HW123633   6.517   6.285   3.599
 7578SOL    HW223634   6.554   6.299   3.441
 7579SOL     OW23635   0.736   1.698   6.907
 7579SOL    HW123636   0.832   1.724   6.920
 7579SOL    HW223637   0.712   1.624   6.969
 7580SOL     OW23638   2.773   5.539   3.088
 7580SOL    HW123639   2.862   5.522   3.047
 7580SOL    HW223640   2.703   5.543   3.016
 7581SOL     OW23641   0.032   0.165   1.694
 7581SOL    HW123642   0.055   0.240   1.755
 7581SOL    HW223643   0.059   0.078   1.736
 7582SOL     OW23644   2.395   1.713   6.145
 7582SOL    HW123645   2.337   1.751   6.217
 7582SOL    HW223646   2.490   1.713   6.175
 7583SOL     OW23647   5.653   3.160   2.359
 7583SOL    HW123648   5.600   3.238   2.391
 7583SOL    HW223649   5.743   3.160   2.403
 7584SOL     OW23650   0.836   1.106   3.456
 7584SOL    HW123651   0.758   1.043   3.451
 7584SOL    HW223652   0.920   1.054   3.466
 7585SOL     OW23653   1.036   1.411   6.220
 7585SOL    HW123654   1.104   1.412   6.147
 7585SOL    HW223655   0.945   1.393   6.181
 7586SOL     OW23656   1.932   6.753   4.118
 7586SOL    HW123657   1.956   6.675   4.060
 7586SOL    HW223658   1.839   6.782   4.097
 7587SOL     OW23659   4.854   0.092   1.600
 7587SOL    HW123660   4.923   0.133   1.660
 7587SOL    HW223661   4.799   0.164   1.558
 7588SOL     OW23662   2.366   2.834   4.530
 7588SOL    HW123663   2.456   2.797   4.555
 7588SOL    HW223664   2.321   2.868   4.613
 7589SOL     OW23665   0.057   0.394   2.659
 7589SOL    HW123666   0.078   0.410   2.755
 7589SOL    HW223667   0.019   0.302   2.647
 7590SOL     OW23668   6.413   0.988   0.319
 7590SOL    HW123669   6.425   0.891   0.339
 7590SOL    HW223670   6.372   1.000   0.229
 7591SOL     OW23671   3.217   3.699   4.585
 7591SOL    HW123672   3.235   3.797   4.571
 7591SOL    HW223673   3.233   3.650   4.499
 7592SOL     OW23674   0.002   6.141   3.529
 7592SOL    HW123675   0.040   6.120   3.439
 7592SOL    HW223676   6.924   6.113   3.532
 7593SOL     OW23677   6.929   1.228   5.831
 7593SOL    HW123678   7.011   1.278   5.804
 7593SOL    HW223679   6.945   1.130   5.820
 7594SOL     OW23680   6.896   4.007   5.950
 7594SOL    HW123681   6.916   3.943   5.876
 7594SOL    HW223682   6.965   3.997   6.022
 7595SOL     OW23683   0.984   3.450   6.473
 7595SOL    HW123684   0.938   3.443   6.384
 7595SOL    HW223685   1.049   3.526   6.470
 7596SOL     OW23686   2.842   1.544   0.339
 7596SOL    HW123687   2.772   1.582   0.400
 7596SOL    HW223688   2.890   1.618   0.293
 7597SOL     OW23689   2.449   5.152   1.248
 7597SOL    HW123690   2.447   5.230   1.185
 7597SOL    HW223691   2.358   5.111   1.254
 7598SOL     OW23692   5.969   0.909   2.176
 7598SOL    HW123693   5.966   0.999   2.132
 7598SOL    HW223694   5.903   0.848   2.131
 7599SOL     OW23695   3.061   3.676   1.041
 7599SOL    HW123696   3.062   3.773   1.016
 7599SOL    HW223697   3.029   3.666   1.135
 7600SOL     OW23698   0.896   6.912   4.006
 7600SOL    HW123699   0.845   6.984   4.053
 7600SOL    HW223700   0.837   6.867   3.939
 7601SOL     OW23701   2.400   6.766   1.300
 7601SOL    HW123702   2.390   6.830   1.376
 7601SOL    HW223703   2.364   6.807   1.217
 7602SOL     OW23704   0.738   1.169   0.802
 7602SOL    HW123705   0.764   1.266   0.808
 7602SOL    HW223706   0.820   1.112   0.813
 7603SOL     OW23707   4.190   1.090   5.946
 7603SOL    HW123708   4.123   1.116   6.015
 7603SOL    HW223709   4.147   1.027   5.881
 7604SOL     OW23710   1.585   2.511   4.670
 7604SOL    HW123711   1.638   2.470   4.595
 7604SOL    HW223712   1.596   2.610   4.669
 7605SOL     OW23713   2.639   6.209   0.050
 7605SOL    HW123714   2.589   6.142   7.014
 7605SOL    HW223715   2.581   6.289   0.066
 7606SOL     OW23716   0.034   0.764   3.346
 7606SOL    HW123717   7.010   0.728   3.263
 7606SOL    HW223718   0.124   0.723   3.358
 7607SOL     OW23719   1.841   6.108   5.800
 7607SOL    HW123720   1.904   6.176   5.763
 7607SOL    HW223721   1.819   6.041   5.728
 7608SOL     OW23722   0.199   2.082   6.325
 7608SOL    HW123723   0.175   2.132   6.408
 7608SOL    HW223724   0.272   2.131   6.277
 7609SOL     OW23725   3.120   1.276   4.609
 7609SOL    HW123726   3.099   1.229   4.694
 7609SOL    HW223727   3.063   1.358   4.601
 7610SOL     OW23728   3.981   4.856   4.609
 7610SOL    HW123729   4.016   4.772   4.568
 7610SOL    HW223730   3.925   4.904   4.542
 7611SOL     OW23731   4.609   2.686   0.173
 7611SOL    HW123732   4.626   2.780   0.204
 7611SOL    HW223733   4.694   2.634   0.174
 7612SOL     OW23734   3.750   2.151   3.100
 7612SOL    HW123735   3.847   2.165   3.081
 7612SOL    HW223736   3.701   2.238   3.093
 7613SOL     OW23737   0.913   0.330   0.224
 7613SOL    HW123738   0.818   0.358   0.242
 7613SOL    HW223739   0.932   0.244   0.272
 7614SOL     OW23740   5.526   4.874   0.647
 7614SOL    HW123741   5.500   4.841   0.556
 7614SOL    HW223742   5.585   4.955   0.638
 7615SOL     OW23743   6.298   3.342   5.435
 7615SOL    HW123744   6.210   3.383   5.409
 7615SOL    HW223745   6.365   3.414   5.453
 7616SOL     OW23746   6.871   6.734   2.788
 7616SOL    HW123747   6.946   6.687   2.834
 7616SOL    HW223748   6.877   6.832   2.807
 7617SOL     OW23749   6.624   4.062   2.574
 7617SOL    HW123750   6.613   4.025   2.482
 7617SOL    HW223751   6.609   4.161   2.572
 7618SOL     OW23752   2.661   2.392   0.671
 7618SOL    HW123753   2.734   2.324   0.686
 7618SOL    HW223754   2.592   2.383   0.743
 7619SOL     OW23755   1.568   1.267   4.486
 7619SOL    HW123756   1.560   1.167   4.492
 7619SOL    HW223757   1.664   1.292   4.474
 7620SOL     OW23758   3.104   3.392   0.987
 7620SOL    HW123759   3.056   3.336   1.054
 7620SOL    HW223760   3.099   3.488   1.013
 7621SOL     OW23761   5.879   4.420   6.570
 7621SOL    HW123762   5.783   4.412   6.599
 7621SOL    HW223763   5.888   4.385   6.477
 7622SOL     OW23764   3.298   3.733   1.630
 7622SOL    HW123765   3.271   3.736   1.726
 7622SOL    HW223766   3.248   3.803   1.579
 7623SOL     OW23767   5.536   3.863   1.835
 7623SOL    HW123768   5.475   3.916   1.894
 7623SOL    HW223769   5.617   3.836   1.887
 7624SOL     OW23770   0.657   3.652   2.472
 7624SOL    HW123771   0.589   3.628   2.404
 7624SOL    HW223772   0.687   3.570   2.520
 7625SOL     OW23773   5.368   0.518   2.145
 7625SOL    HW123774   5.272   0.509   2.169
 7625SOL    HW223775   5.422   0.535   2.227
 7626SOL     OW23776   4.365   6.929   0.369
 7626SOL    HW123777   4.272   6.932   0.407
 7626SOL    HW223778   4.374   6.999   0.298
 7627SOL     OW23779   4.158   2.919   6.034
 7627SOL    HW123780   4.136   2.848   6.101
 7627SOL    HW223781   4.173   3.006   6.082
 7628SOL     OW23782   2.866   2.998   0.600
 7628SOL    HW123783   2.916   2.918   0.566
 7628SOL    HW223784   2.861   2.994   0.700
 7629SOL     OW23785   6.350   2.285   3.632
 7629SOL    HW123786   6.323   2.193   3.604
 7629SOL    HW223787   6.407   2.326   3.561
 7630SOL     OW23788   1.268   5.977   3.893
 7630SOL    HW123789   1.293   5.962   3.797
 7630SOL    HW223790   1.333   6.040   3.935
 7631SOL     OW23791   1.192   0.770   5.593
 7631SOL    HW123792   1.268   0.830   5.567
 7631SOL    HW223793   1.124   0.823   5.644
 7632SOL     OW23794   4.798   5.669   1.437
 7632SOL    HW123795   4.840   5.757   1.415
 7632SOL    HW223796   4.828   5.639   1.528
 7633SOL     OW23797   5.974   1.071   1.531
 7633SOL    HW123798   5.954   1.058   1.433
 7633SOL    HW223799   5.992   1.167   1.548
 7634SOL     OW23800   0.380   2.263   6.502
 7634SOL    HW123801   0.401   2.349   6.549
 7634SOL    HW223802   0.391   2.275   6.403
 7635SOL     OW23803   2.106   3.497   5.377
 7635SOL    HW123804   2.143   3.547   5.455
 7635SOL    HW223805   2.164   3.417   5.358
 7636SOL     OW23806   6.886   3.742   3.951
 7636SOL    HW123807   6.870   3.653   3.993
 7636SOL    HW223808   6.967   3.737   3.892
 7637SOL     OW23809   0.380   4.433   5.156
 7637SOL    HW123810   0.405   4.523   5.192
 7637SOL    HW223811   0.430   4.362   5.207
 7638SOL     OW23812   0.356   5.801   1.204
 7638SOL    HW123813   0.281   5.860   1.175
 7638SOL    HW223814   0.320   5.723   1.255
 7639SOL     OW23815   1.747   0.165   0.684
 7639SOL    HW123816   1.695   0.142   0.602
 7639SOL    HW223817   1.764   0.081   0.736
 7640SOL     OW23818   3.333   1.502   1.003
 7640SOL    HW123819   3.284   1.465   1.082
 7640SOL    HW223820   3.327   1.438   0.927
 7641SOL     OW23821   0.236   4.939   4.961
 7641SOL    HW123822   0.238   4.966   4.865
 7641SOL    HW223823   0.192   5.010   5.016
 7642SOL     OW23824   5.238   0.834   3.691
 7642SOL    HW123825   5.215   0.931   3.702
 7642SOL    HW223826   5.255   0.814   3.594
 7643SOL     OW23827   5.325   3.625   4.931
 7643SOL    HW123828   5.402   3.633   4.995
 7643SOL    HW223829   5.324   3.533   4.892
 7644SOL     OW23830   5.083   3.961   0.773
 7644SOL    HW123831   5.127   3.999   0.854
 7644SOL    HW223832   5.048   4.036   0.716
 7645SOL     OW23833   4.390   4.741   0.149
 7645SOL    HW123834   4.409   4.655   0.196
 7645SOL    HW223835   4.295   4.767   0.166
 7646SOL     OW23836   0.219   2.212   0.884
 7646SOL    HW123837   0.243   2.182   0.977
 7646SOL    HW223838   0.290   2.273   0.850
 7647SOL     OW23839   0.087   2.251   4.057
 7647SOL    HW123840   0.027   2.300   4.121
 7647SOL    HW223841   0.173   2.301   4.047
 7648SOL     OW23842   2.232   2.536   1.955
 7648SOL    HW123843   2.242   2.485   1.869
 7648SOL    HW223844   2.275   2.486   2.029
 7649SOL     OW23845   3.872   0.554   0.254
 7649SOL    HW123846   3.856   0.585   0.347
 7649SOL    HW223847   3.968   0.526   0.244
 7650SOL     OW23848   3.499   2.386   0.135
 7650SOL    HW123849   3.430   2.315   0.145
 7650SOL    HW223850   3.542   2.379   0.045
 7651SOL     OW23851   3.611   5.254   6.048
 7651SOL    HW123852   3.568   5.324   5.990
 7651SOL    HW223853   3.545   5.225   6.118
 7652SOL     OW23854   1.023   0.931   4.801
 7652SOL    HW123855   0.997   0.912   4.706
 7652SOL    HW223856   1.118   0.902   4.816
 7653SOL     OW23857   2.020   6.879   0.267
 7653SOL    HW123858   1.933   6.840   0.236
 7653SOL    HW223859   2.001   6.961   0.322
 7654SOL     OW23860   6.691   1.958   6.072
 7654SOL    HW123861   6.672   2.055   6.064
 7654SOL    HW223862   6.691   1.931   6.168
 7655SOL     OW23863   3.580   1.609   5.046
 7655SOL    HW123864   3.539   1.675   4.982
 7655SOL    HW223865   3.616   1.657   5.125
 7656SOL     OW23866   5.918   4.002   6.857
 7656SOL    HW123867   5.908   3.937   6.782
 7656SOL    HW223868   5.938   4.093   6.820
 7657SOL     OW23869   1.134   4.026   4.764
 7657SOL    HW123870   1.090   3.970   4.835
 7657SOL    HW223871   1.154   3.969   4.684
 7658SOL     OW23872   2.806   0.921   0.993
 7658SOL    HW123873   2.802   0.826   1.022
 7658SOL    HW223874   2.813   0.980   1.073
 7659SOL     OW23875   5.052   4.587   5.638
 7659SOL    HW123876   4.973   4.588   5.578
 7659SOL    HW223877   5.051   4.669   5.696
 7660SOL     OW23878   6.669   6.619   5.627
 7660SOL    HW123879   6.610   6.675   5.569
 7660SOL    HW223880   6.702   6.673   5.704
 7661SOL     OW23881   3.340   0.980   5.102
 7661SOL    HW123882   3.299   0.953   5.015
 7661SOL    HW223883   3.282   1.048   5.147
 7662SOL     OW23884   6.755   5.740   1.112
 7662SOL    HW123885   6.764   5.652   1.065
 7662SOL    HW223886   6.730   5.725   1.207
 7663SOL     OW23887   0.633   5.331   4.629
 7663SOL    HW123888   0.660   5.314   4.724
 7663SOL    HW223889   0.639   5.429   4.610
 7664SOL     OW23890   4.464   2.151   2.314
 7664SOL    HW123891   4.413   2.084   2.369
 7664SOL    HW223892   4.421   2.160   2.224
 7665SOL     OW23893   3.272   0.780   5.385
 7665SOL    HW123894   3.196   0.742   5.333
 7665SOL    HW223895   3.306   0.862   5.339
 7666SOL     OW23896   5.217   5.540   3.719
 7666SOL    HW123897   5.290   5.489   3.765
 7666SOL    HW223898   5.157   5.476   3.671
 7667SOL     OW23899   4.058   6.511   2.178
 7667SOL    HW123900   3.975   6.480   2.133
 7667SOL    HW223901   4.067   6.467   2.267
 7668SOL     OW23902   1.412   5.691   0.229
 7668SOL    HW123903   1.331   5.665   0.176
 7668SOL    HW223904   1.394   5.775   0.280
 7669SOL     OW23905   2.662   1.572   6.779
 7669SOL    HW123906   2.577   1.531   6.813
 7669SOL    HW223907   2.677   1.660   6.825
 7670SOL     OW23908   0.850   0.564   0.854
 7670SOL    HW123909   0.836   0.662   0.838
 7670SOL    HW223910   0.902   0.551   0.938
 7671SOL     OW23911   2.987   6.871   1.768
 7671SOL    HW123912   2.979   6.772   1.764
 7671SOL    HW223913   3.047   6.897   1.843
 7672SOL     OW23914   5.421   3.482   2.175
 7672SOL    HW123915   5.328   3.500   2.145
 7672SOL    HW223916   5.420   3.413   2.248
 7673SOL     OW23917   1.902   6.835   4.633
 7673SOL    HW123918   1.884   6.784   4.549
 7673SOL    HW223919   1.898   6.772   4.711
 7674SOL     OW23920   3.812   5.693   4.580
 7674SOL    HW123921   3.908   5.664   4.577
 7674SOL    HW223922   3.800   5.773   4.522
 7675SOL     OW23923   4.493   6.586   3.131
 7675SOL    HW123924   4.515   6.637   3.214
 7675SOL    HW223925   4.464   6.650   3.060
 7676SOL     OW23926   3.382   2.745   5.236
 7676SOL    HW123927   3.320   2.670   5.260
 7676SOL    HW223928   3.434   2.773   5.317
 7677SOL     OW23929   6.864   4.726   6.807
 7677SOL    HW123930   6.873   4.679   6.719
 7677SOL    HW223931   6.895   4.666   6.880
 7678SOL     OW23932   3.580   1.656   5.408
 7678SOL    HW123933   3.497   1.608   5.436
 7678SOL    HW223934   3.660   1.600   5.428
 7679SOL     OW23935   3.128   5.314   4.621
 7679SOL    HW123936   3.127   5.300   4.522
 7679SOL    HW223937   3.219   5.296   4.657
 7680SOL     OW23938   1.945   0.047   4.302
 7680SOL    HW123939   1.963   0.078   4.396
 7680SOL    HW223940   1.975   6.970   4.293
 7681SOL     OW23941   2.045   2.250   5.513
 7681SOL    HW123942   2.112   2.213   5.450
 7681SOL    HW223943   2.018   2.342   5.484
 7682SOL     OW23944   3.235   0.915   2.239
 7682SOL    HW123945   3.210   0.922   2.143
 7682SOL    HW223946   3.233   0.819   2.267
 7683SOL     OW23947   0.463   4.695   4.821
 7683SOL    HW123948   0.368   4.685   4.851
 7683SOL    HW223949   0.516   4.617   4.854
 7684SOL     OW23950   5.239   2.971   1.247
 7684SOL    HW123951   5.286   2.890   1.283
 7684SOL    HW223952   5.144   2.947   1.227
 7685SOL     OW23953   2.827   0.381   0.416
 7685SOL    HW123954   2.765   0.457   0.398
 7685SOL    HW223955   2.919   0.404   0.385
 7686SOL     OW23956   6.842   6.970   4.173
 7686SOL    HW123957   6.826   6.877   4.138
 7686SOL    HW223958   6.936   6.997   4.155
 7687SOL     OW23959   5.015   3.257   6.228
 7687SOL    HW123960   5.059   3.347   6.235
 7687SOL    HW223961   4.969   3.249   6.140
 7688SOL     OW23962   5.733   2.734   0.051
 7688SOL    HW123963   5.754   2.825   0.016
 7688SOL    HW223964   5.755   2.665   7.000
 7689SOL     OW23965   5.971   0.301   2.025
 7689SOL    HW123966   5.966   0.281   2.123
 7689SOL    HW223967   6.062   0.338   2.004
 7690SOL     OW23968   5.533   5.073   2.102
 7690SOL    HW123969   5.504   5.140   2.170
 7690SOL    HW223970   5.599   5.010   2.142
 7691SOL     OW23971   5.093   2.982   4.244
 7691SOL    HW123972   5.106   2.928   4.326
 7691SOL    HW223973   5.089   2.922   4.164
 7692SOL     OW23974   2.852   6.348   2.062
 7692SOL    HW123975   2.775   6.385   2.010
 7692SOL    HW223976   2.899   6.422   2.111
 7693SOL     OW23977   3.044   1.812   1.684
 7693SOL    HW123978   3.001   1.741   1.739
 7693SOL    HW223979   2.985   1.893   1.682
 7694SOL     OW23980   4.250   2.219   6.751
 7694SOL    HW123981   4.229   2.229   6.848
 7694SOL    HW223982   4.197   2.144   6.712
 7695SOL     OW23983   5.126   6.788   3.784
 7695SOL    HW123984   5.120   6.805   3.685
 7695SOL    HW223985   5.120   6.875   3.833
 7696SOL     OW23986   2.306   2.383   5.431
 7696SOL    HW123987   2.351   2.341   5.510
 7696SOL    HW223988   2.367   2.380   5.352
 7697SOL     OW23989   5.880   6.838   3.297
 7697SOL    HW123990   5.814   6.766   3.318
 7697SOL    HW223991   5.913   6.827   3.203
 7698SOL     OW23992   6.487   2.653   1.067
 7698SOL    HW123993   6.511   2.706   1.148
 7698SOL    HW223994   6.565   2.650   1.005
 7699SOL     OW23995   4.185   6.348   5.549
 7699SOL    HW123996   4.192   6.250   5.529
 7699SOL    HW223997   4.159   6.361   5.644
 7700SOL     OW23998   6.031   5.330   1.543
 7700SOL    HW123999   6.067   5.372   1.627
 7700SOL    HW224000   6.100   5.268   1.505
 7701SOL     OW24001   2.024   1.540   6.657
 7701SOL    HW124002   2.033   1.624   6.604
 7701SOL    HW224003   1.960   1.478   6.611
 7702SOL     OW24004   5.344   6.697   5.523
 7702SOL    HW124005   5.312   6.606   5.551
 7702SOL    HW224006   5.364   6.697   5.425
 7703SOL     OW24007   0.049   6.598   5.389
 7703SOL    HW124008   0.031   6.582   5.486
 7703SOL    HW224009   0.143   6.571   5.367
 7704SOL     OW24010   1.759   1.677   4.735
 7704SOL    HW124011   1.769   1.770   4.771
 7704SOL    HW224012   1.813   1.614   4.791
 7705SOL     OW24013   0.392   4.211   0.182
 7705SOL    HW124014   0.464   4.266   0.140
 7705SOL    HW224015   0.335   4.172   0.110
 7706SOL     OW24016   3.256   3.474   2.453
 7706SOL    HW124017   3.206   3.559   2.436
 7706SOL    HW224018   3.284   3.433   2.366
 7707SOL     OW24019   6.941   4.110   6.505
 7707SOL    HW124020   6.865   4.087   6.444
 7707SOL    HW224021   6.909   4.173   6.576
 7708SOL     OW24022   1.062   6.976   4.304
 7708SOL    HW124023   1.138   6.932   4.258
 7708SOL    HW224024   1.075   6.970   4.403
 7709SOL     OW24025   6.427   4.535   0.875
 7709SOL    HW124026   6.398   4.603   0.807
 7709SOL    HW224027   6.366   4.541   0.954
 7710SOL     OW24028   6.475   3.131   2.094
 7710SOL    HW124029   6.388   3.131   2.044
 7710SOL    HW224030   6.550   3.113   2.031
 7711SOL     OW24031   1.069   4.420   4.016
 7711SOL    HW124032   1.146   4.424   3.952
 7711SOL    HW224033   1.007   4.346   3.989
 7712SOL     OW24034   0.582   4.940   4.777
 7712SOL    HW124035   0.542   4.856   4.815
 7712SOL    HW224036   0.509   5.007   4.762
 7713SOL     OW24037   1.011   4.767   0.870
 7713SOL    HW124038   1.041   4.673   0.853
 7713SOL    HW224039   0.931   4.765   0.931
 7714SOL     OW24040   5.980   1.485   5.226
 7714SOL    HW124041   6.015   1.512   5.315
 7714SOL    HW224042   6.014   1.549   5.157
 7715SOL     OW24043   3.462   2.974   6.314
 7715SOL    HW124044   3.480   2.997   6.218
 7715SOL    HW224045   3.413   2.887   6.318
 7716SOL     OW24046   1.276   6.988   6.246
 7716SOL    HW124047   1.265   6.913   6.311
 7716SOL    HW224048   1.214   6.975   6.169
 7717SOL     OW24049   0.523   1.988   6.117
 7717SOL    HW124050   0.519   1.914   6.184
 7717SOL    HW224051   0.484   1.957   6.030
 7718SOL     OW24052   0.243   2.967   2.443
 7718SOL    HW124053   0.169   3.006   2.387
 7718SOL    HW224054   0.223   2.983   2.540
 7719SOL     OW24055   1.875   5.572   5.122
 7719SOL    HW124056   1.965   5.557   5.161
 7719SOL    HW224057   1.882   5.636   5.045
 7720SOL     OW24058   4.633   1.213   6.792
 7720SOL    HW124059   4.669   1.244   6.704
 7720SOL    HW224060   4.639   1.288   6.858
 7721SOL     OW24061   5.645   5.714   2.503
 7721SOL    HW124062   5.662   5.775   2.580
 7721SOL    HW224063   5.732   5.682   2.466
 7722SOL     OW24064   0.886   5.931   4.054
 7722SOL    HW124065   0.914   5.839   4.025
 7722SOL    HW224066   0.935   6.000   4.001
 7723SOL     OW24067   4.538   4.150   0.275
 7723SOL    HW124068   4.519   4.102   0.361
 7723SOL    HW224069   4.626   4.118   0.238
 7724SOL     OW24070   1.487   3.704   0.063
 7724SOL    HW124071   1.548   3.628   0.084
 7724SOL    HW224072   1.490   3.723   6.983
 7725SOL     OW24073   5.628   3.538   4.300
 7725SOL    HW124074   5.573   3.481   4.239
 7725SOL    HW224075   5.687   3.480   4.356
 7726SOL     OW24076   1.973   3.436   6.784
 7726SOL    HW124077   2.068   3.410   6.801
 7726SOL    HW224078   1.936   3.482   6.865
 7727SOL     OW24079   4.938   0.447   2.445
 7727SOL    HW124080   4.876   0.396   2.505
 7727SOL    HW224081   5.015   0.481   2.498
 7728SOL     OW24082   1.921   3.524   4.494
 7728SOL    HW124083   1.892   3.477   4.577
 7728SOL    HW224084   1.952   3.616   4.517
 7729SOL     OW24085   6.986   0.667   2.562
 7729SOL    HW124086   6.889   0.688   2.559
 7729SOL    HW224087   6.999   0.568   2.575
 7730SOL     OW24088   5.907   4.688   5.375
 7730SOL    HW124089   5.881   4.737   5.458
 7730SOL    HW224090   5.897   4.590   5.389
 7731SOL     OW24091   6.813   0.162   5.905
 7731SOL    HW124092   6.780   0.255   5.924
 7731SOL    HW224093   6.902   0.168   5.859
 7732SOL     OW24094   4.651   1.095   0.059
 7732SOL    HW124095   4.740   1.138   0.046
 7732SOL    HW224096   4.599   1.097   6.992
 7733SOL     OW24097   6.804   5.485   1.035
 7733SOL    HW124098   6.830   5.472   1.131
 7733SOL    HW224099   6.851   5.418   0.979
 7734SOL     OW24100   4.027   3.787   3.293
 7734SOL    HW124101   4.031   3.690   3.267
 7734SOL    HW224102   4.071   3.799   3.382
 7735SOL     OW24103   0.803   5.890   1.052
 7735SOL    HW124104   0.800   5.885   0.952
 7735SOL    HW224105   0.730   5.833   1.090
 7736SOL     OW24106   1.806   1.932   0.223
 7736SOL    HW124107   1.865   1.861   0.262
 7736SOL    HW224108   1.859   2.015   0.209
 7737SOL     OW24109   4.392   4.294   7.008
 7737SOL    HW124110   4.484   4.260   6.990
 7737SOL    HW224111   4.353   4.246   0.068
 7738SOL     OW24112   1.410   0.794   5.265
 7738SOL    HW124113   1.493   0.847   5.247
 7738SOL    HW224114   1.367   0.827   5.349
 7739SOL     OW24115   1.290   2.620   0.590
 7739SOL    HW124116   1.389   2.631   0.603
 7739SOL    HW224117   1.250   2.708   0.564
 7740SOL     OW24118   2.757   1.219   4.130
 7740SOL    HW124119   2.807   1.147   4.178
 7740SOL    HW224120   2.674   1.181   4.090
 7741SOL     OW24121   0.129   4.331   6.033
 7741SOL    HW124122   0.209   4.283   6.071
 7741SOL    HW224123   0.126   4.424   6.068
 7742SOL     OW24124   4.269   2.180   4.400
 7742SOL    HW124125   4.207   2.104   4.422
 7742SOL    HW224126   4.283   2.237   4.481
 7743SOL     OW24127   3.743   1.166   5.886
 7743SOL    HW124128   3.668   1.124   5.937
 7743SOL    HW224129   3.820   1.102   5.882
 7744SOL     OW24130   0.619   0.017   4.505
 7744SOL    HW124131   0.532   6.998   4.473
 7744SOL    HW224132   0.694   6.976   4.475
 7745SOL     OW24133   2.711   6.966   0.820
 7745SOL    HW124134   2.645   6.898   0.852
 7745SOL    HW224135   2.757   6.932   0.739
 7746SOL     OW24136   0.430   6.364   1.433
 7746SOL    HW124137   0.336   6.398   1.427
 7746SOL    HW224138   0.482   6.396   1.353
 7747SOL     OW24139   0.341   5.311   1.178
 7747SOL    HW124140   0.356   5.315   1.079
 7747SOL    HW224141   0.424   5.279   1.224
 7748SOL     OW24142   4.219   0.961   6.328
 7748SOL    HW124143   4.242   1.053   6.295
 7748SOL    HW224144   4.231   0.895   6.254
 7749SOL     OW24145   3.813   2.933   3.043
 7749SOL    HW124146   3.822   2.920   3.141
 7749SOL    HW224147   3.850   2.854   2.994
 7750SOL     OW24148   5.126   4.962   6.050
 7750SOL    HW124149   5.174   5.045   6.023
 7750SOL    HW224150   5.191   4.886   6.056
 7751SOL     OW24151   6.811   1.257   4.555
 7751SOL    HW124152   6.791   1.320   4.630
 7751SOL    HW224153   6.866   1.180   4.589
 7752SOL     OW24154   6.267   4.849   5.110
 7752SOL    HW124155   6.235   4.771   5.164
 7752SOL    HW224156   6.249   4.933   5.160
 7753SOL     OW24157   2.795   0.730   4.909
 7753SOL    HW124158   2.862   0.670   4.866
 7753SOL    HW224159   2.729   0.675   4.960
 7754SOL     OW24160   5.860   0.399   1.137
 7754SOL    HW124161   5.901   0.441   1.218
 7754SOL    HW224162   5.912   0.316   1.114
 7755SOL     OW24163   1.530   6.067   5.488
 7755SOL    HW124164   1.509   6.054   5.391
 7755SOL    HW224165   1.491   5.992   5.542
 7756SOL     OW24166   4.092   5.743   3.388
 7756SOL    HW124167   4.183   5.762   3.425
 7756SOL    HW224168   4.098   5.669   3.321
 7757SOL     OW24169   3.490   0.315   5.951
 7757SOL    HW124170   3.466   0.303   6.047
 7757SOL    HW224171   3.566   0.380   5.944
 7758SOL     OW24172   2.772   2.873   6.394
 7758SOL    HW124173   2.788   2.922   6.308
 7758SOL    HW224174   2.824   2.918   6.467
 7759SOL     OW24175   1.724   0.554   4.763
 7759SOL    HW124176   1.692   0.545   4.669
 7759SOL    HW224177   1.697   0.472   4.815
 7760SOL     OW24178   5.147   2.329   3.513
 7760SOL    HW124179   5.087   2.264   3.467
 7760SOL    HW224180   5.232   2.337   3.462
 7761SOL     OW24181   4.566   0.957   6.693
 7761SOL    HW124182   4.621   0.881   6.728
 7761SOL    HW224183   4.591   1.041   6.741
 7762SOL     OW24184   1.762   2.701   0.108
 7762SOL    HW124185   1.720   2.669   0.023
 7762SOL    HW224186   1.769   2.801   0.106
 7763SOL     OW24187   2.229   2.359   1.739
 7763SOL    HW124188   2.169   2.287   1.703
 7763SOL    HW224189   2.322   2.324   1.750
 7764SOL     OW24190   3.843   3.407   2.275
 7764SOL    HW124191   3.811   3.330   2.220
 7764SOL    HW224192   3.846   3.490   2.219
 7765SOL     OW24193   6.869   1.629   2.216
 7765SOL    HW124194   6.893   1.654   2.122
 7765SOL    HW224195   6.820   1.542   2.215
 7766SOL     OW24196   6.892   3.553   6.821
 7766SOL    HW124197   6.809   3.553   6.765
 7766SOL    HW224198   6.967   3.593   6.768
 7767SOL     OW24199   5.756   4.063   5.577
 7767SOL    HW124200   5.828   4.022   5.521
 7767SOL    HW224201   5.670   4.064   5.524
 7768SOL     OW24202   4.147   5.644   1.855
 7768SOL    HW124203   4.069   5.590   1.886
 7768SOL    HW224204   4.124   5.741   1.861
 7769SOL     OW24205   6.080   1.979   2.978
 7769SOL    HW124206   5.980   1.977   2.973
 7769SOL    HW224207   6.113   1.892   3.014
 7770SOL     OW24208   3.135   6.497   1.206
 7770SOL    HW124209   3.104   6.427   1.271
 7770SOL    HW224210   3.219   6.467   1.162
 7771SOL     OW24211   1.807   1.364   4.536
 7771SOL    HW124212   1.843   1.385   4.626
 7771SOL    HW224213   1.883   1.349   4.472
 7772SOL     OW24214   5.758   0.753   5.297
 7772SOL    HW124215   5.720   0.827   5.241
 7772SOL    HW224216   5.761   0.669   5.243
 7773SOL     OW24217   4.065   4.752   6.337
 7773SOL    HW124218   4.093   4.668   6.291
 7773SOL    HW224219   4.018   4.812   6.271
 7774SOL     OW24220   4.797   1.719   0.025
 7774SOL    HW124221   4.866   1.714   0.097
 7774SOL    HW224222   4.780   1.815   0.001
 7775SOL     OW24223   1.846   6.871   1.937
 7775SOL    HW124224   1.780   6.922   1.991
 7775SOL    HW224225   1.922   6.843   1.995
 7776SOL     OW24226   3.462   3.500   0.985
 7776SOL    HW124227   3.465   3.401   0.974
 7776SOL    HW224228   3.422   3.523   1.074
 7777SOL     OW24229   0.965   0.112   6.418
 7777SOL    HW124230   1.015   0.065   6.491
 7777SOL    HW224231   1.022   0.184   6.379
 7778SOL     OW24232   4.901   1.663   1.505
 7778SOL    HW124233   4.863   1.577   1.538
 7778SOL    HW224234   4.887   1.734   1.574
 7779SOL     OW24235   3.998   2.675   0.601
 7779SOL    HW124236   3.977   2.625   0.517
 7779SOL    HW224237   3.982   2.616   0.680
 7780SOL     OW24238   0.982   0.349   5.211
 7780SOL    HW124239   0.890   0.387   5.204
 7780SOL    HW224240   1.046   0.406   5.159
 7781SOL     OW24241   1.817   4.941   5.401
 7781SOL    HW124242   1.803   4.931   5.302
 7781SOL    HW224243   1.731   4.922   5.448
 7782SOL     OW24244   4.645   4.734   0.011
 7782SOL    HW124245   4.559   4.740   0.062
 7782SOL    HW224246   4.712   4.796   0.051
 7783SOL     OW24247   2.024   5.975   0.310
 7783SOL    HW124248   2.021   5.884   0.351
 7783SOL    HW224249   2.101   5.981   0.247
 7784SOL     OW24250   6.770   3.614   0.557
 7784SOL    HW124251   6.831   3.569   0.622
 7784SOL    HW224252   6.823   3.674   0.497
 7785SOL     OW24253   1.732   5.500   6.162
 7785SOL    HW124254   1.684   5.492   6.075
 7785SOL    HW224255   1.698   5.579   6.212
 7786SOL     OW24256   3.585   4.141   4.617
 7786SOL    HW124257   3.563   4.156   4.714
 7786SOL    HW224258   3.682   4.119   4.608
 7787SOL     OW24259   2.784   2.401   5.136
 7787SOL    HW124260   2.874   2.361   5.154
 7787SOL    HW224261   2.756   2.381   5.043
 7788SOL     OW24262   0.557   1.926   0.743
 7788SOL    HW124263   0.515   1.918   0.833
 7788SOL    HW224264   0.488   1.917   0.672
 7789SOL     OW24265   2.340   0.327   1.501
 7789SOL    HW124266   2.271   0.391   1.468
 7789SOL    HW224267   2.343   0.331   1.601
 7790SOL     OW24268   6.432   3.748   2.948
 7790SOL    HW124269   6.465   3.781   2.860
 7790SOL    HW224270   6.507   3.751   3.015
 7791SOL     OW24271   0.366   4.635   5.524
 7791SOL    HW124272   0.284   4.596   5.481
 7791SOL    HW224273   0.447   4.591   5.486
 7792SOL     OW24274   1.770   5.315   6.776
 7792SOL    HW124275   1.812   5.376   6.709
 7792SOL    HW224276   1.690   5.359   6.817
 7793SOL     OW24277   1.809   0.871   6.311
 7793SOL    HW124278   1.722   0.912   6.282
 7793SOL    HW224279   1.884   0.933   6.289
 7794SOL     OW24280   5.321   5.335   2.769
 7794SOL    HW124281   5.303   5.336   2.867
 7794SOL    HW224282   5.375   5.416   2.744
 7795SOL     OW24283   1.112   4.250   6.185
 7795SOL    HW124284   1.119   4.171   6.244
 7795SOL    HW224285   1.123   4.222   6.089
 7796SOL     OW24286   4.028   3.792   4.847
 7796SOL    HW124287   4.109   3.749   4.887
 7796SOL    HW224288   3.967   3.822   4.920
 7797SOL     OW24289   0.895   6.911   3.136
 7797SOL    HW124290   0.968   6.955   3.187
 7797SOL    HW224291   0.929   6.829   3.091
 7798SOL     OW24292   4.096   6.101   5.843
 7798SOL    HW124293   4.178   6.151   5.818
 7798SOL    HW224294   4.026   6.166   5.874
 7799SOL     OW24295   6.370   5.055   1.138
 7799SOL    HW124296   6.410   4.963   1.131
 7799SOL    HW224297   6.272   5.048   1.153
 7800SOL     OW24298   0.615   6.081   2.192
 7800SOL    HW124299   0.580   6.174   2.183
 7800SOL    HW224300   0.587   6.043   2.281
 7801SOL     OW24301   4.017   2.135   5.321
 7801SOL    HW124302   3.961   2.092   5.250
 7801SOL    HW224303   4.085   2.069   5.354
 7802SOL     OW24304   5.327   2.201   0.124
 7802SOL    HW124305   5.239   2.175   0.085
 7802SOL    HW224306   5.372   2.120   0.162
 7803SOL     OW24307   3.125   3.749   5.260
 7803SOL    HW124308   3.046   3.785   5.211
 7803SOL    HW224309   3.106   3.750   5.359
 7804SOL     OW24310   4.865   0.918   6.307
 7804SOL    HW124311   4.773   0.906   6.343
 7804SOL    HW224312   4.870   1.003   6.255
 7805SOL     OW24313   5.168   3.009   1.999
 7805SOL    HW124314   5.109   2.965   2.067
 7805SOL    HW224315   5.181   2.947   1.921
 7806SOL     OW24316   4.741   3.326   6.550
 7806SOL    HW124317   4.736   3.412   6.499
 7806SOL    HW224318   4.805   3.265   6.504
 7807SOL     OW24319   0.440   3.015   6.788
 7807SOL    HW124320   0.431   2.922   6.824
 7807SOL    HW224321   0.398   3.079   6.852
 7808SOL     OW24322   0.724   0.729   5.063
 7808SOL    HW124323   0.742   0.671   5.143
 7808SOL    HW224324   0.634   0.770   5.072
 7809SOL     OW24325   1.212   5.432   5.717
 7809SOL    HW124326   1.253   5.342   5.701
 7809SOL    HW224327   1.189   5.475   5.630
 7810SOL     OW24328   2.547   1.123   6.951
 7810SOL    HW124329   2.597   1.139   0.018
 7810SOL    HW224330   2.488   1.201   6.932
 7811SOL     OW24331   0.205   4.648   4.905
 7811SOL    HW124332   0.174   4.580   4.972
 7811SOL    HW224333   0.167   4.737   4.929
 7812SOL     OW24334   0.367   1.965   3.475
 7812SOL    HW124335   0.290   1.916   3.433
 7812SOL    HW224336   0.444   1.969   3.411
 7813SOL     OW24337   6.322   2.469   1.184
 7813SOL    HW124338   6.342   2.468   1.282
 7813SOL    HW224339   6.373   2.542   1.140
 7814SOL     OW24340   1.986   3.732   4.190
 7814SOL    HW124341   2.046   3.810   4.211
 7814SOL    HW224342   2.037   3.647   4.203
 7815SOL     OW24343   0.514   1.818   5.620
 7815SOL    HW124344   0.419   1.790   5.632
 7815SOL    HW224345   0.523   1.872   5.536
 7816SOL     OW24346   1.403   4.696   5.231
 7816SOL    HW124347   1.438   4.679   5.323
 7816SOL    HW224348   1.422   4.790   5.205
 7817SOL     OW24349   5.681   3.519   5.378
 7817SOL    HW124350   5.631   3.450   5.430
 7817SOL    HW224351   5.751   3.475   5.322
 7818SOL     OW24352   4.968   4.134   2.798
 7818SOL    HW124353   5.002   4.227   2.795
 7818SOL    HW224354   4.919   4.119   2.884
 7819SOL     OW24355   0.489   1.088   0.835
 7819SOL    HW124356   0.446   1.177   0.842
 7819SOL    HW224357   0.588   1.100   0.824
 7820SOL     OW24358   2.774   0.124   6.640
 7820SOL    HW124359   2.805   0.050   6.580
 7820SOL    HW224360   2.697   0.093   6.695
 7821SOL     OW24361   3.209   5.135   1.057
 7821SOL    HW124362   3.280   5.077   1.019
 7821SOL    HW224363   3.146   5.079   1.111
 7822SOL     OW24364   2.136   6.798   5.774
 7822SOL    HW124365   2.209   6.732   5.794
 7822SOL    HW224366   2.138   6.820   5.676
 7823SOL     OW24367   1.857   3.989   4.773
 7823SOL    HW124368   1.915   3.967   4.852
 7823SOL    HW224369   1.855   3.911   4.711
 7824SOL     OW24370   0.547   3.670   5.453
 7824SOL    HW124371   0.614   3.599   5.475
 7824SOL    HW224372   0.460   3.649   5.498
 7825SOL     OW24373   3.433   0.844   6.920
 7825SOL    HW124374   3.340   0.816   6.945
 7825SOL    HW224375   3.433   0.877   6.825
 7826SOL     OW24376   0.564   3.246   5.448
 7826SOL    HW124377   0.615   3.329   5.425
 7826SOL    HW224378   0.555   3.189   5.367
 7827SOL     OW24379   5.955   5.082   4.478
 7827SOL    HW124380   5.943   5.181   4.491
 7827SOL    HW224381   6.053   5.061   4.479
 7828SOL     OW24382   0.820   5.025   6.743
 7828SOL    HW124383   0.911   5.023   6.786
 7828SOL    HW224384   0.809   5.110   6.692
 7829SOL     OW24385   4.092   4.743   0.746
 7829SOL    HW124386   4.145   4.672   0.793
 7829SOL    HW224387   4.072   4.817   0.809
 7830SOL     OW24388   2.483   5.755   3.427
 7830SOL    HW124389   2.396   5.707   3.438
 7830SOL    HW224390   2.554   5.691   3.398
 7831SOL     OW24391   1.536   0.182   5.874
 7831SOL    HW124392   1.547   0.083   5.870
 7831SOL    HW224393   1.551   0.214   5.967
 7832SOL     OW24394   6.548   1.052   5.332
 7832SOL    HW124395   6.538   1.064   5.430
 7832SOL    HW224396   6.556   0.954   5.310
 7833SOL     OW24397   0.881   0.636   2.805
 7833SOL    HW124398   0.979   0.644   2.785
 7833SOL    HW224399   0.840   0.727   2.805
 7834SOL     OW24400   6.524   3.301   4.814
 7834SOL    HW124401   6.527   3.379   4.876
 7834SOL    HW224402   6.615   3.283   4.777
 7835SOL     OW24403   4.148   2.381   6.006
 7835SOL    HW124404   4.174   2.478   6.003
 7835SOL    HW224405   4.089   2.361   5.927
 7836SOL     OW24406   3.190   4.138   5.131
 7836SOL    HW124407   3.139   4.189   5.200
 7836SOL    HW224408   3.127   4.109   5.059
 7837SOL     OW24409   0.982   5.482   6.864
 7837SOL    HW124410   0.990   5.408   6.931
 7837SOL    HW224411   0.901   5.536   6.883
 7838SOL     OW24412   4.518   5.372   2.014
 7838SOL    HW124413   4.463   5.333   2.087
 7838SOL    HW224414   4.470   5.450   1.973
 7839SOL     OW24415   6.253   3.802   4.379
 7839SOL    HW124416   6.288   3.828   4.469
 7839SOL    HW224417   6.308   3.726   4.343
 7840SOL     OW24418   2.381   2.711   3.792
 7840SOL    HW124419   2.357   2.681   3.885
 7840SOL    HW224420   2.355   2.806   3.780
 7841SOL     OW24421   4.156   1.884   6.019
 7841SOL    HW124422   4.145   1.862   6.116
 7841SOL    HW224423   4.237   1.941   6.007
 7842SOL     OW24424   0.859   0.787   1.342
 7842SOL    HW124425   0.938   0.828   1.296
 7842SOL    HW224426   0.777   0.840   1.321
 7843SOL     OW24427   6.809   6.484   2.123
 7843SOL    HW124428   6.877   6.505   2.193
 7843SOL    HW224429   6.735   6.430   2.163
 7844SOL     OW24430   3.849   0.334   2.765
 7844SOL    HW124431   3.833   0.338   2.864
 7844SOL    HW224432   3.809   0.250   2.728
 7845SOL     OW24433   6.118   3.082   1.381
 7845SOL    HW124434   6.050   3.064   1.453
 7845SOL    HW224435   6.091   3.162   1.329
 7846SOL     OW24436   0.986   1.066   0.815
 7846SOL    HW124437   1.049   1.080   0.890
 7846SOL    HW224438   1.022   1.108   0.732
 7847SOL     OW24439   5.398   4.437   5.940
 7847SOL    HW124440   5.470   4.496   5.903
 7847SOL    HW224441   5.428   4.342   5.935
 7848SOL     OW24442   4.113   4.377   0.434
 7848SOL    HW124443   4.027   4.330   0.453
 7848SOL    HW224444   4.187   4.334   0.484
 7849SOL     OW24445   4.019   5.256   7.017
 7849SOL    HW124446   3.932   5.232   0.042
 7849SOL    HW224447   4.052   5.343   0.037
 7850SOL     OW24448   0.347   0.502   3.626
 7850SOL    HW124449   0.323   0.405   3.618
 7850SOL    HW224450   0.394   0.518   3.712
 7851SOL     OW24451   6.848   5.045   0.889
 7851SOL    HW124452   6.899   5.016   0.970
 7851SOL    HW224453   6.798   4.967   0.852
 7852SOL     OW24454   1.143   3.145   5.791
 7852SOL    HW124455   1.149   3.051   5.757
 7852SOL    HW224456   1.211   3.202   5.745
 7853SOL     OW24457   4.114   2.953   1.641
 7853SOL    HW124458   4.031   2.900   1.659
 7853SOL    HW224459   4.095   3.050   1.656
 7854SOL     OW24460   4.554   0.958   1.034
 7854SOL    HW124461   4.653   0.960   1.030
 7854SOL    HW224462   4.516   1.035   0.984
 7855SOL     OW24463   5.632   6.677   3.742
 7855SOL    HW124464   5.622   6.720   3.652
 7855SOL    HW224465   5.542   6.657   3.780
 7856SOL     OW24466   2.170   6.349   5.532
 7856SOL    HW124467   2.220   6.273   5.490
 7856SOL    HW224468   2.223   6.434   5.521
 7857SOL     OW24469   6.298   4.706   0.711
 7857SOL    HW124470   6.310   4.802   0.687
 7857SOL    HW224471   6.201   4.686   0.724
 7858SOL     OW24472   0.155   3.777   5.971
 7858SOL    HW124473   0.077   3.739   5.921
 7858SOL    HW224474   0.168   3.725   6.056
 7859SOL     OW24475   4.859   1.990   0.816
 7859SOL    HW124476   4.793   2.046   0.866
 7859SOL    HW224477   4.887   1.913   0.873
 7860SOL     OW24478   2.512   1.470   3.807
 7860SOL    HW124479   2.481   1.536   3.738
 7860SOL    HW224480   2.492   1.504   3.898
 7861SOL     OW24481   1.687   5.992   1.032
 7861SOL    HW124482   1.762   6.057   1.023
 7861SOL    HW224483   1.710   5.923   1.100
 7862SOL     OW24484   1.613   6.771   0.085
 7862SOL    HW124485   1.707   6.741   0.101
 7862SOL    HW224486   1.610   6.828   0.002
 7863SOL     OW24487   1.344   4.479   4.327
 7863SOL    HW124488   1.277   4.405   4.327
 7863SOL    HW224489   1.300   4.564   4.354
 7864SOL     OW24490   2.948   6.006   4.792
 7864SOL    HW124491   2.863   5.974   4.834
 7864SOL    HW224492   2.972   6.095   4.829
 7865SOL     OW24493   5.777   4.507   3.399
 7865SOL    HW124494   5.717   4.520   3.478
 7865SOL    HW224495   5.725   4.463   3.325
 7866SOL     OW24496   1.002   0.912   5.768
 7866SOL    HW124497   0.974   0.847   5.839
 7866SOL    HW224498   1.044   0.992   5.811
 7867SOL     OW24499   4.337   5.015   3.875
 7867SOL    HW124500   4.265   5.012   3.945
 7867SOL    HW224501   4.408   4.948   3.897
 7868SOL     OW24502   3.359   6.606   1.508
 7868SOL    HW124503   3.364   6.515   1.467
 7868SOL    HW224504   3.263   6.628   1.529
 7869SOL     OW24505   5.983   4.566   0.103
 7869SOL    HW124506   5.959   4.568   0.200
 7869SOL    HW224507   5.991   4.660   0.069
 7870SOL     OW24508   6.266   6.553   3.515
 7870SOL    HW124509   6.239   6.576   3.608
 7870SOL    HW224510   6.185   6.551   3.456
 7871SOL     OW24511   4.352   1.432   0.501
 7871SOL    HW124512   4.294   1.363   0.545
 7871SOL    HW224513   4.420   1.386   0.444
 7872SOL     OW24514   0.129   5.259   3.097
 7872SOL    HW124515   0.208   5.249   3.037
 7872SOL    HW224516   0.050   5.290   3.045
 7873SOL     OW24517   4.788   2.230   6.858
 7873SOL    HW124518   4.695   2.223   6.822
 7873SOL    HW224519   4.786   2.277   6.947
 7874SOL     OW24520   5.760   2.367   0.353
 7874SOL    HW124521   5.686   2.377   0.419
 7874SOL    HW224522   5.722   2.355   0.262
 7875SOL     OW24523   6.520   4.627   6.255
 7875SOL    HW124524   6.602   4.673   6.291
 7875SOL    HW224525   6.506   4.540   6.302
 7876SOL     OW24526   1.216   6.624   3.204
 7876SOL    HW124527   1.186   6.697   3.142
 7876SOL    HW224528   1.239   6.663   3.293
 7877SOL     OW24529   6.970   2.790   2.596
 7877SOL    HW124530   6.891   2.790   2.658
 7877SOL    HW224531   6.941   2.816   2.504
 7878SOL     OW24532   3.869   6.845   2.392
 7878SOL    HW124533   3.781   6.852   2.345
 7878SOL    HW224534   3.858   6.865   2.489
 7879SOL     OW24535   3.344   5.975   3.113
 7879SOL    HW124536   3.268   5.986   3.049
 7879SOL    HW224537   3.393   5.890   3.092
 7880SOL     OW24538   1.223   4.661   2.095
 7880SOL    HW124539   1.225   4.642   2.193
 7880SOL    HW224540   1.153   4.604   2.052
 7881SOL     OW24541   4.956   3.345   3.880
 7881SOL    HW124542   4.995   3.271   3.825
 7881SOL    HW224543   5.010   3.357   3.963
 7882SOL     OW24544   0.083   2.985   6.842
 7882SOL    HW124545   7.016   3.011   6.797
 7882SOL    HW224546   0.128   3.067   6.878
 7883SOL     OW24547   0.609   0.114   4.762
 7883SOL    HW124548   0.517   0.137   4.794
 7883SOL    HW224549   0.603   0.067   4.674
 7884SOL     OW24550   1.114   3.085   4.277
 7884SOL    HW124551   1.101   3.161   4.213
 7884SOL    HW224552   1.210   3.058   4.279
 7885SOL     OW24553   0.362   5.764   6.815
 7885SOL    HW124554   0.298   5.740   6.741
 7885SOL    HW224555   0.421   5.839   6.784
 7886SOL     OW24556   4.842   3.885   0.932
 7886SOL    HW124557   4.925   3.889   0.876
 7886SOL    HW224558   4.764   3.863   0.874
 7887SOL     OW24559   4.757   3.047   5.930
 7887SOL    HW124560   4.694   3.020   6.004
 7887SOL    HW224561   4.832   3.101   5.968
 7888SOL     OW24562   4.558   6.046   4.842
 7888SOL    HW124563   4.536   6.128   4.789
 7888SOL    HW224564   4.485   5.978   4.829
 7889SOL     OW24565   6.599   4.991   3.189
 7889SOL    HW124566   6.551   4.905   3.173
 7889SOL    HW224567   6.575   5.027   3.279
 7890SOL     OW24568   1.771   3.412   2.479
 7890SOL    HW124569   1.803   3.321   2.454
 7890SOL    HW224570   1.673   3.420   2.461
 7891SOL     OW24571   0.843   4.727   3.069
 7891SOL    HW124572   0.829   4.635   3.034
 7891SOL    HW224573   0.844   4.792   2.993
 7892SOL     OW24574   1.928   1.951   4.705
 7892SOL    HW124575   2.013   1.958   4.653
 7892SOL    HW224576   1.854   1.996   4.655
 7893SOL     OW24577   5.918   6.467   1.113
 7893SOL    HW124578   5.968   6.511   1.188
 7893SOL    HW224579   5.874   6.383   1.147
 7894SOL     OW24580   2.946   0.314   2.006
 7894SOL    HW124581   2.886   0.261   2.066
 7894SOL    HW224582   3.012   0.365   2.061
 7895SOL     OW24583   0.511   1.200   3.588
 7895SOL    HW124584   0.521   1.188   3.686
 7895SOL    HW224585   0.534   1.114   3.541
 7896SOL     OW24586   3.910   1.494   6.208
 7896SOL    HW124587   3.894   1.443   6.293
 7896SOL    HW224588   3.837   1.561   6.194
 7897SOL     OW24589   3.082   2.976   6.688
 7897SOL    HW124590   3.051   2.931   6.772
 7897SOL    HW224591   3.003   2.994   6.628
 7898SOL     OW24592   4.935   1.353   4.171
 7898SOL    HW124593   4.964   1.447   4.189
 7898SOL    HW224594   4.864   1.326   4.236
 7899SOL     OW24595   4.410   1.137   2.132
 7899SOL    HW124596   4.321   1.144   2.088
 7899SOL    HW224597   4.409   1.190   2.217
 7900SOL     OW24598   1.030   5.646   1.387
 7900SOL    HW124599   0.992   5.568   1.336
 7900SOL    HW224600   1.071   5.710   1.322
 7901SOL     OW24601   6.175   5.203   0.883
 7901SOL    HW124602   6.183   5.152   0.969
 7901SOL    HW224603   6.086   5.248   0.878
 7902SOL     OW24604   4.604   4.415   5.734
 7902SOL    HW124605   4.584   4.512   5.748
 7902SOL    HW224606   4.678   4.405   5.667
 7903SOL     OW24607   6.839   3.227   0.759
 7903SOL    HW124608   6.869   3.219   0.854
 7903SOL    HW224609   6.824   3.136   0.720
 7904SOL     OW24610   6.096   2.393   2.547
 7904SOL    HW124611   6.145   2.467   2.500
 7904SOL    HW224612   6.008   2.379   2.503
 7905SOL     OW24613   1.745   1.937   1.778
 7905SOL    HW124614   1.801   1.997   1.834
 7905SOL    HW224615   1.784   1.845   1.777
 7906SOL     OW24616   0.587   4.202   6.843
 7906SOL    HW124617   0.663   4.222   6.782
 7906SOL    HW224618   0.501   4.217   6.796
 7907SOL     OW24619   0.037   2.687   2.835
 7907SOL    HW124620   0.100   2.610   2.825
 7907SOL    HW224621   0.035   2.740   2.750
 7908SOL     OW24622   6.804   1.754   2.906
 7908SOL    HW124623   6.809   1.708   2.817
 7908SOL    HW224624   6.745   1.702   2.967
 7909SOL     OW24625   3.959   6.488   4.787
 7909SOL    HW124626   3.973   6.395   4.751
 7909SOL    HW224627   4.026   6.507   4.858
 7910SOL     OW24628   6.691   2.773   5.822
 7910SOL    HW124629   6.641   2.710   5.882
 7910SOL    HW224630   6.644   2.861   5.820
 7911SOL     OW24631   6.959   5.301   6.753
 7911SOL    HW124632   6.994   5.304   6.659
 7911SOL    HW224633   6.966   5.392   6.793
 7912SOL     OW24634   0.238   5.106   5.378
 7912SOL    HW124635   0.338   5.109   5.379
 7912SOL    HW224636   0.204   5.155   5.299
 7913SOL     OW24637   1.507   5.991   6.406
 7913SOL    HW124638   1.411   6.020   6.410
 7913SOL    HW224639   1.540   5.972   6.498
 7914SOL     OW24640   6.121   4.068   1.092
 7914SOL    HW124641   6.128   4.103   0.998
 7914SOL    HW224642   6.192   4.000   1.107
 7915SOL     OW24643   3.089   1.047   2.454
 7915SOL    HW124644   3.142   1.063   2.370
 7915SOL    HW224645   3.028   0.969   2.440
 7916SOL     OW24646   4.222   3.807   5.591
 7916SOL    HW124647   4.128   3.840   5.601
 7916SOL    HW224648   4.226   3.741   5.516
 7917SOL     OW24649   3.854   3.583   3.749
 7917SOL    HW124650   3.819   3.592   3.656
 7917SOL    HW224651   3.953   3.599   3.749
 7918SOL     OW24652   6.130   2.342   2.992
 7918SOL    HW124653   6.031   2.355   2.998
 7918SOL    HW224654   6.175   2.391   3.067
 7919SOL     OW24655   5.400   4.020   2.022
 7919SOL    HW124656   5.309   3.991   1.993
 7919SOL    HW224657   5.391   4.103   2.079
 7920SOL     OW24658   0.132   6.948   1.858
 7920SOL    HW124659   0.208   6.925   1.918
 7920SOL    HW224660   0.143   6.901   1.770
 7921SOL     OW24661   2.349   5.897   2.009
 7921SOL    HW124662   2.418   5.955   1.964
 7921SOL    HW224663   2.304   5.949   2.081
 7922SOL     OW24664   0.958   5.216   5.741
 7922SOL    HW124665   1.024   5.150   5.777
 7922SOL    HW224666   0.929   5.187   5.650
 7923SOL     OW24667   0.800   1.820   2.950
 7923SOL    HW124668   0.821   1.757   2.875
 7923SOL    HW224669   0.729   1.883   2.921
 7924SOL     OW24670   2.159   0.928   3.401
 7924SOL    HW124671   2.093   0.916   3.327
 7924SOL    HW224672   2.219   1.005   3.379
 7925SOL     OW24673   0.362   1.339   6.953
 7925SOL    HW124674   0.384   1.241   6.950
 7925SOL    HW224675   0.342   1.371   6.861
 7926SOL     OW24676   3.282   0.011   2.196
 7926SOL    HW124677   3.362   6.970   2.190
 7926SOL    HW224678   3.244   0.007   2.288
 7927SOL     OW24679   4.300   4.642   4.421
 7927SOL    HW124680   4.290   4.568   4.354
 7927SOL    HW224681   4.396   4.670   4.425
 7928SOL     OW24682   0.750   4.351   6.654
 7928SOL    HW124683   0.759   4.437   6.604
 7928SOL    HW224684   0.764   4.274   6.591
 7929SOL     OW24685   3.845   4.055   4.579
 7929SOL    HW124686   3.881   4.088   4.492
 7929SOL    HW224687   3.912   3.994   4.622
 7930SOL     OW24688   4.768   6.817   3.115
 7930SOL    HW124689   4.717   6.825   3.030
 7930SOL    HW224690   4.837   6.890   3.119
 7931SOL     OW24691   3.267   3.607   6.255
 7931SOL    HW124692   3.278   3.508   6.258
 7931SOL    HW224693   3.330   3.646   6.189
 7932SOL     OW24694   3.238   0.617   0.472
 7932SOL    HW124695   3.233   0.716   0.457
 7932SOL    HW224696   3.163   0.572   0.423
 7933SOL     OW24697   1.648   0.917   6.011
 7933SOL    HW124698   1.573   0.910   5.944
 7933SOL    HW224699   1.694   0.829   6.019
 7934SOL     OW24700   3.854   2.078   5.519
 7934SOL    HW124701   3.930   2.097   5.456
 7934SOL    HW224702   3.841   1.979   5.526
 7935SOL     OW24703   4.368   5.709   2.153
 7935SOL    HW124704   4.403   5.687   2.062
 7935SOL    HW224705   4.413   5.790   2.188
 7936SOL     OW24706   4.344   6.243   2.396
 7936SOL    HW124707   4.399   6.287   2.468
 7936SOL    HW224708   4.403   6.220   2.319
 7937SOL     OW24709   5.802   1.093   5.750
 7937SOL    HW124710   5.770   1.048   5.834
 7937SOL    HW224711   5.801   1.026   5.675
 7938SOL     OW24712   6.201   4.814   4.372
 7938SOL    HW124713   6.266   4.761   4.427
 7938SOL    HW224714   6.203   4.909   4.402
 7939SOL     OW24715   0.339   6.772   4.036
 7939SOL    HW124716   0.267   6.841   4.047
 7939SOL    HW224717   0.336   6.708   4.112
 7940SOL     OW24718   1.383   5.547   0.489
 7940SOL    HW124719   1.316   5.473   0.479
 7940SOL    HW224720   1.390   5.598   0.404
 7941SOL     OW24721   0.602   0.428   1.153
 7941SOL    HW124722   0.542   0.506   1.135
 7941SOL    HW224723   0.568   0.347   1.104
 7942SOL     OW24724   1.441   1.054   1.838
 7942SOL    HW124725   1.478   1.110   1.764
 7942SOL    HW224726   1.464   0.958   1.822
 7943SOL     OW24727   6.515   2.289   0.358
 7943SOL    HW124728   6.585   2.313   0.426
 7943SOL    HW224729   6.428   2.273   0.404
 7944SOL     OW24730   0.052   3.799   1.981
 7944SOL    HW124731   0.127   3.733   1.973
 7944SOL    HW224732   6.987   3.751   2.008
 7945SOL     OW24733   5.606   0.283   0.747
 7945SOL    HW124734   5.557   0.327   0.822
 7945SOL    HW224735   5.541   0.242   0.683
 7946SOL     OW24736   2.073   1.404   5.674
 7946SOL    HW124737   2.050   1.474   5.607
 7946SOL    HW224738   1.997   1.394   5.739
 7947SOL     OW24739   4.472   5.682   6.334
 7947SOL    HW124740   4.549   5.646   6.281
 7947SOL    HW224741   4.506   5.722   6.419
 7948SOL     OW24742   0.512   5.216   6.225
 7948SOL    HW124743   0.524   5.268   6.310
 7948SOL    HW224744   0.430   5.160   6.232
 7949SOL     OW24745   0.006   3.879   3.660
 7949SOL    HW124746   6.977   3.850   3.577
 7949SOL    HW224747   6.975   3.955   3.702
 7950SOL     OW24748   3.814   4.909   4.002
 7950SOL    HW124749   3.835   4.886   4.097
 7950SOL    HW224750   3.891   4.958   3.961
 7951SOL     OW24751   2.210   3.654   0.624
 7951SOL    HW124752   2.165   3.565   0.614
 7951SOL    HW224753   2.290   3.644   0.684
 7952SOL     OW24754   5.594   4.985   0.942
 7952SOL    HW124755   5.500   5.002   0.911
 7952SOL    HW224756   5.600   4.895   0.983
 7953SOL     OW24757   1.702   3.369   2.892
 7953SOL    HW124758   1.727   3.345   2.798
 7953SOL    HW224759   1.603   3.361   2.903
 7954SOL     OW24760   4.910   5.024   4.227
 7954SOL    HW124761   4.819   5.026   4.269
 7954SOL    HW224762   4.925   4.935   4.184
 7955SOL     OW24763   2.288   6.194   6.042
 7955SOL    HW124764   2.209   6.242   6.003
 7955SOL    HW224765   2.280   6.193   6.142
 7956SOL     OW24766   6.303   6.585   2.645
 7956SOL    HW124767   6.266   6.508   2.594
 7956SOL    HW224768   6.403   6.589   2.633
 7957SOL     OW24769   1.165   2.014   0.965
 7957SOL    HW124770   1.114   2.078   0.908
 7957SOL    HW224771   1.208   1.944   0.907
 7958SOL     OW24772   2.393   6.090   3.388
 7958SOL    HW124773   2.442   6.027   3.328
 7958SOL    HW224774   2.458   6.141   3.444
 7959SOL     OW24775   5.075   5.158   1.736
 7959SOL    HW124776   5.129   5.092   1.789
 7959SOL    HW224777   4.979   5.131   1.739
 7960SOL     OW24778   1.432   2.127   1.047
 7960SOL    HW124779   1.525   2.128   1.085
 7960SOL    HW224780   1.370   2.174   1.110
 7961SOL     OW24781   0.733   5.997   0.287
 7961SOL    HW124782   0.728   6.039   0.196
 7961SOL    HW224783   0.827   5.972   0.308
 7962SOL     OW24784   1.980   6.703   2.422
 7962SOL    HW124785   1.995   6.713   2.324
 7962SOL    HW224786   1.889   6.667   2.438
 7963SOL     OW24787   0.640   6.488   4.978
 7963SOL    HW124788   0.737   6.480   4.954
 7963SOL    HW224789   0.590   6.407   4.946
 7964SOL     OW24790   6.108   5.572   3.769
 7964SOL    HW124791   6.117   5.552   3.866
 7964SOL    HW224792   6.012   5.561   3.741
 7965SOL     OW24793   4.353   1.878   0.602
 7965SOL    HW124794   4.424   1.937   0.565
 7965SOL    HW224795   4.344   1.796   0.545
 7966SOL     OW24796   0.220   0.234   3.348
 7966SOL    HW124797   0.312   0.211   3.315
 7966SOL    HW224798   0.194   0.170   3.420
 7967SOL     OW24799   3.117   0.299   3.438
 7967SOL    HW124800   3.153   0.363   3.506
 7967SOL    HW224801   3.154   0.321   3.348
 7968SOL     OW24802   2.546   0.964   1.608
 7968SOL    HW124803   2.540   0.911   1.523
 7968SOL    HW224804   2.643   0.973   1.634
 7969SOL     OW24805   3.287   1.546   3.460
 7969SOL    HW124806   3.281   1.454   3.422
 7969SOL    HW224807   3.351   1.600   3.406
 7970SOL     OW24808   6.819   5.206   4.074
 7970SOL    HW124809   6.760   5.278   4.038
 7970SOL    HW224810   6.911   5.215   4.034
 7971SOL     OW24811   3.245   1.678   2.264
 7971SOL    HW124812   3.173   1.700   2.330
 7971SOL    HW224813   3.214   1.700   2.172
 7972SOL     OW24814   6.209   5.146   1.430
 7972SOL    HW124815   6.302   5.180   1.419
 7972SOL    HW224816   6.197   5.063   1.376
 7973SOL     OW24817   4.659   2.012   3.207
 7973SOL    HW124818   4.671   1.936   3.271
 7973SOL    HW224819   4.564   2.017   3.178
 7974SOL     OW24820   5.781   6.301   4.148
 7974SOL    HW124821   5.783   6.341   4.240
 7974SOL    HW224822   5.797   6.373   4.081
 7975SOL     OW24823   1.793   1.457   2.214
 7975SOL    HW124824   1.865   1.400   2.253
 7975SOL    HW224825   1.828   1.550   2.200
 7976SOL     OW24826   1.206   6.554   5.927
 7976SOL    HW124827   1.225   6.583   6.020
 7976SOL    HW224828   1.289   6.520   5.884
 7977SOL     OW24829   5.098   6.529   1.285
 7977SOL    HW124830   5.036   6.498   1.213
 7977SOL    HW224831   5.045   6.569   1.360
 7978SOL     OW24832   3.588   2.122   5.658
 7978SOL    HW124833   3.681   2.145   5.628
 7978SOL    HW224834   3.550   2.050   5.599
 7979SOL     OW24835   5.071   6.426   3.859
 7979SOL    HW124836   4.988   6.390   3.902
 7979SOL    HW224837   5.098   6.366   3.783
 7980SOL     OW24838   2.700   0.454   2.877
 7980SOL    HW124839   2.723   0.440   2.974
 7980SOL    HW224840   2.742   0.383   2.822
 7981SOL     OW24841   0.948   6.107   2.342
 7981SOL    HW124842   0.953   6.152   2.431
 7981SOL    HW224843   0.910   6.015   2.353
 7982SOL     OW24844   6.920   2.336   0.599
 7982SOL    HW124845   6.965   2.258   0.643
 7982SOL    HW224846   6.956   2.347   0.506
 7983SOL     OW24847   5.036   2.640   2.052
 7983SOL    HW124848   5.077   2.707   2.114
 7983SOL    HW224849   5.100   2.566   2.035
 7984SOL     OW24850   0.055   0.329   0.316
 7984SOL    HW124851   6.993   0.384   0.293
 7984SOL    HW224852   0.137   0.373   0.280
 7985SOL     OW24853   1.173   1.159   0.620
 7985SOL    HW124854   1.266   1.193   0.635
 7985SOL    HW224855   1.155   1.155   0.522
 7986SOL     OW24856   4.800   3.344   6.973
 7986SOL    HW124857   4.793   3.254   7.015
 7986SOL    HW224858   4.728   3.355   6.905
 7987SOL     OW24859   1.059   2.774   4.957
 7987SOL    HW124860   1.074   2.770   4.858
 7987SOL    HW224861   1.144   2.751   5.004
 7988SOL     OW24862   2.918   1.550   5.557
 7988SOL    HW124863   2.842   1.570   5.619
 7988SOL    HW224864   2.968   1.634   5.537
 7989SOL     OW24865   3.726   3.232   6.220
 7989SOL    HW124866   3.773   3.316   6.192
 7989SOL    HW224867   3.628   3.241   6.205
 7990SOL     OW24868   2.249   3.006   4.722
 7990SOL    HW124869   2.296   3.007   4.810
 7990SOL    HW224870   2.240   3.100   4.688
 7991SOL     OW24871   1.872   2.632   5.702
 7991SOL    HW124872   1.913   2.720   5.727
 7991SOL    HW224873   1.848   2.582   5.785
 7992SOL     OW24874   2.849   1.749   0.950
 7992SOL    HW124875   2.782   1.715   0.883
 7992SOL    HW224876   2.940   1.720   0.922
 7993SOL     OW24877   2.700   6.451   6.374
 7993SOL    HW124878   2.666   6.406   6.292
 7993SOL    HW224879   2.735   6.382   6.438
 7994SOL     OW24880   5.708   0.834   4.559
 7994SOL    HW124881   5.695   0.781   4.643
 7994SOL    HW224882   5.709   0.772   4.480
 7995SOL     OW24883   4.189   5.597   3.087
 7995SOL    HW124884   4.271   5.547   3.117
 7995SOL    HW224885   4.177   5.586   2.988
 7996SOL     OW24886   4.385   1.337   4.917
 7996SOL    HW124887   4.344   1.347   4.826
 7996SOL    HW224888   4.451   1.262   4.915
 7997SOL     OW24889   5.249   2.226   1.555
 7997SOL    HW124890   5.156   2.262   1.546
 7997SOL    HW224891   5.254   2.167   1.636
 7998SOL     OW24892   6.427   4.878   6.369
 7998SOL    HW124893   6.417   4.779   6.358
 7998SOL    HW224894   6.369   4.925   6.303
 7999SOL     OW24895   2.268   1.296   5.341
 7999SOL    HW124896   2.358   1.279   5.380
 7999SOL    HW224897   2.198   1.254   5.399
 8000SOL     OW24898   5.116   0.532   5.704
 8000SOL    HW124899   5.065   0.449   5.685
 8000SOL    HW224900   5.063   0.611   5.674
 8001SOL     OW24901   2.680   5.492   1.171
 8001SOL    HW124902   2.705   5.541   1.087
 8001SOL    HW224903   2.757   5.495   1.234
 8002SOL     OW24904   5.318   2.299   5.541
 8002SOL    HW124905   5.401   2.256   5.505
 8002SOL    HW224906   5.238   2.262   5.494
 8003SOL     OW24907   4.006   5.749   3.744
 8003SOL    HW124908   3.976   5.801   3.664
 8003SOL    HW224909   4.045   5.662   3.715
 8004SOL     OW24910   1.137   4.461   2.916
 8004SOL    HW124911   1.194   4.506   2.985
 8004SOL    HW224912   1.145   4.362   2.926
 8005SOL     OW24913   2.031   0.662   2.539
 8005SOL    HW124914   1.991   0.655   2.447
 8005SOL    HW224915   2.084   0.746   2.546
 8006SOL     OW24916   3.672   6.300   1.871
 8006SOL    HW124917   3.626   6.218   1.903
 8006SOL    HW224918   3.604   6.368   1.844
 8007SOL     OW24919   0.332   1.035   3.990
 8007SOL    HW124920   0.341   1.053   4.088
 8007SOL    HW224921   0.264   1.097   3.951
 8008SOL     OW24922   5.833   5.113   0.936
 8008SOL    HW124923   5.747   5.069   0.911
 8008SOL    HW224924   5.833   5.131   1.034
 8009SOL     OW24925   6.981   0.103   3.526
 8009SOL    HW124926   6.986   0.191   3.573
 8009SOL    HW224927   0.023   0.037   3.572
 8010SOL     OW24928   1.931   2.705   6.759
 8010SOL    HW124929   1.894   2.680   6.670
 8010SOL    HW224930   2.031   2.716   6.752
 8011SOL     OW24931   2.069   2.829   0.432
 8011SOL    HW124932   1.986   2.782   0.463
 8011SOL    HW224933   2.150   2.781   0.466
 8012SOL     OW24934   3.020   0.065   3.265
 8012SOL    HW124935   3.082   0.128   3.313
 8012SOL    HW224936   3.038   6.990   3.295
 8013SOL     OW24937   5.913   5.348   4.535
 8013SOL    HW124938   5.983   5.412   4.566
 8013SOL    HW224939   5.823   5.377   4.568
 8014SOL     OW24940   2.162   6.787   6.740
 8014SOL    HW124941   2.189   6.721   6.810
 8014SOL    HW224942   2.086   6.842   6.774
 8015SOL     OW24943   1.505   2.155   6.099
 8015SOL    HW124944   1.510   2.233   6.036
 8015SOL    HW224945   1.578   2.091   6.078
 8016SOL     OW24946   4.560   5.923   2.153
 8016SOL    HW124947   4.634   5.990   2.162
 8016SOL    HW224948   4.598   5.831   2.159
 8017SOL     OW24949   6.646   3.661   5.699
 8017SOL    HW124950   6.622   3.678   5.794
 8017SOL    HW224951   6.659   3.748   5.651
 8018SOL     OW24952   5.683   2.785   4.422
 8018SOL    HW124953   5.781   2.776   4.434
 8018SOL    HW224954   5.655   2.739   4.337
 8019SOL     OW24955   2.695   5.304   1.359
 8019SOL    HW124956   2.630   5.238   1.397
 8019SOL    HW224957   2.653   5.355   1.285
 8020SOL     OW24958   5.627   6.450   6.638
 8020SOL    HW124959   5.652   6.539   6.678
 8020SOL    HW224960   5.655   6.448   6.542
 8021SOL     OW24961   6.631   0.848   0.600
 8021SOL    HW124962   6.724   0.855   0.635
 8021SOL    HW224963   6.593   0.939   0.586
 8022SOL     OW24964   4.412   5.134   3.506
 8022SOL    HW124965   4.324   5.180   3.520
 8022SOL    HW224966   4.401   5.060   3.441
 8023SOL     OW24967   6.790   6.134   3.171
 8023SOL    HW124968   6.723   6.132   3.245
 8023SOL    HW224969   6.830   6.044   3.158
 8024SOL     OW24970   4.624   5.686   5.173
 8024SOL    HW124971   4.678   5.680   5.257
 8024SOL    HW224972   4.528   5.698   5.196
 8025SOL     OW24973   3.219   5.854   0.813
 8025SOL    HW124974   3.317   5.852   0.793
 8025SOL    HW224975   3.193   5.773   0.866
 8026SOL     OW24976   2.434   3.038   6.762
 8026SOL    HW124977   2.411   2.957   6.708
 8026SOL    HW224978   2.352   3.073   6.806
 8027SOL     OW24979   4.580   3.435   5.710
 8027SOL    HW124980   4.628   3.518   5.739
 8027SOL    HW224981   4.534   3.453   5.622
 8028SOL     OW24982   5.072   5.304   0.517
 8028SOL    HW124983   5.075   5.273   0.612
 8028SOL    HW224984   5.153   5.359   0.497
 8029SOL     OW24985   2.853   4.439   0.153
 8029SOL    HW124986   2.884   4.534   0.158
 8029SOL    HW224987   2.932   4.378   0.165
 8030SOL     OW24988   6.256   3.436   0.828
 8030SOL    HW124989   6.353   3.413   0.813
 8030SOL    HW224990   6.249   3.502   0.903
 8031SOL     OW24991   3.675   6.359   1.172
 8031SOL    HW124992   3.708   6.265   1.162
 8031SOL    HW224993   3.686   6.389   1.266
 8032SOL     OW24994   4.568   4.694   5.755
 8032SOL    HW124995   4.540   4.670   5.848
 8032SOL    HW224996   4.638   4.765   5.759
 8033SOL     OW24997   6.011   2.092   1.258
 8033SOL    HW124998   6.108   2.100   1.280
 8033SOL    HW224999   5.997   2.102   1.160
 8034SOL     OW25000   6.341   1.646   5.483
 8034SOL    HW125001   6.403   1.571   5.458
 8034SOL    HW225002   6.249   1.611   5.498
 8035SOL     OW25003   5.495   5.674   6.438
 8035SOL    HW125004   5.565   5.698   6.505
 8035SOL    HW225005   5.406   5.706   6.471
 8036SOL     OW25006   1.117   4.403   1.364
 8036SOL    HW125007   1.184   4.340   1.325
 8036SOL    HW225008   1.029   4.390   1.319
 8037SOL     OW25009   2.223   3.220   1.820
 8037SOL    HW125010   2.287   3.295   1.808
 8037SOL    HW225011   2.218   3.168   1.734
 8038SOL     OW25012   5.429   1.279   4.392
 8038SOL    HW125013   5.337   1.263   4.357
 8038SOL    HW225014   5.494   1.222   4.342
 8039SOL     OW25015   2.334   6.192   4.075
 8039SOL    HW125016   2.378   6.240   3.999
 8039SOL    HW225017   2.343   6.093   4.062
 8040SOL     OW25018   5.744   5.939   0.225
 8040SOL    HW125019   5.677   5.984   0.167
 8040SOL    HW225020   5.757   5.845   0.194
 8041SOL     OW25021   3.611   1.869   1.103
 8041SOL    HW125022   3.569   1.932   1.038
 8041SOL    HW225023   3.542   1.803   1.134
 8042SOL     OW25024   2.355   4.922   0.599
 8042SOL    HW125025   2.441   4.973   0.594
 8042SOL    HW225026   2.375   4.824   0.598
 8043SOL     OW25027   2.939   0.624   1.319
 8043SOL    HW125028   2.872   0.627   1.244
 8043SOL    HW225029   2.993   0.708   1.318
 8044SOL     OW25030   3.133   3.491   1.936
 8044SOL    HW125031   3.036   3.490   1.960
 8044SOL    HW225032   3.161   3.584   1.913
 8045SOL     OW25033   6.218   2.949   3.669
 8045SOL    HW125034   6.293   2.943   3.603
 8045SOL    HW225035   6.222   2.870   3.730
 8046SOL     OW25036   0.118   5.477   5.085
 8046SOL    HW125037   0.200   5.535   5.080
 8046SOL    HW225038   0.064   5.490   5.002
 8047SOL     OW25039   2.924   0.018   4.405
 8047SOL    HW125040   2.945   6.960   4.343
 8047SOL    HW225041   2.867   0.085   4.357
 8048SOL     OW25042   6.171   0.755   5.875
 8048SOL    HW125043   6.133   0.720   5.960
 8048SOL    HW225044   6.129   0.844   5.854
 8049SOL     OW25045   1.295   0.027   0.585
 8049SOL    HW125046   1.383   7.002   0.568
 8049SOL    HW225047   1.309   0.114   0.632
 8050SOL     OW25048   0.170   3.010   1.480
 8050SOL    HW125049   0.132   3.092   1.522
 8050SOL    HW225050   0.131   2.929   1.523
 8051SOL     OW25051   2.955   1.563   3.427
 8051SOL    HW125052   3.026   1.514   3.478
 8051SOL    HW225053   2.866   1.545   3.470
 8052SOL     OW25054   3.470   2.099   3.240
 8052SOL    HW125055   3.403   2.122   3.169
 8052SOL    HW225056   3.560   2.089   3.199
 8053SOL     OW25057   4.390   3.390   1.755
 8053SOL    HW125058   4.297   3.422   1.771
 8053SOL    HW225059   4.391   3.290   1.757
 8054SOL     OW25060   4.830   6.387   4.047
 8054SOL    HW125061   4.740   6.373   4.089
 8054SOL    HW225062   4.838   6.481   4.015
 8055SOL     OW25063   0.447   0.067   5.518
 8055SOL    HW125064   0.516   0.037   5.583
 8055SOL    HW225065   0.472   0.036   5.426
 8056SOL     OW25066   4.337   1.286   2.341
 8056SOL    HW125067   4.417   1.280   2.400
 8056SOL    HW225068   4.254   1.281   2.397
 8057SOL     OW25069   3.035   0.080   3.578
 8057SOL    HW125070   3.049   0.149   3.507
 8057SOL    HW225071   3.055   0.119   3.667
 8058SOL     OW25072   2.126   6.896   3.395
 8058SOL    HW125073   2.161   6.912   3.302
 8058SOL    HW225074   2.090   6.982   3.431
 8059SOL     OW25075   2.692   1.058   3.324
 8059SOL    HW125076   2.646   0.973   3.299
 8059SOL    HW225077   2.790   1.042   3.331
 8060SOL     OW25078   0.817   2.702   5.074
 8060SOL    HW125079   0.904   2.720   5.029
 8060SOL    HW225080   0.802   2.603   5.079
 8061SOL     OW25081   6.624   6.041   2.198
 8061SOL    HW125082   6.527   6.044   2.175
 8061SOL    HW225083   6.647   5.953   2.239
 8062SOL     OW25084   1.653   3.498   2.235
 8062SOL    HW125085   1.726   3.559   2.266
 8062SOL    HW225086   1.678   3.460   2.145
 8063SOL     OW25087   2.377   2.908   6.119
 8063SOL    HW125088   2.462   2.910   6.066
 8063SOL    HW225089   2.373   2.824   6.172
 8064SOL     OW25090   6.647   2.659   6.428
 8064SOL    HW125091   6.742   2.685   6.409
 8064SOL    HW225092   6.615   2.595   6.358
 8065SOL     OW25093   4.723   7.000   6.353
 8065SOL    HW125094   4.698   0.036   6.433
 8065SOL    HW225095   4.640   6.960   6.313
 8066SOL     OW25096   1.761   6.872   1.662
 8066SOL    HW125097   1.754   6.895   1.759
 8066SOL    HW225098   1.855   6.846   1.641
 8067SOL     OW25099   4.668   2.284   2.424
 8067SOL    HW125100   4.607   2.218   2.380
 8067SOL    HW225101   4.616   2.366   2.448
 8068SOL     OW25102   6.353   4.630   4.524
 8068SOL    HW125103   6.344   4.590   4.615
 8068SOL    HW225104   6.441   4.675   4.515
 8069SOL     OW25105   1.263   6.299   2.214
 8069SOL    HW125106   1.199   6.291   2.138
 8069SOL    HW225107   1.215   6.337   2.293
 8070SOL     OW25108   3.684   0.131   2.663
 8070SOL    HW125109   3.600   0.123   2.718
 8070SOL    HW225110   3.660   0.161   2.571
 8071SOL     OW25111   4.655   6.034   0.007
 8071SOL    HW125112   4.628   6.118   0.055
 8071SOL    HW225113   4.726   5.987   0.060
 8072SOL     OW25114   4.358   0.505   2.916
 8072SOL    HW125115   4.350   0.567   2.838
 8072SOL    HW225116   4.451   0.505   2.951
 8073SOL     OW25117   4.843   0.165   5.943
 8073SOL    HW125118   4.937   0.135   5.923
 8073SOL    HW225119   4.826   0.159   6.041
 8074SOL     OW25120   3.248   4.151   6.710
 8074SOL    HW125121   3.294   4.099   6.638
 8074SOL    HW225122   3.280   4.245   6.709
 8075SOL     OW25123   6.093   2.364   3.710
 8075SOL    HW125124   6.064   2.436   3.647
 8075SOL    HW225125   6.182   2.328   3.680
 8076SOL     OW25126   4.625   2.705   6.504
 8076SOL    HW125127   4.652   2.618   6.546
 8076SOL    HW225128   4.532   2.727   6.531
 8077SOL     OW25129   1.359   0.073   0.173
 8077SOL    HW125130   1.456   0.052   0.169
 8077SOL    HW225131   1.343   0.166   0.139
 8078SOL     OW25132   5.797   2.672   0.837
 8078SOL    HW125133   5.889   2.683   0.800
 8078SOL    HW225134   5.794   2.713   0.929
 8079SOL     OW25135   1.055   2.392   1.412
 8079SOL    HW125136   1.083   2.308   1.458
 8079SOL    HW225137   1.099   2.397   1.323
 8080SOL     OW25138   4.017   4.826   0.396
 8080SOL    HW125139   4.104   4.844   0.443
 8080SOL    HW225140   4.019   4.869   0.305
 8081SOL     OW25141   5.855   1.908   4.510
 8081SOL    HW125142   5.898   1.996   4.532
 8081SOL    HW225143   5.770   1.925   4.461
 8082SOL     OW25144   6.377   3.573   4.316
 8082SOL    HW125145   6.399   3.477   4.332
 8082SOL    HW225146   6.433   3.609   4.241
 8083SOL     OW25147   6.132   2.316   4.934
 8083SOL    HW125148   6.184   2.238   4.967
 8083SOL    HW225149   6.034   2.296   4.941
 8084SOL     OW25150   6.483   0.065   0.408
 8084SOL    HW125151   6.524   7.000   0.446
 8084SOL    HW225152   6.506   0.071   0.310
 8085SOL     OW25153   5.224   2.389   0.766
 8085SOL    HW125154   5.183   2.311   0.814
 8085SOL    HW225155   5.255   2.456   0.833
 8086SOL     OW25156   2.154   5.735   6.014
 8086SOL    HW125157   2.142   5.827   5.980
 8086SOL    HW225158   2.065   5.694   6.035
 8087SOL     OW25159   3.060   4.307   0.645
 8087SOL    HW125160   3.051   4.234   0.577
 8087SOL    HW225161   3.144   4.358   0.629
 8088SOL     OW25162   4.534   0.844   2.873
 8088SOL    HW125163   4.465   0.863   2.944
 8088SOL    HW225164   4.495   0.782   2.805
 8089SOL     OW25165   6.363   2.856   0.529
 8089SOL    HW125166   6.383   2.759   0.533
 8089SOL    HW225167   6.367   2.887   0.434
 8090SOL     OW25168   4.534   2.169   5.335
 8090SOL    HW125169   4.589   2.104   5.388
 8090SOL    HW225170   4.587   2.252   5.318
 8091SOL     OW25171   2.157   4.255   5.034
 8091SOL    HW125172   2.105   4.255   4.948
 8091SOL    HW225173   2.231   4.188   5.029
 8092SOL     OW25174   6.648   1.728   4.708
 8092SOL    HW125175   6.632   1.804   4.644
 8092SOL    HW225176   6.619   1.642   4.666
 8093SOL     OW25177   5.924   5.360   0.827
 8093SOL    HW125178   5.883   5.274   0.858
 8093SOL    HW225179   5.882   5.387   0.740
 8094SOL     OW25180   0.398   4.005   4.338
 8094SOL    HW125181   0.363   3.930   4.282
 8094SOL    HW225182   0.417   4.084   4.280
 8095SOL     OW25183   6.733   3.660   4.801
 8095SOL    HW125184   6.774   3.688   4.714
 8095SOL    HW225185   6.682   3.736   4.841
 8096SOL     OW25186   4.555   0.234   0.813
 8096SOL    HW125187   4.635   0.277   0.773
 8096SOL    HW225188   4.472   0.278   0.778
 8097SOL     OW25189   4.927   1.506   4.500
 8097SOL    HW125190   4.979   1.543   4.422
 8097SOL    HW225191   4.980   1.435   4.545
 8098SOL     OW25192   1.992   1.295   4.344
 8098SOL    HW125193   2.004   1.239   4.262
 8098SOL    HW225194   2.076   1.346   4.363
 8099SOL     OW25195   3.786   6.362   5.315
 8099SOL    HW125196   3.870   6.358   5.370
 8099SOL    HW225197   3.798   6.307   5.232
 8100SOL     OW25198   6.651   6.248   0.885
 8100SOL    HW125199   6.724   6.282   0.944
 8100SOL    HW225200   6.608   6.168   0.927
 8101SOL     OW25201   0.388   4.723   2.203
 8101SOL    HW125202   0.380   4.661   2.126
 8101SOL    HW225203   0.463   4.787   2.188
 8102SOL     OW25204   6.583   0.296   5.732
 8102SOL    HW125205   6.567   0.281   5.830
 8102SOL    HW225206   6.524   0.370   5.700
 8103SOL     OW25207   1.937   2.387   2.207
 8103SOL    HW125208   1.993   2.435   2.275
 8103SOL    HW225209   1.969   2.410   2.115
 8104SOL     OW25210   3.047   0.121   6.113
 8104SOL    HW125211   3.031   0.153   6.206
 8104SOL    HW225212   3.124   0.058   6.112
 8105SOL     OW25213   2.155   2.683   3.111
 8105SOL    HW125214   2.199   2.603   3.072
 8105SOL    HW225215   2.131   2.665   3.206
 8106SOL     OW25216   0.226   3.652   5.142
 8106SOL    HW125217   0.212   3.702   5.056
 8106SOL    HW225218   0.264   3.713   5.211
 8107SOL     OW25219   1.346   5.459   6.756
 8107SOL    HW125220   1.355   5.556   6.733
 8107SOL    HW225221   1.249   5.436   6.766
 8108SOL     OW25222   2.180   3.288   5.218
 8108SOL    HW125223   2.270   3.249   5.234
 8108SOL    HW225224   2.111   3.216   5.222
 8109SOL     OW25225   0.972   5.181   5.273
 8109SOL    HW125226   0.957   5.248   5.201
 8109SOL    HW225227   1.067   5.185   5.303
 8110SOL     OW25228   1.475   4.550   0.617
 8110SOL    HW125229   1.527   4.508   0.543
 8110SOL    HW225230   1.486   4.498   0.701
 8111SOL     OW25231   3.203   6.050   4.288
 8111SOL    HW125232   3.158   6.134   4.316
 8111SOL    HW225233   3.242   6.062   4.197
 8112SOL     OW25234   4.262   1.027   4.005
 8112SOL    HW125235   4.228   1.055   3.915
 8112SOL    HW225236   4.191   1.042   4.074
 8113SOL     OW25237   2.903   2.873   5.620
 8113SOL    HW125238   2.888   2.969   5.599
 8113SOL    HW225239   2.992   2.845   5.586
 8114SOL     OW25240   2.801   3.275   1.823
 8114SOL    HW125241   2.742   3.343   1.780
 8114SOL    HW225242   2.837   3.313   1.908
 8115SOL     OW25243   3.160   2.967   0.906
 8115SOL    HW125244   3.194   2.873   0.907
 8115SOL    HW225245   3.210   3.021   0.974
 8116SOL     OW25246   4.945   1.317   5.452
 8116SOL    HW125247   4.907   1.307   5.544
 8116SOL    HW225248   4.894   1.260   5.388
 8117SOL     OW25249   2.966   1.967   5.669
 8117SOL    HW125250   2.898   2.025   5.713
 8117SOL    HW225251   3.047   2.022   5.647
 8118SOL     OW25252   1.798   2.455   3.889
 8118SOL    HW125253   1.725   2.397   3.851
 8118SOL    HW225254   1.844   2.503   3.815
 8119SOL     OW25255   0.895   6.292   2.137
 8119SOL    HW125256   0.942   6.376   2.161
 8119SOL    HW225257   0.905   6.224   2.210
 8120SOL     OW25258   4.658   4.331   2.358
 8120SOL    HW125259   4.745   4.373   2.332
 8120SOL    HW225260   4.584   4.373   2.305
 8121SOL     OW25261   6.560   6.483   3.034
 8121SOL    HW125262   6.556   6.582   3.020
 8121SOL    HW225263   6.651   6.449   3.010
 8122SOL     OW25264   6.894   5.510   1.293
 8122SOL    HW125265   6.900   5.445   1.368
 8122SOL    HW225266   6.979   5.563   1.289
 8123SOL     OW25267   1.323   5.022   0.199
 8123SOL    HW125268   1.409   5.062   0.231
 8123SOL    HW225269   1.249   5.048   0.261
 8124SOL     OW25270   1.232   6.807   3.427
 8124SOL    HW125271   1.213   6.729   3.487
 8124SOL    HW225272   1.315   6.853   3.457
 8125SOL     OW25273   5.679   4.882   3.045
 8125SOL    HW125274   5.598   4.879   3.103
 8125SOL    HW225275   5.735   4.962   3.070
 8126SOL     OW25276   6.998   4.773   2.620
 8126SOL    HW125277   6.953   4.836   2.683
 8126SOL    HW225278   0.030   4.704   2.672
 8127SOL     OW25279   4.494   5.550   1.460
 8127SOL    HW125280   4.541   5.585   1.379
 8127SOL    HW225281   4.440   5.469   1.435
 8128SOL     OW25282   3.675   1.830   5.215
 8128SOL    HW125283   3.636   1.922   5.211
 8128SOL    HW225284   3.644   1.784   5.298
 8129SOL     OW25285   4.889   5.925   6.400
 8129SOL    HW125286   4.926   5.834   6.381
 8129SOL    HW225287   4.822   5.949   6.330
 8130SOL     OW25288   0.403   0.103   6.651
 8130SOL    HW125289   0.484   0.140   6.607
 8130SOL    HW225290   0.370   0.024   6.600
 8131SOL     OW25291   2.401   1.219   0.905
 8131SOL    HW125292   2.449   1.218   0.993
 8131SOL    HW225293   2.304   1.202   0.920
 8132SOL     OW25294   5.327   4.510   3.281
 8132SOL    HW125295   5.388   4.474   3.211
 8132SOL    HW225296   5.242   4.458   3.282
 8133SOL     OW25297   0.521   5.700   1.758
 8133SOL    HW125298   0.524   5.798   1.778
 8133SOL    HW225299   0.481   5.652   1.836
 8134SOL     OW25300   1.996   2.640   2.030
 8134SOL    HW125301   2.087   2.619   1.994
 8134SOL    HW225302   2.003   2.710   2.101
 8135SOL     OW25303   3.877   6.330   2.505
 8135SOL    HW125304   3.977   6.336   2.495
 8135SOL    HW225305   3.839   6.422   2.507
 8136SOL     OW25306   2.147   5.957   1.545
 8136SOL    HW125307   2.201   6.038   1.568
 8136SOL    HW225308   2.177   5.880   1.601
 8137SOL     OW25309   2.955   3.548   4.994
 8137SOL    HW125310   2.989   3.614   4.927
 8137SOL    HW225311   2.926   3.464   4.947
 8138SOL     OW25312   4.811   1.465   3.521
 8138SOL    HW125313   4.884   1.532   3.508
 8138SOL    HW225314   4.732   1.489   3.465
 8139SOL     OW25315   1.614   3.212   5.522
 8139SOL    HW125316   1.667   3.128   5.535
 8139SOL    HW225317   1.673   3.291   5.539
 8140SOL     OW25318   4.502   1.169   0.839
 8140SOL    HW125319   4.537   1.123   0.757
 8140SOL    HW225320   4.518   1.267   0.830
 8141SOL     OW25321   6.266   1.018   5.415
 8141SOL    HW125322   6.188   0.959   5.396
 8141SOL    HW225323   6.350   0.975   5.381
 8142SOL     OW25324   2.868   5.868   0.878
 8142SOL    HW125325   2.822   5.954   0.854
 8142SOL    HW225326   2.806   5.810   0.930
 8143SOL     OW25327   6.236   4.581   0.301
 8143SOL    HW125328   6.236   4.573   0.201
 8143SOL    HW225329   6.142   4.583   0.334
 8144SOL     OW25330   1.568   5.442   6.915
 8144SOL    HW125331   1.477   5.421   6.880
 8144SOL    HW225332   1.568   5.437   7.015
 8145SOL     OW25333   5.215   5.518   6.364
 8145SOL    HW125334   5.314   5.530   6.373
 8145SOL    HW225335   5.188   5.434   6.411
 8146SOL     OW25336   6.957   6.332   4.758
 8146SOL    HW125337   6.873   6.331   4.703
 8146SOL    HW225338   0.018   6.345   4.698
 8147SOL     OW25339   2.434   0.579   5.256
 8147SOL    HW125340   2.489   0.608   5.335
 8147SOL    HW225341   2.380   0.657   5.224
 8148SOL     OW25342   5.147   4.785   0.023
 8148SOL    HW125343   5.141   4.695   6.997
 8148SOL    HW225344   5.199   4.847   6.982
 8149SOL     OW25345   1.504   6.793   5.483
 8149SOL    HW125346   1.414   6.834   5.493
 8149SOL    HW225347   1.560   6.815   5.563
 8150SOL     OW25348   0.726   3.977   0.474
 8150SOL    HW125349   0.680   4.057   0.436
 8150SOL    HW225350   0.695   3.963   0.568
 8151SOL     OW25351   6.232   4.806   2.666
 8151SOL    HW125352   6.176   4.763   2.595
 8151SOL    HW225353   6.199   4.898   2.684
 8152SOL     OW25354   5.947   1.812   3.291
 8152SOL    HW125355   5.917   1.856   3.376
 8152SOL    HW225356   5.893   1.847   3.215
 8153SOL     OW25357   0.224   1.716   1.613
 8153SOL    HW125358   0.291   1.774   1.566
 8153SOL    HW225359   0.261   1.624   1.623
 8154SOL     OW25360   1.255   0.602   3.048
 8154SOL    HW125361   1.157   0.604   3.027
 8154SOL    HW225362   1.278   0.680   3.106
 8155SOL     OW25363   1.571   5.126   4.449
 8155SOL    HW125364   1.569   5.052   4.382
 8155SOL    HW225365   1.567   5.087   4.541
 8156SOL     OW25366   1.475   3.862   0.476
 8156SOL    HW125367   1.379   3.892   0.481
 8156SOL    HW225368   1.481   3.765   0.499
 8157SOL     OW25369   6.209   5.006   4.750
 8157SOL    HW125370   6.141   5.079   4.749
 8157SOL    HW225371   6.184   4.939   4.821
 8158SOL     OW25372   5.992   5.029   5.986
 8158SOL    HW125373   5.962   5.124   5.979
 8158SOL    HW225374   6.003   5.005   6.082
 8159SOL     OW25375   2.679   0.251   4.742
 8159SOL    HW125376   2.649   0.164   4.704
 8159SOL    HW225377   2.769   0.240   4.783
 8160SOL     OW25378   5.529   2.448   3.081
 8160SOL    HW125379   5.530   2.348   3.075
 8160SOL    HW225380   5.437   2.482   3.063
 8161SOL     OW25381   6.722   2.826   1.917
 8161SOL    HW125382   6.725   2.813   2.017
 8161SOL    HW225383   6.784   2.760   1.874
 8162SOL     OW25384   1.207   5.569   5.437
 8162SOL    HW125385   1.216   5.597   5.341
 8162SOL    HW225386   1.291   5.526   5.467
 8163SOL     OW25387   4.059   4.681   5.325
 8163SOL    HW125388   4.089   4.749   5.258
 8163SOL    HW225389   3.960   4.680   5.329
 8164SOL     OW25390   5.146   1.725   0.826
 8164SOL    HW125391   5.197   1.787   0.766
 8164SOL    HW225392   5.090   1.663   0.771
 8165SOL     OW25393   0.796   1.731   6.107
 8165SOL    HW125394   0.726   1.793   6.071
 8165SOL    HW225395   0.806   1.746   6.205
 8166SOL     OW25396   2.480   1.768   4.451
 8166SOL    HW125397   2.384   1.747   4.471
 8166SOL    HW225398   2.522   1.812   4.530
 8167SOL     OW25399   1.964   2.478   3.306
 8167SOL    HW125400   2.011   2.451   3.391
 8167SOL    HW225401   1.883   2.532   3.329
 8168SOL     OW25402   1.456   6.343   2.905
 8168SOL    HW125403   1.470   6.269   2.839
 8168SOL    HW225404   1.529   6.411   2.896
 8169SOL     OW25405   5.029   4.203   0.662
 8169SOL    HW125406   5.012   4.258   0.744
 8169SOL    HW225407   5.037   4.263   0.582
 8170SOL     OW25408   0.203   4.312   2.795
 8170SOL    HW125409   0.240   4.328   2.886
 8170SOL    HW225410   0.273   4.266   2.739
 8171SOL     OW25411   2.416   2.033   1.769
 8171SOL    HW125412   2.415   2.128   1.799
 8171SOL    HW225413   2.500   2.015   1.718
 8172SOL     OW25414   1.425   4.214   0.771
 8172SOL    HW125415   1.484   4.149   0.818
 8172SOL    HW225416   1.382   4.275   0.837
 8173SOL     OW25417   6.032   0.243   1.653
 8173SOL    HW125418   5.960   0.300   1.693
 8173SOL    HW225419   6.107   0.301   1.622
 8174SOL     OW25420   2.027   6.576   3.914
 8174SOL    HW125421   2.103   6.512   3.900
 8174SOL    HW225422   1.942   6.533   3.885
 8175SOL     OW25423   0.502   2.095   5.467
 8175SOL    HW125424   0.417   2.120   5.513
 8175SOL    HW225425   0.482   2.071   5.371
 8176SOL     OW25426   2.711   5.125   0.221
 8176SOL    HW125427   2.725   5.029   0.196
 8176SOL    HW225428   2.616   5.137   0.251
 8177SOL     OW25429   2.904   1.269   2.525
 8177SOL    HW125430   2.819   1.219   2.539
 8177SOL    HW225431   2.976   1.206   2.496
 8178SOL     OW25432   2.006   6.656   0.881
 8178SOL    HW125433   2.015   6.755   0.892
 8178SOL    HW225434   1.919   6.626   0.920
 8179SOL     OW25435   5.970   0.259   3.443
 8179SOL    HW125436   5.918   0.174   3.457
 8179SOL    HW225437   5.942   0.327   3.511
 8180SOL     OW25438   4.462   5.367   0.515
 8180SOL    HW125439   4.387   5.384   0.451
 8180SOL    HW225440   4.546   5.409   0.480
 8181SOL     OW25441   6.198   0.506   6.245
 8181SOL    HW125442   6.223   0.416   6.208
 8181SOL    HW225443   6.181   0.497   6.343
 8182SOL     OW25444   3.540   3.718   3.173
 8182SOL    HW125445   3.460   3.722   3.233
 8182SOL    HW225446   3.549   3.626   3.135
 8183SOL     OW25447   6.821   0.289   5.603
 8183SOL    HW125448   6.877   0.358   5.650
 8183SOL    HW225449   6.750   0.256   5.665
 8184SOL     OW25450   0.463   6.031   5.535
 8184SOL    HW125451   0.407   6.020   5.617
 8184SOL    HW225452   0.528   5.956   5.529
 8185SOL     OW25453   0.392   5.869   5.292
 8185SOL    HW125454   0.313   5.866   5.354
 8185SOL    HW225455   0.467   5.920   5.335
 8186SOL     OW25456   1.383   5.325   0.701
 8186SOL    HW125457   1.291   5.353   0.730
 8186SOL    HW225458   1.393   5.226   0.713
 8187SOL     OW25459   1.947   6.666   4.898
 8187SOL    HW125460   1.887   6.603   4.849
 8187SOL    HW225461   1.927   6.662   4.996
 8188SOL     OW25462   1.850   3.156   2.466
 8188SOL    HW125463   1.851   3.142   2.565
 8188SOL    HW225464   1.815   3.074   2.421
 8189SOL     OW25465   5.859   4.530   4.133
 8189SOL    HW125466   5.807   4.532   4.048
 8189SOL    HW225467   5.946   4.577   4.120
 8190SOL     OW25468   6.589   3.838   2.742
 8190SOL    HW125469   6.557   3.766   2.680
 8190SOL    HW225470   6.574   3.927   2.700
 8191SOL     OW25471   4.063   4.885   0.996
 8191SOL    HW125472   4.119   4.824   1.053
 8191SOL    HW225473   4.036   4.965   1.049
 8192SOL     OW25474   0.853   6.099   3.658
 8192SOL    HW125475   0.890   6.007   3.648
 8192SOL    HW225476   0.755   6.093   3.677
 8193SOL     OW25477   0.484   5.052   3.863
 8193SOL    HW125478   0.533   5.022   3.781
 8193SOL    HW225479   0.457   4.972   3.917
 8194SOL     OW25480   5.232   0.405   1.873
 8194SOL    HW125481   5.159   0.416   1.941
 8194SOL    HW225482   5.282   0.491   1.864
 8195SOL     OW25483   6.511   6.859   3.714
 8195SOL    HW125484   6.590   6.916   3.693
 8195SOL    HW225485   6.514   6.776   3.659
 8196SOL     OW25486   4.861   0.624   2.163
 8196SOL    HW125487   4.810   0.539   2.147
 8196SOL    HW225488   4.815   0.677   2.234
 8197SOL     OW25489   4.317   1.721   3.362
 8197SOL    HW125490   4.310   1.817   3.386
 8197SOL    HW225491   4.400   1.682   3.403
 8198SOL     OW25492   1.673   5.738   1.199
 8198SOL    HW125493   1.706   5.761   1.291
 8198SOL    HW225494   1.583   5.697   1.205
 8199SOL     OW25495   5.311   2.183   0.548
 8199SOL    HW125496   5.390   2.243   0.555
 8199SOL    HW225497   5.339   2.088   0.561
 8200SOL     OW25498   5.444   4.349   0.927
 8200SOL    HW125499   5.521   4.344   0.991
 8200SOL    HW225500   5.384   4.424   0.952
 8201SOL     OW25501   5.690   6.941   5.344
 8201SOL    HW125502   5.775   6.985   5.317
 8201SOL    HW225503   5.625   7.010   5.375
 8202SOL     OW25504   1.563   5.888   1.898
 8202SOL    HW125505   1.544   5.791   1.915
 8202SOL    HW225506   1.661   5.902   1.889
 8203SOL     OW25507   1.672   3.265   1.268
 8203SOL    HW125508   1.670   3.169   1.243
 8203SOL    HW225509   1.718   3.276   1.357
 8204SOL     OW25510   1.827   3.283   1.060
 8204SOL    HW125511   1.764   3.264   0.985
 8204SOL    HW225512   1.779   3.275   1.147
 8205SOL     OW25513   0.326   3.756   6.654
 8205SOL    HW125514   0.420   3.725   6.669
 8205SOL    HW225515   0.313   3.844   6.700
 8206SOL     OW25516   3.354   1.282   1.412
 8206SOL    HW125517   3.446   1.291   1.376
 8206SOL    HW225518   3.333   1.359   1.472
 8207SOL     OW25519   4.089   3.782   4.309
 8207SOL    HW125520   4.173   3.735   4.280
 8207SOL    HW225521   4.077   3.772   4.407
 8208SOL     OW25522   1.941   0.399   6.916
 8208SOL    HW125523   1.951   0.465   6.990
 8208SOL    HW225524   2.029   0.357   6.896
 8209SOL     OW25525   5.951   2.179   4.557
 8209SOL    HW125526   5.872   2.231   4.590
 8209SOL    HW225527   5.974   2.209   4.465
 8210SOL     OW25528   2.117   2.492   6.171
 8210SOL    HW125529   2.212   2.466   6.154
 8210SOL    HW225530   2.105   2.589   6.148
 8211SOL     OW25531   4.726   4.496   1.457
 8211SOL    HW125532   4.735   4.468   1.361
 8211SOL    HW225533   4.630   4.505   1.481
 8212SOL     OW25534   2.445   2.499   2.678
 8212SOL    HW125535   2.455   2.540   2.769
 8212SOL    HW225536   2.387   2.417   2.685
 8213SOL     OW25537   6.250   4.557   1.071
 8213SOL    HW125538   6.152   4.565   1.057
 8213SOL    HW225539   6.269   4.480   1.132
 8214SOL     OW25540   5.176   3.543   2.947
 8214SOL    HW125541   5.125   3.559   2.862
 8214SOL    HW225542   5.269   3.580   2.937
 8215SOL     OW25543   3.506   5.162   2.294
 8215SOL    HW125544   3.517   5.082   2.353
 8215SOL    HW225545   3.416   5.202   2.309
 8216SOL     OW25546   5.453   3.509   3.207
 8216SOL    HW125547   5.467   3.505   3.306
 8216SOL    HW225548   5.388   3.438   3.179
 8217SOL     OW25549   2.039   5.809   0.622
 8217SOL    HW125550   2.078   5.753   0.696
 8217SOL    HW225551   1.944   5.832   0.645
 8218SOL     OW25552   5.103   2.259   0.409
 8218SOL    HW125553   5.184   2.220   0.454
 8218SOL    HW225554   5.132   2.331   0.346
 8219SOL     OW25555   5.491   1.731   0.181
 8219SOL    HW125556   5.536   1.724   0.092
 8219SOL    HW225557   5.558   1.714   0.253
 8220SOL     OW25558   4.274   3.565   1.531
 8220SOL    HW125559   4.337   3.510   1.585
 8220SOL    HW225560   4.287   3.662   1.553
 8221SOL     OW25561   5.380   4.319   2.748
 8221SOL    HW125562   5.475   4.293   2.760
 8221SOL    HW225563   5.322   4.238   2.745
 8222SOL     OW25564   6.179   1.346   2.922
 8222SOL    HW125565   6.216   1.294   3.000
 8222SOL    HW225566   6.079   1.347   2.929
 8223SOL     OW25567   0.131   5.282   6.210
 8223SOL    HW125568   0.188   5.212   6.253
 8223SOL    HW225569   0.082   5.242   6.133
 8224SOL     OW25570   0.824   3.302   2.923
 8224SOL    HW125571   0.779   3.244   2.854
 8224SOL    HW225572   0.755   3.347   2.979
 8225SOL     OW25573   4.669   1.023   0.684
 8225SOL    HW125574   4.707   0.993   0.597
 8225SOL    HW225575   4.727   0.991   0.759
 8226SOL     OW25576   4.000   0.105   0.315
 8226SOL    HW125577   3.957   0.015   0.313
 8226SOL    HW225578   3.998   0.145   0.223
 8227SOL     OW25579   6.022   4.120   3.190
 8227SOL    HW125580   6.074   4.185   3.134
 8227SOL    HW225581   6.021   4.031   3.144
 8228SOL     OW25582   0.019   1.627   4.297
 8228SOL    HW125583   0.033   1.697   4.227
 8228SOL    HW225584   6.994   1.668   4.377
 8229SOL     OW25585   4.285   5.997   0.917
 8229SOL    HW125586   4.280   5.905   0.957
 8229SOL    HW225587   4.366   6.045   0.951
 8230SOL     OW25588   5.110   7.009   3.971
 8230SOL    HW125589   5.065   0.078   3.954
 8230SOL    HW225590   5.117   6.994   4.069
 8231SOL     OW25591   4.046   6.091   1.635
 8231SOL    HW125592   3.989   6.036   1.574
 8231SOL    HW225593   4.142   6.080   1.611
 8232SOL     OW25594   2.426   1.975   6.960
 8232SOL    HW125595   2.327   1.971   6.950
 8232SOL    HW225596   2.453   1.936   0.029
 8233SOL     OW25597   0.084   5.527   5.976
 8233SOL    HW125598   0.077   5.474   5.892
 8233SOL    HW225599   0.091   5.465   6.055
 8234SOL     OW25600   2.933   3.342   0.093
 8234SOL    HW125601   3.003   3.367   0.160
 8234SOL    HW225602   2.974   3.289   0.019
 8235SOL     OW25603   4.344   2.496   6.934
 8235SOL    HW125604   4.267   2.494   6.870
 8235SOL    HW225605   4.343   2.582   6.985
 8236SOL     OW25606   5.503   2.837   1.180
 8236SOL    HW125607   5.589   2.834   1.130
 8236SOL    HW225608   5.426   2.823   1.117
 8237SOL     OW25609   3.955   6.695   5.771
 8237SOL    HW125610   3.899   6.617   5.744
 8237SOL    HW225611   3.896   6.768   5.805
 8238SOL     OW25612   2.086   0.919   0.122
 8238SOL    HW125613   2.128   1.008   0.107
 8238SOL    HW225614   2.152   0.847   0.101
 8239SOL     OW25615   5.996   0.927   6.943
 8239SOL    HW125616   6.039   0.950   6.855
 8239SOL    HW225617   5.969   0.831   6.943
 8240SOL     OW25618   4.120   3.521   3.226
 8240SOL    HW125619   4.164   3.562   3.146
 8240SOL    HW225620   4.038   3.471   3.196
 8241SOL     OW25621   4.583   6.557   1.852
 8241SOL    HW125622   4.567   6.460   1.873
 8241SOL    HW225623   4.506   6.611   1.887
 8242SOL     OW25624   0.726   3.452   5.549
 8242SOL    HW125625   0.722   3.494   5.640
 8242SOL    HW225626   0.785   3.371   5.552
 8243SOL     OW25627   0.666   3.408   5.157
 8243SOL    HW125628   0.742   3.459   5.196
 8243SOL    HW225629   0.699   3.319   5.124
 8244SOL     OW25630   2.336   5.509   4.637
 8244SOL    HW125631   2.258   5.550   4.684
 8244SOL    HW225632   2.381   5.443   4.698
 8245SOL     OW25633   4.087   3.522   0.605
 8245SOL    HW125634   3.987   3.522   0.609
 8245SOL    HW225635   4.123   3.591   0.668
 8246SOL     OW25636   4.866   4.005   5.305
 8246SOL    HW125637   4.826   4.044   5.221
 8246SOL    HW225638   4.895   3.911   5.287
 8247SOL     OW25639   0.962   6.618   0.627
 8247SOL    HW125640   1.041   6.639   0.569
 8247SOL    HW225641   0.959   6.683   0.703
 8248SOL     OW25642   0.371   4.775   3.569
 8248SOL    HW125643   0.356   4.684   3.607
 8248SOL    HW225644   0.309   4.790   3.492
 8249SOL     OW25645   1.286   5.481   3.103
 8249SOL    HW125646   1.369   5.483   3.159
 8249SOL    HW225647   1.236   5.397   3.121
 8250SOL     OW25648   3.551   3.938   2.018
 8250SOL    HW125649   3.494   4.011   1.981
 8250SOL    HW225650   3.635   3.977   2.056
 8251SOL     OW25651   5.961   1.757   4.783
 8251SOL    HW125652   5.996   1.669   4.752
 8251SOL    HW225653   5.940   1.814   4.704
 8252SOL     OW25654   1.223   3.546   4.344
 8252SOL    HW125655   1.165   3.587   4.414
 8252SOL    HW225656   1.203   3.588   4.255
 8253SOL     OW25657   2.276   2.996   5.479
 8253SOL    HW125658   2.321   2.938   5.547
 8253SOL    HW225659   2.328   3.081   5.467
 8254SOL     OW25660   4.307   5.821   3.526
 8254SOL    HW125661   4.403   5.803   3.501
 8254SOL    HW225662   4.302   5.848   3.622
 8255SOL     OW25663   4.117   4.824   3.700
 8255SOL    HW125664   4.027   4.867   3.687
 8255SOL    HW225665   4.186   4.895   3.710
 8256SOL     OW25666   6.043   2.669   4.045
 8256SOL    HW125667   6.118   2.710   3.993
 8256SOL    HW225668   6.039   2.571   4.029
 8257SOL     OW25669   5.908   4.816   4.394
 8257SOL    HW125670   5.877   4.898   4.442
 8257SOL    HW225671   6.003   4.827   4.366
 8258SOL     OW25672   4.938   1.714   0.276
 8258SOL    HW125673   4.918   1.811   0.269
 8258SOL    HW225674   5.034   1.697   0.254
 8259SOL     OW25675   4.303   1.112   1.480
 8259SOL    HW125676   4.368   1.040   1.504
 8259SOL    HW225677   4.347   1.179   1.421
 8260SOL     OW25678   2.761   5.532   0.107
 8260SOL    HW125679   2.695   5.515   0.181
 8260SOL    HW225680   2.819   5.609   0.133
 8261SOL     OW25681   5.160   0.995   1.609
 8261SOL    HW125682   5.229   1.014   1.540
 8261SOL    HW225683   5.155   0.897   1.625
 8262SOL     OW25684   0.398   2.415   0.871
 8262SOL    HW125685   0.473   2.469   0.833
 8262SOL    HW225686   0.399   2.422   0.971
 8263SOL     OW25687   5.550   1.203   1.172
 8263SOL    HW125688   5.489   1.130   1.141
 8263SOL    HW225689   5.642   1.165   1.186
 8264SOL     OW25690   1.290   4.531   2.373
 8264SOL    HW125691   1.282   4.458   2.305
 8264SOL    HW225692   1.261   4.497   2.462
 8265SOL     OW25693   1.882   0.695   2.306
 8265SOL    HW125694   1.861   0.622   2.240
 8265SOL    HW225695   1.900   0.780   2.256
 8266SOL     OW25696   2.761   0.405   3.140
 8266SOL    HW125697   2.765   0.485   3.200
 8266SOL    HW225698   2.734   0.324   3.193
 8267SOL     OW25699   0.297   3.701   0.821
 8267SOL    HW125700   0.358   3.634   0.779
 8267SOL    HW225701   0.211   3.705   0.770
 8268SOL     OW25702   3.526   5.943   6.584
 8268SOL    HW125703   3.547   6.008   6.657
 8268SOL    HW225704   3.487   5.992   6.506
 8269SOL     OW25705   6.009   2.076   0.978
 8269SOL    HW125706   5.971   2.026   0.900
 8269SOL    HW225707   6.077   2.142   0.945
 8270SOL     OW25708   3.110   6.364   4.273
 8270SOL    HW125709   3.142   6.353   4.179
 8270SOL    HW225710   3.184   6.401   4.329
 8271SOL     OW25711   6.268   2.396   2.761
 8271SOL    HW125712   6.230   2.360   2.846
 8271SOL    HW225713   6.198   2.391   2.689
 8272SOL     OW25714   3.847   1.274   4.227
 8272SOL    HW125715   3.847   1.362   4.179
 8272SOL    HW225716   3.863   1.290   4.325
 8273SOL     OW25717   2.034   6.751   1.583
 8273SOL    HW125718   2.009   6.676   1.522
 8273SOL    HW225719   2.121   6.731   1.627
 8274SOL     OW25720   5.145   4.083   3.362
 8274SOL    HW125721   5.132   4.176   3.328
 8274SOL    HW225722   5.122   4.018   3.290
 8275SOL     OW25723   5.148   2.271   6.546
 8275SOL    HW125724   5.137   2.344   6.479
 8275SOL    HW225725   5.174   2.186   6.499
 8276SOL     OW25726   0.357   1.915   2.753
 8276SOL    HW125727   0.351   1.864   2.667
 8276SOL    HW225728   0.312   1.862   2.825
 8277SOL     OW25729   6.391   0.814   6.975
 8277SOL    HW125730   6.405   0.832   6.878
 8277SOL    HW225731   6.423   0.722   6.997
 8278SOL     OW25732   1.666   2.349   6.658
 8278SOL    HW125733   1.634   2.317   6.748
 8278SOL    HW225734   1.622   2.437   6.637
 8279SOL     OW25735   0.128   5.994   3.760
 8279SOL    HW125736   0.092   6.087   3.767
 8279SOL    HW225737   0.213   5.995   3.707
 8280SOL     OW25738   3.104   2.395   5.760
 8280SOL    HW125739   3.200   2.381   5.735
 8280SOL    HW225740   3.097   2.404   5.860
 8281SOL     OW25741   4.914   5.614   2.703
 8281SOL    HW125742   5.011   5.607   2.678
 8281SOL    HW225743   4.896   5.705   2.739
 8282SOL     OW25744   5.644   2.693   6.328
 8282SOL    HW125745   5.626   2.761   6.257
 8282SOL    HW225746   5.619   2.730   6.417
 8283SOL     OW25747   2.025   2.150   5.813
 8283SOL    HW125748   1.986   2.204   5.738
 8283SOL    HW225749   2.068   2.067   5.776
 8284SOL     OW25750   6.489   4.028   1.749
 8284SOL    HW125751   6.575   3.978   1.747
 8284SOL    HW225752   6.508   4.126   1.758
 8285SOL     OW25753   3.957   3.385   4.435
 8285SOL    HW125754   3.937   3.477   4.469
 8285SOL    HW225755   3.872   3.338   4.413
 8286SOL     OW25756   0.124   1.596   6.183
 8286SOL    HW125757   0.161   1.556   6.266
 8286SOL    HW225758   0.105   1.694   6.199
 8287SOL     OW25759   1.647   6.066   4.106
 8287SOL    HW125760   1.714   6.001   4.071
 8287SOL    HW225761   1.577   6.017   4.158
 8288SOL     OW25762   3.245   1.943   3.280
 8288SOL    HW125763   3.332   1.983   3.311
 8288SOL    HW225764   3.234   1.960   3.182
 8289SOL     OW25765   0.002   5.560   6.799
 8289SOL    HW125766   0.000   5.629   6.871
 8289SOL    HW225767   0.056   5.593   6.722
 8290SOL     OW25768   6.657   2.353   0.578
 8290SOL    HW125769   6.616   2.331   0.666
 8290SOL    HW225770   6.756   2.362   0.588
 8291SOL     OW25771   4.172   0.286   1.278
 8291SOL    HW125772   4.265   0.256   1.256
 8291SOL    HW225773   4.135   0.338   1.201
 8292SOL     OW25774   3.002   0.193   6.396
 8292SOL    HW125775   2.991   0.279   6.446
 8292SOL    HW225776   3.068   0.135   6.444
 8293SOL     OW25777   5.668   5.471   4.601
 8293SOL    HW125778   5.647   5.447   4.696
 8293SOL    HW225779   5.623   5.558   4.579
 8294SOL     OW25780   5.522   3.040   0.066
 8294SOL    HW125781   5.477   3.000   7.004
 8294SOL    HW225782   5.462   3.031   0.145
 8295SOL     OW25783   4.306   3.621   6.868
 8295SOL    HW125784   4.355   3.703   6.900
 8295SOL    HW225785   4.269   3.572   6.947
 8296SOL     OW25786   1.087   4.996   6.275
 8296SOL    HW125787   1.014   5.023   6.337
 8296SOL    HW225788   1.072   5.039   6.185
 8297SOL     OW25789   1.015   2.867   3.858
 8297SOL    HW125790   1.025   2.878   3.957
 8297SOL    HW225791   1.048   2.777   3.830
 8298SOL     OW25792   5.053   1.469   2.349
 8298SOL    HW125793   5.151   1.482   2.363
 8298SOL    HW225794   5.033   1.371   2.342
 8299SOL     OW25795   6.359   2.526   1.472
 8299SOL    HW125796   6.281   2.568   1.516
 8299SOL    HW225797   6.440   2.584   1.483
 8300SOL     OW25798   0.796   5.174   3.281
 8300SOL    HW125799   0.783   5.272   3.267
 8300SOL    HW225800   0.731   5.142   3.350
 8301SOL     OW25801   3.132   2.591   6.390
 8301SOL    HW125802   3.048   2.635   6.361
 8301SOL    HW225803   3.121   2.491   6.384
 8302SOL     OW25804   6.046   5.643   5.456
 8302SOL    HW125805   5.961   5.604   5.490
 8302SOL    HW225806   6.053   5.739   5.484
 8303SOL     OW25807   6.959   0.275   6.309
 8303SOL    HW125808   6.988   0.195   6.257
 8303SOL    HW225809   0.021   0.321   6.347
 8304SOL     OW25810   6.757   3.010   0.630
 8304SOL    HW125811   6.680   2.972   0.682
 8304SOL    HW225812   6.738   3.001   0.532
 8305SOL     OW25813   3.407   5.190   3.371
 8305SOL    HW125814   3.340   5.213   3.441
 8305SOL    HW225815   3.371   5.117   3.313
 8306SOL     OW25816   1.076   3.319   4.143
 8306SOL    HW125817   1.166   3.349   4.110
 8306SOL    HW225818   1.005   3.375   4.102
 8307SOL     OW25819   3.357   5.119   0.729
 8307SOL    HW125820   3.377   5.036   0.678
 8307SOL    HW225821   3.425   5.131   0.801
 8308SOL     OW25822   3.502   0.549   2.958
 8308SOL    HW125823   3.429   0.514   2.899
 8308SOL    HW225824   3.463   0.581   3.045
 8309SOL     OW25825   5.481   6.396   2.316
 8309SOL    HW125826   5.400   6.439   2.356
 8309SOL    HW225827   5.531   6.463   2.261
 8310SOL     OW25828   6.283   4.244   6.832
 8310SOL    HW125829   6.275   4.189   6.914
 8310SOL    HW225830   6.319   4.188   6.757
 8311SOL     OW25831   6.441   0.888   6.694
 8311SOL    HW125832   6.526   0.930   6.726
 8311SOL    HW225833   6.454   0.854   6.601
 8312SOL     OW25834   5.363   6.653   1.179
 8312SOL    HW125835   5.294   6.586   1.203
 8312SOL    HW225836   5.354   6.678   1.082
 8313SOL     OW25837   3.407   1.265   2.618
 8313SOL    HW125838   3.311   1.292   2.611
 8313SOL    HW225839   3.415   1.167   2.596
 8314SOL     OW25840   0.099   6.063   3.293
 8314SOL    HW125841   0.038   5.999   3.246
 8314SOL    HW225842   0.076   6.156   3.268
 8315SOL     OW25843   4.797   4.531   6.388
 8315SOL    HW125844   4.723   4.510   6.452
 8315SOL    HW225845   4.824   4.627   6.398
 8316SOL     OW25846   2.913   5.840   7.011
 8316SOL    HW125847   2.884   5.905   6.942
 8316SOL    HW225848   2.841   5.831   0.062
 8317SOL     OW25849   2.232   4.214   2.135
 8317SOL    HW125850   2.231   4.124   2.178
 8317SOL    HW225851   2.268   4.281   2.200
 8318SOL     OW25852   3.540   0.951   5.718
 8318SOL    HW125853   3.500   1.042   5.723
 8318SOL    HW225854   3.526   0.914   5.626
 8319SOL     OW25855   3.369   0.631   4.963
 8319SOL    HW125856   3.390   0.693   4.887
 8319SOL    HW225857   3.425   0.656   5.042
 8320SOL     OW25858   4.140   4.858   1.572
 8320SOL    HW125859   4.097   4.864   1.663
 8320SOL    HW225860   4.071   4.876   1.502
 8321SOL     OW25861   0.380   0.876   1.363
 8321SOL    HW125862   0.302   0.924   1.403
 8321SOL    HW225863   0.460   0.887   1.421
 8322SOL     OW25864   5.478   6.710   6.853
 8322SOL    HW125865   5.569   6.667   6.849
 8322SOL    HW225866   5.470   6.763   6.938
 8323SOL     OW25867   1.416   1.673   1.706
 8323SOL    HW125868   1.502   1.629   1.734
 8323SOL    HW225869   1.360   1.607   1.657
 8324SOL     OW25870   6.544   1.268   2.222
 8324SOL    HW125871   6.484   1.191   2.244
 8324SOL    HW225872   6.504   1.352   2.258
 8325SOL     OW25873   3.111   3.931   4.248
 8325SOL    HW125874   3.205   3.942   4.215
 8325SOL    HW225875   3.056   3.885   4.179
 8326SOL     OW25876   3.480   2.989   6.058
 8326SOL    HW125877   3.471   3.081   6.096
 8326SOL    HW225878   3.474   2.993   5.959
 8327SOL     OW25879   4.918   2.151   6.310
 8327SOL    HW125880   4.946   2.225   6.249
 8327SOL    HW225881   4.847   2.184   6.373
 8328SOL     OW25882   2.388   2.215   4.532
 8328SOL    HW125883   2.477   2.260   4.534
 8328SOL    HW225884   2.392   2.138   4.468
 8329SOL     OW25885   0.159   2.266   4.723
 8329SOL    HW125886   0.072   2.236   4.763
 8329SOL    HW225887   0.192   2.196   4.659
 8330SOL     OW25888   2.495   6.788   0.789
 8330SOL    HW125889   2.402   6.765   0.761
 8330SOL    HW225890   2.548   6.704   0.798
 8331SOL     OW25891   2.969   0.099   0.763
 8331SOL    HW125892   2.871   0.079   0.768
 8331SOL    HW225893   3.021   0.019   0.795
 8332SOL     OW25894   4.896   5.735   3.099
 8332SOL    HW125895   4.908   5.683   3.183
 8332SOL    HW225896   4.823   5.803   3.113
 8333SOL     OW25897   1.307   5.546   6.214
 8333SOL    HW125898   1.221   5.566   6.260
 8333SOL    HW225899   1.346   5.461   6.252
 8334SOL     OW25900   5.900   0.525   4.048
 8334SOL    HW125901   5.931   0.609   4.003
 8334SOL    HW225902   5.978   0.480   4.093
 8335SOL     OW25903   5.784   6.858   5.574
 8335SOL    HW125904   5.827   6.770   5.553
 8335SOL    HW225905   5.741   6.895   5.492
 8336SOL     OW25906   0.839   2.051   2.145
 8336SOL    HW125907   0.741   2.060   2.131
 8336SOL    HW225908   0.857   2.018   2.238
 8337SOL     OW25909   0.352   6.092   1.920
 8337SOL    HW125910   0.347   6.086   2.020
 8337SOL    HW225911   0.415   6.023   1.886
 8338SOL     OW25912   1.950   4.840   0.968
 8338SOL    HW125913   1.989   4.866   0.880
 8338SOL    HW225914   1.973   4.744   0.988
 8339SOL     OW25915   5.660   0.734   3.162
 8339SOL    HW125916   5.600   0.708   3.238
 8339SOL    HW225917   5.684   0.653   3.109
 8340SOL     OW25918   4.733   3.378   1.165
 8340SOL    HW125919   4.721   3.299   1.105
 8340SOL    HW225920   4.647   3.399   1.211
 8341SOL     OW25921   2.054   0.082   1.047
 8341SOL    HW125922   2.130   0.146   1.036
 8341SOL    HW225923   1.969   0.126   1.020
 8342SOL     OW25924   4.899   0.173   1.166
 8342SOL    HW125925   4.985   0.224   1.176
 8342SOL    HW225926   4.901   0.093   1.226
 8343SOL     OW25927   1.460   5.195   6.024
 8343SOL    HW125928   1.551   5.225   6.053
 8343SOL    HW225929   1.412   5.155   6.102
 8344SOL     OW25930   3.701   0.308   5.236
 8344SOL    HW125931   3.689   0.212   5.262
 8344SOL    HW225932   3.792   0.320   5.195
 8345SOL     OW25933   6.048   1.650   2.758
 8345SOL    HW125934   6.042   1.599   2.673
 8345SOL    HW225935   6.139   1.690   2.768
 8346SOL     OW25936   3.267   5.390   1.849
 8346SOL    HW125937   3.332   5.345   1.910
 8346SOL    HW225938   3.308   5.472   1.809
 8347SOL     OW25939   3.458   5.207   3.708
 8347SOL    HW125940   3.432   5.128   3.764
 8347SOL    HW225941   3.391   5.219   3.634
 8348SOL     OW25942   1.565   0.544   0.676
 8348SOL    HW125943   1.515   0.605   0.738
 8348SOL    HW225944   1.590   0.594   0.593
 8349SOL     OW25945   5.626   5.379   1.471
 8349SOL    HW125946   5.709   5.424   1.440
 8349SOL    HW225947   5.650   5.312   1.542
 8350SOL     OW25948   6.391   0.314   4.790
 8350SOL    HW125949   6.343   0.235   4.750
 8350SOL    HW225950   6.466   0.341   4.730
 8351SOL     OW25951   2.760   6.292   2.334
 8351SOL    HW125952   2.764   6.300   2.235
 8351SOL    HW225953   2.820   6.217   2.364
 8352SOL     OW25954   6.643   6.183   1.474
 8352SOL    HW125955   6.709   6.117   1.511
 8352SOL    HW225956   6.659   6.273   1.515
 8353SOL     OW25957   0.573   4.089   2.285
 8353SOL    HW125958   0.522   4.166   2.323
 8353SOL    HW225959   0.620   4.040   2.359
 8354SOL     OW25960   2.438   0.461   0.406
 8354SOL    HW125961   2.494   0.388   0.444
 8354SOL    HW225962   2.432   0.536   0.472
 8355SOL     OW25963   3.241   1.525   0.716
 8355SOL    HW125964   3.328   1.498   0.675
 8355SOL    HW225965   3.166   1.498   0.656
 8356SOL     OW25966   2.419   5.600   0.763
 8356SOL    HW125967   2.407   5.674   0.697
 8356SOL    HW225968   2.502   5.549   0.741
 8357SOL     OW25969   5.124   6.193   3.717
 8357SOL    HW125970   5.142   6.145   3.803
 8357SOL    HW225971   5.207   6.192   3.661
 8358SOL     OW25972   2.801   2.159   4.743
 8358SOL    HW125973   2.738   2.192   4.814
 8358SOL    HW225974   2.775   2.198   4.655
 8359SOL     OW25975   4.613   5.210   3.895
 8359SOL    HW125976   4.652   5.129   3.851
 8359SOL    HW225977   4.526   5.232   3.852
 8360SOL     OW25978   4.746   0.752   3.219
 8360SOL    HW125979   4.810   0.700   3.275
 8360SOL    HW225980   4.785   0.842   3.198
 8361SOL     OW25981   1.843   0.810   2.734
 8361SOL    HW125982   1.787   0.832   2.654
 8361SOL    HW225983   1.805   0.730   2.780
 8362SOL     OW25984   2.443   3.084   0.579
 8362SOL    HW125985   2.386   3.127   0.509
 8362SOL    HW225986   2.539   3.097   0.557
 8363SOL     OW25987   0.107   3.496   0.992
 8363SOL    HW125988   0.062   3.440   1.062
 8363SOL    HW225989   0.203   3.511   1.018
 8364SOL     OW25990   6.596   4.757   4.489
 8364SOL    HW125991   6.577   4.844   4.444
 8364SOL    HW225992   6.671   4.769   4.555
 8365SOL     OW25993   1.051   3.639   5.818
 8365SOL    HW125994   1.135   3.595   5.850
 8365SOL    HW225995   0.984   3.569   5.795
 8366SOL     OW25996   2.748   0.018   3.520
 8366SOL    HW125997   2.837   0.021   3.566
 8366SOL    HW225998   2.677   0.053   3.581
 8367SOL     OW25999   5.143   6.013   3.930
 8367SOL    HW126000   5.191   5.998   4.016
 8367SOL    HW226001   5.157   5.934   3.870
 8368SOL     OW26002   3.104   5.709   6.388
 8368SOL    HW126003   3.044   5.753   6.455
 8368SOL    HW226004   3.190   5.760   6.382
 8369SOL     OW26005   2.986   1.632   1.216
 8369SOL    HW126006   2.947   1.692   1.146
 8369SOL    HW226007   2.913   1.597   1.275
 8370SOL     OW26008   1.621   1.531   0.296
 8370SOL    HW126009   1.584   1.485   0.215
 8370SOL    HW226010   1.548   1.584   0.340
 8371SOL     OW26011   2.194   2.566   0.171
 8371SOL    HW126012   2.172   2.649   0.119
 8371SOL    HW226013   2.131   2.558   0.248
 8372SOL     OW26014   6.927   0.713   1.242
 8372SOL    HW126015   6.956   0.686   1.334
 8372SOL    HW226016   6.872   0.640   1.201
 8373SOL     OW26017   1.639   6.412   4.995
 8373SOL    HW126018   1.704   6.435   4.923
 8373SOL    HW226019   1.672   6.333   5.046
 8374SOL     OW26020   6.643   0.628   6.141
 8374SOL    HW126021   6.706   0.680   6.084
 8374SOL    HW226022   6.550   0.662   6.128
 8375SOL     OW26023   3.899   1.001   6.023
 8375SOL    HW126024   3.966   0.952   5.968
 8375SOL    HW226025   3.947   1.055   6.093
 8376SOL     OW26026   4.456   0.325   4.559
 8376SOL    HW126027   4.465   0.264   4.638
 8376SOL    HW226028   4.538   0.318   4.503
 8377SOL     OW26029   5.692   4.725   1.041
 8377SOL    HW126030   5.620   4.701   1.106
 8377SOL    HW226031   5.669   4.689   0.951
 8378SOL     OW26032   5.164   3.109   3.828
 8378SOL    HW126033   5.178   3.159   3.914
 8378SOL    HW226034   5.223   3.028   3.828
 8379SOL     OW26035   4.973   2.330   2.378
 8379SOL    HW126036   4.893   2.280   2.410
 8379SOL    HW226037   5.056   2.280   2.404
 8380SOL     OW26038   5.684   1.816   3.721
 8380SOL    HW126039   5.689   1.890   3.788
 8380SOL    HW226040   5.764   1.757   3.730
 8381SOL     OW26041   2.474   5.371   4.263
 8381SOL    HW126042   2.500   5.275   4.276
 8381SOL    HW226043   2.541   5.429   4.309
 8382SOL     OW26044   0.881   4.471   2.494
 8382SOL    HW126045   0.914   4.406   2.425
 8382SOL    HW226046   0.908   4.563   2.468
 8383SOL     OW26047   3.248   1.304   6.292
 8383SOL    HW126048   3.197   1.234   6.242
 8383SOL    HW226049   3.315   1.346   6.230
 8384SOL     OW26050   0.635   6.744   1.986
 8384SOL    HW126051   0.563   6.782   2.045
 8384SOL    HW226052   0.606   6.655   1.952
 8385SOL     OW26053   4.715   2.474   0.859
 8385SOL    HW126054   4.815   2.475   0.850
 8385SOL    HW226055   4.684   2.564   0.890
 8386SOL     OW26056   0.827   4.225   2.915
 8386SOL    HW126057   0.770   4.219   2.833
 8386SOL    HW226058   0.828   4.137   2.962
 8387SOL     OW26059   0.863   1.864   0.874
 8387SOL    HW126060   0.830   1.884   0.781
 8387SOL    HW226061   0.834   1.938   0.935
 8388SOL     OW26062   0.799   6.590   3.367
 8388SOL    HW126063   0.875   6.526   3.354
 8388SOL    HW226064   0.750   6.602   3.281
 8389SOL     OW26065   5.639   2.327   3.475
 8389SOL    HW126066   5.608   2.422   3.473
 8389SOL    HW226067   5.647   2.293   3.382
 8390SOL     OW26068   5.600   1.372   6.145
 8390SOL    HW126069   5.584   1.307   6.071
 8390SOL    HW226070   5.698   1.382   6.160
 8391SOL     OW26071   6.741   6.733   1.477
 8391SOL    HW126072   6.678   6.703   1.549
 8391SOL    HW226073   6.717   6.825   1.447
 8392SOL     OW26074   4.024   3.025   5.815
 8392SOL    HW126075   4.088   3.003   5.889
 8392SOL    HW226076   4.016   2.946   5.753
 8393SOL     OW26077   5.614   0.058   1.220
 8393SOL    HW126078   5.629   0.018   1.129
 8393SOL    HW226079   5.553   7.017   1.273
 8394SOL     OW26080   5.723   2.679   2.608
 8394SOL    HW126081   5.784   2.619   2.661
 8394SOL    HW226082   5.763   2.695   2.518
 8395SOL     OW26083   2.235   1.054   5.154
 8395SOL    HW126084   2.224   1.110   5.072
 8395SOL    HW226085   2.205   1.106   5.234
 8396SOL     OW26086   4.930   5.419   4.819
 8396SOL    HW126087   4.954   5.515   4.829
 8396SOL    HW226088   4.875   5.407   4.736
 8397SOL     OW26089   6.359   0.367   3.145
 8397SOL    HW126090   6.411   0.287   3.115
 8397SOL    HW226091   6.374   0.443   3.083
 8398SOL     OW26092   5.792   2.093   6.053
 8398SOL    HW126093   5.723   2.164   6.037
 8398SOL    HW226094   5.765   2.009   6.006
 8399SOL     OW26095   0.214   4.565   1.447
 8399SOL    HW126096   0.222   4.539   1.350
 8399SOL    HW226097   0.118   4.575   1.471
 8400SOL     OW26098   1.486   1.519   4.335
 8400SOL    HW126099   1.480   1.447   4.404
 8400SOL    HW226100   1.579   1.557   4.335
 8401SOL     OW26101   1.962   0.429   5.506
 8401SOL    HW126102   1.904   0.501   5.471
 8401SOL    HW226103   1.909   0.345   5.516
 8402SOL     OW26104   3.491   0.604   6.614
 8402SOL    HW126105   3.582   0.622   6.650
 8402SOL    HW226106   3.487   0.510   6.579
 8403SOL     OW26107   5.674   4.742   5.210
 8403SOL    HW126108   5.653   4.667   5.148
 8403SOL    HW226109   5.759   4.723   5.258
 8404SOL     OW26110   0.766   1.556   6.543
 8404SOL    HW126111   0.736   1.643   6.583
 8404SOL    HW226112   0.866   1.556   6.534
 8405SOL     OW26113   4.350   0.304   5.430
 8405SOL    HW126114   4.400   0.219   5.450
 8405SOL    HW226115   4.404   0.360   5.368
 8406SOL     OW26116   5.720   0.352   5.975
 8406SOL    HW126117   5.767   0.299   5.905
 8406SOL    HW226118   5.624   0.325   5.978
 8407SOL     OW26119   3.802   0.041   4.528
 8407SOL    HW126120   3.731   0.050   4.598
 8407SOL    HW226121   3.885   0.088   4.558
 8408SOL     OW26122   4.156   1.380   1.290
 8408SOL    HW126123   4.087   1.312   1.266
 8408SOL    HW226124   4.222   1.387   1.215
 8409SOL     OW26125   4.225   1.944   2.135
 8409SOL    HW126126   4.268   1.855   2.150
 8409SOL    HW226127   4.128   1.938   2.159
 8410SOL     OW26128   0.139   1.815   1.875
 8410SOL    HW126129   0.180   1.737   1.921
 8410SOL    HW226130   0.162   1.811   1.777
 8411SOL     OW26131   1.050   6.615   1.213
 8411SOL    HW126132   1.108   6.541   1.178
 8411SOL    HW226133   1.086   6.647   1.300
 8412SOL     OW26134   2.530   2.219   0.138
 8412SOL    HW126135   2.462   2.282   0.175
 8412SOL    HW226136   2.522   2.215   0.039
 8413SOL     OW26137   3.794   5.251   4.553
 8413SOL    HW126138   3.886   5.278   4.583
 8413SOL    HW226139   3.743   5.333   4.524
 8414SOL     OW26140   1.306   0.518   1.215
 8414SOL    HW126141   1.356   0.474   1.141
 8414SOL    HW226142   1.341   0.486   1.303
 8415SOL     OW26143   3.028   1.491   6.192
 8415SOL    HW126144   3.089   1.570   6.196
 8415SOL    HW226145   3.071   1.413   6.235
 8416SOL     OW26146   6.827   2.559   5.341
 8416SOL    HW126147   6.829   2.614   5.425
 8416SOL    HW226148   6.885   2.601   5.272
 8417SOL     OW26149   2.424   3.572   5.852
 8417SOL    HW126150   2.411   3.562   5.950
 8417SOL    HW226151   2.473   3.657   5.833
 8418SOL     OW26152   0.558   5.852   2.066
 8418SOL    HW126153   0.581   5.932   2.121
 8418SOL    HW226154   0.641   5.804   2.040
 8419SOL     OW26155   4.117   1.745   4.076
 8419SOL    HW126156   4.147   1.785   3.990
 8419SOL    HW226157   4.193   1.743   4.141
 8420SOL     OW26158   3.579   0.784   1.711
 8420SOL    HW126159   3.516   0.747   1.780
 8420SOL    HW226160   3.587   0.883   1.724
 8421SOL     OW26161   4.464   6.661   6.446
 8421SOL    HW126162   4.466   6.761   6.443
 8421SOL    HW226163   4.485   6.625   6.355
 8422SOL     OW26164   5.536   2.713   3.818
 8422SOL    HW126165   5.446   2.755   3.830
 8422SOL    HW226166   5.526   2.616   3.797
 8423SOL     OW26167   6.583   5.147   0.126
 8423SOL    HW126168   6.658   5.178   0.068
 8423SOL    HW226169   6.565   5.215   0.197
 8424SOL     OW26170   3.231   0.439   4.812
 8424SOL    HW126171   3.274   0.516   4.860
 8424SOL    HW226172   3.143   0.468   4.775
 8425SOL     OW26173   3.650   4.136   2.400
 8425SOL    HW126174   3.611   4.220   2.437
 8425SOL    HW226175   3.739   4.119   2.444
 8426SOL     OW26176   3.943   3.021   1.957
 8426SOL    HW126177   3.890   3.086   2.012
 8426SOL    HW226178   4.034   3.059   1.939
 8427SOL     OW26179   3.909   3.535   3.482
 8427SOL    HW126180   3.939   3.439   3.486
 8427SOL    HW226181   3.983   3.591   3.445
 8428SOL     OW26182   5.918   6.977   2.171
 8428SOL    HW126183   5.833   7.004   2.217
 8428SOL    HW226184   5.912   7.000   2.074
 8429SOL     OW26185   2.899   5.724   5.321
 8429SOL    HW126186   2.906   5.806   5.378
 8429SOL    HW226187   2.805   5.712   5.290
 8430SOL     OW26188   4.909   0.061   5.042
 8430SOL    HW126189   4.947   0.153   5.028
 8430SOL    HW226190   4.877   0.025   4.954
 8431SOL     OW26191   1.925   3.825   5.447
 8431SOL    HW126192   1.847   3.786   5.495
 8431SOL    HW226193   1.894   3.896   5.384
 8432SOL     OW26194   6.326   5.025   6.154
 8432SOL    HW126195   6.278   5.112   6.167
 8432SOL    HW226196   6.413   5.042   6.107
 8433SOL     OW26197   5.608   1.909   1.093
 8433SOL    HW126198   5.587   1.928   0.997
 8433SOL    HW226199   5.684   1.844   1.097
 8434SOL     OW26200   2.718   5.953   4.956
 8434SOL    HW126201   2.674   5.888   4.894
 8434SOL    HW226202   2.713   5.917   5.050
 8435SOL     OW26203   5.733   1.867   3.447
 8435SOL    HW126204   5.705   1.845   3.540
 8435SOL    HW226205   5.759   1.963   3.441
 8436SOL     OW26206   2.202   5.927   2.395
 8436SOL    HW126207   2.224   5.853   2.331
 8436SOL    HW226208   2.244   6.012   2.364
 8437SOL     OW26209   0.645   5.377   1.149
 8437SOL    HW126210   0.645   5.373   1.049
 8437SOL    HW226211   0.634   5.284   1.186
 8438SOL     OW26212   0.572   4.004   2.003
 8438SOL    HW126213   0.644   3.939   1.980
 8438SOL    HW226214   0.564   4.011   2.103
 8439SOL     OW26215   6.386   4.382   2.480
 8439SOL    HW126216   6.352   4.288   2.490
 8439SOL    HW226217   6.339   4.426   2.403
 8440SOL     OW26218   1.751   1.988   2.724
 8440SOL    HW126219   1.746   1.906   2.781
 8440SOL    HW226220   1.794   1.965   2.636
 8441SOL     OW26221   6.923   1.944   5.593
 8441SOL    HW126222   6.895   1.930   5.687
 8441SOL    HW226223   6.860   2.008   5.548
 8442SOL     OW26224   4.158   2.229   0.001
 8442SOL    HW126225   4.106   2.313   0.014
 8442SOL    HW226226   4.207   2.207   0.086
 8443SOL     OW26227   1.807   4.471   2.589
 8443SOL    HW126228   1.714   4.447   2.561
 8443SOL    HW226229   1.804   4.536   2.664
 8444SOL     OW26230   5.582   5.395   4.850
 8444SOL    HW126231   5.622   5.380   4.940
 8444SOL    HW226232   5.518   5.321   4.829
 8445SOL     OW26233   4.239   6.663   6.668
 8445SOL    HW126234   4.300   6.643   6.592
 8445SOL    HW226235   4.294   6.692   6.747
 8446SOL     OW26236   6.618   5.220   5.054
 8446SOL    HW126237   6.688   5.281   5.089
 8446SOL    HW226238   6.553   5.198   5.128
 8447SOL     OW26239   3.856   0.999   3.902
 8447SOL    HW126240   3.922   1.068   3.932
 8447SOL    HW226241   3.821   1.024   3.812
 8448SOL     OW26242   3.226   6.113   3.311
 8448SOL    HW126243   3.239   6.045   3.238
 8448SOL    HW226244   3.283   6.193   3.293
 8449SOL     OW26245   1.833   2.196   3.587
 8449SOL    HW126246   1.897   2.264   3.622
 8449SOL    HW226247   1.815   2.128   3.658
 8450SOL     OW26248   6.731   0.737   6.980
 8450SOL    HW126249   6.765   0.796   6.907
 8450SOL    HW226250   6.803   0.724   0.031
 8451SOL     OW26251   3.858   2.459   1.281
 8451SOL    HW126252   3.808   2.394   1.338
 8451SOL    HW226253   3.948   2.476   1.321
 8452SOL     OW26254   5.058   1.160   5.966
 8452SOL    HW126255   5.106   1.082   5.926
 8452SOL    HW226256   5.007   1.208   5.895
 8453SOL     OW26257   6.978   6.996   0.022
 8453SOL    HW126258   6.893   6.957   0.059
 8453SOL    HW226259   0.027   7.003   0.096
 8454SOL     OW26260   5.972   4.424   6.200
 8454SOL    HW126261   5.919   4.394   6.121
 8454SOL    HW226262   5.953   4.521   6.218
 8455SOL     OW26263   6.435   1.170   2.628
 8455SOL    HW126264   6.369   1.241   2.652
 8455SOL    HW226265   6.430   1.152   2.530
 8456SOL     OW26266   6.942   0.109   2.666
 8456SOL    HW126267   6.930   0.060   2.752
 8456SOL    HW226268   0.005   0.074   2.619
 8457SOL     OW26269   6.568   6.582   4.835
 8457SOL    HW126270   6.642   6.648   4.843
 8457SOL    HW226271   6.503   6.596   4.911
 8458SOL     OW26272   1.006   6.573   6.475
 8458SOL    HW126273   0.915   6.540   6.502
 8458SOL    HW226274   1.071   6.497   6.478
 8459SOL     OW26275   1.172   5.911   3.536
 8459SOL    HW126276   1.216   5.911   3.446
 8459SOL    HW226277   1.210   5.986   3.590
 8460SOL     OW26278   3.935   3.790   3.023
 8460SOL    HW126279   3.903   3.881   2.995
 8460SOL    HW226280   3.968   3.794   3.117
 8461SOL     OW26281   6.219   3.250   3.691
 8461SOL    HW126282   6.295   3.247   3.626
 8461SOL    HW226283   6.186   3.158   3.708
 8462SOL     OW26284   2.544   2.723   1.723
 8462SOL    HW126285   2.629   2.670   1.723
 8462SOL    HW226286   2.503   2.719   1.632
 8463SOL     OW26287   5.846   0.374   1.799
 8463SOL    HW126288   5.882   0.358   1.891
 8463SOL    HW226289   5.764   0.319   1.786
 8464SOL     OW26290   6.913   1.828   4.760
 8464SOL    HW126291   6.819   1.795   4.752
 8464SOL    HW226292   6.919   1.920   4.721
 8465SOL     OW26293   1.269   1.617   0.055
 8465SOL    HW126294   1.342   1.551   0.074
 8465SOL    HW226295   1.286   1.701   0.107
 8466SOL     OW26296   0.193   0.203   4.038
 8466SOL    HW126297   0.245   0.243   4.114
 8466SOL    HW226298   0.246   0.210   3.954
 8467SOL     OW26299   3.770   5.326   1.084
 8467SOL    HW126300   3.745   5.323   1.181
 8467SOL    HW226301   3.793   5.420   1.059
 8468SOL     OW26302   3.911   2.344   0.192
 8468SOL    HW126303   3.964   2.424   0.162
 8468SOL    HW226304   3.970   2.282   0.244
 8469SOL     OW26305   3.972   2.174   6.223
 8469SOL    HW126306   4.049   2.236   6.216
 8469SOL    HW226307   3.911   2.204   6.297
 8470SOL     OW26308   1.684   2.620   6.871
 8470SOL    HW126309   1.765   2.653   6.824
 8470SOL    HW226310   1.616   2.591   6.803
 8471SOL     OW26311   4.161   1.913   3.874
 8471SOL    HW126312   4.147   2.001   3.920
 8471SOL    HW226313   4.170   1.928   3.776
 8472SOL     OW26314   1.414   6.773   2.793
 8472SOL    HW126315   1.430   6.758   2.891
 8472SOL    HW226316   1.495   6.744   2.742
 8473SOL     OW26317   6.636   5.713   6.183
 8473SOL    HW126318   6.546   5.757   6.181
 8473SOL    HW226319   6.705   5.780   6.209
 8474SOL     OW26320   3.812   5.262   0.371
 8474SOL    HW126321   3.804   5.358   0.345
 8474SOL    HW226322   3.748   5.242   0.445
 8475SOL     OW26323   4.859   1.758   3.131
 8475SOL    HW126324   4.864   1.846   3.084
 8475SOL    HW226325   4.874   1.684   3.066
 8476SOL     OW26326   4.412   0.554   2.485
 8476SOL    HW126327   4.405   0.459   2.456
 8476SOL    HW226328   4.355   0.611   2.427
 8477SOL     OW26329   2.637   0.149   2.378
 8477SOL    HW126330   2.541   0.140   2.351
 8477SOL    HW226331   2.657   0.086   2.453
 8478SOL     OW26332   1.695   0.600   6.020
 8478SOL    HW126333   1.720   0.566   6.110
 8478SOL    HW226334   1.772   0.589   5.957
 8479SOL     OW26335   5.165   1.181   2.354
 8479SOL    HW126336   5.178   1.082   2.348
 8479SOL    HW226337   5.235   1.228   2.301
 8480SOL     OW26338   1.820   1.541   1.454
 8480SOL    HW126339   1.852   1.454   1.418
 8480SOL    HW226340   1.723   1.553   1.432
 8481SOL     OW26341   4.471   0.068   5.610
 8481SOL    HW126342   4.541   0.126   5.653
 8481SOL    HW226343   4.495   6.990   5.624
 8482SOL     OW26344   0.771   0.370   2.304
 8482SOL    HW126345   0.771   0.463   2.268
 8482SOL    HW226346   0.852   0.357   2.362
 8483SOL     OW26347   5.535   6.568   1.757
 8483SOL    HW126348   5.486   6.624   1.824
 8483SOL    HW226349   5.569   6.485   1.802
 8484SOL     OW26350   0.198   4.410   4.681
 8484SOL    HW126351   0.256   4.338   4.720
 8484SOL    HW226352   0.247   4.497   4.682
 8485SOL     OW26353   2.327   3.227   5.691
 8485SOL    HW126354   2.399   3.245   5.758
 8485SOL    HW226355   2.315   3.306   5.631
 8486SOL     OW26356   4.326   0.715   2.715
 8486SOL    HW126357   4.347   0.653   2.640
 8486SOL    HW226358   4.244   0.768   2.693
 8487SOL     OW26359   4.241   1.230   0.851
 8487SOL    HW126360   4.333   1.193   0.837
 8487SOL    HW226361   4.201   1.254   0.763
 8488SOL     OW26362   5.328   3.402   4.743
 8488SOL    HW126363   5.260   3.331   4.724
 8488SOL    HW226364   5.345   3.455   4.660
 8489SOL     OW26365   3.524   6.078   2.908
 8489SOL    HW126366   3.463   6.111   2.836
 8489SOL    HW226367   3.472   6.061   2.991
 8490SOL     OW26368   3.934   5.510   2.598
 8490SOL    HW126369   3.898   5.580   2.536
 8490SOL    HW226370   4.011   5.463   2.554
 8491SOL     OW26371   0.884   1.103   1.753
 8491SOL    HW126372   0.848   1.105   1.660
 8491SOL    HW226373   0.956   1.034   1.759
 8492SOL     OW26374   5.696   4.034   4.610
 8492SOL    HW126375   5.763   4.047   4.683
 8492SOL    HW226376   5.707   4.106   4.541
 8493SOL     OW26377   3.742   2.195   0.862
 8493SOL    HW126378   3.778   2.254   0.934
 8493SOL    HW226379   3.653   2.160   0.889
 8494SOL     OW26380   3.827   6.119   6.675
 8494SOL    HW126381   3.906   6.073   6.714
 8494SOL    HW226382   3.747   6.105   6.734
 8495SOL     OW26383   0.811   2.326   0.143
 8495SOL    HW126384   0.764   2.244   0.112
 8495SOL    HW226385   0.746   2.402   0.149
 8496SOL     OW26386   0.089   2.203   3.162
 8496SOL    HW126387   0.053   2.152   3.240
 8496SOL    HW226388   0.063   2.156   3.077
 8497SOL     OW26389   5.692   4.498   3.117
 8497SOL    HW126390   5.690   4.597   3.131
 8497SOL    HW226391   5.781   4.472   3.080
 8498SOL     OW26392   6.573   0.793   1.230
 8498SOL    HW126393   6.588   0.755   1.321
 8498SOL    HW226394   6.474   0.799   1.212
 8499SOL     OW26395   1.310   3.899   6.544
 8499SOL    HW126396   1.409   3.904   6.527
 8499SOL    HW226397   1.294   3.852   6.631
 8500SOL     OW26398   3.174   0.760   5.902
 8500SOL    HW126399   3.158   0.812   5.818
 8500SOL    HW226400   3.237   0.684   5.882
 8501SOL     OW26401   3.131   4.408   6.040
 8501SOL    HW126402   3.084   4.396   5.952
 8501SOL    HW226403   3.180   4.495   6.038
 8502SOL     OW26404   0.921   6.669   1.909
 8502SOL    HW126405   0.835   6.719   1.902
 8502SOL    HW226406   0.917   6.588   1.850
 8503SOL     OW26407   3.314   5.949   3.514
 8503SOL    HW126408   3.283   5.996   3.432
 8503SOL    HW226409   3.333   5.853   3.494
 8504SOL     OW26410   1.342   5.529   3.675
 8504SOL    HW126411   1.378   5.576   3.755
 8504SOL    HW226412   1.281   5.590   3.625
 8505SOL     OW26413   4.516   2.492   4.010
 8505SOL    HW126414   4.569   2.571   3.980
 8505SOL    HW226415   4.540   2.471   4.105
 8506SOL     OW26416   1.073   6.577   0.110
 8506SOL    HW126417   1.057   6.497   0.052
 8506SOL    HW226418   1.150   6.629   0.074
 8507SOL     OW26419   1.575   7.017   5.284
 8507SOL    HW126420   1.647   6.966   5.330
 8507SOL    HW226421   1.580   7.000   5.186
 8508SOL     OW26422   0.626   2.830   5.219
 8508SOL    HW126423   0.695   2.773   5.175
 8508SOL    HW226424   0.547   2.839   5.158
 8509SOL     OW26425   5.873   2.273   5.018
 8509SOL    HW126426   5.822   2.219   5.085
 8509SOL    HW226427   5.808   2.319   4.957
 8510SOL     OW26428   5.263   6.847   2.193
 8510SOL    HW126429   5.233   6.942   2.192
 8510SOL    HW226430   5.184   6.786   2.190
 8511SOL     OW26431   6.444   5.300   1.409
 8511SOL    HW126432   6.461   5.303   1.310
 8511SOL    HW226433   6.402   5.386   1.438
 8512SOL     OW26434   3.206   3.249   0.775
 8512SOL    HW126435   3.300   3.214   0.781
 8512SOL    HW226436   3.183   3.297   0.859
 8513SOL     OW26437   1.161   3.518   0.923
 8513SOL    HW126438   1.091   3.585   0.947
 8513SOL    HW226439   1.140   3.479   0.833
 8514SOL     OW26440   2.308   2.335   5.075
 8514SOL    HW126441   2.324   2.369   4.983
 8514SOL    HW226442   2.386   2.358   5.133
 8515SOL     OW26443   2.241   0.307   1.099
 8515SOL    HW126444   2.311   0.289   1.030
 8515SOL    HW226445   2.257   0.397   1.139
 8516SOL     OW26446   5.642   3.027   4.259
 8516SOL    HW126447   5.673   2.934   4.279
 8516SOL    HW226448   5.553   3.042   4.303
 8517SOL     OW26449   2.092   1.729   6.409
 8517SOL    HW126450   2.032   1.789   6.461
 8517SOL    HW226451   2.185   1.735   6.445
 8518SOL     OW26452   5.186   5.296   6.513
 8518SOL    HW126453   5.104   5.316   6.567
 8518SOL    HW226454   5.259   5.265   6.575
 8519SOL     OW26455   0.499   3.280   0.368
 8519SOL    HW126456   0.491   3.342   0.290
 8519SOL    HW226457   0.407   3.254   0.399
 8520SOL     OW26458   3.502   4.153   5.882
 8520SOL    HW126459   3.444   4.140   5.962
 8520SOL    HW226460   3.445   4.166   5.801
 8521SOL     OW26461   1.918   6.409   5.328
 8521SOL    HW126462   2.006   6.373   5.360
 8521SOL    HW226463   1.844   6.366   5.380
 8522SOL     OW26464   0.764   6.721   0.117
 8522SOL    HW126465   0.752   6.784   0.194
 8522SOL    HW226466   0.809   6.770   0.042
 8523SOL     OW26467   3.723   2.027   0.640
 8523SOL    HW126468   3.729   2.093   0.715
 8523SOL    HW226469   3.633   2.034   0.597
 8524SOL     OW26470   2.295   5.557   5.500
 8524SOL    HW126471   2.235   5.535   5.423
 8524SOL    HW226472   2.252   5.526   5.585
 8525SOL     OW26473   6.265   3.511   2.010
 8525SOL    HW126474   6.285   3.510   2.107
 8525SOL    HW226475   6.171   3.480   1.995
 8526SOL     OW26476   0.231   4.625   0.023
 8526SOL    HW126477   0.253   4.708   6.991
 8526SOL    HW226478   0.138   4.631   0.059
 8527SOL     OW26479   2.762   1.180   5.965
 8527SOL    HW126480   2.774   1.263   6.020
 8527SOL    HW226481   2.721   1.108   6.022
 8528SOL     OW26482   5.586   0.706   0.811
 8528SOL    HW126483   5.621   0.676   0.900
 8528SOL    HW226484   5.600   0.805   0.801
 8529SOL     OW26485   1.067   6.525   6.788
 8529SOL    HW126486   1.114   6.611   6.766
 8529SOL    HW226487   0.969   6.542   6.798
 8530SOL     OW26488   3.809   4.055   3.026
 8530SOL    HW126489   3.709   4.049   3.017
 8530SOL    HW226490   3.845   4.121   2.960
 8531SOL     OW26491   6.201   5.231   3.768
 8531SOL    HW126492   6.166   5.179   3.689
 8531SOL    HW226493   6.270   5.296   3.736
 8532SOL     OW26494   3.167   5.798   6.779
 8532SOL    HW126495   3.120   5.726   6.830
 8532SOL    HW226496   3.178   5.878   6.838
 8533SOL     OW26497   2.386   6.694   5.054
 8533SOL    HW126498   2.415   6.789   5.059
 8533SOL    HW226499   2.465   6.634   5.043
 8534SOL     OW26500   1.994   2.365   2.795
 8534SOL    HW126501   2.038   2.276   2.779
 8534SOL    HW226502   1.899   2.350   2.823
 8535SOL     OW26503   6.081   0.587   2.100
 8535SOL    HW126504   6.070   0.589   2.200
 8535SOL    HW226505   6.019   0.654   2.059
 8536SOL     OW26506   1.283   1.109   4.259
 8536SOL    HW126507   1.364   1.051   4.263
 8536SOL    HW226508   1.291   1.172   4.181
 8537SOL     OW26509   6.291   1.226   3.122
 8537SOL    HW126510   6.295   1.154   3.192
 8537SOL    HW226511   6.356   1.299   3.145
 8538SOL     OW26512   1.027   2.449   0.305
 8538SOL    HW126513   0.950   2.385   0.312
 8538SOL    HW226514   1.111   2.403   0.334
 8539SOL     OW26515   5.438   2.814   2.058
 8539SOL    HW126516   5.425   2.899   2.007
 8539SOL    HW226517   5.507   2.758   2.012
 8540SOL     OW26518   3.723   0.726   1.273
 8540SOL    HW126519   3.752   0.638   1.236
 8540SOL    HW226520   3.633   0.750   1.236
 8541SOL     OW26521   2.041   2.686   3.819
 8541SOL    HW126522   2.117   2.623   3.801
 8541SOL    HW226523   2.067   2.752   3.888
 8542SOL     OW26524   3.600   4.516   0.594
 8542SOL    HW126525   3.626   4.532   0.499
 8542SOL    HW226526   3.675   4.470   0.641
 8543SOL     OW26527   2.893   1.954   6.269
 8543SOL    HW126528   2.886   2.045   6.228
 8543SOL    HW226529   2.880   1.961   6.368
 8544SOL     OW26530   6.223   2.098   4.556
 8544SOL    HW126531   6.273   2.163   4.498
 8544SOL    HW226532   6.129   2.129   4.567
 8545SOL     OW26533   4.418   6.515   4.993
 8545SOL    HW126534   4.453   6.533   5.086
 8545SOL    HW226535   4.481   6.452   4.946
 8546SOL     OW26536   4.624   2.469   7.007
 8546SOL    HW126537   4.619   2.547   0.051
 8546SOL    HW226538   4.532   2.436   6.986
 8547SOL     OW26539   1.395   4.532   1.737
 8547SOL    HW126540   1.399   4.464   1.809
 8547SOL    HW226541   1.300   4.546   1.709
 8548SOL     OW26542   6.137   2.100   5.477
 8548SOL    HW126543   6.102   2.099   5.383
 8548SOL    HW226544   6.211   2.033   5.486
 8549SOL     OW26545   5.534   3.332   5.549
 8549SOL    HW126546   5.532   3.232   5.553
 8549SOL    HW226547   5.440   3.366   5.542
 8550SOL     OW26548   0.877   4.381   6.111
 8550SOL    HW126549   0.875   4.408   6.015
 8550SOL    HW226550   0.968   4.347   6.134
 8551SOL     OW26551   2.371   4.430   1.040
 8551SOL    HW126552   2.412   4.381   1.117
 8551SOL    HW226553   2.279   4.394   1.023
 8552SOL     OW26554   2.951   6.750   4.789
 8552SOL    HW126555   3.019   6.752   4.716
 8552SOL    HW226556   2.975   6.818   4.858
 8553SOL     OW26557   6.015   5.102   0.025
 8553SOL    HW126558   5.982   5.110   0.119
 8553SOL    HW226559   6.115   5.108   0.025
 8554SOL     OW26560   5.712   3.808   6.725
 8554SOL    HW126561   5.720   3.710   6.707
 8554SOL    HW226562   5.645   3.824   6.798
 8555SOL     OW26563   1.881   6.720   4.401
 8555SOL    HW126564   1.958   6.658   4.390
 8555SOL    HW226565   1.802   6.685   4.350
 8556SOL     OW26566   6.167   6.911   4.112
 8556SOL    HW126567   6.072   6.894   4.085
 8556SOL    HW226568   6.203   6.830   4.159
 8557SOL     OW26569   6.938   0.854   0.373
 8557SOL    HW126570   6.883   0.921   0.422
 8557SOL    HW226571   6.976   0.788   0.438
 8558SOL     OW26572   0.769   4.969   2.239
 8558SOL    HW126573   0.830   5.048   2.235
 8558SOL    HW226574   0.687   4.993   2.291
 8559SOL     OW26575   0.736   1.602   5.501
 8559SOL    HW126576   0.639   1.606   5.521
 8559SOL    HW226577   0.780   1.687   5.528
 8560SOL     OW26578   6.590   2.222   6.716
 8560SOL    HW126579   6.530   2.168   6.657
 8560SOL    HW226580   6.547   2.311   6.733
 8561SOL     OW26581   4.386   6.169   5.475
 8561SOL    HW126582   4.469   6.204   5.431
 8561SOL    HW226583   4.375   6.213   5.565
 8562SOL     OW26584   3.503   7.013   4.585
 8562SOL    HW126585   3.524   0.043   4.500
 8562SOL    HW226586   3.439   0.049   4.639
 8563SOL     OW26587   2.873   3.125   6.593
 8563SOL    HW126588   2.781   3.162   6.607
 8563SOL    HW226589   2.917   3.172   6.517
 8564SOL     OW26590   0.610   6.064   3.140
 8564SOL    HW126591   0.648   6.090   3.228
 8564SOL    HW226592   0.512   6.086   3.138
 8565SOL     OW26593   3.377   0.531   1.323
 8565SOL    HW126594   3.333   0.540   1.234
 8565SOL    HW226595   3.361   0.439   1.359
 8566SOL     OW26596   1.825   4.014   3.635
 8566SOL    HW126597   1.742   4.056   3.672
 8566SOL    HW226598   1.879   4.083   3.587
 8567SOL     OW26599   4.836   5.690   6.946
 8567SOL    HW126600   4.919   5.746   6.944
 8567SOL    HW226601   4.766   5.733   6.890
 8568SOL     OW26602   5.307   0.634   0.002
 8568SOL    HW126603   5.395   0.645   6.973
 8568SOL    HW226604   5.246   0.709   6.995
 8569SOL     OW26605   4.114   1.093   5.089
 8569SOL    HW126606   4.038   1.140   5.044
 8569SOL    HW226607   4.100   0.995   5.083
 8570SOL     OW26608   0.061   2.895   6.192
 8570SOL    HW126609   0.094   2.861   6.280
 8570SOL    HW226610   0.094   2.988   6.177
 8571SOL     OW26611   0.096   4.477   5.076
 8571SOL    HW126612   0.086   4.405   5.008
 8571SOL    HW226613   0.006   4.501   5.113
 8572SOL     OW26614   2.948   4.796   5.555
 8572SOL    HW126615   3.002   4.814   5.637
 8572SOL    HW226616   2.882   4.870   5.541
 8573SOL     OW26617   3.505   6.418   4.197
 8573SOL    HW126618   3.523   6.411   4.295
 8573SOL    HW226619   3.451   6.500   4.179
 8574SOL     OW26620   0.459   4.266   4.302
 8574SOL    HW126621   0.546   4.245   4.258
 8574SOL    HW226622   0.475   4.325   4.382
 8575SOL     OW26623   3.099   3.425   6.537
 8575SOL    HW126624   3.009   3.448   6.575
 8575SOL    HW226625   3.108   3.325   6.533
 8576SOL     OW26626   1.763   0.399   0.824
 8576SOL    HW126627   1.694   0.461   0.787
 8576SOL    HW226628   1.781   0.326   0.758
 8577SOL     OW26629   6.265   5.769   4.541
 8577SOL    HW126630   6.254   5.867   4.523
 8577SOL    HW226631   6.214   5.717   4.472
 8578SOL     OW26632   5.063   0.700   3.059
 8578SOL    HW126633   5.012   0.783   3.035
 8578SOL    HW226634   5.002   0.621   3.051
 8579SOL     OW26635   0.473   4.958   2.639
 8579SOL    HW126636   0.425   4.874   2.665
 8579SOL    HW226637   0.544   4.978   2.706
 8580SOL     OW26638   2.531   4.854   6.378
 8580SOL    HW126639   2.466   4.914   6.331
 8580SOL    HW226640   2.548   4.890   6.470
 8581SOL     OW26641   3.192   3.156   0.158
 8581SOL    HW126642   3.263   3.185   0.094
 8581SOL    HW226643   3.174   3.058   0.145
 8582SOL     OW26644   4.274   4.589   0.895
 8582SOL    HW126645   4.298   4.521   0.826
 8582SOL    HW226646   4.332   4.577   0.976
 8583SOL     OW26647   5.594   6.599   5.316
 8583SOL    HW126648   5.686   6.635   5.326
 8583SOL    HW226649   5.534   6.669   5.278
 8584SOL     OW26650   0.635   5.577   6.686
 8584SOL    HW126651   0.659   5.587   6.783
 8584SOL    HW226652   0.670   5.655   6.635
 8585SOL     OW26653   0.812   1.421   0.854
 8585SOL    HW126654   0.862   1.460   0.776
 8585SOL    HW226655   0.834   1.473   0.937
 8586SOL     OW26656   4.157   5.121   4.465
 8586SOL    HW126657   4.076   5.079   4.424
 8586SOL    HW226658   4.200   5.056   4.527
 8587SOL     OW26659   6.737   1.821   1.781
 8587SOL    HW126660   6.689   1.873   1.710
 8587SOL    HW226661   6.705   1.726   1.781
 8588SOL     OW26662   3.549   2.107   6.611
 8588SOL    HW126663   3.525   2.170   6.538
 8588SOL    HW226664   3.480   2.034   6.617
 8589SOL     OW26665   2.704   1.761   4.947
 8589SOL    HW126666   2.670   1.777   5.040
 8589SOL    HW226667   2.739   1.668   4.940
 8590SOL     OW26668   6.105   5.232   5.060
 8590SOL    HW126669   6.148   5.303   5.005
 8590SOL    HW226670   6.168   5.200   5.130
 8591SOL     OW26671   0.607   2.533   0.743
 8591SOL    HW126672   0.691   2.483   0.723
 8591SOL    HW226673   0.587   2.596   0.668
 8592SOL     OW26674   6.599   5.865   6.461
 8592SOL    HW126675   6.513   5.817   6.442
 8592SOL    HW226676   6.593   5.959   6.429
 8593SOL     OW26677   0.347   5.870   2.976
 8593SOL    HW126678   0.388   5.943   3.030
 8593SOL    HW226679   0.355   5.783   3.026
 8594SOL     OW26680   3.591   4.096   3.324
 8594SOL    HW126681   3.690   4.089   3.335
 8594SOL    HW226682   3.564   4.053   3.238
 8595SOL     OW26683   1.500   3.120   1.684
 8595SOL    HW126684   1.471   3.198   1.741
 8595SOL    HW226685   1.581   3.146   1.631
 8596SOL     OW26686   6.636   4.236   2.186
 8596SOL    HW126687   6.628   4.336   2.194
 8596SOL    HW226688   6.706   4.214   2.118
 8597SOL     OW26689   2.633   2.230   0.402
 8597SOL    HW126690   2.595   2.219   0.310
 8597SOL    HW226691   2.722   2.183   0.407
 8598SOL     OW26692   5.601   3.650   2.091
 8598SOL    HW126693   5.655   3.627   2.010
 8598SOL    HW226694   5.543   3.573   2.115
 8599SOL     OW26695   0.505   3.515   0.785
 8599SOL    HW126696   0.519   3.417   0.774
 8599SOL    HW226697   0.579   3.565   0.740
 8600SOL     OW26698   6.382   2.813   6.152
 8600SOL    HW126699   6.432   2.899   6.157
 8600SOL    HW226700   6.429   2.743   6.205
 8601SOL     OW26701   0.218   0.497   5.535
 8601SOL    HW126702   0.156   0.474   5.609
 8601SOL    HW226703   0.166   0.518   5.452
 8602SOL     OW26704   1.866   6.410   1.829
 8602SOL    HW126705   1.827   6.484   1.774
 8602SOL    HW226706   1.840   6.322   1.790
 8603SOL     OW26707   4.873   3.302   1.488
 8603SOL    HW126708   4.963   3.261   1.502
 8603SOL    HW226709   4.802   3.239   1.520
 8604SOL     OW26710   5.854   2.416   3.086
 8604SOL    HW126711   5.758   2.409   3.059
 8604SOL    HW226712   5.884   2.512   3.082
 8605SOL     OW26713   2.965   5.762   1.908
 8605SOL    HW126714   2.993   5.828   1.839
 8605SOL    HW226715   2.979   5.669   1.873
 8606SOL     OW26716   3.760   5.654   5.279
 8606SOL    HW126717   3.850   5.611   5.273
 8606SOL    HW226718   3.746   5.688   5.372
 8607SOL     OW26719   3.250   5.949   1.252
 8607SOL    HW126720   3.215   5.856   1.251
 8607SOL    HW226721   3.185   6.009   1.297
 8608SOL     OW26722   5.876   6.646   1.937
 8608SOL    HW126723   5.970   6.635   1.905
 8608SOL    HW226724   5.876   6.655   2.037
 8609SOL     OW26725   4.555   0.510   6.206
 8609SOL    HW126726   4.540   0.572   6.130
 8609SOL    HW226727   4.613   0.434   6.177
 8610SOL     OW26728   0.328   6.497   5.765
 8610SOL    HW126729   0.341   6.569   5.697
 8610SOL    HW226730   0.416   6.457   5.790
 8611SOL     OW26731   1.570   1.757   3.272
 8611SOL    HW126732   1.590   1.682   3.336
 8611SOL    HW226733   1.540   1.837   3.323
 8612SOL     OW26734   5.078   2.997   4.704
 8612SOL    HW126735   5.013   2.928   4.735
 8612SOL    HW226736   5.106   3.054   4.782
 8613SOL     OW26737   1.375   0.815   0.359
 8613SOL    HW126738   1.438   0.853   0.291
 8613SOL    HW226739   1.281   0.828   0.328
 8614SOL     OW26740   1.786   2.018   3.251
 8614SOL    HW126741   1.691   2.002   3.279
 8614SOL    HW226742   1.799   2.116   3.236
 8615SOL     OW26743   4.294   1.969   5.386
 8615SOL    HW126744   4.327   2.058   5.353
 8615SOL    HW226745   4.353   1.937   5.460
 8616SOL     OW26746   1.102   3.124   0.214
 8616SOL    HW126747   1.002   3.132   0.210
 8616SOL    HW226748   1.131   3.049   0.155
 8617SOL     OW26749   5.578   2.346   0.587
 8617SOL    HW126750   5.513   2.412   0.550
 8617SOL    HW226751   5.610   2.376   0.676
 8618SOL     OW26752   3.948   1.085   2.663
 8618SOL    HW126753   3.926   1.014   2.730
 8618SOL    HW226754   3.884   1.161   2.673
 8619SOL     OW26755   4.114   6.120   1.074
 8619SOL    HW126756   4.161   6.052   1.017
 8619SOL    HW226757   4.127   6.097   1.170
 8620SOL     OW26758   6.411   5.760   3.483
 8620SOL    HW126759   6.410   5.753   3.384
 8620SOL    HW226760   6.372   5.848   3.511
 8621SOL     OW26761   5.053   0.613   3.796
 8621SOL    HW126762   4.975   0.580   3.742
 8621SOL    HW226763   5.100   0.685   3.745
 8622SOL     OW26764   5.250   4.945   6.824
 8622SOL    HW126765   5.337   4.945   6.775
 8622SOL    HW226766   5.175   4.935   6.759
 8623SOL     OW26767   6.617   2.348   3.949
 8623SOL    HW126768   6.593   2.311   4.039
 8623SOL    HW226769   6.687   2.418   3.960
 8624SOL     OW26770   6.863   3.530   3.594
 8624SOL    HW126771   6.797   3.601   3.617
 8624SOL    HW226772   6.859   3.511   3.496
 8625SOL     OW26773   3.679   1.155   6.569
 8625SOL    HW126774   3.611   1.157   6.642
 8625SOL    HW226775   3.634   1.138   6.481
 8626SOL     OW26776   2.877   3.358   2.487
 8626SOL    HW126777   2.856   3.298   2.409
 8626SOL    HW226778   2.914   3.304   2.562
 8627SOL     OW26779   2.602   0.676   6.865
 8627SOL    HW126780   2.568   0.769   6.877
 8627SOL    HW226781   2.699   0.672   6.891
 8628SOL     OW26782   6.053   1.291   0.793
 8628SOL    HW126783   5.996   1.325   0.718
 8628SOL    HW226784   6.111   1.366   0.827
 8629SOL     OW26785   1.237   5.308   3.777
 8629SOL    HW126786   1.294   5.229   3.755
 8629SOL    HW226787   1.285   5.392   3.751
 8630SOL     OW26788   5.601   4.930   3.795
 8630SOL    HW126789   5.537   5.005   3.809
 8630SOL    HW226790   5.613   4.880   3.881
 8631SOL     OW26791   4.514   6.326   4.113
 8631SOL    HW126792   4.444   6.365   4.173
 8631SOL    HW226793   4.488   6.233   4.087
 8632SOL     OW26794   3.853   0.301   3.322
 8632SOL    HW126795   3.839   0.235   3.248
 8632SOL    HW226796   3.823   0.261   3.409
 8633SOL     OW26797   6.602   6.792   3.050
 8633SOL    HW126798   6.655   6.864   3.094
 8633SOL    HW226799   6.507   6.822   3.038
 8634SOL     OW26800   6.282   5.857   1.625
 8634SOL    HW126801   6.250   5.863   1.531
 8634SOL    HW226802   6.377   5.826   1.626
 8635SOL     OW26803   6.584   3.598   5.436
 8635SOL    HW126804   6.555   3.690   5.409
 8635SOL    HW226805   6.608   3.598   5.533
 8636SOL     OW26806   5.349   5.403   0.584
 8636SOL    HW126807   5.333   5.363   0.674
 8636SOL    HW226808   5.433   5.365   0.545
 8637SOL     OW26809   1.810   1.011   1.492
 8637SOL    HW126810   1.904   0.989   1.516
 8637SOL    HW226811   1.785   1.100   1.531
 8638SOL     OW26812   5.315   4.981   0.977
 8638SOL    HW126813   5.359   4.900   1.017
 8638SOL    HW226814   5.327   5.059   1.038
 8639SOL     OW26815   6.180   2.727   2.030
 8639SOL    HW126816   6.227   2.720   1.942
 8639SOL    HW226817   6.247   2.724   2.104
 8640SOL     OW26818   4.809   6.348   1.557
 8640SOL    HW126819   4.902   6.342   1.594
 8640SOL    HW226820   4.761   6.262   1.572
 8641SOL     OW26821   5.304   4.998   3.152
 8641SOL    HW126822   5.331   4.904   3.134
 8641SOL    HW226823   5.238   5.027   3.082
 8642SOL     OW26824   4.405   1.589   1.740
 8642SOL    HW126825   4.390   1.542   1.653
 8642SOL    HW226826   4.327   1.570   1.801
 8643SOL     OW26827   4.553   0.329   0.010
 8643SOL    HW126828   4.521   0.328   6.933
 8643SOL    HW226829   4.634   0.271   0.019
 8644SOL     OW26830   6.863   3.459   5.340
 8644SOL    HW126831   6.792   3.468   5.271
 8644SOL    HW226832   6.953   3.454   5.296
 8645SOL     OW26833   6.199   4.006   1.793
 8645SOL    HW126834   6.280   4.064   1.792
 8645SOL    HW226835   6.121   4.058   1.829
 8646SOL     OW26836   5.158   6.384   0.789
 8646SOL    HW126837   5.126   6.471   0.826
 8646SOL    HW226838   5.111   6.365   0.703
 8647SOL     OW26839   4.352   4.667   2.033
 8647SOL    HW126840   4.426   4.693   1.972
 8647SOL    HW226841   4.266   4.664   1.981
 8648SOL     OW26842   5.785   1.437   4.570
 8648SOL    HW126843   5.787   1.349   4.522
 8648SOL    HW226844   5.783   1.511   4.503
 8649SOL     OW26845   6.724   4.628   5.989
 8649SOL    HW126846   6.799   4.694   5.989
 8649SOL    HW226847   6.652   4.659   6.052
 8650SOL     OW26848   0.209   4.993   1.977
 8650SOL    HW126849   0.293   5.011   2.027
 8650SOL    HW226850   0.230   4.944   1.892
 8651SOL     OW26851   3.974   3.020   1.230
 8651SOL    HW126852   4.070   2.993   1.232
 8651SOL    HW226853   3.967   3.120   1.228
 8652SOL     OW26854   1.165   3.409   3.745
 8652SOL    HW126855   1.245   3.352   3.761
 8652SOL    HW226856   1.168   3.445   3.652
 8653SOL     OW26857   5.126   2.991   6.701
 8653SOL    HW126858   5.047   3.050   6.689
 8653SOL    HW226859   5.114   2.907   6.648
 8654SOL     OW26860   0.671   5.231   1.895
 8654SOL    HW126861   0.742   5.163   1.875
 8654SOL    HW226862   0.677   5.306   1.829
 8655SOL     OW26863   6.380   6.442   2.371
 8655SOL    HW126864   6.445   6.453   2.446
 8655SOL    HW226865   6.288   6.460   2.403
 8656SOL     OW26866   6.450   1.851   1.199
 8656SOL    HW126867   6.354   1.824   1.209
 8656SOL    HW226868   6.457   1.921   1.128
 8657SOL     OW26869   2.501   4.667   0.688
 8657SOL    HW126870   2.487   4.679   0.786
 8657SOL    HW226871   2.419   4.627   0.647
 8658SOL     OW26872   0.630   5.567   6.263
 8658SOL    HW126873   0.594   5.660   6.268
 8658SOL    HW226874   0.618   5.531   6.170
 8659SOL     OW26875   4.084   6.985   3.886
 8659SOL    HW126876   4.081   0.054   3.935
 8659SOL    HW226877   3.996   6.938   3.898
 8660SOL     OW26878   5.715   4.903   0.288
 8660SOL    HW126879   5.653   4.884   0.212
 8660SOL    HW226880   5.807   4.874   0.264
 8661SOL     OW26881   6.658   3.182   1.663
 8661SOL    HW126882   6.628   3.269   1.625
 8661SOL    HW226883   6.580   3.120   1.671
 8662SOL     OW26884   0.768   0.094   0.404
 8662SOL    HW126885   0.725   0.004   0.415
 8662SOL    HW226886   0.863   0.089   0.436
 8663SOL     OW26887   2.222   5.915   0.925
 8663SOL    HW126888   2.184   5.826   0.946
 8663SOL    HW226889   2.305   5.930   0.980
 8664SOL     OW26890   4.680   5.234   1.846
 8664SOL    HW126891   4.624   5.285   1.911
 8664SOL    HW226892   4.674   5.277   1.756
 8665SOL     OW26893   5.188   5.552   4.514
 8665SOL    HW126894   5.198   5.469   4.569
 8665SOL    HW226895   5.170   5.527   4.419
 8666SOL     OW26896   6.161   4.312   4.071
 8666SOL    HW126897   6.181   4.374   4.147
 8666SOL    HW226898   6.187   4.219   4.097
 8667SOL     OW26899   5.865   2.649   3.372
 8667SOL    HW126900   5.776   2.604   3.359
 8667SOL    HW226901   5.855   2.747   3.354
 8668SOL     OW26902   3.467   0.913   4.148
 8668SOL    HW126903   3.384   0.966   4.170
 8668SOL    HW226904   3.542   0.977   4.128
 8669SOL     OW26905   4.249   6.769   5.608
 8669SOL    HW126906   4.297   6.848   5.570
 8669SOL    HW226907   4.151   6.790   5.614
 8670SOL     OW26908   4.143   4.790   2.689
 8670SOL    HW126909   4.169   4.715   2.628
 8670SOL    HW226910   4.181   4.876   2.655
 8671SOL     OW26911   6.124   6.418   2.495
 8671SOL    HW126912   6.073   6.344   2.539
 8671SOL    HW226913   6.060   6.487   2.462
 8672SOL     OW26914   3.640   5.203   5.624
 8672SOL    HW126915   3.586   5.163   5.698
 8672SOL    HW226916   3.714   5.140   5.599
 8673SOL     OW26917   4.920   2.284   0.110
 8673SOL    HW126918   4.998   2.223   0.095
 8673SOL    HW226919   4.847   2.234   0.158
 8674SOL     OW26920   0.734   6.978   2.927
 8674SOL    HW126921   0.721   0.059   2.935
 8674SOL    HW226922   0.778   6.944   3.011
 8675SOL     OW26923   2.130   2.517   2.376
 8675SOL    HW126924   2.149   2.613   2.355
 8675SOL    HW226925   2.201   2.481   2.437
 8676SOL     OW26926   4.141   0.776   4.214
 8676SOL    HW126927   4.227   0.824   4.200
 8676SOL    HW226928   4.109   0.792   4.308
 8677SOL     OW26929   1.924   4.275   5.184
 8677SOL    HW126930   1.895   4.369   5.167
 8677SOL    HW226931   2.010   4.257   5.136
 8678SOL     OW26932   1.509   0.917   6.334
 8678SOL    HW126933   1.457   0.852   6.279
 8678SOL    HW226934   1.499   0.895   6.431
 8679SOL     OW26935   6.295   1.634   4.720
 8679SOL    HW126936   6.223   1.585   4.671
 8679SOL    HW226937   6.326   1.712   4.665
 8680SOL     OW26938   1.115   3.398   0.679
 8680SOL    HW126939   1.155   3.306   0.682
 8680SOL    HW226940   1.150   3.447   0.599
 8681SOL     OW26941   4.152   3.618   1.238
 8681SOL    HW126942   4.171   3.566   1.321
 8681SOL    HW226943   4.119   3.556   1.167
 8682SOL     OW26944   1.476   5.387   2.848
 8682SOL    HW126945   1.520   5.299   2.862
 8682SOL    HW226946   1.431   5.388   2.758
 8683SOL     OW26947   5.261   2.640   6.239
 8683SOL    HW126948   5.335   2.683   6.290
 8683SOL    HW226949   5.203   2.711   6.199
 8684SOL     OW26950   6.923   2.659   4.340
 8684SOL    HW126951   6.935   2.569   4.296
 8684SOL    HW226952   6.876   2.720   4.276
 8685SOL     OW26953   0.383   1.302   5.593
 8685SOL    HW126954   0.358   1.384   5.541
 8685SOL    HW226955   0.447   1.246   5.539
 8686SOL     OW26956   6.459   1.655   3.809
 8686SOL    HW126957   6.538   1.614   3.765
 8686SOL    HW226958   6.452   1.751   3.782
 8687SOL     OW26959   3.664   0.813   2.729
 8687SOL    HW126960   3.746   0.839   2.780
 8687SOL    HW226961   3.583   0.840   2.781
 8688SOL     OW26962   1.212   0.144   2.194
 8688SOL    HW126963   1.265   0.088   2.130
 8688SOL    HW226964   1.274   0.189   2.258
 8689SOL     OW26965   4.435   5.266   0.774
 8689SOL    HW126966   4.430   5.299   0.680
 8689SOL    HW226967   4.515   5.206   0.784
 8690SOL     OW26968   1.382   1.053   3.041
 8690SOL    HW126969   1.465   1.013   3.001
 8690SOL    HW226970   1.337   1.110   2.972
 8691SOL     OW26971   5.558   1.398   0.686
 8691SOL    HW126972   5.626   1.457   0.643
 8691SOL    HW226973   5.570   1.398   0.785
 8692SOL     OW26974   1.654   1.565   3.753
 8692SOL    HW126975   1.624   1.636   3.690
 8692SOL    HW226976   1.653   1.601   3.846
 8693SOL     OW26977   5.277   2.144   6.837
 8693SOL    HW126978   5.371   2.174   6.850
 8693SOL    HW226979   5.239   2.186   6.755
 8694SOL     OW26980   3.679   6.687   6.954
 8694SOL    HW126981   3.707   6.783   6.945
 8694SOL    HW226982   3.644   6.671   0.028
 8695SOL     OW26983   4.603   4.262   5.204
 8695SOL    HW126984   4.668   4.227   5.136
 8695SOL    HW226985   4.522   4.296   5.157
 8696SOL     OW26986   1.944   5.293   1.024
 8696SOL    HW126987   1.954   5.378   1.075
 8696SOL    HW226988   1.854   5.253   1.043
 8697SOL     OW26989   4.919   5.069   6.489
 8697SOL    HW126990   4.824   5.061   6.518
 8697SOL    HW226991   4.933   5.015   6.406
 8698SOL     OW26992   5.771   6.090   4.475
 8698SOL    HW126993   5.724   6.026   4.415
 8698SOL    HW226994   5.717   6.175   4.482
 8699SOL     OW26995   1.213   1.722   5.263
 8699SOL    HW126996   1.131   1.764   5.301
 8699SOL    HW226997   1.232   1.761   5.172
 8700SOL     OW26998   2.799   2.161   5.757
 8700SOL    HW126999   2.784   2.187   5.661
 8700SOL    HW227000   2.752   2.227   5.816
 8701SOL     OW27001   1.219   2.141   3.653
 8701SOL    HW127002   1.193   2.054   3.693
 8701SOL    HW227003   1.319   2.146   3.646
 8702SOL     OW27004   5.079   5.805   6.994
 8702SOL    HW127005   5.125   5.864   0.043
 8702SOL    HW227006   5.148   5.763   6.935
 8703SOL     OW27007   1.025   5.661   1.067
 8703SOL    HW127008   1.094   5.676   0.996
 8703SOL    HW227009   0.981   5.747   1.091
 8704SOL     OW27010   0.370   4.223   2.021
 8704SOL    HW127011   0.327   4.257   1.937
 8704SOL    HW227012   0.393   4.126   2.009
 8705SOL     OW27013   4.807   6.660   4.347
 8705SOL    HW127014   4.768   6.668   4.439
 8705SOL    HW227015   4.904   6.686   4.349
 8706SOL     OW27016   5.284   1.801   6.057
 8706SOL    HW127017   5.246   1.853   6.133
 8706SOL    HW227018   5.225   1.809   5.977
 8707SOL     OW27019   5.028   2.028   6.040
 8707SOL    HW127020   4.930   2.008   6.039
 8707SOL    HW227021   5.061   2.028   6.134
 8708SOL     OW27022   4.029   1.958   0.577
 8708SOL    HW127023   4.102   1.954   0.509
 8708SOL    HW227024   4.069   1.956   0.669
 8709SOL     OW27025   6.157   3.567   0.591
 8709SOL    HW127026   6.085   3.636   0.597
 8709SOL    HW227027   6.181   3.536   0.683
 8710SOL     OW27028   6.638   3.311   3.964
 8710SOL    HW127029   6.623   3.363   3.880
 8710SOL    HW227030   6.550   3.293   4.008
 8711SOL     OW27031   0.744   1.997   3.950
 8711SOL    HW127032   0.682   1.950   4.013
 8711SOL    HW227033   0.696   2.071   3.904
 8712SOL     OW27034   3.680   0.971   6.278
 8712SOL    HW127035   3.627   1.018   6.208
 8712SOL    HW227036   3.777   0.973   6.253
 8713SOL     OW27037   5.781   4.550   2.751
 8713SOL    HW127038   5.724   4.473   2.779
 8713SOL    HW227039   5.734   4.636   2.771
 8714SOL     OW27040   1.795   1.767   4.464
 8714SOL    HW127041   1.814   1.864   4.446
 8714SOL    HW227042   1.778   1.754   4.561
 8715SOL     OW27043   5.838   1.165   2.117
 8715SOL    HW127044   5.925   1.199   2.083
 8715SOL    HW227045   5.823   1.198   2.210
 8716SOL     OW27046   0.676   1.236   1.841
 8716SOL    HW127047   0.690   1.326   1.882
 8716SOL    HW227048   0.764   1.189   1.831
 8717SOL     OW27049   4.295   3.603   0.429
 8717SOL    HW127050   4.346   3.527   0.388
 8717SOL    HW227051   4.208   3.568   0.466
 8718SOL     OW27052   0.069   2.715   5.591
 8718SOL    HW127053   0.047   2.711   5.688
 8718SOL    HW227054   0.012   2.785   5.547
 8719SOL     OW27055   6.345   0.722   5.655
 8719SOL    HW127056   6.282   0.746   5.581
 8719SOL    HW227057   6.303   0.745   5.743
 8720SOL     OW27058   4.720   3.635   5.933
 8720SOL    HW127059   4.759   3.612   6.022
 8720SOL    HW227060   4.778   3.703   5.888
 8721SOL     OW27061   6.911   0.815   4.706
 8721SOL    HW127062   6.909   0.792   4.609
 8721SOL    HW227063   6.946   0.738   4.759
 8722SOL     OW27064   2.917   3.021   0.888
 8722SOL    HW127065   2.870   2.944   0.929
 8722SOL    HW227066   3.015   3.001   0.882
 8723SOL     OW27067   0.321   5.048   0.199
 8723SOL    HW127068   0.248   5.105   0.238
 8723SOL    HW227069   0.320   4.959   0.242
 8724SOL     OW27070   5.444   5.903   6.265
 8724SOL    HW127071   5.456   5.823   6.323
 8724SOL    HW227072   5.501   5.978   6.300
 8725SOL     OW27073   1.899   6.048   1.472
 8725SOL    HW127074   1.907   6.123   1.406
 8725SOL    HW227075   1.990   6.010   1.491
 8726SOL     OW27076   6.561   0.011   1.040
 8726SOL    HW127077   6.630   0.011   0.967
 8726SOL    HW227078   6.510   6.943   1.036
 8727SOL     OW27079   6.179   6.273   1.321
 8727SOL    HW127080   6.098   6.221   1.349
 8727SOL    HW227081   6.153   6.368   1.306
 8728SOL     OW27082   2.322   6.559   5.391
 8728SOL    HW127083   2.417   6.556   5.361
 8728SOL    HW227084   2.262   6.537   5.315
 8729SOL     OW27085   5.370   6.287   4.729
 8729SOL    HW127086   5.274   6.316   4.736
 8729SOL    HW227087   5.373   6.191   4.701
 8730SOL     OW27088   6.797   6.431   1.073
 8730SOL    HW127089   6.808   6.442   1.172
 8730SOL    HW227090   6.852   6.354   1.041
 8731SOL     OW27091   0.630   1.781   2.283
 8731SOL    HW127092   0.554   1.805   2.222
 8731SOL    HW227093   0.635   1.847   2.358
 8732SOL     OW27094   5.882   5.685   1.826
 8732SOL    HW127095   5.860   5.734   1.911
 8732SOL    HW227096   5.850   5.591   1.833
 8733SOL     OW27097   7.009   6.743   1.554
 8733SOL    HW127098   0.015   6.654   1.594
 8733SOL    HW227099   6.911   6.747   1.537
 8734SOL     OW27100   0.166   5.668   0.198
 8734SOL    HW127101   0.151   5.625   0.287
 8734SOL    HW227102   0.091   5.732   0.179
 8735SOL     OW27103   6.834   2.819   6.251
 8735SOL    HW127104   6.793   2.910   6.250
 8735SOL    HW227105   6.931   2.826   6.228
 8736SOL     OW27106   0.209   4.568   6.156
 8736SOL    HW127107   0.291   4.512   6.168
 8736SOL    HW227108   0.223   4.631   6.079
 8737SOL     OW27109   3.665   6.496   6.627
 8737SOL    HW127110   3.671   6.399   6.604
 8737SOL    HW227111   3.736   6.547   6.579
 8738SOL     OW27112   0.864   3.540   5.309
 8738SOL    HW127113   0.836   3.479   5.384
 8738SOL    HW227114   0.885   3.630   5.346
 8739SOL     OW27115   1.267   3.296   5.587
 8739SOL    HW127116   1.282   3.239   5.505
 8739SOL    HW227117   1.314   3.383   5.576
 8740SOL     OW27118   1.247   6.463   1.473
 8740SOL    HW127119   1.211   6.554   1.455
 8740SOL    HW227120   1.177   6.395   1.452
 8741SOL     OW27121   1.690   3.909   2.040
 8741SOL    HW127122   1.670   3.861   1.955
 8741SOL    HW227123   1.784   3.890   2.069
 8742SOL     OW27124   4.908   6.431   2.150
 8742SOL    HW127125   4.816   6.457   2.179
 8742SOL    HW227126   4.902   6.380   2.064
 8743SOL     OW27127   2.161   4.735   3.312
 8743SOL    HW127128   2.223   4.685   3.252
 8743SOL    HW227129   2.088   4.777   3.258
 8744SOL     OW27130   3.462   3.609   5.498
 8744SOL    HW127131   3.534   3.543   5.476
 8744SOL    HW227132   3.378   3.583   5.451
 8745SOL     OW27133   6.162   1.539   6.927
 8745SOL    HW127134   6.131   1.456   6.880
 8745SOL    HW227135   6.194   1.515   0.001
 8746SOL     OW27136   5.116   4.401   5.243
 8746SOL    HW127137   5.210   4.397   5.210
 8746SOL    HW227138   5.058   4.443   5.174
 8747SOL     OW27139   0.892   2.523   4.084
 8747SOL    HW127140   0.930   2.487   4.169
 8747SOL    HW227141   0.864   2.618   4.098
 8748SOL     OW27142   2.956   6.938   0.389
 8748SOL    HW127143   3.045   6.975   0.363
 8748SOL    HW227144   2.907   6.907   0.307
 8749SOL     OW27145   3.809   1.575   3.917
 8749SOL    HW127146   3.884   1.520   3.879
 8749SOL    HW227147   3.832   1.672   3.908
 8750SOL     OW27148   1.800   0.610   5.292
 8750SOL    HW127149   1.720   0.550   5.292
 8750SOL    HW227150   1.867   0.576   5.226
 8751SOL     OW27151   2.050   0.134   3.295
 8751SOL    HW127152   2.043   0.215   3.237
 8751SOL    HW227153   2.119   0.149   3.365
 8752SOL     OW27154   2.437   1.821   5.882
 8752SOL    HW127155   2.430   1.753   5.810
 8752SOL    HW227156   2.416   1.779   5.970
 8753SOL     OW27157   6.028   1.235   4.851
 8753SOL    HW127158   6.055   1.221   4.756
 8753SOL    HW227159   6.104   1.208   4.911
 8754SOL     OW27160   1.971   0.810   4.952
 8754SOL    HW127161   1.881   0.851   4.938
 8754SOL    HW227162   2.021   0.809   4.865
 8755SOL     OW27163   2.220   2.031   1.301
 8755SOL    HW127164   2.190   2.095   1.373
 8755SOL    HW227165   2.142   2.009   1.242
 8756SOL     OW27166   2.225   3.958   4.135
 8756SOL    HW127167   2.223   3.989   4.230
 8756SOL    HW227168   2.194   4.032   4.075
 8757SOL     OW27169   4.086   6.021   4.285
 8757SOL    HW127170   3.998   6.022   4.331
 8757SOL    HW227171   4.159   6.018   4.354
 8758SOL     OW27172   5.253   6.527   2.375
 8758SOL    HW127173   5.262   6.620   2.409
 8758SOL    HW227174   5.280   6.462   2.446
 8759SOL     OW27175   5.181   1.539   5.525
 8759SOL    HW127176   5.232   1.459   5.557
 8759SOL    HW227177   5.092   1.510   5.489
 8760SOL     OW27178   1.598   3.202   3.681
 8760SOL    HW127179   1.570   3.293   3.712
 8760SOL    HW227180   1.693   3.205   3.649
 8761SOL     OW27181   5.288   6.065   1.387
 8761SOL    HW127182   5.315   6.054   1.482
 8761SOL    HW227183   5.285   5.976   1.342
 8762SOL     OW27184   0.752   3.758   0.295
 8762SOL    HW127185   0.795   3.675   0.332
 8762SOL    HW227186   0.744   3.825   0.369
 8763SOL     OW27187   6.892   5.961   6.285
 8763SOL    HW127188   6.892   5.940   6.383
 8763SOL    HW227189   6.891   6.060   6.272
 8764SOL     OW27190   3.921   1.729   5.564
 8764SOL    HW127191   3.866   1.653   5.531
 8764SOL    HW227192   3.932   1.721   5.663
 8765SOL     OW27193   6.696   0.159   4.921
 8765SOL    HW127194   6.639   0.208   4.855
 8765SOL    HW227195   6.640   0.133   5.000
 8766SOL     OW27196   2.163   4.541   2.315
 8766SOL    HW127197   2.076   4.531   2.267
 8766SOL    HW227198   2.233   4.485   2.269
 8767SOL     OW27199   4.761   1.426   5.044
 8767SOL    HW127200   4.671   1.437   5.086
 8767SOL    HW227201   4.755   1.447   4.947
 8768SOL     OW27202   0.842   3.983   0.004
 8768SOL    HW127203   0.883   4.050   6.961
 8768SOL    HW227204   0.867   4.005   0.099
 8769SOL     OW27205   1.667   0.887   5.564
 8769SOL    HW127206   1.656   0.788   5.579
 8769SOL    HW227207   1.759   0.906   5.531
 8770SOL     OW27208   5.415   1.290   3.309
 8770SOL    HW127209   5.368   1.203   3.324
 8770SOL    HW227210   5.474   1.310   3.387
 8771SOL     OW27211   2.530   2.435   5.199
 8771SOL    HW127212   2.524   2.524   5.243
 8771SOL    HW227213   2.626   2.415   5.177
 8772SOL     OW27214   5.894   5.971   6.495
 8772SOL    HW127215   5.816   5.909   6.497
 8772SOL    HW227216   5.887   6.035   6.572
 8773SOL     OW27217   3.159   1.837   3.027
 8773SOL    HW127218   3.238   1.826   2.966
 8773SOL    HW227219   3.129   1.747   3.060
 8774SOL     OW27220   1.679   0.768   0.463
 8774SOL    HW127221   1.763   0.743   0.415
 8774SOL    HW227222   1.621   0.822   0.401
 8775SOL     OW27223   6.459   6.437   3.751
 8775SOL    HW127224   6.380   6.496   3.732
 8775SOL    HW227225   6.500   6.464   3.839
 8776SOL     OW27226   3.220   3.992   4.604
 8776SOL    HW127227   3.152   4.060   4.632
 8776SOL    HW227228   3.289   4.035   4.546
 8777SOL     OW27229   6.392   5.790   2.451
 8777SOL    HW127230   6.295   5.774   2.434
 8777SOL    HW227231   6.446   5.729   2.393
 8778SOL     OW27232   1.103   2.224   2.984
 8778SOL    HW127233   1.193   2.194   3.015
 8778SOL    HW227234   1.044   2.238   3.063
 8779SOL     OW27235   1.657   4.709   0.936
 8779SOL    HW127236   1.666   4.808   0.948
 8779SOL    HW227237   1.561   4.683   0.943
 8780SOL     OW27238   2.087   6.269   4.562
 8780SOL    HW127239   2.139   6.299   4.481
 8780SOL    HW227240   2.082   6.345   4.627
 8781SOL     OW27241   0.815   2.176   2.950
 8781SOL    HW127242   0.898   2.201   3.000
 8781SOL    HW227243   0.828   2.089   2.903
 8782SOL     OW27244   5.025   1.620   3.332
 8782SOL    HW127245   5.049   1.705   3.286
 8782SOL    HW227246   4.994   1.553   3.265
 8783SOL     OW27247   5.971   2.438   6.146
 8783SOL    HW127248   5.994   2.524   6.101
 8783SOL    HW227249   5.880   2.446   6.186
 8784SOL     OW27250   5.248   4.142   5.823
 8784SOL    HW127251   5.155   4.174   5.803
 8784SOL    HW227252   5.313   4.188   5.763
 8785SOL     OW27253   5.128   4.249   6.428
 8785SOL    HW127254   5.220   4.212   6.435
 8785SOL    HW227255   5.104   4.259   6.331
 8786SOL     OW27256   1.328   6.412   0.468
 8786SOL    HW127257   1.313   6.344   0.395
 8786SOL    HW227258   1.262   6.486   0.458
 8787SOL     OW27259   1.211   2.476   6.821
 8787SOL    HW127260   1.146   2.422   6.875
 8787SOL    HW227261   1.166   2.511   6.739
 8788SOL     OW27262   1.483   1.975   5.311
 8788SOL    HW127263   1.399   2.002   5.358
 8788SOL    HW227264   1.509   2.046   5.245
 8789SOL     OW27265   0.931   0.662   0.442
 8789SOL    HW127266   0.939   0.576   0.492
 8789SOL    HW227267   0.853   0.714   0.477
 8790SOL     OW27268   4.133   1.614   6.869
 8790SOL    HW127269   4.084   1.567   6.942
 8790SOL    HW227270   4.158   1.549   6.798
 8791SOL     OW27271   5.111   5.990   5.578
 8791SOL    HW127272   5.120   5.929   5.500
 8791SOL    HW227273   5.092   6.083   5.546
 8792SOL     OW27274   5.521   6.839   2.858
 8792SOL    HW127275   5.491   6.934   2.847
 8792SOL    HW227276   5.520   6.793   2.769
 8793SOL     OW27277   1.358   4.571   3.109
 8793SOL    HW127278   1.407   4.632   3.048
 8793SOL    HW227279   1.267   4.607   3.128
 8794SOL     OW27280   2.700   5.819   2.886
 8794SOL    HW127281   2.617   5.766   2.906
 8794SOL    HW227282   2.774   5.756   2.861
 8795SOL     OW27283   2.626   5.735   5.284
 8795SOL    HW127284   2.569   5.683   5.222
 8795SOL    HW227285   2.591   5.727   5.377
 8796SOL     OW27286   5.904   2.683   5.651
 8796SOL    HW127287   5.919   2.754   5.719
 8796SOL    HW227288   5.898   2.725   5.560
 8797SOL     OW27289   1.255   6.079   6.748
 8797SOL    HW127290   1.302   6.075   6.836
 8797SOL    HW227291   1.189   6.004   6.743
 8798SOL     OW27292   3.531   3.300   5.854
 8798SOL    HW127293   3.443   3.268   5.822
 8798SOL    HW227294   3.596   3.304   5.778
 8799SOL     OW27295   3.287   0.368   3.234
 8799SOL    HW127296   3.329   0.459   3.231
 8799SOL    HW227297   3.201   0.370   3.183
 8800SOL     OW27298   4.584   5.039   0.756
 8800SOL    HW127299   4.628   5.013   0.670
 8800SOL    HW227300   4.507   4.978   0.774
 8801SOL     OW27301   3.373   6.570   5.760
 8801SOL    HW127302   3.276   6.552   5.743
 8801SOL    HW227303   3.419   6.592   5.674
 8802SOL     OW27304   2.129   6.359   1.738
 8802SOL    HW127305   2.140   6.456   1.718
 8802SOL    HW227306   2.033   6.340   1.758
 8803SOL     OW27307   4.227   6.028   1.278
 8803SOL    HW127308   4.270   5.939   1.258
 8803SOL    HW227309   4.274   6.071   1.355
 8804SOL     OW27310   2.977   1.235   1.168
 8804SOL    HW127311   3.068   1.203   1.193
 8804SOL    HW227312   2.977   1.266   1.073
 8805SOL     OW27313   0.372   0.518   3.124
 8805SOL    HW127314   0.452   0.529   3.064
 8805SOL    HW227315   0.346   0.422   3.128
 8806SOL     OW27316   1.844   5.079   0.648
 8806SOL    HW127317   1.909   5.148   0.618
 8806SOL    HW227318   1.765   5.123   0.691
 8807SOL     OW27319   2.052   5.925   6.612
 8807SOL    HW127320   1.999   6.000   6.651
 8807SOL    HW227321   2.132   5.961   6.564
 8808SOL     OW27322   5.509   1.877   0.821
 8808SOL    HW127323   5.411   1.888   0.807
 8808SOL    HW227324   5.558   1.949   0.772
 8809SOL     OW27325   6.239   4.246   0.811
 8809SOL    HW127326   6.274   4.318   0.871
 8809SOL    HW227327   6.273   4.260   0.718
 8810SOL     OW27328   4.837   1.839   3.884
 8810SOL    HW127329   4.793   1.772   3.824
 8810SOL    HW227330   4.934   1.819   3.892
 8811SOL     OW27331   1.628   1.521   3.456
 8811SOL    HW127332   1.630   1.596   3.522
 8811SOL    HW227333   1.550   1.461   3.475
 8812SOL     OW27334   2.379   1.252   0.234
 8812SOL    HW127335   2.374   1.351   0.250
 8812SOL    HW227336   2.310   1.226   0.167
 8813SOL     OW27337   1.178   6.067   1.040
 8813SOL    HW127338   1.140   6.128   0.971
 8813SOL    HW227339   1.263   6.106   1.076
 8814SOL     OW27340   5.180   6.389   6.242
 8814SOL    HW127341   5.221   6.300   6.262
 8814SOL    HW227342   5.176   6.444   6.325
 8815SOL     OW27343   5.946   5.886   3.205
 8815SOL    HW127344   5.954   5.803   3.260
 8815SOL    HW227345   5.958   5.966   3.264
 8816SOL     OW27346   0.974   5.466   1.794
 8816SOL    HW127347   1.003   5.399   1.725
 8816SOL    HW227348   0.884   5.502   1.770
 8817SOL     OW27349   2.306   4.511   5.447
 8817SOL    HW127350   2.393   4.559   5.455
 8817SOL    HW227351   2.314   4.437   5.380
 8818SOL     OW27352   6.973   4.539   4.758
 8818SOL    HW127353   6.930   4.519   4.846
 8818SOL    HW227354   0.048   4.503   4.758
 8819SOL     OW27355   6.267   0.155   4.117
 8819SOL    HW127356   6.367   0.159   4.105
 8819SOL    HW227357   6.236   0.061   4.104
 8820SOL     OW27358   0.910   2.982   3.340
 8820SOL    HW127359   0.902   2.924   3.259
 8820SOL    HW227360   0.957   3.067   3.315
 8821SOL     OW27361   1.759   6.784   6.127
 8821SOL    HW127362   1.846   6.833   6.115
 8821SOL    HW227363   1.765   6.724   6.207
 8822SOL     OW27364   0.784   2.079   3.262
 8822SOL    HW127365   0.709   2.037   3.313
 8822SOL    HW227366   0.843   2.008   3.225
 8823SOL     OW27367   2.467   4.815   1.910
 8823SOL    HW127368   2.556   4.860   1.910
 8823SOL    HW227369   2.439   4.795   1.816
 8824SOL     OW27370   4.493   4.371   0.915
 8824SOL    HW127371   4.457   4.323   0.996
 8824SOL    HW227372   4.575   4.421   0.940
 8825SOL     OW27373   1.820   2.566   0.798
 8825SOL    HW127374   1.768   2.627   0.857
 8825SOL    HW227375   1.867   2.619   0.728
 8826SOL     OW27376   5.735   0.626   0.536
 8826SOL    HW127377   5.693   0.651   0.623
 8826SOL    HW227378   5.703   0.536   0.508
 8827SOL     OW27379   6.894   1.552   3.233
 8827SOL    HW127380   6.935   1.614   3.167
 8827SOL    HW227381   6.808   1.516   3.197
 8828SOL     OW27382   1.552   6.325   3.402
 8828SOL    HW127383   1.530   6.407   3.455
 8828SOL    HW227384   1.469   6.288   3.361
 8829SOL     OW27385   1.571   1.399   0.912
 8829SOL    HW127386   1.506   1.352   0.852
 8829SOL    HW227387   1.599   1.338   0.986
 8830SOL     OW27388   1.468   1.386   0.118
 8830SOL    HW127389   1.474   1.324   0.040
 8830SOL    HW227390   1.420   1.341   0.194
 8831SOL     OW27391   0.180   1.240   1.880
 8831SOL    HW127392   0.117   1.317   1.886
 8831SOL    HW227393   0.261   1.258   1.937
 8832SOL     OW27394   6.741   0.919   2.002
 8832SOL    HW127395   6.758   0.970   2.086
 8832SOL    HW227396   6.675   0.846   2.020
 8833SOL     OW27397   1.292   4.900   2.524
 8833SOL    HW127398   1.289   4.906   2.623
 8833SOL    HW227399   1.240   4.976   2.484
 8834SOL     OW27400   5.993   4.124   3.682
 8834SOL    HW127401   6.030   4.186   3.751
 8834SOL    HW227402   6.050   4.128   3.600
 8835SOL     OW27403   0.821   0.703   0.146
 8835SOL    HW127404   0.883   0.700   0.068
 8835SOL    HW227405   0.870   0.679   0.230
 8836SOL     OW27406   4.828   1.903   1.975
 8836SOL    HW127407   4.823   1.975   2.044
 8836SOL    HW227408   4.751   1.840   1.988
 8837SOL     OW27409   0.660   2.465   1.925
 8837SOL    HW127410   0.595   2.414   1.868
 8837SOL    HW227411   0.746   2.477   1.875
 8838SOL     OW27412   1.934   5.951   3.744
 8838SOL    HW127413   1.929   6.051   3.732
 8838SOL    HW227414   1.926   5.907   3.655
 8839SOL     OW27415   5.439   6.152   3.873
 8839SOL    HW127416   5.467   6.247   3.889
 8839SOL    HW227417   5.417   6.108   3.960
 8840SOL     OW27418   4.510   0.682   2.094
 8840SOL    HW127419   4.564   0.696   2.011
 8840SOL    HW227420   4.570   0.687   2.174
 8841SOL     OW27421   3.017   6.841   4.202
 8841SOL    HW127422   2.927   6.871   4.170
 8841SOL    HW227423   3.041   6.754   4.158
 8842SOL     OW27424   1.665   2.424   1.916
 8842SOL    HW127425   1.700   2.332   1.929
 8842SOL    HW227426   1.709   2.486   1.982
 8843SOL     OW27427   0.334   3.301   4.300
 8843SOL    HW127428   0.305   3.395   4.317
 8843SOL    HW227429   0.433   3.297   4.290
 8844SOL     OW27430   5.888   1.311   6.139
 8844SOL    HW127431   5.896   1.250   6.060
 8844SOL    HW227432   5.950   1.389   6.127
 8845SOL     OW27433   5.190   3.294   6.731
 8845SOL    HW127434   5.162   3.266   6.822
 8845SOL    HW227435   5.202   3.213   6.673
 8846SOL     OW27436   3.104   4.956   3.197
 8846SOL    HW127437   3.075   4.894   3.270
 8846SOL    HW227438   3.204   4.957   3.192
 8847SOL     OW27439   1.133   1.240   2.917
 8847SOL    HW127440   1.069   1.295   2.864
 8847SOL    HW227441   1.083   1.164   2.960
 8848SOL     OW27442   1.027   0.925   3.486
 8848SOL    HW127443   1.080   0.919   3.401
 8848SOL    HW227444   0.982   0.838   3.504
 8849SOL     OW27445   2.823   6.731   1.572
 8849SOL    HW127446   2.828   6.774   1.481
 8849SOL    HW227447   2.801   6.801   1.640
 8850SOL     OW27448   2.743   2.504   6.936
 8850SOL    HW127449   2.709   2.546   6.852
 8850SOL    HW227450   2.684   2.530   7.012
 8851SOL     OW27451   1.943   3.864   2.085
 8851SOL    HW127452   1.960   3.767   2.105
 8851SOL    HW227453   2.025   3.917   2.106
 8852SOL     OW27454   0.705   2.005   4.842
 8852SOL    HW127455   0.786   2.061   4.822
 8852SOL    HW227456   0.640   2.060   4.896
 8853SOL     OW27457   4.972   0.670   1.916
 8853SOL    HW127458   4.988   0.575   1.889
 8853SOL    HW227459   4.922   0.672   2.003
 8854SOL     OW27460   0.649   2.899   4.896
 8854SOL    HW127461   0.680   2.982   4.943
 8854SOL    HW227462   0.695   2.819   4.934
 8855SOL     OW27463   5.360   4.777   1.652
 8855SOL    HW127464   5.398   4.849   1.711
 8855SOL    HW227465   5.385   4.687   1.689
 8856SOL     OW27466   6.316   0.424   5.873
 8856SOL    HW127467   6.253   0.480   5.928
 8856SOL    HW227468   6.345   0.345   5.925
 8857SOL     OW27469   0.125   1.727   6.562
 8857SOL    HW127470   0.113   1.789   6.640
 8857SOL    HW227471   0.053   1.743   6.495
 8858SOL     OW27472   6.739   5.930   4.881
 8858SOL    HW127473   6.699   5.952   4.792
 8858SOL    HW227474   6.680   5.965   4.954
 8859SOL     OW27475   0.834   5.801   3.122
 8859SOL    HW127476   0.858   5.814   3.026
 8859SOL    HW227477   0.736   5.783   3.130
 8860SOL     OW27478   6.827   3.345   2.603
 8860SOL    HW127479   6.826   3.444   2.615
 8860SOL    HW227480   6.802   3.301   2.689
 8861SOL     OW27481   3.899   2.797   1.772
 8861SOL    HW127482   3.827   2.846   1.723
 8861SOL    HW227483   3.924   2.847   1.855
 8862SOL     OW27484   4.307   4.697   4.755
 8862SOL    HW127485   4.309   4.654   4.846
 8862SOL    HW227486   4.311   4.626   4.685
 8863SOL     OW27487   1.050   4.006   2.601
 8863SOL    HW127488   1.001   3.990   2.516
 8863SOL    HW227489   1.145   4.032   2.582
 8864SOL     OW27490   6.739   1.834   5.164
 8864SOL    HW127491   6.692   1.884   5.092
 8864SOL    HW227492   6.691   1.847   5.251
 8865SOL     OW27493   3.116   2.269   0.700
 8865SOL    HW127494   3.041   2.207   0.723
 8865SOL    HW227495   3.108   2.353   0.755
 8866SOL     OW27496   5.560   6.560   2.109
 8866SOL    HW127497   5.628   6.498   2.069
 8866SOL    HW227498   5.503   6.598   2.036
 8867SOL     OW27499   6.301   3.033   2.912
 8867SOL    HW127500   6.278   3.126   2.885
 8867SOL    HW227501   6.400   3.028   2.931
 8868SOL     OW27502   6.976   2.900   3.824
 8868SOL    HW127503   6.979   2.803   3.799
 8868SOL    HW227504   7.005   2.910   3.920
 8869SOL     OW27505   4.807   0.526   3.682
 8869SOL    HW127506   4.747   0.588   3.731
 8869SOL    HW227507   4.771   0.433   3.688
 8870SOL     OW27508   1.119   0.910   1.799
 8870SOL    HW127509   1.208   0.864   1.794
 8870SOL    HW227510   1.050   0.846   1.831
 8871SOL     OW27511   0.399   6.989   1.298
 8871SOL    HW127512   0.440   0.039   1.358
 8871SOL    HW227513   0.428   7.006   1.204
 8872SOL     OW27514   0.123   4.292   3.697
 8872SOL    HW127515   0.206   4.244   3.727
 8872SOL    HW227516   0.111   4.279   3.599
 8873SOL     OW27517   2.385   1.433   2.864
 8873SOL    HW127518   2.286   1.418   2.873
 8873SOL    HW227519   2.408   1.524   2.899
 8874SOL     OW27520   2.777   6.372   0.990
 8874SOL    HW127521   2.862   6.425   0.987
 8874SOL    HW227522   2.781   6.307   1.065
 8875SOL     OW27523   6.248   3.473   4.876
 8875SOL    HW127524   6.224   3.393   4.822
 8875SOL    HW227525   6.340   3.505   4.850
 8876SOL     OW27526   4.194   0.711   0.670
 8876SOL    HW127527   4.200   0.762   0.756
 8876SOL    HW227528   4.285   0.680   0.643
 8877SOL     OW27529   0.647   5.153   1.289
 8877SOL    HW127530   0.614   5.142   1.383
 8877SOL    HW227531   0.680   5.065   1.255
 8878SOL     OW27532   5.108   3.336   1.797
 8878SOL    HW127533   5.079   3.283   1.717
 8878SOL    HW227534   5.027   3.360   1.852
 8879SOL     OW27535   6.908   4.549   3.550
 8879SOL    HW127536   6.851   4.467   3.561
 8879SOL    HW227537   6.991   4.524   3.500
 8880SOL     OW27538   3.994   2.165   3.023
 8880SOL    HW127539   4.022   2.136   2.931
 8880SOL    HW227540   4.067   2.217   3.066
 8881SOL     OW27541   3.500   4.883   2.502
 8881SOL    HW127542   3.410   4.870   2.542
 8881SOL    HW227543   3.502   4.846   2.409
 8882SOL     OW27544   4.151   0.504   0.241
 8882SOL    HW127545   4.140   0.580   0.177
 8882SOL    HW227546   4.230   0.449   0.214
 8883SOL     OW27547   6.804   6.354   2.986
 8883SOL    HW127548   6.878   6.353   2.918
 8883SOL    HW227549   6.819   6.280   3.052
 8884SOL     OW27550   4.028   2.834   5.616
 8884SOL    HW127551   4.042   2.826   5.517
 8884SOL    HW227552   4.090   2.772   5.663
 8885SOL     OW27553   5.511   5.779   0.860
 8885SOL    HW127554   5.446   5.725   0.806
 8885SOL    HW227555   5.604   5.745   0.843
 8886SOL     OW27556   4.457   6.681   6.857
 8886SOL    HW127557   4.486   6.640   6.944
 8886SOL    HW227558   4.507   6.639   6.782
 8887SOL     OW27559   3.576   0.185   1.555
 8887SOL    HW127560   3.530   0.124   1.490
 8887SOL    HW227561   3.597   0.272   1.510
 8888SOL     OW27562   3.429   2.096   2.486
 8888SOL    HW127563   3.451   2.000   2.471
 8888SOL    HW227564   3.380   2.132   2.407
 8889SOL     OW27565   1.479   4.884   0.505
 8889SOL    HW127566   1.555   4.854   0.563
 8889SOL    HW227567   1.398   4.830   0.526
 8890SOL     OW27568   1.256   5.815   6.899
 8890SOL    HW127569   1.292   5.865   6.977
 8890SOL    HW227570   1.329   5.798   6.833
 8891SOL     OW27571   6.733   3.740   5.162
 8891SOL    HW127572   6.758   3.835   5.141
 8891SOL    HW227573   6.646   3.738   5.210
 8892SOL     OW27574   2.670   5.036   4.681
 8892SOL    HW127575   2.604   5.101   4.719
 8892SOL    HW227576   2.761   5.077   4.682
 8893SOL     OW27577   0.962   4.475   5.576
 8893SOL    HW127578   1.055   4.502   5.552
 8893SOL    HW227579   0.920   4.428   5.499
 8894SOL     OW27580   5.290   2.083   1.791
 8894SOL    HW127581   5.311   2.120   1.881
 8894SOL    HW227582   5.192   2.063   1.786
 8895SOL     OW27583   6.616   3.361   1.093
 8895SOL    HW127584   6.653   3.376   1.001
 8895SOL    HW227585   6.518   3.342   1.087
 8896SOL     OW27586   1.208   1.862   3.420
 8896SOL    HW127587   1.232   1.861   3.323
 8896SOL    HW227588   1.213   1.769   3.457
 8897SOL     OW27589   1.689   5.559   4.329
 8897SOL    HW127590   1.622   5.499   4.374
 8897SOL    HW227591   1.777   5.513   4.325
 8898SOL     OW27592   5.426   4.006   2.432
 8898SOL    HW127593   5.466   4.024   2.342
 8898SOL    HW227594   5.367   3.925   2.427
 8899SOL     OW27595   2.143   3.597   2.673
 8899SOL    HW127596   2.227   3.560   2.716
 8899SOL    HW227597   2.137   3.564   2.579
 8900SOL     OW27598   4.234   1.391   4.286
 8900SOL    HW127599   4.165   1.343   4.340
 8900SOL    HW227600   4.282   1.457   4.344
 8901SOL     OW27601   1.822   5.768   4.913
 8901SOL    HW127602   1.826   5.867   4.920
 8901SOL    HW227603   1.745   5.741   4.855
 8902SOL     OW27604   0.611   4.929   6.882
 8902SOL    HW127605   0.688   4.990   6.860
 8902SOL    HW227606   0.646   4.847   6.927
 8903SOL     OW27607   1.566   0.393   4.989
 8903SOL    HW127608   1.567   0.477   5.042
 8903SOL    HW227609   1.477   0.383   4.944
 8904SOL     OW27610   0.582   0.976   3.459
 8904SOL    HW127611   0.555   0.918   3.381
 8904SOL    HW227612   0.577   0.922   3.543
 8905SOL     OW27613   1.920   4.614   1.729
 8905SOL    HW127614   1.835   4.653   1.692
 8905SOL    HW227615   1.940   4.656   1.817
 8906SOL     OW27616   6.028   0.270   6.524
 8906SOL    HW127617   6.087   0.349   6.508
 8906SOL    HW227618   6.082   0.187   6.524
 8907SOL     OW27619   2.855   3.168   5.251
 8907SOL    HW127620   2.917   3.147   5.175
 8907SOL    HW227621   2.826   3.083   5.295
 8908SOL     OW27622   1.516   4.856   6.190
 8908SOL    HW127623   1.505   4.767   6.146
 8908SOL    HW227624   1.599   4.855   6.246
 8909SOL     OW27625   2.187   5.602   1.607
 8909SOL    HW127626   2.251   5.546   1.554
 8909SOL    HW227627   2.238   5.674   1.655
 8910SOL     OW27628   1.004   1.265   3.603
 8910SOL    HW127629   1.048   1.219   3.680
 8910SOL    HW227630   0.946   1.200   3.554
 8911SOL     OW27631   5.356   2.790   4.890
 8911SOL    HW127632   5.383   2.740   4.808
 8911SOL    HW227633   5.433   2.843   4.924
 8912SOL     OW27634   3.475   2.971   3.634
 8912SOL    HW127635   3.471   2.915   3.717
 8912SOL    HW227636   3.542   3.045   3.646
 8913SOL     OW27637   4.970   5.857   1.263
 8913SOL    HW127638   5.060   5.831   1.228
 8913SOL    HW227639   4.901   5.838   1.193
 8914SOL     OW27640   4.969   5.772   5.364
 8914SOL    HW127641   4.900   5.723   5.417
 8914SOL    HW227642   4.925   5.845   5.311
 8915SOL     OW27643   1.858   1.053   3.753
 8915SOL    HW127644   1.867   1.151   3.768
 8915SOL    HW227645   1.898   1.004   3.831
 8916SOL     OW27646   5.379   1.173   1.853
 8916SOL    HW127647   5.308   1.162   1.923
 8916SOL    HW227648   5.369   1.262   1.809
 8917SOL     OW27649   5.566   1.975   0.405
 8917SOL    HW127650   5.481   1.978   0.353
 8917SOL    HW227651   5.612   1.887   0.390
 8918SOL     OW27652   0.959   3.606   2.380
 8918SOL    HW127653   1.010   3.691   2.369
 8918SOL    HW227654   0.877   3.623   2.434
 8919SOL     OW27655   6.329   2.932   2.542
 8919SOL    HW127656   6.385   2.864   2.589
 8919SOL    HW227657   6.375   2.962   2.459
 8920SOL     OW27658   0.998   1.516   0.094
 8920SOL    HW127659   1.084   1.554   0.058
 8920SOL    HW227660   0.951   1.587   0.147
 8921SOL     OW27661   0.592   3.418   1.691
 8921SOL    HW127662   0.630   3.371   1.612
 8921SOL    HW227663   0.647   3.398   1.772
 8922SOL     OW27664   3.378   4.974   3.180
 8922SOL    HW127665   3.364   4.946   3.085
 8922SOL    HW227666   3.470   4.949   3.209
 8923SOL     OW27667   2.517   1.114   3.521
 8923SOL    HW127668   2.558   1.160   3.600
 8923SOL    HW227669   2.588   1.090   3.456
 8924SOL     OW27670   6.005   5.174   4.769
 8924SOL    HW127671   5.960   5.239   4.707
 8924SOL    HW227672   6.008   5.212   4.861
 8925SOL     OW27673   0.826   0.145   3.541
 8925SOL    HW127674   0.904   0.124   3.600
 8925SOL    HW227675   0.860   0.174   3.451
 8926SOL     OW27676   5.776   1.345   0.104
 8926SOL    HW127677   5.680   1.341   0.135
 8926SOL    HW227678   5.814   1.253   0.106
 8927SOL     OW27679   1.582   0.710   6.562
 8927SOL    HW127680   1.540   0.625   6.532
 8927SOL    HW227681   1.682   0.703   6.555
 8928SOL     OW27682   1.716   6.838   5.665
 8928SOL    HW127683   1.780   6.761   5.666
 8928SOL    HW227684   1.677   6.850   5.756
 8929SOL     OW27685   0.100   1.811   3.679
 8929SOL    HW127686   0.171   1.742   3.665
 8929SOL    HW227687   0.030   1.775   3.741
 8930SOL     OW27688   2.212   5.032   3.703
 8930SOL    HW127689   2.119   5.018   3.670
 8930SOL    HW227690   2.210   5.057   3.800
 8931SOL     OW27691   4.245   3.860   0.288
 8931SOL    HW127692   4.252   3.780   0.349
 8931SOL    HW227693   4.187   3.837   0.210
 8932SOL     OW27694   0.854   3.769   3.209
 8932SOL    HW127695   0.785   3.728   3.150
 8932SOL    HW227696   0.843   3.735   3.303
 8933SOL     OW27697   4.664   1.861   6.293
 8933SOL    HW127698   4.572   1.827   6.314
 8933SOL    HW227699   4.705   1.898   6.376
 8934SOL     OW27700   2.328   5.719   2.877
 8934SOL    HW127701   2.297   5.682   2.965
 8934SOL    HW227702   2.252   5.717   2.811
 8935SOL     OW27703   6.592   4.804   6.839
 8935SOL    HW127704   6.681   4.759   6.849
 8935SOL    HW227705   6.596   4.870   6.764
 8936SOL     OW27706   3.780   2.726   0.867
 8936SOL    HW127707   3.832   2.797   0.819
 8936SOL    HW227708   3.811   2.636   0.836
 8937SOL     OW27709   0.909   0.695   5.920
 8937SOL    HW127710   0.936   0.641   5.999
 8937SOL    HW227711   0.812   0.718   5.927
 8938SOL     OW27712   4.782   6.036   1.908
 8938SOL    HW127713   4.808   5.941   1.890
 8938SOL    HW227714   4.721   6.067   1.835
 8939SOL     OW27715   5.408   2.271   4.891
 8939SOL    HW127716   5.452   2.186   4.862
 8939SOL    HW227717   5.439   2.295   4.983
 8940SOL     OW27718   5.996   6.867   2.549
 8940SOL    HW127719   5.918   6.927   2.529
 8940SOL    HW227720   6.043   6.845   2.463
 8941SOL     OW27721   3.923   1.277   6.433
 8941SOL    HW127722   3.998   1.309   6.492
 8941SOL    HW227723   3.838   1.277   6.485
 8942SOL     OW27724   1.189   2.283   5.218
 8942SOL    HW127725   1.147   2.295   5.128
 8942SOL    HW227726   1.193   2.372   5.265
 8943SOL     OW27727   5.165   3.666   1.077
 8943SOL    HW127728   5.206   3.666   0.986
 8943SOL    HW227729   5.201   3.744   1.129
 8944SOL     OW27730   4.104   5.727   1.349
 8944SOL    HW127731   4.195   5.737   1.310
 8944SOL    HW227732   4.105   5.653   1.417
 8945SOL     OW27733   2.145   1.451   4.110
 8945SOL    HW127734   2.085   1.527   4.084
 8945SOL    HW227735   2.169   1.398   4.029
 8946SOL     OW27736   4.136   0.588   4.735
 8946SOL    HW127737   4.154   0.678   4.773
 8946SOL    HW227738   4.040   0.580   4.709
 8947SOL     OW27739   3.885   3.772   5.111
 8947SOL    HW127740   3.961   3.712   5.136
 8947SOL    HW227741   3.916   3.867   5.113
 8948SOL     OW27742   6.003   4.913   3.236
 8948SOL    HW127743   6.045   4.928   3.325
 8948SOL    HW227744   6.072   4.923   3.164
 8949SOL     OW27745   1.732   5.225   6.171
 8949SOL    HW127746   1.738   5.324   6.177
 8949SOL    HW227747   1.797   5.191   6.103
 8950SOL     OW27748   4.622   2.629   4.839
 8950SOL    HW127749   4.639   2.604   4.743
 8950SOL    HW227750   4.557   2.564   4.879
 8951SOL     OW27751   2.466   2.254   5.640
 8951SOL    HW127752   2.477   2.303   5.726
 8951SOL    HW227753   2.477   2.156   5.656
 8952SOL     OW27754   6.454   6.750   3.433
 8952SOL    HW127755   6.406   6.826   3.389
 8952SOL    HW227756   6.387   6.682   3.464
 8953SOL     OW27757   1.921   5.178   6.402
 8953SOL    HW127758   1.962   5.096   6.442
 8953SOL    HW227759   1.828   5.157   6.371
 8954SOL     OW27760   2.621   6.576   5.421
 8954SOL    HW127761   2.693   6.630   5.464
 8954SOL    HW227762   2.617   6.486   5.464
 8955SOL     OW27763   6.711   3.866   4.216
 8955SOL    HW127764   6.620   3.833   4.191
 8955SOL    HW227765   6.711   3.891   4.313
 8956SOL     OW27766   1.317   0.366   4.884
 8956SOL    HW127767   1.248   0.414   4.829
 8956SOL    HW227768   1.283   0.275   4.906
 8957SOL     OW27769   2.684   6.035   2.088
 8957SOL    HW127770   2.768   6.004   2.133
 8957SOL    HW227771   2.611   6.042   2.156
 8958SOL     OW27772   2.765   6.937   4.122
 8958SOL    HW127773   2.771   0.008   4.167
 8958SOL    HW227774   2.669   6.907   4.121
 8959SOL     OW27775   3.368   5.423   0.564
 8959SOL    HW127776   3.274   5.391   0.578
 8959SOL    HW227777   3.369   5.490   0.490
 8960SOL     OW27778   3.515   5.723   0.898
 8960SOL    HW127779   3.500   5.760   0.990
 8960SOL    HW227780   3.445   5.654   0.878
 8961SOL     OW27781   1.204   2.656   3.793
 8961SOL    HW127782   1.237   2.567   3.825
 8961SOL    HW227783   1.256   2.729   3.838
 8962SOL     OW27784   5.137   0.491   3.488
 8962SOL    HW127785   5.074   0.414   3.501
 8962SOL    HW227786   5.155   0.504   3.391
 8963SOL     OW27787   0.088   1.013   3.714
 8963SOL    HW127788   0.118   1.100   3.753
 8963SOL    HW227789   0.017   0.973   3.772
 8964SOL     OW27790   0.182   3.731   3.137
 8964SOL    HW127791   0.190   3.813   3.195
 8964SOL    HW227792   0.177   3.650   3.195
 8965SOL     OW27793   1.690   5.158   1.697
 8965SOL    HW127794   1.731   5.076   1.740
 8965SOL    HW227795   1.615   5.130   1.638
 8966SOL     OW27796   3.531   2.084   5.177
 8966SOL    HW127797   3.540   2.169   5.229
 8966SOL    HW227798   3.465   2.097   5.103
 8967SOL     OW27799   5.025   6.654   0.848
 8967SOL    HW127800   4.930   6.656   0.818
 8967SOL    HW227801   5.030   6.688   0.942
 8968SOL     OW27802   5.136   4.323   2.980
 8968SOL    HW127803   5.218   4.346   2.928
 8968SOL    HW227804   5.158   4.254   3.049
 8969SOL     OW27805   6.590   0.362   4.573
 8969SOL    HW127806   6.542   0.440   4.533
 8969SOL    HW227807   6.674   0.394   4.617
 8970SOL     OW27808   3.399   2.150   1.461
 8970SOL    HW127809   3.451   2.231   1.433
 8970SOL    HW227810   3.443   2.068   1.424
 8971SOL     OW27811   4.452   6.627   2.660
 8971SOL    HW127812   4.358   6.649   2.635
 8971SOL    HW227813   4.456   6.532   2.692
 8972SOL     OW27814   5.191   0.067   4.659
 8972SOL    HW127815   5.139   7.001   4.676
 8972SOL    HW227816   5.277   0.044   4.614
 8973SOL     OW27817   1.894   5.094   6.965
 8973SOL    HW127818   1.968   5.028   6.954
 8973SOL    HW227819   1.887   5.150   6.883
 8974SOL     OW27820   0.677   3.090   3.498
 8974SOL    HW127821   0.746   3.057   3.433
 8974SOL    HW227822   0.715   3.165   3.552
 8975SOL     OW27823   3.725   0.339   6.327
 8975SOL    HW127824   3.722   0.275   6.250
 8975SOL    HW227825   3.683   0.426   6.300
 8976SOL     OW27826   1.359   5.270   4.221
 8976SOL    HW127827   1.416   5.329   4.278
 8976SOL    HW227828   1.267   5.309   4.215
 8977SOL     OW27829   5.450   1.351   6.371
 8977SOL    HW127830   5.500   1.353   6.458
 8977SOL    HW227831   5.505   1.393   6.300
 8978SOL     OW27832   5.494   4.740   1.225
 8978SOL    HW127833   5.546   4.803   1.283
 8978SOL    HW227834   5.505   4.647   1.260
 8979SOL     OW27835   1.189   4.443   4.904
 8979SOL    HW127836   1.268   4.470   4.960
 8979SOL    HW227837   1.131   4.380   4.956
 8980SOL     OW27838   3.761   3.058   4.536
 8980SOL    HW127839   3.681   3.025   4.587
 8980SOL    HW227840   3.730   3.115   4.459
 8981SOL     OW27841   2.708   1.983   5.473
 8981SOL    HW127842   2.724   2.059   5.410
 8981SOL    HW227843   2.796   1.946   5.503
 8982SOL     OW27844   3.646   4.214   0.950
 8982SOL    HW127845   3.605   4.133   0.908
 8982SOL    HW227846   3.641   4.207   1.050
 8983SOL     OW27847   4.965   4.864   0.875
 8983SOL    HW127848   5.055   4.820   0.873
 8983SOL    HW227849   4.930   4.873   0.782
 8984SOL     OW27850   1.282   6.716   3.668
 8984SOL    HW127851   1.348   6.727   3.742
 8984SOL    HW227852   1.190   6.737   3.703
 8985SOL     OW27853   2.732   3.392   5.950
 8985SOL    HW127854   2.796   3.364   5.879
 8985SOL    HW227855   2.782   3.417   6.033
 8986SOL     OW27856   3.563   6.415   2.720
 8986SOL    HW127857   3.466   6.408   2.697
 8986SOL    HW227858   3.618   6.410   2.637
 8987SOL     OW27859   5.258   6.406   1.872
 8987SOL    HW127860   5.356   6.390   1.864
 8987SOL    HW227861   5.233   6.412   1.969
 8988SOL     OW27862   0.723   4.959   5.121
 8988SOL    HW127863   0.636   4.998   5.090
 8988SOL    HW227864   0.795   5.028   5.115
 8989SOL     OW27865   2.576   2.578   6.683
 8989SOL    HW127866   2.565   2.675   6.663
 8989SOL    HW227867   2.499   2.546   6.737
 8990SOL     OW27868   6.927   5.249   3.304
 8990SOL    HW127869   6.938   5.318   3.376
 8990SOL    HW227870   7.003   5.256   3.239
 8991SOL     OW27871   1.552   2.167   5.108
 8991SOL    HW127872   1.648   2.148   5.089
 8991SOL    HW227873   1.508   2.200   5.024
 8992SOL     OW27874   6.774   2.218   1.227
 8992SOL    HW127875   6.790   2.279   1.304
 8992SOL    HW227876   6.774   2.123   1.259
 8993SOL     OW27877   4.243   2.381   0.904
 8993SOL    HW127878   4.159   2.336   0.873
 8993SOL    HW227879   4.319   2.316   0.899
 8994SOL     OW27880   1.566   5.589   3.003
 8994SOL    HW127881   1.530   5.508   2.956
 8994SOL    HW227882   1.541   5.671   2.952
 8995SOL     OW27883   0.525   0.114   1.481
 8995SOL    HW127884   0.553   0.030   1.528
 8995SOL    HW227885   0.475   0.173   1.545
 8996SOL     OW27886   4.098   6.406   5.803
 8996SOL    HW127887   4.039   6.476   5.762
 8996SOL    HW227888   4.148   6.447   5.880
 8997SOL     OW27889   6.019   0.352   4.492
 8997SOL    HW127890   6.044   0.440   4.452
 8997SOL    HW227891   6.101   0.295   4.501
 8998SOL     OW27892   0.029   3.454   4.497
 8998SOL    HW127893   7.012   3.515   4.426
 8998SOL    HW227894   0.028   3.360   4.463
 8999SOL     OW27895   4.184   6.760   6.099
 8999SOL    HW127896   4.182   6.822   6.020
 8999SOL    HW227897   4.131   6.799   6.174
 9000SOL     OW27898   1.854   4.038   1.292
 9000SOL    HW127899   1.761   4.008   1.312
 9000SOL    HW227900   1.852   4.131   1.254
 9001SOL     OW27901   0.956   5.421   1.168
 9001SOL    HW127902   0.980   5.496   1.105
 9001SOL    HW227903   0.859   5.427   1.191
 9002SOL     OW27904   0.523   4.863   5.913
 9002SOL    HW127905   0.534   4.779   5.860
 9002SOL    HW227906   0.577   4.936   5.870
 9003SOL     OW27907   5.607   0.057   0.904
 9003SOL    HW127908   5.651   0.136   0.861
 9003SOL    HW227909   5.605   6.999   0.839
 9004SOL     OW27910   5.628   4.941   1.356
 9004SOL    HW127911   5.720   4.947   1.395
 9004SOL    HW227912   5.603   5.029   1.316
 9005SOL     OW27913   5.329   0.525   5.302
 9005SOL    HW127914   5.370   0.474   5.378
 9005SOL    HW227915   5.369   0.493   5.216
 9006SOL     OW27916   3.747   5.536   0.283
 9006SOL    HW127917   3.828   5.577   0.325
 9006SOL    HW227918   3.666   5.587   0.312
 9007SOL     OW27919   1.621   1.023   2.842
 9007SOL    HW127920   1.681   0.944   2.832
 9007SOL    HW227921   1.671   1.106   2.819
 9008SOL     OW27922   0.440   5.549   1.979
 9008SOL    HW127923   0.504   5.582   2.048
 9008SOL    HW227924   0.347   5.547   2.017
 9009SOL     OW27925   3.478   6.488   1.762
 9009SOL    HW127926   3.454   6.529   1.674
 9009SOL    HW227927   3.401   6.498   1.825
 9010SOL     OW27928   1.858   6.110   4.666
 9010SOL    HW127929   1.765   6.100   4.628
 9010SOL    HW227930   1.910   6.173   4.608
 9011SOL     OW27931   2.286   2.088   2.033
 9011SOL    HW127932   2.358   2.034   1.989
 9011SOL    HW227933   2.289   2.182   2.000
 9012SOL     OW27934   2.120   6.239   6.766
 9012SOL    HW127935   2.192   6.196   6.711
 9012SOL    HW227936   2.045   6.266   6.706
 9013SOL     OW27937   1.950   0.298   4.596
 9013SOL    HW127938   1.970   0.201   4.611
 9013SOL    HW227939   1.868   0.307   4.540
 9014SOL     OW27940   5.573   3.113   3.854
 9014SOL    HW127941   5.533   3.189   3.803
 9014SOL    HW227942   5.502   3.068   3.908
 9015SOL     OW27943   4.315   0.367   6.118
 9015SOL    HW127944   4.389   0.381   6.185
 9015SOL    HW227945   4.239   0.429   6.139
 9016SOL     OW27946   4.869   5.310   5.494
 9016SOL    HW127947   4.873   5.224   5.442
 9016SOL    HW227948   4.824   5.293   5.582
 9017SOL     OW27949   3.687   0.050   5.283
 9017SOL    HW127950   3.765   0.005   5.239
 9017SOL    HW227951   3.647   7.007   5.351
 9018SOL     OW27952   3.319   4.414   0.257
 9018SOL    HW127953   3.295   4.374   0.346
 9018SOL    HW227954   3.391   4.359   0.215
 9019SOL     OW27955   0.427   3.312   4.006
 9019SOL    HW127956   0.367   3.370   3.951
 9019SOL    HW227957   0.394   3.218   4.005
 9020SOL     OW27958   4.972   4.516   2.851
 9020SOL    HW127959   4.998   4.428   2.891
 9020SOL    HW227960   4.898   4.556   2.905
 9021SOL     OW27961   0.575   1.322   4.343
 9021SOL    HW127962   0.644   1.249   4.351
 9021SOL    HW227963   0.516   1.321   4.423
 9022SOL     OW27964   4.302   3.888   6.539
 9022SOL    HW127965   4.276   3.975   6.497
 9022SOL    HW227966   4.373   3.844   6.483
 9023SOL     OW27967   6.826   4.448   0.271
 9023SOL    HW127968   6.779   4.527   0.310
 9023SOL    HW227969   6.795   4.365   0.317
 9024SOL     OW27970   2.145   5.671   6.534
 9024SOL    HW127971   2.069   5.614   6.502
 9024SOL    HW227972   2.109   5.755   6.574
 9025SOL     OW27973   1.153   5.864   1.267
 9025SOL    HW127974   1.172   5.927   1.343
 9025SOL    HW227975   1.172   5.910   1.180
 9026SOL     OW27976   4.825   1.247   0.859
 9026SOL    HW127977   4.828   1.323   0.923
 9026SOL    HW227978   4.793   1.279   0.770
 9027SOL     OW27979   0.620   4.153   3.144
 9027SOL    HW127980   0.575   4.064   3.147
 9027SOL    HW227981   0.709   4.144   3.099
 9028SOL     OW27982   3.602   4.647   6.687
 9028SOL    HW127983   3.699   4.662   6.667
 9028SOL    HW227984   3.546   4.696   6.620
 9029SOL     OW27985   4.347   6.957   3.952
 9029SOL    HW127986   4.366   0.023   4.002
 9029SOL    HW227987   4.267   6.969   3.894
 9030SOL     OW27988   3.197   1.952   1.985
 9030SOL    HW127989   3.284   1.974   1.941
 9030SOL    HW227990   3.123   2.002   1.938
 9031SOL     OW27991   4.802   6.683   4.619
 9031SOL    HW127992   4.821   6.649   4.710
 9031SOL    HW227993   4.723   6.745   4.623
 9032SOL     OW27994   5.423   2.566   1.769
 9032SOL    HW127995   5.465   2.649   1.732
 9032SOL    HW227996   5.426   2.493   1.700
 9033SOL     OW27997   0.557   6.587   3.039
 9033SOL    HW127998   0.652   6.555   3.041
 9033SOL    HW227999   0.531   6.616   3.131
 9034SOL     OW28000   4.530   6.921   4.247
 9034SOL    HW128001   4.468   6.976   4.191
 9034SOL    HW228002   4.518   6.946   4.343
 9035SOL     OW28003   2.923   5.802   6.608
 9035SOL    HW128004   2.856   5.860   6.654
 9035SOL    HW228005   2.999   5.784   6.670
 9036SOL     OW28006   0.997   4.271   4.984
 9036SOL    HW128007   1.019   4.189   4.931
 9036SOL    HW228008   0.897   4.282   4.988
 9037SOL     OW28009   6.834   0.629   2.181
 9037SOL    HW128010   6.788   0.698   2.236
 9037SOL    HW228011   6.771   0.596   2.110
 9038SOL     OW28012   4.397   3.423   5.455
 9038SOL    HW128013   4.426   3.329   5.474
 9038SOL    HW228014   4.299   3.433   5.475
 9039SOL     OW28015   4.319   6.382   6.239
 9039SOL    HW128016   4.313   6.292   6.283
 9039SOL    HW228017   4.405   6.426   6.266
 9040SOL     OW28018   1.897   2.086   1.411
 9040SOL    HW128019   1.821   2.036   1.452
 9040SOL    HW228020   1.970   2.097   1.478
 9041SOL     OW28021   6.340   2.041   2.955
 9041SOL    HW128022   6.380   2.116   3.008
 9041SOL    HW228023   6.243   2.031   2.980
 9042SOL     OW28024   3.917   5.752   0.339
 9042SOL    HW128025   3.991   5.714   0.395
 9042SOL    HW228026   3.851   5.799   0.398
 9043SOL     OW28027   2.625   2.590   1.186
 9043SOL    HW128028   2.564   2.665   1.212
 9043SOL    HW228029   2.643   2.533   1.266
 9044SOL     OW28030   1.095   0.828   0.634
 9044SOL    HW128031   1.016   0.826   0.695
 9044SOL    HW228032   1.067   0.800   0.542
 9045SOL     OW28033   4.460   1.064   3.433
 9045SOL    HW128034   4.426   0.992   3.494
 9045SOL    HW228035   4.432   1.153   3.468
 9046SOL     OW28036   3.482   2.847   1.905
 9046SOL    HW128037   3.515   2.942   1.902
 9046SOL    HW228038   3.515   2.803   1.989
 9047SOL     OW28039   1.506   4.606   6.083
 9047SOL    HW128040   1.460   4.523   6.116
 9047SOL    HW228041   1.499   4.609   5.983
 9048SOL     OW28042   7.009   1.624   5.709
 9048SOL    HW128043   6.953   1.687   5.763
 9048SOL    HW228044   6.950   1.575   5.645
 9049SOL     OW28045   2.422   6.789   5.548
 9049SOL    HW128046   2.389   6.716   5.488
 9049SOL    HW228047   2.348   6.854   5.565
 9050SOL     OW28048   1.051   4.536   0.597
 9050SOL    HW128049   1.102   4.465   0.645
 9050SOL    HW228050   0.954   4.512   0.594
 9051SOL     OW28051   2.646   0.989   1.931
 9051SOL    HW128052   2.698   0.928   1.871
 9051SOL    HW228053   2.708   1.055   1.972
 9052SOL     OW28054   1.899   3.308   6.085
 9052SOL    HW128055   1.951   3.349   6.011
 9052SOL    HW228056   1.838   3.376   6.125
 9053SOL     OW28057   1.252   0.559   6.689
 9053SOL    HW128058   1.289   0.467   6.699
 9053SOL    HW228059   1.157   0.553   6.657
 9054SOL     OW28060   1.633   5.814   2.741
 9054SOL    HW128061   1.562   5.757   2.700
 9054SOL    HW228062   1.719   5.763   2.745
 9055SOL     OW28063   0.415   2.581   5.412
 9055SOL    HW128064   0.443   2.677   5.421
 9055SOL    HW228065   0.452   2.528   5.488
 9056SOL     OW28066   6.223   2.738   3.836
 9056SOL    HW128067   6.279   2.682   3.898
 9056SOL    HW228068   6.159   2.679   3.787
 9057SOL     OW28069   4.359   2.027   4.188
 9057SOL    HW128070   4.352   2.079   4.274
 9057SOL    HW228071   4.323   1.935   4.201
 9058SOL     OW28072   2.550   0.655   5.519
 9058SOL    HW128073   2.533   0.558   5.534
 9058SOL    HW228074   2.476   0.708   5.562
 9059SOL     OW28075   1.349   2.287   3.288
 9059SOL    HW128076   1.287   2.280   3.365
 9059SOL    HW228077   1.442   2.303   3.320
 9060SOL     OW28078   4.913   3.285   5.347
 9060SOL    HW128079   4.922   3.240   5.258
 9060SOL    HW228080   4.835   3.348   5.345
 9061SOL     OW28081   2.228   5.093   2.793
 9061SOL    HW128082   2.313   5.128   2.833
 9061SOL    HW228083   2.151   5.141   2.834
 9062SOL     OW28084   1.777   6.186   1.712
 9062SOL    HW128085   1.771   6.102   1.766
 9062SOL    HW228086   1.797   6.163   1.616
 9063SOL     OW28087   2.724   2.016   2.088
 9063SOL    HW128088   2.754   2.105   2.055
 9063SOL    HW228089   2.785   1.945   2.054
 9064SOL     OW28090   5.586   4.086   6.906
 9064SOL    HW128091   5.542   4.005   6.867
 9064SOL    HW228092   5.684   4.068   6.919
 9065SOL     OW28093   3.293   1.040   0.956
 9065SOL    HW128094   3.378   1.005   0.996
 9065SOL    HW228095   3.264   0.981   0.881
 9066SOL     OW28096   5.200   6.825   6.999
 9066SOL    HW128097   5.277   6.807   0.042
 9066SOL    HW228098   5.167   6.919   7.012
 9067SOL     OW28099   1.246   0.619   1.835
 9067SOL    HW128100   1.220   0.537   1.887
 9067SOL    HW228101   1.217   0.609   1.740
 9068SOL     OW28102   1.232   6.042   6.400
 9068SOL    HW128103   1.209   5.952   6.438
 9068SOL    HW228104   1.163   6.108   6.429
 9069SOL     OW28105   1.183   1.710   6.283
 9069SOL    HW128106   1.093   1.735   6.319
 9069SOL    HW228107   1.173   1.675   6.190
 9070SOL     OW28108   1.409   4.667   3.753
 9070SOL    HW128109   1.398   4.673   3.654
 9070SOL    HW228110   1.410   4.759   3.792
 9071SOL     OW28111   4.784   6.416   0.266
 9071SOL    HW128112   4.822   6.464   0.346
 9071SOL    HW228113   4.857   6.365   0.221
 9072SOL     OW28114   5.361   4.941   0.378
 9072SOL    HW128115   5.268   4.974   0.361
 9072SOL    HW228116   5.366   4.844   0.357
 9073SOL     OW28117   2.304   0.485   0.752
 9073SOL    HW128118   2.225   0.439   0.792
 9073SOL    HW228119   2.316   0.575   0.796
 9074SOL     OW28120   0.517   0.462   2.528
 9074SOL    HW128121   0.431   0.514   2.529
 9074SOL    HW228122   0.500   0.370   2.492
 9075SOL     OW28123   0.536   0.401   1.635
 9075SOL    HW128124   0.448   0.356   1.620
 9075SOL    HW228125   0.559   0.457   1.555
 9076SOL     OW28126   1.089   1.799   4.911
 9076SOL    HW128127   1.168   1.829   4.964
 9076SOL    HW228128   1.120   1.737   4.838
 9077SOL     OW28129   5.891   6.088   1.853
 9077SOL    HW128130   5.852   6.029   1.923
 9077SOL    HW228131   5.983   6.056   1.830
 9078SOL     OW28132   4.571   2.908   5.384
 9078SOL    HW128133   4.645   2.887   5.320
 9078SOL    HW228134   4.493   2.849   5.365
 9079SOL     OW28135   3.584   0.589   5.147
 9079SOL    HW128136   3.549   0.496   5.159
 9079SOL    HW228137   3.641   0.613   5.225
 9080SOL     OW28138   4.763   1.322   6.560
 9080SOL    HW128139   4.739   1.416   6.536
 9080SOL    HW228140   4.861   1.316   6.581
 9081SOL     OW28141   5.494   6.743   3.493
 9081SOL    HW128142   5.581   6.711   3.454
 9081SOL    HW228143   5.426   6.671   3.485
 9082SOL     OW28144   2.701   0.385   2.477
 9082SOL    HW128145   2.709   0.295   2.434
 9082SOL    HW228146   2.737   0.454   2.415
 9083SOL     OW28147   4.741   4.269   4.303
 9083SOL    HW128148   4.713   4.277   4.399
 9083SOL    HW228149   4.751   4.360   4.264
 9084SOL     OW28150   4.033   3.824   2.698
 9084SOL    HW128151   4.129   3.828   2.724
 9084SOL    HW228152   4.015   3.738   2.649
 9085SOL     OW28153   0.932   3.163   0.578
 9085SOL    HW128154   0.869   3.193   0.506
 9085SOL    HW228155   1.026   3.167   0.544
 9086SOL     OW28156   6.964   3.759   6.944
 9086SOL    HW128157   6.938   3.677   6.892
 9086SOL    HW228158   6.939   3.841   6.893
 9087SOL     OW28159   5.229   3.082   2.381
 9087SOL    HW128160   5.268   3.042   2.463
 9087SOL    HW228161   5.150   3.138   2.405
 9088SOL     OW28162   5.527   5.655   1.555
 9088SOL    HW128163   5.583   5.573   1.549
 9088SOL    HW228164   5.430   5.629   1.552
 9089SOL     OW28165   4.089   0.991   5.459
 9089SOL    HW128166   4.160   0.972   5.526
 9089SOL    HW228167   4.080   1.091   5.448
 9090SOL     OW28168   5.955   1.535   3.174
 9090SOL    HW128169   5.966   1.455   3.233
 9090SOL    HW228170   5.938   1.616   3.230
 9091SOL     OW28171   3.785   2.852   5.891
 9091SOL    HW128172   3.843   2.931   5.910
 9091SOL    HW228173   3.691   2.882   5.879
 9092SOL     OW28174   6.992   3.397   6.220
 9092SOL    HW128175   0.017   3.311   6.193
 9092SOL    HW228176   6.901   3.402   6.180
 9093SOL     OW28177   2.196   6.651   4.756
 9093SOL    HW128178   2.247   6.729   4.793
 9093SOL    HW228179   2.113   6.637   4.809
 9094SOL     OW28180   1.881   3.820   1.097
 9094SOL    HW128181   1.906   3.904   1.145
 9094SOL    HW228182   1.864   3.840   1.001
 9095SOL     OW28183   6.983   6.803   6.346
 9095SOL    HW128184   6.925   6.878   6.379
 9095SOL    HW228185   6.984   6.729   6.413
 9096SOL     OW28186   5.810   5.015   4.113
 9096SOL    HW128187   5.837   5.108   4.134
 9096SOL    HW228188   5.888   4.954   4.126
 9097SOL     OW28189   1.140   2.347   5.860
 9097SOL    HW128190   1.119   2.311   5.951
 9097SOL    HW228191   1.218   2.298   5.822
 9098SOL     OW28192   2.514   4.594   4.075
 9098SOL    HW128193   2.571   4.663   4.120
 9098SOL    HW228194   2.489   4.523   4.141
 9099SOL     OW28195   2.428   1.534   7.004
 9099SOL    HW128196   2.507   1.476   0.005
 9099SOL    HW228197   2.377   1.497   6.927
 9100SOL     OW28198   1.927   4.878   3.921
 9100SOL    HW128199   1.971   4.953   3.971
 9100SOL    HW228200   1.997   4.812   3.893
 9101SOL     OW28201   0.273   2.472   0.358
 9101SOL    HW128202   0.260   2.559   0.312
 9101SOL    HW228203   0.326   2.486   0.442
 9102SOL     OW28204   3.898   0.942   2.871
 9102SOL    HW128205   3.861   0.986   2.953
 9102SOL    HW228206   3.979   0.889   2.896
 9103SOL     OW28207   6.619   0.636   1.477
 9103SOL    HW128208   6.616   0.670   1.572
 9103SOL    HW228209   6.713   0.607   1.456
 9104SOL     OW28210   6.137   2.018   6.435
 9104SOL    HW128211   6.151   2.114   6.457
 9104SOL    HW228212   6.093   2.010   6.346
 9105SOL     OW28213   3.329   0.820   6.658
 9105SOL    HW128214   3.256   0.788   6.718
 9105SOL    HW228215   3.389   0.744   6.635
 9106SOL     OW28216   2.271   3.082   6.334
 9106SOL    HW128217   2.289   3.033   6.249
 9106SOL    HW228218   2.221   3.166   6.315
 9107SOL     OW28219   3.406   1.267   0.865
 9107SOL    HW128220   3.348   1.196   0.905
 9107SOL    HW228221   3.466   1.226   0.796
 9108SOL     OW28222   6.944   6.064   5.897
 9108SOL    HW128223   6.865   6.099   5.846
 9108SOL    HW228224   6.918   5.981   5.945
 9109SOL     OW28225   5.989   4.189   2.433
 9109SOL    HW128226   6.003   4.226   2.341
 9109SOL    HW228227   6.076   4.189   2.483
 9110SOL     OW28228   1.020   6.704   2.949
 9110SOL    HW128229   1.093   6.766   2.977
 9110SOL    HW228230   0.992   6.724   2.855
 9111SOL     OW28231   3.801   2.612   5.712
 9111SOL    HW128232   3.811   2.691   5.773
 9111SOL    HW228233   3.748   2.639   5.632
 9112SOL     OW28234   0.498   5.298   2.586
 9112SOL    HW128235   0.514   5.325   2.491
 9112SOL    HW228236   0.435   5.361   2.629
 9113SOL     OW28237   6.428   0.567   4.447
 9113SOL    HW128238   6.355   0.570   4.379
 9113SOL    HW228239   6.422   0.649   4.505
 9114SOL     OW28240   1.205   0.556   6.045
 9114SOL    HW128241   1.115   0.544   6.088
 9114SOL    HW228242   1.193   0.566   5.946
 9115SOL     OW28243   5.011   4.212   5.429
 9115SOL    HW128244   4.955   4.144   5.381
 9115SOL    HW228245   5.053   4.274   5.362
 9116SOL     OW28246   1.171   6.857   3.890
 9116SOL    HW128247   1.202   6.929   3.828
 9116SOL    HW228248   1.080   6.880   3.925
 9117SOL     OW28249   1.875   6.691   0.064
 9117SOL    HW128250   1.884   6.592   0.078
 9117SOL    HW228251   1.891   6.712   6.986
 9118SOL     OW28252   6.819   4.381   1.700
 9118SOL    HW128253   6.814   4.472   1.660
 9118SOL    HW228254   6.823   4.312   1.628
 9119SOL     OW28255   3.213   1.109   1.194
 9119SOL    HW128256   3.294   1.133   1.246
 9119SOL    HW228257   3.237   1.097   1.098
 9120SOL     OW28258   6.629   3.876   4.482
 9120SOL    HW128259   6.537   3.858   4.516
 9120SOL    HW228260   6.693   3.810   4.521
 9121SOL     OW28261   4.030   0.990   4.392
 9121SOL    HW128262   3.934   0.977   4.416
 9121SOL    HW228263   4.076   1.043   4.464
 9122SOL     OW28264   0.405   2.297   1.957
 9122SOL    HW128265   0.359   2.296   1.868
 9122SOL    HW228266   0.352   2.352   2.022
 9123SOL     OW28267   0.667   6.491   4.399
 9123SOL    HW128268   0.637   6.535   4.483
 9123SOL    HW228269   0.647   6.551   4.321
 9124SOL     OW28270   4.037   6.126   0.761
 9124SOL    HW128271   4.019   6.078   0.847
 9124SOL    HW228272   3.951   6.165   0.727
 9125SOL     OW28273   5.424   6.666   1.520
 9125SOL    HW128274   5.340   6.622   1.489
 9125SOL    HW228275   5.461   6.615   1.598
 9126SOL     OW28276   4.405   4.545   1.148
 9126SOL    HW128277   4.474   4.616   1.164
 9126SOL    HW228278   4.435   4.459   1.189
 9127SOL     OW28279   6.059   4.321   5.343
 9127SOL    HW128280   6.112   4.273   5.273
 9127SOL    HW228281   6.102   4.306   5.433
 9128SOL     OW28282   5.836   3.587   6.182
 9128SOL    HW128283   5.765   3.593   6.252
 9128SOL    HW228284   5.815   3.651   6.108
 9129SOL     OW28285   0.233   2.984   0.725
 9129SOL    HW128286   0.164   2.970   0.654
 9129SOL    HW228287   0.204   3.057   0.786
 9130SOL     OW28288   2.920   3.516   5.502
 9130SOL    HW128289   2.869   3.505   5.417
 9130SOL    HW228290   2.952   3.611   5.510
 9131SOL     OW28291   5.868   2.766   0.294
 9131SOL    HW128292   5.809   2.721   0.362
 9131SOL    HW228293   5.830   2.752   0.203
 9132SOL     OW28294   1.435   4.036   3.574
 9132SOL    HW128295   1.355   4.084   3.608
 9132SOL    HW228296   1.410   3.941   3.552
 9133SOL     OW28297   5.325   0.319   1.393
 9133SOL    HW128298   5.417   0.290   1.417
 9133SOL    HW228299   5.311   0.309   1.295
 9134SOL     OW28300   4.541   4.540   6.847
 9134SOL    HW128301   4.442   4.554   6.851
 9134SOL    HW228302   4.586   4.605   6.908
 9135SOL     OW28303   6.394   5.412   2.182
 9135SOL    HW128304   6.481   5.370   2.156
 9135SOL    HW228305   6.379   5.495   2.128
 9136SOL     OW28306   1.292   4.923   6.981
 9136SOL    HW128307   1.332   4.832   6.989
 9136SOL    HW228308   1.293   4.968   0.052
 9137SOL     OW28309   5.560   5.275   5.734
 9137SOL    HW128310   5.478   5.220   5.751
 9137SOL    HW228311   5.545   5.368   5.767
 9138SOL     OW28312   1.816   4.461   6.533
 9138SOL    HW128313   1.836   4.558   6.546
 9138SOL    HW228314   1.747   4.450   6.461
 9139SOL     OW28315   0.321   0.185   1.637
 9139SOL    HW128316   0.367   0.111   1.685
 9139SOL    HW228317   0.224   0.163   1.628
 9140SOL     OW28318   1.845   4.248   2.177
 9140SOL    HW128319   1.749   4.246   2.151
 9140SOL    HW228320   1.902   4.238   2.096
 9141SOL     OW28321   0.581   5.699   4.718
 9141SOL    HW128322   0.654   5.663   4.659
 9141SOL    HW228323   0.597   5.796   4.735
 9142SOL     OW28324   1.354   4.668   3.450
 9142SOL    HW128325   1.319   4.579   3.421
 9142SOL    HW228326   1.440   4.687   3.402
 9143SOL     OW28327   6.375   3.441   2.680
 9143SOL    HW128328   6.450   3.478   2.626
 9143SOL    HW228329   6.332   3.366   2.630
 9144SOL     OW28330   2.978   4.292   5.781
 9144SOL    HW128331   2.889   4.247   5.792
 9144SOL    HW228332   2.976   4.354   5.703
 9145SOL     OW28333   2.075   6.636   6.016
 9145SOL    HW128334   2.077   6.546   5.975
 9145SOL    HW228335   2.124   6.701   5.958
 9146SOL     OW28336   6.554   2.270   4.217
 9146SOL    HW128337   6.466   2.225   4.235
 9146SOL    HW228338   6.611   2.265   4.298
 9147SOL     OW28339   4.286   0.800   6.067
 9147SOL    HW128340   4.269   0.870   5.998
 9147SOL    HW228341   4.367   0.746   6.041
 9148SOL     OW28342   4.100   5.754   2.254
 9148SOL    HW128343   4.080   5.852   2.248
 9148SOL    HW228344   4.188   5.735   2.210
 9149SOL     OW28345   0.537   4.453   1.200
 9149SOL    HW128346   0.557   4.534   1.256
 9149SOL    HW228347   0.520   4.375   1.260
 9150SOL     OW28348   2.963   4.049   7.009
 9150SOL    HW128349   3.009   3.963   0.015
 9150SOL    HW228350   2.900   4.032   6.933
 9151SOL     OW28351   2.163   2.962   3.713
 9151SOL    HW128352   2.185   3.017   3.632
 9151SOL    HW228353   2.157   2.865   3.687
 9152SOL     OW28354   2.044   4.901   2.133
 9152SOL    HW128355   2.051   4.987   2.082
 9152SOL    HW228356   1.977   4.911   2.207
 9153SOL     OW28357   0.290   3.641   0.471
 9153SOL    HW128358   0.302   3.611   0.377
 9153SOL    HW228359   0.194   3.631   0.497
 9154SOL     OW28360   4.635   5.240   3.372
 9154SOL    HW128361   4.568   5.200   3.434
 9154SOL    HW228362   4.620   5.339   3.366
 9155SOL     OW28363   1.213   6.014   2.656
 9155SOL    HW128364   1.169   5.938   2.608
 9155SOL    HW228365   1.286   5.979   2.714
 9156SOL     OW28366   0.134   3.914   5.478
 9156SOL    HW128367   0.122   4.013   5.487
 9156SOL    HW228368   0.057   3.876   5.426
 9157SOL     OW28369   1.877   4.576   5.183
 9157SOL    HW128370   1.955   4.632   5.212
 9157SOL    HW228371   1.877   4.568   5.084
 9158SOL     OW28372   0.224   3.079   4.724
 9158SOL    HW128373   0.225   3.117   4.817
 9158SOL    HW228374   0.229   2.979   4.730
 9159SOL     OW28375   1.917   1.099   4.174
 9159SOL    HW128376   1.907   1.174   4.109
 9159SOL    HW228377   1.827   1.061   4.195
 9160SOL     OW28378   0.666   3.477   6.187
 9160SOL    HW128379   0.572   3.488   6.217
 9160SOL    HW228380   0.709   3.567   6.177
 9161SOL     OW28381   5.568   3.120   2.995
 9161SOL    HW128382   5.482   3.111   3.045
 9161SOL    HW228383   5.609   3.030   2.983
 9162SOL     OW28384   4.288   1.854   1.868
 9162SOL    HW128385   4.321   1.897   1.952
 9162SOL    HW228386   4.285   1.755   1.880
 9163SOL     OW28387   1.863   3.153   3.592
 9163SOL    HW128388   1.870   3.127   3.496
 9163SOL    HW228389   1.953   3.183   3.626
 9164SOL     OW28390   3.206   6.798   0.496
 9164SOL    HW128391   3.233   6.883   0.541
 9164SOL    HW228392   3.106   6.794   0.489
 9165SOL     OW28393   5.933   0.927   6.611
 9165SOL    HW128394   6.028   0.936   6.642
 9165SOL    HW228395   5.928   0.948   6.513
 9166SOL     OW28396   4.120   6.467   1.700
 9166SOL    HW128397   4.189   6.522   1.653
 9166SOL    HW228398   4.156   6.434   1.787
 9167SOL     OW28399   1.424   1.962   4.407
 9167SOL    HW128400   1.330   1.988   4.384
 9167SOL    HW228401   1.468   2.038   4.457
 9168SOL     OW28402   6.577   6.039   5.073
 9168SOL    HW128403   6.508   6.030   5.144
 9168SOL    HW228404   6.569   6.129   5.030
 9169SOL     OW28405   6.437   6.020   6.836
 9169SOL    HW128406   6.495   6.017   6.755
 9169SOL    HW228407   6.493   6.011   6.918
 9170SOL     OW28408   2.089   1.086   5.996
 9170SOL    HW128409   2.144   1.169   5.989
 9170SOL    HW228410   2.062   1.056   5.905
 9171SOL     OW28411   4.234   5.406   0.342
 9171SOL    HW128412   4.182   5.334   0.387
 9171SOL    HW228413   4.173   5.482   0.320
 9172SOL     OW28414   4.676   1.704   5.420
 9172SOL    HW128415   4.660   1.637   5.492
 9172SOL    HW228416   4.721   1.784   5.459
 9173SOL     OW28417   6.226   4.142   5.106
 9173SOL    HW128418   6.212   4.071   5.175
 9173SOL    HW228419   6.322   4.170   5.104
 9174SOL     OW28420   5.986   4.576   0.423
 9174SOL    HW128421   6.013   4.637   0.497
 9174SOL    HW228422   5.886   4.567   0.422
 9175SOL     OW28423   2.450   1.286   1.541
 9175SOL    HW128424   2.411   1.283   1.449
 9175SOL    HW228425   2.522   1.217   1.548
 9176SOL     OW28426   1.699   0.865   2.513
 9176SOL    HW128427   1.746   0.809   2.445
 9176SOL    HW228428   1.686   0.958   2.478
 9177SOL     OW28429   0.928   5.844   3.644
 9177SOL    HW128430   0.866   5.780   3.600
 9177SOL    HW228431   1.019   5.837   3.602
 9178SOL     OW28432   1.431   3.411   0.981
 9178SOL    HW128433   1.339   3.408   0.942
 9178SOL    HW228434   1.479   3.491   0.946
 9179SOL     OW28435   4.138   5.186   3.048
 9179SOL    HW128436   4.087   5.240   3.115
 9179SOL    HW228437   4.186   5.112   3.095
 9180SOL     OW28438   0.505   0.769   4.757
 9180SOL    HW128439   0.586   0.811   4.798
 9180SOL    HW228440   0.494   0.676   4.792
 9181SOL     OW28441   2.568   2.157   3.510
 9181SOL    HW128442   2.655   2.203   3.525
 9181SOL    HW228443   2.516   2.156   3.596
 9182SOL     OW28444   6.665   1.733   2.642
 9182SOL    HW128445   6.751   1.714   2.595
 9182SOL    HW228446   6.651   1.831   2.649
 9183SOL     OW28447   2.372   1.665   5.637
 9183SOL    HW128448   2.274   1.677   5.627
 9183SOL    HW228449   2.416   1.671   5.547
 9184SOL     OW28450   2.811   4.946   1.501
 9184SOL    HW128451   2.862   5.032   1.505
 9184SOL    HW228452   2.827   4.893   1.584
 9185SOL     OW28453   1.080   0.916   5.305
 9185SOL    HW128454   1.002   0.942   5.249
 9185SOL    HW228455   1.112   0.995   5.357
 9186SOL     OW28456   5.589   6.507   6.321
 9186SOL    HW128457   5.669   6.519   6.262
 9186SOL    HW228458   5.529   6.438   6.281
 9187SOL     OW28459   5.001   2.881   1.152
 9187SOL    HW128460   4.994   2.980   1.138
 9187SOL    HW228461   4.911   2.843   1.174
 9188SOL     OW28462   1.380   0.861   2.242
 9188SOL    HW128463   1.369   0.855   2.341
 9188SOL    HW228464   1.298   0.824   2.198
 9189SOL     OW28465   3.037   0.858   6.368
 9189SOL    HW128466   3.117   0.828   6.317
 9189SOL    HW228467   3.013   0.788   6.436
 9190SOL     OW28468   3.589   0.923   5.449
 9190SOL    HW128469   3.601   0.824   5.457
 9190SOL    HW228470   3.625   0.955   5.362
 9191SOL     OW28471   5.846   0.163   1.337
 9191SOL    HW128472   5.750   0.144   1.316
 9191SOL    HW228473   5.862   0.148   1.434
 9192SOL     OW28474   5.206   4.172   4.753
 9192SOL    HW128475   5.260   4.163   4.836
 9192SOL    HW228476   5.131   4.105   4.754
 9193SOL     OW28477   4.007   3.555   2.657
 9193SOL    HW128478   3.924   3.557   2.601
 9193SOL    HW228479   4.084   3.523   2.601
 9194SOL     OW28480   3.393   4.937   2.909
 9194SOL    HW128481   3.490   4.959   2.898
 9194SOL    HW228482   3.338   5.000   2.854
 9195SOL     OW28483   0.845   3.327   3.618
 9195SOL    HW128484   0.942   3.308   3.631
 9195SOL    HW228485   0.799   3.325   3.707
 9196SOL     OW28486   5.268   5.574   3.358
 9196SOL    HW128487   5.229   5.546   3.446
 9196SOL    HW228488   5.357   5.529   3.346
 9197SOL     OW28489   4.712   2.160   0.266
 9197SOL    HW128490   4.708   2.222   0.344
 9197SOL    HW228491   4.627   2.167   0.213
 9198SOL     OW28492   6.413   2.995   5.280
 9198SOL    HW128493   6.333   2.996   5.221
 9198SOL    HW228494   6.480   3.062   5.248
 9199SOL     OW28495   0.944   3.891   6.726
 9199SOL    HW128496   0.847   3.870   6.737
 9199SOL    HW228497   0.964   3.980   6.768
 9200SOL     OW28498   4.893   6.322   1.918
 9200SOL    HW128499   4.887   6.224   1.900
 9200SOL    HW228500   4.932   6.368   1.838
 9201SOL     OW28501   0.458   2.794   2.373
 9201SOL    HW128502   0.396   2.847   2.431
 9201SOL    HW228503   0.486   2.850   2.295
 9202SOL     OW28504   1.940   6.159   4.105
 9202SOL    HW128505   1.884   6.099   4.162
 9202SOL    HW228506   1.979   6.106   4.030
 9203SOL     OW28507   4.968   1.829   1.025
 9203SOL    HW128508   4.963   1.779   1.112
 9203SOL    HW228509   5.033   1.783   0.965
 9204SOL     OW28510   4.893   4.551   2.579
 9204SOL    HW128511   4.911   4.562   2.677
 9204SOL    HW228512   4.893   4.454   2.555
 9205SOL     OW28513   4.040   2.131   1.474
 9205SOL    HW128514   4.080   2.093   1.557
 9205SOL    HW228515   4.111   2.180   1.422
 9206SOL     OW28516   6.812   6.268   5.178
 9206SOL    HW128517   6.884   6.324   5.137
 9206SOL    HW228518   6.832   6.171   5.164
 9207SOL     OW28519   4.988   6.222   0.201
 9207SOL    HW128520   5.063   6.216   0.267
 9207SOL    HW228521   4.966   6.130   0.167
 9208SOL     OW28522   5.136   4.404   1.756
 9208SOL    HW128523   5.170   4.445   1.671
 9208SOL    HW228524   5.040   4.381   1.746
 9209SOL     OW28525   4.511   0.372   4.147
 9209SOL    HW128526   4.500   0.467   4.178
 9209SOL    HW228527   4.593   0.366   4.089
 9210SOL     OW28528   1.017   6.999   6.665
 9210SOL    HW128529   1.092   0.015   6.722
 9210SOL    HW228530   0.930   0.019   6.699
 9211SOL     OW28531   5.018   1.627   6.562
 9211SOL    HW128532   5.063   1.556   6.508
 9211SOL    HW228533   5.086   1.672   6.621
 9212SOL     OW28534   6.035   3.380   6.182
 9212SOL    HW128535   5.993   3.298   6.222
 9212SOL    HW228536   5.966   3.452   6.176
 9213SOL     OW28537   6.680   5.763   2.262
 9213SOL    HW128538   6.776   5.787   2.279
 9213SOL    HW228539   6.649   5.700   2.334
 9214SOL     OW28540   2.227   1.302   6.386
 9214SOL    HW128541   2.180   1.370   6.329
 9214SOL    HW228542   2.310   1.343   6.425
 9215SOL     OW28543   0.354   4.169   3.773
 9215SOL    HW128544   0.418   4.117   3.829
 9215SOL    HW228545   0.398   4.192   3.686
 9216SOL     OW28546   2.086   6.919   3.928
 9216SOL    HW128547   2.036   6.885   4.008
 9216SOL    HW228548   2.107   6.842   3.867
 9217SOL     OW28549   3.218   2.394   6.794
 9217SOL    HW128550   3.233   2.490   6.773
 9217SOL    HW228551   3.124   2.380   6.825
 9218SOL     OW28552   4.355   5.901   5.551
 9218SOL    HW128553   4.379   5.996   5.530
 9218SOL    HW228554   4.409   5.840   5.493
 9219SOL     OW28555   3.347   2.678   5.750
 9219SOL    HW128556   3.288   2.717   5.821
 9219SOL    HW228557   3.378   2.588   5.779
 9220SOL     OW28558   0.756   6.766   3.819
 9220SOL    HW128559   0.791   6.673   3.809
 9220SOL    HW228560   0.750   6.810   3.730
 9221SOL     OW28561   2.763   1.639   1.596
 9221SOL    HW128562   2.712   1.573   1.540
 9221SOL    HW228563   2.815   1.700   1.538
 9222SOL     OW28564   2.140   5.965   3.349
 9222SOL    HW128565   2.218   6.024   3.372
 9222SOL    HW228566   2.174   5.877   3.316
 9223SOL     OW28567   6.157   2.404   4.671
 9223SOL    HW128568   6.061   2.428   4.663
 9223SOL    HW228569   6.172   2.349   4.753
 9224SOL     OW28570   1.837   5.260   2.445
 9224SOL    HW128571   1.883   5.307   2.369
 9224SOL    HW228572   1.823   5.323   2.520
 9225SOL     OW28573   0.492   5.387   6.011
 9225SOL    HW128574   0.517   5.326   6.086
 9225SOL    HW228575   0.417   5.347   5.958
 9226SOL     OW28576   0.823   0.268   4.813
 9226SOL    HW128577   0.794   0.363   4.820
 9226SOL    HW228578   0.743   0.208   4.821
 9227SOL     OW28579   3.954   3.666   0.134
 9227SOL    HW128580   3.922   3.677   0.228
 9227SOL    HW228581   3.875   3.669   0.072
 9228SOL     OW28582   3.662   3.747   4.926
 9228SOL    HW128583   3.734   3.778   4.989
 9228SOL    HW228584   3.577   3.734   4.976
 9229SOL     OW28585   0.064   5.177   0.725
 9229SOL    HW128586   0.093   5.269   0.698
 9229SOL    HW228587   6.984   5.177   0.744
 9230SOL     OW28588   3.744   0.150   6.117
 9230SOL    HW128589   3.728   0.067   6.171
 9230SOL    HW228590   3.693   0.143   6.031
 9231SOL     OW28591   5.865   6.533   1.533
 9231SOL    HW128592   5.892   6.465   1.601
 9231SOL    HW228593   5.767   6.551   1.541
 9232SOL     OW28594   1.054   5.184   2.001
 9232SOL    HW128595   1.072   5.281   1.987
 9232SOL    HW228596   1.139   5.132   1.993
 9233SOL     OW28597   0.960   0.099   5.766
 9233SOL    HW128598   0.975   0.153   5.683
 9233SOL    HW228599   1.009   0.140   5.842
 9234SOL     OW28600   3.670   4.337   6.456
 9234SOL    HW128601   3.650   4.354   6.552
 9234SOL    HW228602   3.741   4.399   6.424
 9235SOL     OW28603   2.471   2.572   2.944
 9235SOL    HW128604   2.466   2.671   2.950
 9235SOL    HW228605   2.404   2.532   3.007
 9236SOL     OW28606   2.038   3.829   6.276
 9236SOL    HW128607   2.084   3.889   6.342
 9236SOL    HW228608   1.957   3.876   6.240
 9237SOL     OW28609   6.441   5.383   3.779
 9237SOL    HW128610   6.519   5.375   3.841
 9237SOL    HW228611   6.434   5.477   3.746
 9238SOL     OW28612   1.401   2.447   5.029
 9238SOL    HW128613   1.405   2.424   5.126
 9238SOL    HW228614   1.317   2.409   4.989
 9239SOL     OW28615   1.657   5.562   5.889
 9239SOL    HW128616   1.676   5.489   5.823
 9239SOL    HW228617   1.558   5.568   5.904
 9240SOL     OW28618   3.615   1.418   4.556
 9240SOL    HW128619   3.621   1.486   4.629
 9240SOL    HW228620   3.546   1.350   4.580
 9241SOL     OW28621   5.386   6.173   0.170
 9241SOL    HW128622   5.444   6.234   0.116
 9241SOL    HW228623   5.408   6.182   0.267
 9242SOL     OW28624   2.590   2.516   0.431
 9242SOL    HW128625   2.651   2.595   0.424
 9242SOL    HW228626   2.633   2.444   0.485
 9243SOL     OW28627   2.264   0.459   0.205
 9243SOL    HW128628   2.325   0.439   0.281
 9243SOL    HW228629   2.195   0.387   0.197
 9244SOL     OW28630   3.104   6.199   0.262
 9244SOL    HW128631   3.046   6.222   0.184
 9244SOL    HW228632   3.179   6.266   0.268
 9245SOL     OW28633   0.496   4.747   3.045
 9245SOL    HW128634   0.528   4.756   2.951
 9245SOL    HW228635   0.399   4.721   3.045
 9246SOL     OW28636   5.114   0.063   6.985
 9246SOL    HW128637   5.049   0.123   0.013
 9246SOL    HW228638   5.082   0.043   6.893
 9247SOL     OW28639   3.398   6.634   2.971
 9247SOL    HW128640   3.353   6.634   2.882
 9247SOL    HW228641   3.439   6.544   2.988
 9248SOL     OW28642   2.765   0.157   0.284
 9248SOL    HW128643   2.816   0.081   0.323
 9248SOL    HW228644   2.803   0.243   0.319
 9249SOL     OW28645   3.720   0.635   0.534
 9249SOL    HW128646   3.632   0.595   0.509
 9249SOL    HW228647   3.774   0.568   0.584
 9250SOL     OW28648   0.454   3.979   2.828
 9250SOL    HW128649   0.503   3.896   2.800
 9250SOL    HW228650   0.512   4.059   2.813
 9251SOL     OW28651   4.085   1.680   1.256
 9251SOL    HW128652   4.109   1.585   1.237
 9251SOL    HW228653   4.015   1.710   1.191
 9252SOL     OW28654   5.672   1.758   4.811
 9252SOL    HW128655   5.771   1.746   4.801
 9252SOL    HW228656   5.642   1.721   4.899
 9253SOL     OW28657   2.626   4.850   3.827
 9253SOL    HW128658   2.543   4.822   3.778
 9253SOL    HW228659   2.655   4.940   3.795
 9254SOL     OW28660   0.076   6.125   2.478
 9254SOL    HW128661   0.010   6.123   2.403
 9254SOL    HW228662   0.088   6.033   2.514
 9255SOL     OW28663   6.537   3.468   0.812
 9255SOL    HW128664   6.599   3.429   0.744
 9255SOL    HW228665   6.518   3.563   0.788
 9256SOL     OW28666   2.502   6.488   1.074
 9256SOL    HW128667   2.405   6.484   1.051
 9256SOL    HW228668   2.554   6.515   0.993
 9257SOL     OW28669   6.539   6.224   4.863
 9257SOL    HW128670   6.593   6.271   4.793
 9257SOL    HW228671   6.500   6.140   4.825
 9258SOL     OW28672   5.318   4.788   2.629
 9258SOL    HW128673   5.306   4.885   2.608
 9258SOL    HW228674   5.247   4.758   2.692
 9259SOL     OW28675   0.948   2.656   6.702
 9259SOL    HW128676   0.947   2.567   6.655
 9259SOL    HW228677   0.894   2.721   6.649
 9260SOL     OW28678   5.220   4.469   4.778
 9260SOL    HW128679   5.245   4.372   4.778
 9260SOL    HW228680   5.120   4.477   4.774
 9261SOL     OW28681   1.386   3.593   1.555
 9261SOL    HW128682   1.328   3.525   1.599
 9261SOL    HW228683   1.478   3.556   1.542
 9262SOL     OW28684   0.576   6.871   6.495
 9262SOL    HW128685   0.639   6.948   6.482
 9262SOL    HW228686   0.585   6.808   6.418
 9263SOL     OW28687   2.598   4.702   2.759
 9263SOL    HW128688   2.509   4.660   2.777
 9263SOL    HW228689   2.624   4.686   2.664
 9264SOL     OW28690   5.186   3.218   5.889
 9264SOL    HW128691   5.191   3.318   5.879
 9264SOL    HW228692   5.258   3.188   5.952
 9265SOL     OW28693   4.933   0.087   2.231
 9265SOL    HW128694   4.874   0.167   2.247
 9265SOL    HW228695   4.908   0.014   2.294
 9266SOL     OW28696   0.469   4.899   1.006
 9266SOL    HW128697   0.406   4.975   0.993
 9266SOL    HW228698   0.486   4.855   0.918
 9267SOL     OW28699   6.854   1.278   3.816
 9267SOL    HW128700   6.939   1.242   3.856
 9267SOL    HW228701   6.832   1.227   3.733
 9268SOL     OW28702   0.416   1.048   1.129
 9268SOL    HW128703   0.418   1.008   1.037
 9268SOL    HW228704   0.384   0.980   1.194
 9269SOL     OW28705   3.467   0.024   0.949
 9269SOL    HW128706   3.547   0.062   0.903
 9269SOL    HW228707   3.420   0.095   1.000
 9270SOL     OW28708   2.289   0.798   5.189
 9270SOL    HW128709   2.200   0.767   5.222
 9270SOL    HW228710   2.282   0.890   5.152
 9271SOL     OW28711   1.852   4.429   5.773
 9271SOL    HW128712   1.856   4.359   5.701
 9271SOL    HW228713   1.932   4.420   5.832
 9272SOL     OW28714   6.853   6.649   5.235
 9272SOL    HW128715   6.794   6.569   5.227
 9272SOL    HW228716   6.934   6.626   5.289
 9273SOL     OW28717   6.442   3.594   3.630
 9273SOL    HW128718   6.431   3.504   3.586
 9273SOL    HW228719   6.372   3.606   3.700
 9274SOL     OW28720   6.547   3.221   0.244
 9274SOL    HW128721   6.466   3.236   0.187
 9274SOL    HW228722   6.553   3.294   0.313
 9275SOL     OW28723   5.081   2.097   7.014
 9275SOL    HW128724   5.004   2.039   6.987
 9275SOL    HW228725   5.136   2.118   6.933
 9276SOL     OW28726   1.831   3.540   7.011
 9276SOL    HW128727   1.847   3.634   0.023
 9276SOL    HW228728   1.750   3.504   0.039
 9277SOL     OW28729   3.794   5.731   2.292
 9277SOL    HW128730   3.764   5.826   2.298
 9277SOL    HW228731   3.885   5.728   2.249
 9278SOL     OW28732   0.866   0.497   5.751
 9278SOL    HW128733   0.907   0.488   5.660
 9278SOL    HW228734   0.903   0.578   5.796
 9279SOL     OW28735   3.444   5.938   1.655
 9279SOL    HW128736   3.527   5.884   1.662
 9279SOL    HW228737   3.365   5.877   1.651
 9280SOL     OW28738   1.222   5.097   1.424
 9280SOL    HW128739   1.231   5.008   1.469
 9280SOL    HW228740   1.136   5.099   1.373
 9281SOL     OW28741   1.292   5.594   0.854
 9281SOL    HW128742   1.269   5.521   0.919
 9281SOL    HW228743   1.363   5.652   0.894
 9282SOL     OW28744   2.032   0.347   4.871
 9282SOL    HW128745   2.047   0.323   4.775
 9282SOL    HW228746   1.937   0.327   4.896
 9283SOL     OW28747   4.767   5.417   6.970
 9283SOL    HW128748   4.722   5.402   6.882
 9283SOL    HW228749   4.793   5.513   6.979
 9284SOL     OW28750   4.474   6.617   1.273
 9284SOL    HW128751   4.397   6.554   1.287
 9284SOL    HW228752   4.493   6.623   1.175
 9285SOL     OW28753   6.790   5.759   3.517
 9285SOL    HW128754   6.721   5.687   3.526
 9285SOL    HW228755   6.859   5.731   3.450
 9286SOL     OW28756   4.975   6.676   1.481
 9286SOL    HW128757   4.893   6.645   1.530
 9286SOL    HW228758   5.049   6.691   1.547
 9287SOL     OW28759   4.651   4.645   0.565
 9287SOL    HW128760   4.699   4.572   0.517
 9287SOL    HW228761   4.597   4.698   0.500
 9288SOL     OW28762   3.832   1.602   2.513
 9288SOL    HW128763   3.881   1.537   2.456
 9288SOL    HW228764   3.748   1.560   2.548
 9289SOL     OW28765   4.300   5.844   2.608
 9289SOL    HW128766   4.282   5.888   2.696
 9289SOL    HW228767   4.397   5.853   2.586
 9290SOL     OW28768   5.267   1.342   3.820
 9290SOL    HW128769   5.283   1.351   3.918
 9290SOL    HW228770   5.347   1.375   3.770
 9291SOL     OW28771   0.797   4.206   5.585
 9291SOL    HW128772   0.880   4.220   5.531
 9291SOL    HW228773   0.811   4.132   5.651
 9292SOL     OW28774   1.217   1.839   6.792
 9292SOL    HW128775   1.293   1.801   6.843
 9292SOL    HW228776   1.233   1.936   6.775
 9293SOL     OW28777   4.862   1.125   4.912
 9293SOL    HW128778   4.856   1.197   4.980
 9293SOL    HW228779   4.935   1.146   4.847
 9294SOL     OW28780   5.142   6.135   6.037
 9294SOL    HW128781   5.068   6.070   6.020
 9294SOL    HW228782   5.229   6.085   6.044
 9295SOL     OW28783   6.385   0.619   3.004
 9295SOL    HW128784   6.286   0.602   3.005
 9295SOL    HW228785   6.401   0.718   3.011
 9296SOL     OW28786   1.472   4.096   5.375
 9296SOL    HW128787   1.545   4.088   5.307
 9296SOL    HW228788   1.400   4.155   5.339
 9297SOL     OW28789   6.666   5.374   2.046
 9297SOL    HW128790   6.757   5.388   2.085
 9297SOL    HW228791   6.666   5.290   1.991
 9298SOL     OW28792   0.471   4.518   6.130
 9298SOL    HW128793   0.515   4.595   6.083
 9298SOL    HW228794   0.520   4.434   6.109
 9299SOL     OW28795   2.780   1.870   3.774
 9299SOL    HW128796   2.814   1.781   3.803
 9299SOL    HW228797   2.762   1.869   3.676
 9300SOL     OW28798   2.201   5.445   5.748
 9300SOL    HW128799   2.167   5.398   5.830
 9300SOL    HW228800   2.297   5.422   5.733
 9301SOL     OW28801   0.860   3.670   4.565
 9301SOL    HW128802   0.841   3.573   4.580
 9301SOL    HW228803   0.826   3.724   4.642
 9302SOL     OW28804   3.287   5.500   3.973
 9302SOL    HW128805   3.246   5.549   4.051
 9302SOL    HW228806   3.305   5.565   3.899
 9303SOL     OW28807   2.331   4.633   0.320
 9303SOL    HW128808   2.255   4.663   0.263
 9303SOL    HW228809   2.319   4.537   0.344
 9304SOL     OW28810   5.774   5.783   6.148
 9304SOL    HW128811   5.716   5.862   6.129
 9304SOL    HW228812   5.775   5.722   6.069
 9305SOL     OW28813   1.641   1.599   1.074
 9305SOL    HW128814   1.589   1.574   0.992
 9305SOL    HW228815   1.590   1.669   1.125
 9306SOL     OW28816   6.875   6.057   4.376
 9306SOL    HW128817   6.843   6.069   4.282
 9306SOL    HW228818   6.943   6.127   4.397
 9307SOL     OW28819   2.167   4.071   1.152
 9307SOL    HW128820   2.262   4.097   1.170
 9307SOL    HW228821   2.116   4.068   1.238
 9308SOL     OW28822   2.354   3.855   1.397
 9308SOL    HW128823   2.388   3.837   1.304
 9308SOL    HW228824   2.255   3.870   1.394
 9309SOL     OW28825   4.433   5.245   5.672
 9309SOL    HW128826   4.458   5.187   5.750
 9309SOL    HW228827   4.447   5.195   5.587
 9310SOL     OW28828   6.806   6.240   6.161
 9310SOL    HW128829   6.773   6.249   6.067
 9310SOL    HW228830   6.845   6.326   6.191
 9311SOL     OW28831   5.801   4.494   0.816
 9311SOL    HW128832   5.784   4.423   0.747
 9311SOL    HW228833   5.723   4.557   0.819
 9312SOL     OW28834   5.882   3.116   4.198
 9312SOL    HW128835   5.792   3.082   4.227
 9312SOL    HW228836   5.877   3.215   4.184
 9313SOL     OW28837   0.504   0.543   2.240
 9313SOL    HW128838   0.521   0.555   2.337
 9313SOL    HW228839   0.591   0.550   2.190
 9314SOL     OW28840   4.769   4.799   1.330
 9314SOL    HW128841   4.782   4.764   1.423
 9314SOL    HW228842   4.858   4.827   1.293
 9315SOL     OW28843   6.102   5.232   5.744
 9315SOL    HW128844   6.178   5.188   5.792
 9315SOL    HW228845   6.136   5.311   5.693
 9316SOL     OW28846   5.601   6.411   0.601
 9316SOL    HW128847   5.612   6.313   0.586
 9316SOL    HW228848   5.589   6.457   0.513
 9317SOL     OW28849   2.352   6.208   3.068
 9317SOL    HW128850   2.436   6.246   3.027
 9317SOL    HW228851   2.273   6.261   3.036
 9318SOL     OW28852   3.310   6.913   3.494
 9318SOL    HW128853   3.341   6.855   3.570
 9318SOL    HW228854   3.334   6.870   3.407
 9319SOL     OW28855   3.592   1.989   0.049
 9319SOL    HW128856   3.532   1.913   0.073
 9319SOL    HW228857   3.560   2.031   6.982
 9320SOL     OW28858   6.690   6.475   6.825
 9320SOL    HW128859   6.753   6.411   6.781
 9320SOL    HW228860   6.738   6.526   6.896
 9321SOL     OW28861   0.719   2.782   3.798
 9321SOL    HW128862   0.767   2.695   3.806
 9321SOL    HW228863   0.781   2.857   3.820
 9322SOL     OW28864   5.093   2.962   7.004
 9322SOL    HW128865   5.160   2.904   0.032
 9322SOL    HW228866   5.136   3.008   6.927
 9323SOL     OW28867   0.558   1.696   5.277
 9323SOL    HW128868   0.606   1.780   5.304
 9323SOL    HW228869   0.558   1.689   5.177
 9324SOL     OW28870   0.492   4.525   0.481
 9324SOL    HW128871   0.458   4.561   0.394
 9324SOL    HW228872   0.432   4.554   0.555
 9325SOL     OW28873   1.086   4.714   3.173
 9325SOL    HW128874   1.000   4.716   3.123
 9325SOL    HW228875   1.068   4.734   3.270
 9326SOL     OW28876   5.116   4.881   1.524
 9326SOL    HW128877   5.038   4.822   1.544
 9326SOL    HW228878   5.191   4.859   1.587
 9327SOL     OW28879   2.431   1.361   3.257
 9327SOL    HW128880   2.526   1.351   3.287
 9327SOL    HW228881   2.387   1.432   3.311
 9328SOL     OW28882   1.103   6.999   3.268
 9328SOL    HW128883   1.160   6.932   3.314
 9328SOL    HW228884   1.135   0.073   3.290
 9329SOL     OW28885   2.036   4.917   6.199
 9329SOL    HW128886   2.018   4.838   6.140
 9329SOL    HW228887   2.034   4.889   6.295
 9330SOL     OW28888   0.424   6.439   0.977
 9330SOL    HW128889   0.447   6.392   1.063
 9330SOL    HW228890   0.325   6.453   0.973
 9331SOL     OW28891   2.094   5.005   4.557
 9331SOL    HW128892   2.181   4.979   4.599
 9331SOL    HW228893   2.030   4.929   4.563
 9332SOL     OW28894   6.290   5.104   0.050
 9332SOL    HW128895   6.277   5.197   0.014
 9332SOL    HW228896   6.388   5.088   0.064
 9333SOL     OW28897   1.701   4.989   0.972
 9333SOL    HW128898   1.681   5.047   1.051
 9333SOL    HW228899   1.800   4.985   0.959
 9334SOL     OW28900   6.936   5.136   6.969
 9334SOL    HW128901   0.012   5.103   6.963
 9334SOL    HW228902   6.912   5.184   6.885
 9335SOL     OW28903   0.107   3.269   0.833
 9335SOL    HW128904   0.030   3.284   0.772
 9335SOL    HW228905   0.118   3.347   0.894
 9336SOL     OW28906   3.844   6.025   5.479
 9336SOL    HW128907   3.943   6.012   5.488
 9336SOL    HW228908   3.819   6.117   5.510
 9337SOL     OW28909   3.029   1.541   4.660
 9337SOL    HW128910   3.073   1.555   4.572
 9337SOL    HW228911   2.955   1.608   4.672
 9338SOL     OW28912   4.783   6.373   0.840
 9338SOL    HW128913   4.867   6.425   0.822
 9338SOL    HW228914   4.719   6.386   0.764
 9339SOL     OW28915   6.892   3.575   4.996
 9339SOL    HW128916   6.838   3.613   5.071
 9339SOL    HW228917   6.840   3.578   4.911
 9340SOL     OW28918   2.467   4.834   2.390
 9340SOL    HW128919   2.411   4.850   2.309
 9340SOL    HW228920   2.558   4.803   2.362
 9341SOL     OW28921   5.851   5.447   0.148
 9341SOL    HW128922   5.916   5.439   0.072
 9341SOL    HW228923   5.794   5.365   0.152
 9342SOL     OW28924   2.797   0.154   5.162
 9342SOL    HW128925   2.842   0.188   5.245
 9342SOL    HW228926   2.706   0.119   5.186
 9343SOL     OW28927   5.200   3.559   1.391
 9343SOL    HW128928   5.232   3.510   1.472
 9343SOL    HW228929   5.103   3.582   1.403
 9344SOL     OW28930   5.646   0.110   5.020
 9344SOL    HW128931   5.650   0.014   4.992
 9344SOL    HW228932   5.567   0.154   4.978
 9345SOL     OW28933   0.165   4.589   6.544
 9345SOL    HW128934   0.195   4.684   6.560
 9345SOL    HW228935   0.244   4.529   6.539
 9346SOL     OW28936   5.011   0.398   2.039
 9346SOL    HW128937   5.060   0.443   2.114
 9346SOL    HW228938   4.915   0.388   2.063
 9347SOL     OW28939   4.789   6.724   2.012
 9347SOL    HW128940   4.729   6.656   1.968
 9347SOL    HW228941   4.825   6.787   1.943
 9348SOL     OW28942   2.338   5.388   1.980
 9348SOL    HW128943   2.433   5.419   1.984
 9348SOL    HW228944   2.316   5.339   2.063
 9349SOL     OW28945   6.421   6.066   0.761
 9349SOL    HW128946   6.326   6.096   0.763
 9349SOL    HW228947   6.431   5.991   0.696
 9350SOL     OW28948   6.390   0.124   0.090
 9350SOL    HW128949   6.296   0.148   0.115
 9350SOL    HW228950   6.397   0.025   0.078
 9351SOL     OW28951   4.799   3.973   6.313
 9351SOL    HW128952   4.791   4.048   6.247
 9351SOL    HW228953   4.763   4.003   6.401
 9352SOL     OW28954   2.205   2.150   0.286
 9352SOL    HW128955   2.125   2.178   0.232
 9352SOL    HW228956   2.271   2.225   0.290
 9353SOL     OW28957   1.217   3.079   1.954
 9353SOL    HW128958   1.262   3.003   1.907
 9353SOL    HW228959   1.185   3.048   2.044
 9354SOL     OW28960   5.441   2.321   2.287
 9354SOL    HW128961   5.514   2.320   2.356
 9354SOL    HW228962   5.411   2.415   2.272
 9355SOL     OW28963   0.100   1.467   2.258
 9355SOL    HW128964   0.014   1.513   2.233
 9355SOL    HW228965   0.171   1.536   2.271
 9356SOL     OW28966   4.693   2.795   2.435
 9356SOL    HW128967   4.766   2.852   2.399
 9356SOL    HW228968   4.618   2.853   2.468
 9357SOL     OW28969   2.355   4.908   0.205
 9357SOL    HW128970   2.436   4.855   0.231
 9357SOL    HW228971   2.277   4.845   0.194
 9358SOL     OW28972   5.133   3.329   2.185
 9358SOL    HW128973   5.199   3.254   2.170
 9358SOL    HW228974   5.042   3.299   2.155
 9359SOL     OW28975   4.696   5.600   6.173
 9359SOL    HW128976   4.767   5.617   6.105
 9359SOL    HW228977   4.726   5.527   6.235
 9360SOL     OW28978   1.269   1.330   5.171
 9360SOL    HW128979   1.344   1.285   5.219
 9360SOL    HW228980   1.249   1.279   5.087
 9361SOL     OW28981   2.253   1.262   2.532
 9361SOL    HW128982   2.247   1.229   2.437
 9361SOL    HW228983   2.173   1.318   2.552
 9362SOL     OW28984   2.163   1.625   3.043
 9362SOL    HW128985   2.150   1.551   2.977
 9362SOL    HW228986   2.125   1.709   3.006
 9363SOL     OW28987   1.127   6.247   1.994
 9363SOL    HW128988   1.027   6.254   2.002
 9363SOL    HW228989   1.157   6.292   1.910
 9364SOL     OW28990   5.209   4.067   0.972
 9364SOL    HW128991   5.285   4.034   0.916
 9364SOL    HW228992   5.236   4.153   1.016
 9365SOL     OW28993   1.937   1.370   3.811
 9365SOL    HW128994   1.919   1.371   3.712
 9365SOL    HW228995   1.870   1.428   3.858
 9366SOL     OW28996   3.109   1.651   1.977
 9366SOL    HW128997   3.116   1.749   1.958
 9366SOL    HW228998   3.064   1.605   1.900
 9367SOL     OW28999   6.072   6.780   3.710
 9367SOL    HW129000   5.975   6.759   3.717
 9367SOL    HW229001   6.093   6.813   3.618
 9368SOL     OW29002   5.153   2.950   0.760
 9368SOL    HW129003   5.247   2.922   0.740
 9368SOL    HW229004   5.154   3.020   0.831
 9369SOL     OW29005   0.438   1.660   4.923
 9369SOL    HW129006   0.455   1.758   4.913
 9369SOL    HW229007   0.525   1.612   4.934
 9370SOL     OW29008   5.546   5.476   3.038
 9370SOL    HW129009   5.487   5.540   2.988
 9370SOL    HW229010   5.637   5.516   3.050
 9371SOL     OW29011   1.258   6.897   0.348
 9371SOL    HW129012   1.260   6.934   0.441
 9371SOL    HW229013   1.278   6.970   0.282
 9372SOL     OW29014   5.627   6.060   6.993
 9372SOL    HW129015   5.631   6.160   7.001
 9372SOL    HW229016   5.581   6.036   6.908
 9373SOL     OW29017   5.418   2.467   4.228
 9373SOL    HW129018   5.467   2.523   4.161
 9373SOL    HW229019   5.372   2.527   4.294
 9374SOL     OW29020   5.170   4.090   6.978
 9374SOL    HW129021   5.105   4.154   6.938
 9374SOL    HW229022   5.262   4.128   6.971
 9375SOL     OW29023   6.385   0.821   4.641
 9375SOL    HW129024   6.363   0.917   4.655
 9375SOL    HW229025   6.342   0.766   4.713
 9376SOL     OW29026   2.228   3.091   1.577
 9376SOL    HW129027   2.309   3.138   1.542
 9376SOL    HW229028   2.214   3.006   1.526
 9377SOL     OW29029   6.257   5.102   3.150
 9377SOL    HW129030   6.226   5.181   3.097
 9377SOL    HW229031   6.277   5.026   3.088
 9378SOL     OW29032   3.396   6.336   1.115
 9378SOL    HW129033   3.493   6.331   1.139
 9378SOL    HW229034   3.371   6.257   1.060
 9379SOL     OW29035   5.337   5.169   5.125
 9379SOL    HW129036   5.268   5.130   5.186
 9379SOL    HW229037   5.381   5.096   5.073
 9380SOL     OW29038   6.175   5.809   5.881
 9380SOL    HW129039   6.185   5.907   5.860
 9380SOL    HW229040   6.082   5.780   5.859
 9381SOL     OW29041   1.555   0.515   0.031
 9381SOL    HW129042   1.588   0.482   0.119
 9381SOL    HW229043   1.607   0.597   0.004
 9382SOL     OW29044   5.585   1.810   3.021
 9382SOL    HW129045   5.486   1.799   3.023
 9382SOL    HW229046   5.620   1.789   2.930
 9383SOL     OW29047   6.705   5.349   5.901
 9383SOL    HW129048   6.607   5.353   5.878
 9383SOL    HW229049   6.754   5.418   5.847
 9384SOL     OW29050   4.138   6.376   3.266
 9384SOL    HW129051   4.131   6.463   3.315
 9384SOL    HW229052   4.207   6.319   3.310
 9385SOL     OW29053   3.789   0.832   4.253
 9385SOL    HW129054   3.818   0.834   4.348
 9385SOL    HW229055   3.726   0.908   4.235
 9386SOL     OW29056   4.076   0.313   5.380
 9386SOL    HW129057   4.171   0.290   5.404
 9386SOL    HW229058   4.019   0.305   5.462
 9387SOL     OW29059   4.216   5.884   0.631
 9387SOL    HW129060   4.277   5.805   0.631
 9387SOL    HW229061   4.211   5.922   0.724
 9388SOL     OW29062   6.776   6.953   2.101
 9388SOL    HW129063   6.696   7.012   2.114
 9388SOL    HW229064   6.746   6.859   2.088
 9389SOL     OW29065   3.151   1.699   6.528
 9389SOL    HW129066   3.060   1.719   6.494
 9389SOL    HW229067   3.173   1.603   6.510
 9390SOL     OW29068   3.128   5.436   1.297
 9390SOL    HW129069   3.071   5.356   1.279
 9390SOL    HW229070   3.116   5.465   1.392
 9391SOL     OW29071   6.394   1.488   4.927
 9391SOL    HW129072   6.468   1.550   4.952
 9391SOL    HW229073   6.335   1.531   4.859
 9392SOL     OW29074   0.811   6.888   4.384
 9392SOL    HW129075   0.846   6.829   4.457
 9392SOL    HW229076   0.887   6.939   4.343
 9393SOL     OW29077   4.084   1.839   4.796
 9393SOL    HW129078   4.013   1.770   4.781
 9393SOL    HW229079   4.048   1.930   4.774
 9394SOL     OW29080   6.350   2.100   2.025
 9394SOL    HW129081   6.399   2.047   1.957
 9394SOL    HW229082   6.251   2.086   2.014
 9395SOL     OW29083   1.939   3.026   6.114
 9395SOL    HW129084   1.983   2.971   6.043
 9395SOL    HW229085   1.918   3.117   6.077
 9396SOL     OW29086   6.937   1.221   6.142
 9396SOL    HW129087   6.879   1.297   6.169
 9396SOL    HW229088   6.926   1.205   6.044
 9397SOL     OW29089   2.074   2.381   0.656
 9397SOL    HW129090   2.125   2.466   0.674
 9397SOL    HW229091   2.030   2.351   0.741
 9398SOL     OW29092   2.546   1.586   0.985
 9398SOL    HW129093   2.514   1.505   1.034
 9398SOL    HW229094   2.597   1.644   1.049
 9399SOL     OW29095   0.459   0.326   6.044
 9399SOL    HW129096   0.535   0.327   5.979
 9399SOL    HW229097   0.475   0.254   6.112
 9400SOL     OW29098   4.256   1.732   3.095
 9400SOL    HW129099   4.161   1.750   3.069
 9400SOL    HW229100   4.262   1.727   3.195
 9401SOL     OW29101   4.843   6.654   4.047
 9401SOL    HW129102   4.821   6.650   4.145
 9401SOL    HW229103   4.826   6.747   4.013
 9402SOL     OW29104   2.448   5.361   7.006
 9402SOL    HW129105   2.520   5.352   0.056
 9402SOL    HW229106   2.476   5.427   6.936
 9403SOL     OW29107   5.620   0.002   4.438
 9403SOL    HW129108   5.701   0.004   4.379
 9403SOL    HW229109   5.543   6.981   4.387
 9404SOL     OW29110   1.279   4.028   5.730
 9404SOL    HW129111   1.228   3.947   5.703
 9404SOL    HW229112   1.373   4.002   5.754
 9405SOL     OW29113   0.635   0.380   0.813
 9405SOL    HW129114   0.698   0.310   0.847
 9405SOL    HW229115   0.671   0.471   0.832
 9406SOL     OW29116   6.670   1.224   5.164
 9406SOL    HW129117   6.627   1.154   5.219
 9406SOL    HW229118   6.698   1.185   5.076
 9407SOL     OW29119   3.984   5.381   3.184
 9407SOL    HW129120   3.932   5.365   3.268
 9407SOL    HW229121   4.010   5.477   3.178
 9408SOL     OW29122   3.998   2.003   6.993
 9408SOL    HW129123   4.062   2.072   0.007
 9408SOL    HW229124   3.961   1.951   0.052
 9409SOL     OW29125   6.136   3.455   3.507
 9409SOL    HW129126   6.104   3.377   3.562
 9409SOL    HW229127   6.085   3.458   3.421
 9410SOL     OW29128   4.233   6.641   1.522
 9410SOL    HW129129   4.162   6.710   1.532
 9410SOL    HW229130   4.323   6.686   1.525
 9411SOL     OW29131   4.874   5.557   1.719
 9411SOL    HW129132   4.863   5.639   1.775
 9411SOL    HW229133   4.796   5.496   1.734
 9412SOL     OW29134   6.226   3.100   3.341
 9412SOL    HW129135   6.163   3.106   3.419
 9412SOL    HW229136   6.176   3.072   3.259
 9413SOL     OW29137   3.705   5.181   3.781
 9413SOL    HW129138   3.617   5.214   3.748
 9413SOL    HW229139   3.705   5.081   3.782
 9414SOL     OW29140   2.226   0.515   2.308
 9414SOL    HW129141   2.176   0.594   2.271
 9414SOL    HW229142   2.269   0.464   2.234
 9415SOL     OW29143   2.356   1.236   2.179
 9415SOL    HW129144   2.322   1.329   2.187
 9415SOL    HW229145   2.447   1.230   2.220
 9416SOL     OW29146   1.393   2.618   1.545
 9416SOL    HW129147   1.464   2.553   1.516
 9416SOL    HW229148   1.431   2.710   1.546
 9417SOL     OW29149   1.684   6.939   5.031
 9417SOL    HW129150   1.703   6.846   5.063
 9417SOL    HW229151   1.716   6.948   4.936
 9418SOL     OW29152   4.909   4.133   1.029
 9418SOL    HW129153   4.894   4.058   0.965
 9418SOL    HW229154   4.971   4.103   1.101
 9419SOL     OW29155   2.967   5.210   4.346
 9419SOL    HW129156   2.925   5.264   4.419
 9419SOL    HW229157   2.983   5.268   4.266
 9420SOL     OW29158   1.699   0.942   4.138
 9420SOL    HW129159   1.615   0.943   4.192
 9420SOL    HW229160   1.736   0.850   4.136
 9421SOL     OW29161   1.857   5.176   4.317
 9421SOL    HW129162   1.767   5.185   4.360
 9421SOL    HW229163   1.923   5.235   4.364
 9422SOL     OW29164   4.119   1.176   2.477
 9422SOL    HW129165   4.106   1.120   2.395
 9422SOL    HW229166   4.049   1.154   2.544
 9423SOL     OW29167   4.782   0.214   4.624
 9423SOL    HW129168   4.857   0.248   4.569
 9423SOL    HW229169   4.695   0.246   4.585
 9424SOL     OW29170   3.337   6.148   3.908
 9424SOL    HW129171   3.267   6.211   3.943
 9424SOL    HW229172   3.428   6.184   3.929
 9425SOL     OW29173   1.079   5.113   3.380
 9425SOL    HW129174   0.992   5.163   3.373
 9425SOL    HW229175   1.121   5.133   3.469
 9426SOL     OW29176   3.377   5.530   0.829
 9426SOL    HW129177   3.300   5.495   0.881
 9426SOL    HW229178   3.377   5.488   0.738
 9427SOL     OW29179   2.964   5.178   3.994
 9427SOL    HW129180   3.025   5.101   4.012
 9427SOL    HW229181   2.989   5.255   4.053
 9428SOL     OW29182   4.880   6.322   2.394
 9428SOL    HW129183   4.880   6.395   2.462
 9428SOL    HW229184   4.883   6.362   2.302
 9429SOL     OW29185   0.371   3.340   3.024
 9429SOL    HW129186   0.409   3.283   2.951
 9429SOL    HW229187   0.404   3.306   3.113
 9430SOL     OW29188   5.928   0.053   1.920
 9430SOL    HW129189   5.937   0.137   1.974
 9430SOL    HW229190   6.014   0.033   1.874
 9431SOL     OW29191   6.554   4.190   0.022
 9431SOL    HW129192   6.464   4.149   0.009
 9431SOL    HW229193   6.615   4.123   0.064
 9432SOL     OW29194   6.610   6.788   4.071
 9432SOL    HW129195   6.596   6.885   4.051
 9432SOL    HW229196   6.528   6.737   4.047
 9433SOL     OW29197   2.630   5.552   4.366
 9433SOL    HW129198   2.557   5.585   4.425
 9433SOL    HW229199   2.690   5.629   4.343
 9434SOL     OW29200   5.484   4.182   2.999
 9434SOL    HW129201   5.570   4.159   3.044
 9434SOL    HW229202   5.483   4.279   2.978
 9435SOL     OW29203   1.889   2.385   4.902
 9435SOL    HW129204   1.822   2.453   4.931
 9435SOL    HW229205   1.879   2.303   4.958
 9436SOL     OW29206   3.186   1.710   5.652
 9436SOL    HW129207   3.171   1.634   5.715
 9436SOL    HW229208   3.130   1.788   5.681
 9437SOL     OW29209   0.424   5.271   4.041
 9437SOL    HW129210   0.444   5.206   3.968
 9437SOL    HW229211   0.344   5.239   4.093
 9438SOL     OW29212   0.677   6.460   2.539
 9438SOL    HW129213   0.605   6.519   2.502
 9438SOL    HW229214   0.709   6.498   2.626
 9439SOL     OW29215   1.098   3.768   1.165
 9439SOL    HW129216   1.152   3.687   1.188
 9439SOL    HW229217   1.036   3.746   1.090
 9440SOL     OW29218   3.956   5.712   4.914
 9440SOL    HW129219   3.866   5.754   4.924
 9440SOL    HW229220   3.950   5.614   4.936
 9441SOL     OW29221   1.624   5.943   5.118
 9441SOL    HW129222   1.548   5.996   5.156
 9441SOL    HW229223   1.710   5.977   5.156
 9442SOL     OW29224   0.654   3.922   1.329
 9442SOL    HW129225   0.632   3.834   1.287
 9442SOL    HW229226   0.624   3.996   1.269
 9443SOL     OW29227   1.238   3.246   1.414
 9443SOL    HW129228   1.216   3.308   1.489
 9443SOL    HW229229   1.303   3.290   1.352
 9444SOL     OW29230   1.458   4.433   5.667
 9444SOL    HW129231   1.502   4.349   5.636
 9444SOL    HW229232   1.370   4.411   5.709
 9445SOL     OW29233   6.355   3.057   1.689
 9445SOL    HW129234   6.409   2.973   1.679
 9445SOL    HW229235   6.276   3.053   1.627
 9446SOL     OW29236   5.700   4.570   0.387
 9446SOL    HW129237   5.613   4.617   0.376
 9446SOL    HW229238   5.691   4.498   0.456
 9447SOL     OW29239   5.858   1.552   2.019
 9447SOL    HW129240   5.766   1.585   2.042
 9447SOL    HW229241   5.920   1.569   2.096
 9448SOL     OW29242   5.962   6.085   0.330
 9448SOL    HW129243   5.912   6.014   0.280
 9448SOL    HW229244   6.012   6.043   0.406
 9449SOL     OW29245   6.205   5.035   5.333
 9449SOL    HW129246   6.237   5.074   5.420
 9449SOL    HW229247   6.106   5.022   5.336
 9450SOL     OW29248   2.700   6.152   4.025
 9450SOL    HW129249   2.753   6.075   3.991
 9450SOL    HW229250   2.743   6.189   4.108
 9451SOL     OW29251   4.308   3.695   5.863
 9451SOL    HW129252   4.324   3.747   5.779
 9451SOL    HW229253   4.327   3.598   5.847
 9452SOL     OW29254   3.066   3.959   1.055
 9452SOL    HW129255   3.155   3.952   1.099
 9452SOL    HW229256   3.014   4.033   1.097
 9453SOL     OW29257   2.951   5.224   1.285
 9453SOL    HW129258   2.866   5.268   1.315
 9453SOL    HW229259   2.929   5.148   1.224
 9454SOL     OW29260   2.255   1.865   5.409
 9454SOL    HW129261   2.238   1.887   5.313
 9454SOL    HW229262   2.350   1.838   5.421
 9455SOL     OW29263   2.054   1.925   2.649
 9455SOL    HW129264   2.129   1.974   2.604
 9455SOL    HW229265   1.972   1.930   2.592
 9456SOL     OW29266   0.935   3.265   0.852
 9456SOL    HW129267   0.886   3.346   0.884
 9456SOL    HW229268   0.956   3.275   0.755
 9457SOL     OW29269   6.416   3.397   0.023
 9457SOL    HW129270   6.371   3.330   6.982
 9457SOL    HW229271   6.456   3.470   6.985
 9458SOL     OW29272   0.923   6.305   4.576
 9458SOL    HW129273   0.988   6.355   4.519
 9458SOL    HW229274   0.970   6.232   4.626
 9459SOL     OW29275   4.109   5.940   1.867
 9459SOL    HW129276   4.056   5.999   1.805
 9459SOL    HW229277   4.128   5.989   1.952
 9460SOL     OW29278   1.165   2.903   5.670
 9460SOL    HW129279   1.082   2.864   5.709
 9460SOL    HW229280   1.245   2.854   5.706
 9461SOL     OW29281   1.683   0.501   2.564
 9461SOL    HW129282   1.708   0.440   2.488
 9461SOL    HW229283   1.761   0.508   2.627
 9462SOL     OW29284   0.371   2.899   2.905
 9462SOL    HW129285   0.310   2.959   2.854
 9462SOL    HW229286   0.455   2.949   2.927
 9463SOL     OW29287   6.034   1.987   6.825
 9463SOL    HW129288   5.943   2.023   6.802
 9463SOL    HW229289   6.032   1.887   6.822
 9464SOL     OW29290   4.414   6.633   5.780
 9464SOL    HW129291   4.351   6.678   5.717
 9464SOL    HW229292   4.362   6.573   5.841
 9465SOL     OW29293   5.319   6.355   4.201
 9465SOL    HW129294   5.382   6.369   4.125
 9465SOL    HW229295   5.260   6.276   4.182
 9466SOL     OW29296   2.759   1.765   0.065
 9466SOL    HW129297   2.783   1.780   6.987
 9466SOL    HW229298   2.676   1.817   0.086
 9467SOL     OW29299   2.016   3.388   2.108
 9467SOL    HW129300   2.092   3.439   2.069
 9467SOL    HW229301   1.930   3.422   2.070
 9468SOL     OW29302   0.636   2.684   6.333
 9468SOL    HW129303   0.596   2.686   6.424
 9468SOL    HW229304   0.569   2.719   6.267
 9469SOL     OW29305   0.119   4.562   2.715
 9469SOL    HW129306   0.109   4.602   2.806
 9469SOL    HW229307   0.102   4.464   2.719
 9470SOL     OW29308   6.279   3.327   1.464
 9470SOL    HW129309   6.321   3.365   1.382
 9470SOL    HW229310   6.204   3.266   1.439
 9471SOL     OW29311   0.443   2.756   6.175
 9471SOL    HW129312   0.437   2.852   6.145
 9471SOL    HW229313   0.357   2.710   6.153
 9472SOL     OW29314   6.624   2.223   4.686
 9472SOL    HW129315   6.662   2.252   4.774
 9472SOL    HW229316   6.587   2.302   4.638
 9473SOL     OW29317   3.207   5.585   5.265
 9473SOL    HW129318   3.209   5.644   5.184
 9473SOL    HW229319   3.291   5.598   5.317
 9474SOL     OW29320   3.215   5.252   3.550
 9474SOL    HW129321   3.160   5.194   3.612
 9474SOL    HW229322   3.168   5.339   3.536
 9475SOL     OW29323   1.699   3.242   1.558
 9475SOL    HW129324   1.682   3.338   1.537
 9475SOL    HW229325   1.788   3.232   1.602
 9476SOL     OW29326   3.001   3.774   5.497
 9476SOL    HW129327   2.922   3.818   5.454
 9476SOL    HW229328   3.035   3.832   5.571
 9477SOL     OW29329   0.534   2.300   1.254
 9477SOL    HW129330   0.558   2.395   1.235
 9477SOL    HW229331   0.582   2.240   1.190
 9478SOL     OW29332   5.490   3.978   5.506
 9478SOL    HW129333   5.430   4.007   5.431
 9478SOL    HW229334   5.434   3.947   5.583
 9479SOL     OW29335   5.849   5.586   4.994
 9479SOL    HW129336   5.894   5.624   4.914
 9479SOL    HW229337   5.754   5.617   4.996
 9480SOL     OW29338   5.658   3.871   6.247
 9480SOL    HW129339   5.586   3.829   6.190
 9480SOL    HW229340   5.707   3.799   6.296
 9481SOL     OW29341   6.745   3.585   2.718
 9481SOL    HW129342   6.839   3.618   2.728
 9481SOL    HW229343   6.689   3.657   2.677
 9482SOL     OW29344   4.266   0.150   2.584
 9482SOL    HW129345   4.176   0.107   2.588
 9482SOL    HW229346   4.295   0.176   2.676
 9483SOL     OW29347   1.681   1.816   0.554
 9483SOL    HW129348   1.685   1.740   0.619
 9483SOL    HW229349   1.769   1.824   0.507
 9484SOL     OW29350   5.830   0.910   3.004
 9484SOL    HW129351   5.794   0.850   3.075
 9484SOL    HW229352   5.891   0.857   2.944
 9485SOL     OW29353   1.128   7.014   2.504
 9485SOL    HW129354   1.063   6.992   2.577
 9485SOL    HW229355   1.080   7.015   2.416
 9486SOL     OW29356   2.917   6.092   2.428
 9486SOL    HW129357   2.903   5.997   2.402
 9486SOL    HW229358   2.851   6.118   2.499
 9487SOL     OW29359   2.916   3.712   3.795
 9487SOL    HW129360   2.929   3.759   3.882
 9487SOL    HW229361   2.993   3.731   3.734
 9488SOL     OW29362   1.133   1.403   1.375
 9488SOL    HW129363   1.185   1.469   1.321
 9488SOL    HW229364   1.038   1.433   1.381
 9489SOL     OW29365   2.792   4.215   0.873
 9489SOL    HW129366   2.707   4.231   0.822
 9489SOL    HW229367   2.817   4.118   0.866
 9490SOL     OW29368   5.192   1.417   6.926
 9490SOL    HW129369   5.217   1.418   0.005
 9490SOL    HW229370   5.136   1.336   6.907
 9491SOL     OW29371   6.823   5.225   5.627
 9491SOL    HW129372   6.918   5.216   5.598
 9491SOL    HW229373   6.799   5.321   5.636
 9492SOL     OW29374   2.502   4.394   1.344
 9492SOL    HW129375   2.563   4.459   1.299
 9492SOL    HW229376   2.420   4.442   1.375
 9493SOL     OW29377   5.669   6.277   2.745
 9493SOL    HW129378   5.702   6.334   2.669
 9493SOL    HW229379   5.587   6.318   2.784
 9494SOL     OW29380   3.024   3.007   5.933
 9494SOL    HW129381   3.097   2.939   5.939
 9494SOL    HW229382   3.027   3.051   5.844
 9495SOL     OW29383   5.679   2.242   4.653
 9495SOL    HW129384   5.618   2.194   4.715
 9495SOL    HW229385   5.632   2.263   4.567
 9496SOL     OW29386   6.259   4.003   0.367
 9496SOL    HW129387   6.240   4.097   0.340
 9496SOL    HW229388   6.198   3.941   0.317
 9497SOL     OW29389   0.697   5.725   5.988
 9497SOL    HW129390   0.607   5.758   6.019
 9497SOL    HW229391   0.723   5.772   5.904
 9498SOL     OW29392   3.893   0.394   6.666
 9498SOL    HW129393   3.845   0.477   6.640
 9498SOL    HW229394   3.899   0.388   6.766
 9499SOL     OW29395   4.195   4.267   6.182
 9499SOL    HW129396   4.283   4.298   6.146
 9499SOL    HW229397   4.125   4.278   6.112
 9500SOL     OW29398   5.320   5.981   1.659
 9500SOL    HW129399   5.230   5.939   1.668
 9500SOL    HW229400   5.389   5.923   1.701
 9501SOL     OW29401   3.198   1.920   4.716
 9501SOL    HW129402   3.130   1.860   4.758
 9501SOL    HW229403   3.161   2.013   4.712
 9502SOL     OW29404   3.984   3.310   5.892
 9502SOL    HW129405   4.028   3.355   5.815
 9502SOL    HW229406   3.984   3.211   5.877
 9503SOL     OW29407   1.266   6.972   1.739
 9503SOL    HW129408   1.265   6.922   1.825
 9503SOL    HW229409   1.360   6.995   1.715
 9504SOL     OW29410   0.819   3.054   0.175
 9504SOL    HW129411   0.829   2.980   0.109
 9504SOL    HW229412   0.765   3.128   0.134
 9505SOL     OW29413   4.808   3.083   3.273
 9505SOL    HW129414   4.884   3.043   3.324
 9505SOL    HW229415   4.814   3.182   3.274
 9506SOL     OW29416   0.279   2.185   1.158
 9506SOL    HW129417   0.367   2.224   1.185
 9506SOL    HW229418   0.291   2.088   1.136
 9507SOL     OW29419   1.228   2.135   4.721
 9507SOL    HW129420   1.259   2.179   4.636
 9507SOL    HW229421   1.295   2.066   4.749
 9508SOL     OW29422   4.751   1.604   6.212
 9508SOL    HW129423   4.733   1.699   6.235
 9508SOL    HW229424   4.840   1.577   6.250
 9509SOL     OW29425   3.123   6.723   6.255
 9509SOL    HW129426   3.066   6.646   6.285
 9509SOL    HW229427   3.093   6.752   6.164
 9510SOL     OW29428   6.657   4.597   2.837
 9510SOL    HW129429   6.671   4.506   2.797
 9510SOL    HW229430   6.637   4.663   2.764
 9511SOL     OW29431   2.325   1.222   1.304
 9511SOL    HW129432   2.247   1.284   1.296
 9511SOL    HW229433   2.294   1.128   1.309
 9512SOL     OW29434   1.398   3.171   4.944
 9512SOL    HW129435   1.488   3.207   4.967
 9512SOL    HW229436   1.376   3.195   4.849
 9513SOL     OW29437   2.380   4.378   4.252
 9513SOL    HW129438   2.294   4.426   4.236
 9513SOL    HW229439   2.404   4.384   4.348
 9514SOL     OW29440   2.839   2.965   6.124
 9514SOL    HW129441   2.901   2.972   6.046
 9514SOL    HW229442   2.746   2.949   6.090
 9515SOL     OW29443   2.442   5.109   5.941
 9515SOL    HW129444   2.502   5.090   6.019
 9515SOL    HW229445   2.350   5.077   5.961
 9516SOL     OW29446   5.394   4.259   5.638
 9516SOL    HW129447   5.416   4.178   5.585
 9516SOL    HW229448   5.320   4.310   5.593
 9517SOL     OW29449   0.805   5.398   2.103
 9517SOL    HW129450   0.765   5.353   2.024
 9517SOL    HW229451   0.832   5.329   2.171
 9518SOL     OW29452   0.775   2.861   5.462
 9518SOL    HW129453   0.720   2.871   5.379
 9518SOL    HW229454   0.716   2.838   5.539
 9519SOL     OW29455   3.889   2.969   3.308
 9519SOL    HW129456   3.876   2.927   3.398
 9519SOL    HW229457   3.941   3.053   3.317
 9520SOL     OW29458   5.118   0.526   6.252
 9520SOL    HW129459   5.084   0.512   6.345
 9520SOL    HW229460   5.217   0.542   6.254
 9521SOL     OW29461   3.623   1.291   1.302
 9521SOL    HW129462   3.619   1.309   1.203
 9521SOL    HW229463   3.698   1.344   1.342
 9522SOL     OW29464   3.466   6.354   1.445
 9522SOL    HW129465   3.487   6.304   1.529
 9522SOL    HW229466   3.546   6.353   1.385
 9523SOL     OW29467   2.969   4.929   4.374
 9523SOL    HW129468   2.958   5.028   4.367
 9523SOL    HW229469   2.930   4.886   4.292
 9524SOL     OW29470   2.021   4.142   0.241
 9524SOL    HW129471   2.092   4.096   0.295
 9524SOL    HW229472   2.061   4.178   0.157
 9525SOL     OW29473   2.122   3.306   6.236
 9525SOL    HW129474   2.120   3.401   6.266
 9525SOL    HW229475   2.038   3.285   6.186
 9526SOL     OW29476   5.270   5.601   6.851
 9526SOL    HW129477   5.363   5.575   6.877
 9526SOL    HW229478   5.269   5.630   6.755
 9527SOL     OW29479   4.141   6.784   4.782
 9527SOL    HW129480   4.145   6.711   4.851
 9527SOL    HW229481   4.117   6.745   4.693
 9528SOL     OW29482   4.828   2.545   0.462
 9528SOL    HW129483   4.823   2.556   0.363
 9528SOL    HW229484   4.881   2.621   0.501
 9529SOL     OW29485   5.387   0.883   1.817
 9529SOL    HW129486   5.413   0.884   1.720
 9529SOL    HW229487   5.364   0.975   1.847
 9530SOL     OW29488   1.001   5.440   3.756
 9530SOL    HW129489   1.077   5.377   3.768
 9530SOL    HW229490   1.013   5.491   3.670
 9531SOL     OW29491   3.417   5.538   2.270
 9531SOL    HW129492   3.398   5.619   2.215
 9531SOL    HW229493   3.511   5.541   2.302
 9532SOL     OW29494   6.234   4.842   3.799
 9532SOL    HW129495   6.226   4.939   3.822
 9532SOL    HW229496   6.143   4.802   3.790
 9533SOL     OW29497   1.649   3.902   2.990
 9533SOL    HW129498   1.665   3.996   2.961
 9533SOL    HW229499   1.556   3.875   2.965
 9534SOL     OW29500   4.850   5.373   4.298
 9534SOL    HW129501   4.923   5.439   4.281
 9534SOL    HW229502   4.884   5.301   4.359
 9535SOL     OW29503   0.226   1.536   4.455
 9535SOL    HW129504   0.153   1.578   4.401
 9535SOL    HW229505   0.185   1.481   4.528
 9536SOL     OW29506   3.077   3.994   4.917
 9536SOL    HW129507   3.059   4.072   4.856
 9536SOL    HW229508   3.088   3.912   4.861
 9537SOL     OW29509   6.521   1.125   4.176
 9537SOL    HW129510   6.492   1.031   4.190
 9537SOL    HW229511   6.608   1.126   4.126
 9538SOL     OW29512   5.237   6.834   4.956
 9538SOL    HW129513   5.179   6.872   4.884
 9538SOL    HW229514   5.312   6.898   4.975
 9539SOL     OW29515   3.301   4.145   2.910
 9539SOL    HW129516   3.277   4.188   2.997
 9539SOL    HW229517   3.368   4.202   2.862
 9540SOL     OW29518   4.238   4.630   3.366
 9540SOL    HW129519   4.253   4.612   3.463
 9540SOL    HW229520   4.163   4.696   3.355
 9541SOL     OW29521   2.007   5.619   5.499
 9541SOL    HW129522   1.949   5.595   5.577
 9541SOL    HW229523   1.953   5.670   5.432
 9542SOL     OW29524   6.475   4.144   2.976
 9542SOL    HW129525   6.535   4.179   2.904
 9542SOL    HW229526   6.530   4.119   3.056
 9543SOL     OW29527   2.282   0.520   5.884
 9543SOL    HW129528   2.336   0.592   5.927
 9543SOL    HW229529   2.225   0.559   5.811
 9544SOL     OW29530   6.115   3.829   4.654
 9544SOL    HW129531   6.098   3.733   4.630
 9544SOL    HW229532   6.032   3.883   4.639
 9545SOL     OW29533   6.649   4.516   2.114
 9545SOL    HW129534   6.740   4.507   2.156
 9545SOL    HW229535   6.659   4.547   2.020
 9546SOL     OW29536   2.690   2.931   1.432
 9546SOL    HW129537   2.728   2.842   1.455
 9546SOL    HW229538   2.723   2.959   1.342
 9547SOL     OW29539   4.585   0.376   3.466
 9547SOL    HW129540   4.499   0.326   3.450
 9547SOL    HW229541   4.584   0.414   3.559
 9548SOL     OW29542   0.674   4.844   6.597
 9548SOL    HW129543   0.732   4.895   6.661
 9548SOL    HW229544   0.700   4.867   6.504
 9549SOL     OW29545   3.987   1.959   1.287
 9549SOL    HW129546   3.981   2.028   1.359
 9549SOL    HW229547   4.067   1.901   1.303
 9550SOL     OW29548   6.279   3.174   1.919
 9550SOL    HW129549   6.308   3.147   1.827
 9550SOL    HW229550   6.222   3.256   1.914
 9551SOL     OW29551   5.812   2.969   6.371
 9551SOL    HW129552   5.739   3.001   6.431
 9551SOL    HW229553   5.779   2.891   6.317
 9552SOL     OW29554   2.876   2.136   0.756
 9552SOL    HW129555   2.807   2.066   0.739
 9552SOL    HW229556   2.855   2.183   0.842
 9553SOL     OW29557   5.579   1.312   6.637
 9553SOL    HW129558   5.543   1.348   6.723
 9553SOL    HW229559   5.659   1.256   6.655
 9554SOL     OW29560   2.961   0.705   3.495
 9554SOL    HW129561   3.060   0.698   3.507
 9554SOL    HW229562   2.930   0.795   3.525
 9555SOL     OW29563   0.071   6.811   3.310
 9555SOL    HW129564   0.048   6.741   3.378
 9555SOL    HW229565   0.005   6.886   3.315
 9556SOL     OW29566   2.114   4.941   6.883
 9556SOL    HW129567   2.187   4.994   6.925
 9556SOL    HW229568   2.130   4.843   6.898
 9557SOL     OW29569   5.723   0.625   1.033
 9557SOL    HW129570   5.639   0.583   1.067
 9557SOL    HW229571   5.800   0.562   1.048
 9558SOL     OW29572   4.758   6.368   6.356
 9558SOL    HW129573   4.726   6.331   6.443
 9558SOL    HW229574   4.828   6.309   6.318
 9559SOL     OW29575   1.882   4.534   6.876
 9559SOL    HW129576   1.860   4.458   6.937
 9559SOL    HW229577   1.799   4.566   6.831
 9560SOL     OW29578   2.917   0.109   2.587
 9560SOL    HW129579   2.827   0.067   2.575
 9560SOL    HW229580   2.972   0.093   2.504
 9561SOL     OW29581   0.904   0.448   0.599
 9561SOL    HW129582   0.982   0.387   0.588
 9561SOL    HW229583   0.904   0.487   0.691
 9562SOL     OW29584   2.296   6.134   2.725
 9562SOL    HW129585   2.347   6.049   2.727
 9562SOL    HW229586   2.358   6.211   2.740
 9563SOL     OW29587   0.815   5.844   6.195
 9563SOL    HW129588   0.905   5.888   6.197
 9563SOL    HW229589   0.801   5.802   6.105
 9564SOL     OW29590   1.818   1.145   0.931
 9564SOL    HW129591   1.790   1.088   0.854
 9564SOL    HW229592   1.825   1.088   1.013
 9565SOL     OW29593   2.781   1.491   4.392
 9565SOL    HW129594   2.844   1.562   4.422
 9565SOL    HW229595   2.814   1.402   4.423
 9566SOL     OW29596   3.490   0.462   0.196
 9566SOL    HW129597   3.487   0.462   0.295
 9566SOL    HW229598   3.539   0.380   0.164
 9567SOL     OW29599   6.980   4.261   0.907
 9567SOL    HW129600   0.023   4.228   0.835
 9567SOL    HW229601   0.003   4.341   0.951
 9568SOL     OW29602   4.489   1.575   6.612
 9568SOL    HW129603   4.583   1.567   6.647
 9568SOL    HW229604   4.491   1.621   6.523
 9569SOL     OW29605   5.696   0.218   2.295
 9569SOL    HW129606   5.639   0.242   2.216
 9569SOL    HW229607   5.719   0.300   2.347
 9570SOL     OW29608   0.465   3.682   1.624
 9570SOL    HW129609   0.491   3.616   1.694
 9570SOL    HW229610   0.446   3.771   1.666
 9571SOL     OW29611   1.773   1.341   6.910
 9571SOL    HW129612   1.840   1.287   6.859
 9571SOL    HW229613   1.683   1.298   6.902
 9572SOL     OW29614   2.488   4.450   4.538
 9572SOL    HW129615   2.542   4.520   4.584
 9572SOL    HW229616   2.440   4.394   4.606
 9573SOL     OW29617   6.518   0.202   4.372
 9573SOL    HW129618   6.519   0.246   4.283
 9573SOL    HW229619   6.534   0.270   4.443
 9574SOL     OW29620   4.134   3.253   0.872
 9574SOL    HW129621   4.074   3.252   0.792
 9574SOL    HW229622   4.167   3.160   0.890
 9575SOL     OW29623   5.457   6.758   1.938
 9575SOL    HW129624   5.381   6.811   1.975
 9575SOL    HW229625   5.538   6.816   1.930
 9576SOL     OW29626   0.911   0.591   6.782
 9576SOL    HW129627   0.946   0.545   6.700
 9576SOL    HW229628   0.905   0.525   6.857
 9577SOL     OW29629   6.402   5.610   2.681
 9577SOL    HW129630   6.340   5.671   2.730
 9577SOL    HW229631   6.417   5.644   2.588
 9578SOL     OW29632   1.896   3.665   2.301
 9578SOL    HW129633   1.881   3.675   2.399
 9578SOL    HW229634   1.981   3.712   2.275
 9579SOL     OW29635   5.911   6.013   2.481
 9579SOL    HW129636   5.949   6.059   2.561
 9579SOL    HW229637   5.973   5.940   2.452
 9580SOL     OW29638   5.004   3.962   3.554
 9580SOL    HW129639   4.930   4.021   3.587
 9580SOL    HW229640   5.060   4.012   3.489
 9581SOL     OW29641   5.910   1.700   0.120
 9581SOL    HW129642   5.900   1.685   0.022
 9581SOL    HW229643   5.910   1.612   0.167
 9582SOL     OW29644   5.509   6.378   4.929
 9582SOL    HW129645   5.596   6.329   4.921
 9582SOL    HW229646   5.442   6.337   4.867
 9583SOL     OW29647   3.713   4.982   1.875
 9583SOL    HW129648   3.678   4.895   1.911
 9583SOL    HW229649   3.659   5.010   1.796
 9584SOL     OW29650   2.789   5.533   3.966
 9584SOL    HW129651   2.740   5.616   3.996
 9584SOL    HW229652   2.723   5.458   3.956
 9585SOL     OW29653   4.483   6.176   0.998
 9585SOL    HW129654   4.435   6.258   1.030
 9585SOL    HW229655   4.532   6.135   1.075
 9586SOL     OW29656   3.920   5.361   2.924
 9586SOL    HW129657   3.934   5.385   3.020
 9586SOL    HW229658   4.008   5.337   2.882
 9587SOL     OW29659   3.361   6.115   0.962
 9587SOL    HW129660   3.394   6.022   0.948
 9587SOL    HW229661   3.268   6.123   0.925
 9588SOL     OW29662   6.539   5.702   0.193
 9588SOL    HW129663   6.573   5.640   0.264
 9588SOL    HW229664   6.482   5.772   0.234
 9589SOL     OW29665   1.994   3.034   6.656
 9589SOL    HW129666   1.988   3.133   6.638
 9589SOL    HW229667   1.903   2.998   6.673
 9590SOL     OW29668   6.398   0.421   0.983
 9590SOL    HW129669   6.383   0.363   0.903
 9590SOL    HW229670   6.426   0.364   1.061
 9591SOL     OW29671   4.689   0.585   0.476
 9591SOL    HW129672   4.758   0.655   0.494
 9591SOL    HW229673   4.706   0.544   0.387
 9592SOL     OW29674   2.308   6.596   5.819
 9592SOL    HW129675   2.303   6.502   5.853
 9592SOL    HW229676   2.401   6.631   5.832
 9593SOL     OW29677   1.995   2.447   3.584
 9593SOL    HW129678   2.091   2.459   3.607
 9593SOL    HW229679   1.942   2.524   3.619
 9594SOL     OW29680   7.009   6.604   3.457
 9594SOL    HW129681   6.926   6.552   3.439
 9594SOL    HW229682   0.058   6.545   3.502
 9595SOL     OW29683   0.500   3.183   3.286
 9595SOL    HW129684   0.481   3.130   3.369
 9595SOL    HW229685   0.572   3.250   3.305
 9596SOL     OW29686   0.909   6.418   0.851
 9596SOL    HW129687   0.988   6.357   0.856
 9596SOL    HW229688   0.923   6.486   0.778
 9597SOL     OW29689   1.315   3.480   2.057
 9597SOL    HW129690   1.343   3.475   2.153
 9597SOL    HW229691   1.219   3.454   2.048
 9598SOL     OW29692   2.373   4.270   3.987
 9598SOL    HW129693   2.390   4.309   4.077
 9598SOL    HW229694   2.284   4.224   3.986
 9599SOL     OW29695   4.217   6.516   4.508
 9599SOL    HW129696   4.206   6.614   4.492
 9599SOL    HW229697   4.153   6.486   4.579
 9600SOL     OW29698   3.822   1.411   1.508
 9600SOL    HW129699   3.811   1.479   1.581
 9600SOL    HW229700   3.896   1.349   1.531
 9601SOL     OW29701   1.470   3.631   0.609
 9601SOL    HW129702   1.465   3.677   0.698
 9601SOL    HW229703   1.554   3.578   0.603
 9602SOL     OW29704   4.150   5.214   5.157
 9602SOL    HW129705   4.077   5.225   5.225
 9602SOL    HW229706   4.110   5.201   5.067
 9603SOL     OW29707   4.699   6.757   5.391
 9603SOL    HW129708   4.739   6.833   5.440
 9603SOL    HW229709   4.769   6.690   5.369
 9604SOL     OW29710   5.346   6.818   0.386
 9604SOL    HW129711   5.257   6.797   0.426
 9604SOL    HW229712   5.381   6.903   0.426
 9605SOL     OW29713   5.740   5.449   1.895
 9605SOL    HW129714   5.664   5.508   1.921
 9605SOL    HW229715   5.708   5.378   1.833
 9606SOL     OW29716   1.821   1.006   0.199
 9606SOL    HW129717   1.859   1.098   0.198
 9606SOL    HW229718   1.893   0.939   0.180
 9607SOL     OW29719   2.205   2.274   5.966
 9607SOL    HW129720   2.130   2.244   5.906
 9607SOL    HW229721   2.260   2.342   5.917
 9608SOL     OW29722   5.999   3.181   4.501
 9608SOL    HW129723   5.979   3.277   4.483
 9608SOL    HW229724   5.950   3.123   4.436
 9609SOL     OW29725   4.355   2.689   6.583
 9609SOL    HW129726   4.360   2.755   6.658
 9609SOL    HW229727   4.288   2.618   6.605
 9610SOL     OW29728   0.626   5.018   3.118
 9610SOL    HW129729   0.666   5.085   3.180
 9610SOL    HW229730   0.557   5.062   3.061
 9611SOL     OW29731   2.154   0.334   0.504
 9611SOL    HW129732   2.158   0.342   0.405
 9611SOL    HW229733   2.239   0.368   0.545
 9612SOL     OW29734   6.829   2.838   4.153
 9612SOL    HW129735   6.759   2.888   4.102
 9612SOL    HW229736   6.919   2.863   4.119
 9613SOL     OW29737   5.948   5.370   3.140
 9613SOL    HW129738   5.876   5.307   3.111
 9613SOL    HW229739   6.021   5.371   3.071
 9614SOL     OW29740   4.458   2.492   3.587
 9614SOL    HW129741   4.505   2.448   3.664
 9614SOL    HW229742   4.502   2.579   3.566
 9615SOL     OW29743   2.154   4.250   0.951
 9615SOL    HW129744   2.117   4.207   1.033
 9615SOL    HW229745   2.196   4.180   0.892
 9616SOL     OW29746   4.064   3.221   6.965
 9616SOL    HW129747   4.016   3.282   6.902
 9616SOL    HW229748   4.013   3.136   6.975
 9617SOL     OW29749   1.736   2.582   2.754
 9617SOL    HW129750   1.709   2.486   2.757
 9617SOL    HW229751   1.783   2.601   2.668
 9618SOL     OW29752   2.441   1.896   1.345
 9618SOL    HW129753   2.355   1.946   1.330
 9618SOL    HW229754   2.423   1.816   1.402
 9619SOL     OW29755   2.714   0.624   5.828
 9619SOL    HW129756   2.765   0.645   5.744
 9619SOL    HW229757   2.646   0.553   5.808
 9620SOL     OW29758   5.914   1.137   5.447
 9620SOL    HW129759   5.941   1.054   5.398
 9620SOL    HW229760   5.990   1.168   5.504
 9621SOL     OW29761   1.650   3.566   3.384
 9621SOL    HW129762   1.613   3.570   3.290
 9621SOL    HW229763   1.645   3.656   3.426
 9622SOL     OW29764   5.350   6.741   0.931
 9622SOL    HW129765   5.422   6.686   0.888
 9622SOL    HW229766   5.347   6.831   0.888
 9623SOL     OW29767   2.564   3.529   6.194
 9623SOL    HW129768   2.659   3.500   6.186
 9623SOL    HW229769   2.505   3.462   6.149
 9624SOL     OW29770   6.460   3.061   4.309
 9624SOL    HW129771   6.519   3.129   4.353
 9624SOL    HW229772   6.367   3.069   4.346
 9625SOL     OW29773   5.786   5.737   1.150
 9625SOL    HW129774   5.713   5.797   1.185
 9625SOL    HW229775   5.745   5.663   1.097
 9626SOL     OW29776   3.570   6.618   0.193
 9626SOL    HW129777   3.518   6.679   0.253
 9626SOL    HW229778   3.632   6.563   0.248
 9627SOL     OW29779   1.360   6.449   6.634
 9627SOL    HW129780   1.375   6.545   6.612
 9627SOL    HW229781   1.316   6.403   6.557
 9628SOL     OW29782   3.216   6.670   2.477
 9628SOL    HW129783   3.143   6.737   2.492
 9628SOL    HW229784   3.178   6.588   2.433
 9629SOL     OW29785   2.362   0.061   1.121
 9629SOL    HW129786   2.286   0.121   1.146
 9629SOL    HW229787   2.327   6.991   1.092
 9630SOL     OW29788   6.751   1.636   6.434
 9630SOL    HW129789   6.737   1.669   6.527
 9630SOL    HW229790   6.669   1.586   6.404
 9631SOL     OW29791   5.960   6.119   0.023
 9631SOL    HW129792   5.902   6.057   0.076
 9631SOL    HW229793   5.975   6.203   0.076
 9632SOL     OW29794   1.007   5.810   2.058
 9632SOL    HW129795   1.094   5.847   2.026
 9632SOL    HW229796   0.936   5.828   1.989
 9633SOL     OW29797   6.910   5.006   6.142
 9633SOL    HW129798   6.920   5.012   6.241
 9633SOL    HW229799   6.928   4.912   6.112
 9634SOL     OW29800   1.311   6.013   5.946
 9634SOL    HW129801   1.248   6.084   5.913
 9634SOL    HW229802   1.271   5.923   5.932
 9635SOL     OW29803   1.096   5.838   5.617
 9635SOL    HW129804   1.040   5.837   5.699
 9635SOL    HW229805   1.170   5.771   5.625
 9636SOL     OW29806   4.101   1.355   6.658
 9636SOL    HW129807   4.024   1.361   6.722
 9636SOL    HW229808   4.160   1.279   6.685
 9637SOL     OW29809   2.170   1.191   0.037
 9637SOL    HW129810   2.213   1.223   6.971
 9637SOL    HW229811   2.092   1.249   0.060
 9638SOL     OW29812   6.812   2.305   6.523
 9638SOL    HW129813   6.771   2.233   6.579
 9638SOL    HW229814   6.741   2.352   6.471
 9639SOL     OW29815   3.926   0.816   2.313
 9639SOL    HW129816   3.897   0.911   2.306
 9639SOL    HW229817   3.847   0.756   2.301
 9640SOL     OW29818   1.835   1.925   2.471
 9640SOL    HW129819   1.814   2.019   2.444
 9640SOL    HW229820   1.800   1.862   2.402
 9641SOL     OW29821   5.795   5.710   0.055
 9641SOL    HW129822   5.802   5.624   0.104
 9641SOL    HW229823   5.699   5.727   0.032
 9642SOL     OW29824   3.607   0.504   3.559
 9642SOL    HW129825   3.701   0.473   3.570
 9642SOL    HW229826   3.585   0.571   3.630
 9643SOL     OW29827   4.094   4.829   2.975
 9643SOL    HW129828   4.118   4.808   2.880
 9643SOL    HW229829   4.172   4.871   3.020
 9644SOL     OW29830   2.875   2.081   0.329
 9644SOL    HW129831   2.971   2.086   0.356
 9644SOL    HW229832   2.869   2.055   0.232
 9645SOL     OW29833   3.260   5.075   5.490
 9645SOL    HW129834   3.269   4.980   5.519
 9645SOL    HW229835   3.287   5.084   5.394
 9646SOL     OW29836   4.036   5.209   4.191
 9646SOL    HW129837   4.126   5.196   4.232
 9646SOL    HW229838   4.035   5.294   4.138
 9647SOL     OW29839   6.476   3.066   6.147
 9647SOL    HW129840   6.410   3.091   6.075
 9647SOL    HW229841   6.431   3.073   6.236
 9648SOL     OW29842   4.080   3.747   1.002
 9648SOL    HW129843   3.982   3.762   0.995
 9648SOL    HW229844   4.100   3.689   1.080
 9649SOL     OW29845   2.205   5.627   1.920
 9649SOL    HW129846   2.230   5.530   1.921
 9649SOL    HW229847   2.258   5.675   1.851
 9650SOL     OW29848   0.354   6.520   0.626
 9650SOL    HW129849   0.289   6.508   0.702
 9650SOL    HW229850   0.438   6.560   0.660
 9651SOL     OW29851   0.654   1.801   6.588
 9651SOL    HW129852   0.657   1.858   6.506
 9651SOL    HW229853   0.559   1.792   6.619
 9652SOL     OW29854   0.578   5.058   2.370
 9652SOL    HW129855   0.539   5.149   2.386
 9652SOL    HW229856   0.545   4.995   2.440
 9653SOL     OW29857   6.402   6.200   4.324
 9653SOL    HW129858   6.394   6.221   4.227
 9653SOL    HW229859   6.436   6.280   4.374
 9654SOL     OW29860   2.160   3.099   2.865
 9654SOL    HW129861   2.203   3.189   2.873
 9654SOL    HW229862   2.098   3.085   2.943
 9655SOL     OW29863   6.179   1.514   6.565
 9655SOL    HW129864   6.158   1.517   6.663
 9655SOL    HW229865   6.133   1.589   6.519
 9656SOL     OW29866   3.264   1.202   3.039
 9656SOL    HW129867   3.301   1.273   2.979
 9656SOL    HW229868   3.196   1.148   2.990
 9657SOL     OW29869   0.064   0.051   5.074
 9657SOL    HW129870   0.027   6.976   5.072
 9657SOL    HW229871   0.005   0.111   5.020
 9658SOL     OW29872   5.558   2.123   3.219
 9658SOL    HW129873   5.474   2.163   3.256
 9658SOL    HW229874   5.540   2.031   3.184
 9659SOL     OW29875   1.323   4.609   6.992
 9659SOL    HW129876   1.246   4.595   0.036
 9659SOL    HW229877   1.406   4.574   0.016
 9660SOL     OW29878   0.937   5.283   0.722
 9660SOL    HW129879   0.876   5.310   0.648
 9660SOL    HW229880   0.885   5.239   0.795
 9661SOL     OW29881   4.201   6.838   1.233
 9661SOL    HW129882   4.158   6.922   1.265
 9661SOL    HW229883   4.240   6.788   1.311
 9662SOL     OW29884   4.765   1.038   4.365
 9662SOL    HW129885   4.730   1.128   4.338
 9662SOL    HW229886   4.865   1.041   4.372
 9663SOL     OW29887   2.168   6.423   3.002
 9663SOL    HW129888   2.068   6.416   3.002
 9663SOL    HW229889   2.195   6.512   3.040
 9664SOL     OW29890   2.299   5.810   1.737
 9664SOL    HW129891   2.385   5.843   1.698
 9664SOL    HW229892   2.285   5.850   1.828
 9665SOL     OW29893   5.223   4.215   3.720
 9665SOL    HW129894   5.215   4.135   3.779
 9665SOL    HW229895   5.299   4.203   3.656
 9666SOL     OW29896   5.027   4.638   5.039
 9666SOL    HW129897   4.982   4.718   5.081
 9666SOL    HW229898   4.959   4.566   5.026
 9667SOL     OW29899   3.418   3.048   3.367
 9667SOL    HW129900   3.460   3.017   3.451
 9667SOL    HW229901   3.323   3.015   3.362
 9668SOL     OW29902   0.691   1.230   5.256
 9668SOL    HW129903   0.747   1.164   5.205
 9668SOL    HW229904   0.750   1.297   5.300
 9669SOL     OW29905   1.374   6.496   6.907
 9669SOL    HW129906   1.385   6.473   6.810
 9669SOL    HW229907   1.379   6.411   6.961
 9670SOL     OW29908   5.608   4.728   6.336
 9670SOL    HW129909   5.557   4.812   6.356
 9670SOL    HW229910   5.633   4.727   6.239
 9671SOL     OW29911   0.117   0.211   6.959
 9671SOL    HW129912   0.197   0.156   6.934
 9671SOL    HW229913   0.042   0.151   6.988
 9672SOL     OW29914   1.570   6.257   5.262
 9672SOL    HW129915   1.480   6.301   5.254
 9672SOL    HW229916   1.602   6.264   5.356
 9673SOL     OW29917   1.952   2.868   5.860
 9673SOL    HW129918   2.052   2.869   5.859
 9673SOL    HW229919   1.918   2.941   5.800
 9674SOL     OW29920   2.651   6.574   2.305
 9674SOL    HW129921   2.671   6.482   2.337
 9674SOL    HW229922   2.574   6.611   2.357
 9675SOL     OW29923   0.503   2.065   2.352
 9675SOL    HW129924   0.407   2.087   2.333
 9675SOL    HW229925   0.537   2.127   2.423
 9676SOL     OW29926   0.133   2.775   4.744
 9676SOL    HW129927   0.184   2.708   4.690
 9676SOL    HW229928   0.046   2.735   4.774
 9677SOL     OW29929   1.673   3.505   5.473
 9677SOL    HW129930   1.756   3.458   5.441
 9677SOL    HW229931   1.593   3.462   5.432
 9678SOL     OW29932   3.544   3.450   3.066
 9678SOL    HW129933   3.543   3.400   3.153
 9678SOL    HW229934   3.510   3.390   2.993
 9679SOL     OW29935   0.289   3.806   1.338
 9679SOL    HW129936   0.201   3.775   1.373
 9679SOL    HW229937   0.361   3.744   1.367
 9680SOL     OW29938   4.672   4.791   3.261
 9680SOL    HW129939   4.766   4.757   3.258
 9680SOL    HW229940   4.624   4.753   3.340
 9681SOL     OW29941   0.763   0.535   4.370
 9681SOL    HW129942   0.790   0.613   4.313
 9681SOL    HW229943   0.721   0.465   4.313
 9682SOL     OW29944   0.355   5.167   2.931
 9682SOL    HW129945   0.440   5.175   2.879
 9682SOL    HW229946   0.290   5.111   2.880
 9683SOL     OW29947   5.150   6.524   5.996
 9683SOL    HW129948   5.139   6.487   6.089
 9683SOL    HW229949   5.239   6.568   5.988
 9684SOL     OW29950   1.096   4.553   3.497
 9684SOL    HW129951   1.155   4.489   3.448
 9684SOL    HW229952   1.152   4.614   3.553
 9685SOL     OW29953   2.004   2.224   6.871
 9685SOL    HW129954   1.982   2.266   6.783
 9685SOL    HW229955   1.924   2.177   6.907
 9686SOL     OW29956   5.500   1.948   1.676
 9686SOL    HW129957   5.445   1.894   1.612
 9686SOL    HW229958   5.440   2.012   1.725
 9687SOL     OW29959   3.880   1.382   4.509
 9687SOL    HW129960   3.927   1.468   4.528
 9687SOL    HW229961   3.782   1.393   4.521
 9688SOL     OW29962   6.480   1.758   4.061
 9688SOL    HW129963   6.479   1.723   3.967
 9688SOL    HW229964   6.450   1.854   4.061
 9689SOL     OW29965   2.097   5.967   5.889
 9689SOL    HW129966   2.099   5.898   5.817
 9689SOL    HW229967   2.004   6.002   5.898
 9690SOL     OW29968   5.979   3.763   0.551
 9690SOL    HW129969   5.960   3.783   0.455
 9690SOL    HW229970   5.900   3.719   0.593
 9691SOL     OW29971   1.326   4.396   0.925
 9691SOL    HW129972   1.326   4.342   1.010
 9691SOL    HW229973   1.354   4.489   0.945
 9692SOL     OW29974   3.069   5.678   0.960
 9692SOL    HW129975   3.064   5.584   0.926
 9692SOL    HW229976   2.995   5.732   0.921
 9693SOL     OW29977   5.975   5.647   1.514
 9693SOL    HW129978   5.996   5.649   1.612
 9693SOL    HW229979   5.971   5.740   1.478
 9694SOL     OW29980   1.061   1.974   0.611
 9694SOL    HW129981   1.130   2.046   0.621
 9694SOL    HW229982   0.970   2.015   0.610
 9695SOL     OW29983   6.774   4.324   0.630
 9695SOL    HW129984   6.733   4.271   0.556
 9695SOL    HW229985   6.871   4.338   0.611
 9696SOL     OW29986   3.794   4.342   0.755
 9696SOL    HW129987   3.747   4.291   0.827
 9696SOL    HW229988   3.849   4.414   0.796
 9697SOL     OW29989   0.640   5.906   5.778
 9697SOL    HW129990   0.633   5.859   5.690
 9697SOL    HW229991   0.559   5.885   5.833
 9698SOL     OW29992   4.868   0.960   5.260
 9698SOL    HW129993   4.823   1.049   5.249
 9698SOL    HW229994   4.802   0.887   5.244
 9699SOL     OW29995   2.222   2.951   0.062
 9699SOL    HW129996   2.256   3.004   7.002
 9699SOL    HW229997   2.161   2.879   0.030
 9700SOL     OW29998   3.827   3.869   3.543
 9700SOL    HW129999   3.784   3.795   3.492
 9700SOL    HW230000   3.857   3.940   3.479
 9701SOL     OW30001   4.758   4.288   4.828
 9701SOL    HW130002   4.679   4.350   4.832
 9701SOL    HW230003   4.749   4.228   4.749
 9702SOL     OW30004   5.102   0.258   0.791
 9702SOL    HW130005   5.148   0.252   0.880
 9702SOL    HW230006   5.040   0.180   0.780
 9703SOL     OW30007   2.854   5.973   3.922
 9703SOL    HW130008   2.948   5.966   3.955
 9703SOL    HW230009   2.851   6.031   3.841
 9704SOL     OW30010   2.701   1.509   3.587
 9704SOL    HW130011   2.687   1.451   3.506
 9704SOL    HW230012   2.614   1.520   3.635
 9705SOL     OW30013   3.800   3.724   0.985
 9705SOL    HW130014   3.764   3.708   0.893
 9705SOL    HW230015   3.725   3.746   1.047
 9706SOL     OW30016   6.497   2.615   3.818
 9706SOL    HW130017   6.550   2.534   3.794
 9706SOL    HW230018   6.515   2.687   3.751
 9707SOL     OW30019   2.368   5.089   3.099
 9707SOL    HW130020   2.311   5.140   3.163
 9707SOL    HW230021   2.464   5.109   3.117
 9708SOL     OW30022   1.731   1.793   2.214
 9708SOL    HW130023   1.634   1.772   2.209
 9708SOL    HW230024   1.766   1.814   2.123
 9709SOL     OW30025   1.664   5.398   3.184
 9709SOL    HW130026   1.619   5.408   3.273
 9709SOL    HW230027   1.641   5.477   3.126
 9710SOL     OW30028   0.478   0.487   4.045
 9710SOL    HW130029   0.465   0.585   4.031
 9710SOL    HW230030   0.426   0.457   4.124
 9711SOL     OW30031   1.685   3.318   6.487
 9711SOL    HW130032   1.627   3.397   6.468
 9711SOL    HW230033   1.649   3.238   6.438
 9712SOL     OW30034   4.904   3.441   4.622
 9712SOL    HW130035   4.912   3.450   4.523
 9712SOL    HW230036   4.868   3.350   4.645
 9713SOL     OW30037   6.797   5.372   2.461
 9713SOL    HW130038   6.782   5.374   2.560
 9713SOL    HW230039   6.879   5.425   2.439
 9714SOL     OW30040   1.816   2.149   2.308
 9714SOL    HW130041   1.724   2.175   2.280
 9714SOL    HW230042   1.881   2.217   2.274
 9715SOL     OW30043   6.195   5.452   5.615
 9715SOL    HW130044   6.287   5.427   5.586
 9715SOL    HW230045   6.158   5.522   5.554
 9716SOL     OW30046   3.632   1.343   5.675
 9716SOL    HW130047   3.660   1.439   5.686
 9716SOL    HW230048   3.706   1.283   5.705
 9717SOL     OW30049   5.685   5.721   3.334
 9717SOL    HW130050   5.672   5.800   3.395
 9717SOL    HW230051   5.677   5.637   3.387
 9718SOL     OW30052   4.720   3.126   1.668
 9718SOL    HW130053   4.693   3.073   1.748
 9718SOL    HW230054   4.704   3.073   1.585
 9719SOL     OW30055   0.294   1.607   0.446
 9719SOL    HW130056   0.379   1.559   0.423
 9719SOL    HW230057   0.292   1.626   0.545
 9720SOL     OW30058   1.017   0.078   0.528
 9720SOL    HW130059   1.108   0.041   0.539
 9720SOL    HW230060   1.023   0.175   0.504
 9721SOL     OW30061   0.061   2.621   3.406
 9721SOL    HW130062   6.993   2.589   3.445
 9721SOL    HW230063   0.050   2.636   3.308
 9722SOL     OW30064   6.938   0.235   4.390
 9722SOL    HW130065   6.915   0.321   4.435
 9722SOL    HW230066   6.876   0.163   4.422
 9723SOL     OW30067   6.814   1.108   3.611
 9723SOL    HW130068   6.867   1.081   3.531
 9723SOL    HW230069   6.742   1.040   3.627
 9724SOL     OW30070   3.529   2.723   1.006
 9724SOL    HW130071   3.546   2.723   1.104
 9724SOL    HW230072   3.613   2.748   0.958
 9725SOL     OW30073   4.045   3.596   5.744
 9725SOL    HW130074   3.981   3.649   5.801
 9725SOL    HW230075   4.134   3.642   5.742
 9726SOL     OW30076   5.840   5.872   4.209
 9726SOL    HW130077   5.832   5.805   4.282
 9726SOL    HW230078   5.931   5.866   4.168
 9727SOL     OW30079   1.974   0.759   0.355
 9727SOL    HW130080   1.991   0.827   0.284
 9727SOL    HW230081   2.010   0.792   0.442
 9728SOL     OW30082   3.208   5.884   0.057
 9728SOL    HW130083   3.194   5.910   0.152
 9728SOL    HW230084   3.142   5.812   0.032
 9729SOL     OW30085   3.092   5.227   2.151
 9729SOL    HW130086   3.101   5.149   2.090
 9729SOL    HW230087   3.180   5.247   2.193
 9730SOL     OW30088   5.844   3.500   2.960
 9730SOL    HW130089   5.865   3.417   3.012
 9730SOL    HW230090   5.750   3.528   2.978
 9731SOL     OW30091   5.085   5.391   1.088
 9731SOL    HW130092   5.056   5.448   1.010
 9731SOL    HW230093   5.007   5.335   1.119
 9732SOL     OW30094   5.908   6.014   3.861
 9732SOL    HW130095   5.995   6.000   3.813
 9732SOL    HW230096   5.927   6.036   3.957
 9733SOL     OW30097   5.618   4.769   6.042
 9733SOL    HW130098   5.546   4.839   6.039
 9733SOL    HW230099   5.609   4.709   5.962
 9734SOL     OW30100   5.719   2.079   5.745
 9734SOL    HW130101   5.775   2.159   5.764
 9734SOL    HW230102   5.663   2.058   5.825
 9735SOL     OW30103   3.296   4.401   0.566
 9735SOL    HW130104   3.316   4.319   0.620
 9735SOL    HW230105   3.374   4.463   0.569
 9736SOL     OW30106   3.533   1.880   1.768
 9736SOL    HW130107   3.598   1.901   1.694
 9736SOL    HW230108   3.499   1.966   1.807
 9737SOL     OW30109   4.256   2.263   4.671
 9737SOL    HW130110   4.157   2.261   4.688
 9737SOL    HW230111   4.300   2.193   4.728
 9738SOL     OW30112   2.839   0.481   2.243
 9738SOL    HW130113   2.844   0.384   2.219
 9738SOL    HW230114   2.777   0.527   2.180
 9739SOL     OW30115   5.682   4.449   1.605
 9739SOL    HW130116   5.687   4.365   1.551
 9739SOL    HW230117   5.594   4.452   1.653
 9740SOL     OW30118   6.686   3.978   2.981
 9740SOL    HW130119   6.760   3.936   2.929
 9740SOL    HW230120   6.605   3.985   2.923
 9741SOL     OW30121   4.193   1.550   1.912
 9741SOL    HW130122   4.101   1.579   1.938
 9741SOL    HW230123   4.225   1.480   1.976
 9742SOL     OW30124   4.495   1.655   3.666
 9742SOL    HW130125   4.411   1.611   3.699
 9742SOL    HW230126   4.559   1.665   3.742
 9743SOL     OW30127   1.236   1.629   5.665
 9743SOL    HW130128   1.167   1.701   5.657
 9743SOL    HW230129   1.280   1.616   5.576
 9744SOL     OW30130   2.411   0.367   1.760
 9744SOL    HW130131   2.432   0.273   1.790
 9744SOL    HW230132   2.431   0.430   1.835
 9745SOL     OW30133   0.749   0.886   4.853
 9745SOL    HW130134   0.766   0.825   4.930
 9745SOL    HW230135   0.837   0.915   4.813
 9746SOL     OW30136   6.479   0.744   4.014
 9746SOL    HW130137   6.404   0.804   3.986
 9746SOL    HW230138   6.488   0.747   4.113
 9747SOL     OW30139   0.540   0.430   6.621
 9747SOL    HW130140   0.461   0.420   6.562
 9747SOL    HW230141   0.510   0.442   6.716
 9748SOL     OW30142   1.063   4.667   4.168
 9748SOL    HW130143   1.075   4.574   4.134
 9748SOL    HW230144   0.983   4.670   4.229
 9749SOL     OW30145   0.524   5.016   4.191
 9749SOL    HW130146   0.570   5.012   4.103
 9749SOL    HW230147   0.575   5.075   4.253
 9750SOL     OW30148   3.181   5.333   2.606
 9750SOL    HW130149   3.119   5.293   2.538
 9750SOL    HW230150   3.199   5.265   2.677
 9751SOL     OW30151   1.529   2.750   0.675
 9751SOL    HW130152   1.481   2.804   0.606
 9751SOL    HW230153   1.616   2.793   0.696
 9752SOL     OW30154   4.021   0.901   5.798
 9752SOL    HW130155   4.103   0.862   5.756
 9752SOL    HW230156   3.942   0.884   5.738
 9753SOL     OW30157   0.110   6.619   6.493
 9753SOL    HW130158   0.164   6.702   6.511
 9753SOL    HW230159   0.152   6.568   6.418
 9754SOL     OW30160   0.159   2.808   6.415
 9754SOL    HW130161   0.181   2.876   6.486
 9754SOL    HW230162   0.176   2.716   6.451
 9755SOL     OW30163   3.430   5.439   5.908
 9755SOL    HW130164   3.442   5.507   5.980
 9755SOL    HW230165   3.342   5.394   5.919
 9756SOL     OW30166   5.321   2.664   5.541
 9756SOL    HW130167   5.290   2.590   5.481
 9756SOL    HW230168   5.321   2.633   5.636
 9757SOL     OW30169   6.611   0.925   3.683
 9757SOL    HW130170   6.540   0.946   3.615
 9757SOL    HW230171   6.599   0.831   3.715
 9758SOL     OW30172   3.220   0.728   0.052
 9758SOL    HW130173   3.220   0.628   0.055
 9758SOL    HW230174   3.129   0.762   0.076
 9759SOL     OW30175   3.239   5.758   1.540
 9759SOL    HW130176   3.191   5.672   1.521
 9759SOL    HW230177   3.305   5.777   1.467
 9760SOL     OW30178   5.950   4.781   5.878
 9760SOL    HW130179   5.966   4.879   5.893
 9760SOL    HW230180   5.894   4.745   5.952
 9761SOL     OW30181   5.490   5.216   2.982
 9761SOL    HW130182   5.490   5.316   2.984
 9761SOL    HW230183   5.441   5.181   3.062
 9762SOL     OW30184   3.308   0.760   3.020
 9762SOL    HW130185   3.355   0.846   2.998
 9762SOL    HW230186   3.312   0.699   2.941
 9763SOL     OW30187   2.006   1.632   2.231
 9763SOL    HW130188   1.968   1.714   2.190
 9763SOL    HW230189   1.982   1.630   2.328
 9764SOL     OW30190   1.099   2.353   2.245
 9764SOL    HW130191   1.050   2.316   2.324
 9764SOL    HW230192   1.037   2.356   2.166
 9765SOL     OW30193   0.254   0.819   5.276
 9765SOL    HW130194   0.233   0.875   5.196
 9765SOL    HW230195   0.334   0.857   5.323
 9766SOL     OW30196   2.153   0.481   2.908
 9766SOL    HW130197   2.252   0.480   2.894
 9766SOL    HW230198   2.124   0.571   2.940
 9767SOL     OW30199   5.075   0.349   5.335
 9767SOL    HW130200   5.077   0.431   5.391
 9767SOL    HW230201   5.039   0.273   5.389
 9768SOL     OW30202   4.989   2.555   4.251
 9768SOL    HW130203   4.973   2.554   4.152
 9768SOL    HW230204   4.902   2.565   4.299
 9769SOL     OW30205   0.308   1.515   1.080
 9769SOL    HW130206   0.350   1.590   1.132
 9769SOL    HW230207   0.223   1.547   1.038
 9770SOL     OW30208   0.166   2.991   5.385
 9770SOL    HW130209   0.098   3.043   5.333
 9770SOL    HW230210   0.238   2.960   5.323
 9771SOL     OW30211   2.995   5.414   3.666
 9771SOL    HW130212   2.968   5.324   3.700
 9771SOL    HW230213   2.953   5.485   3.724
 9772SOL     OW30214   6.006   6.440   0.842
 9772SOL    HW130215   6.100   6.475   0.838
 9772SOL    HW230216   5.968   6.460   0.933
 9773SOL     OW30217   4.939   5.176   3.731
 9773SOL    HW130218   4.860   5.128   3.694
 9773SOL    HW230219   4.942   5.166   3.830
 9774SOL     OW30220   0.035   5.110   4.438
 9774SOL    HW130221   6.966   5.148   4.467
 9774SOL    HW230222   0.031   5.010   4.440
 9775SOL     OW30223   2.949   2.248   4.441
 9775SOL    HW130224   2.995   2.235   4.529
 9775SOL    HW230225   2.954   2.163   4.388
 9776SOL     OW30226   0.312   4.657   4.067
 9776SOL    HW130227   0.272   4.618   4.150
 9776SOL    HW230228   0.269   4.745   4.047
 9777SOL     OW30229   5.299   5.178   6.093
 9777SOL    HW130230   5.221   5.191   6.155
 9777SOL    HW230231   5.379   5.150   6.146
 9778SOL     OW30232   3.641   0.670   4.549
 9778SOL    HW130233   3.724   0.667   4.604
 9778SOL    HW230234   3.659   0.716   4.463
 9779SOL     OW30235   3.123   2.039   6.531
 9779SOL    HW130236   3.035   2.086   6.534
 9779SOL    HW230237   3.197   2.105   6.532
 9780SOL     OW30238   2.612   4.288   0.675
 9780SOL    HW130239   2.686   4.344   0.637
 9780SOL    HW230240   2.538   4.348   0.706
 9781SOL     OW30241   1.423   6.787   4.493
 9781SOL    HW130242   1.491   6.761   4.563
 9781SOL    HW230243   1.332   6.758   4.522
 9782SOL     OW30244   5.691   0.089   0.328
 9782SOL    HW130245   5.682   0.186   0.304
 9782SOL    HW230246   5.761   0.078   0.398
 9783SOL     OW30247   6.035   0.440   3.206
 9783SOL    HW130248   6.005   0.393   3.289
 9783SOL    HW230249   6.109   0.389   3.163
 9784SOL     OW30250   5.600   0.511   4.451
 9784SOL    HW130251   5.629   0.507   4.355
 9784SOL    HW230252   5.663   0.457   4.507
 9785SOL     OW30253   0.476   3.054   1.512
 9785SOL    HW130254   0.377   3.043   1.523
 9785SOL    HW230255   0.523   3.000   1.582
 9786SOL     OW30256   2.696   0.011   4.635
 9786SOL    HW130257   2.779   0.009   4.580
 9786SOL    HW230258   2.617   7.014   4.577
 9787SOL     OW30259   6.309   4.235   1.256
 9787SOL    HW130260   6.344   4.163   1.315
 9787SOL    HW230261   6.228   4.203   1.207
 9788SOL     OW30262   6.514   1.045   5.595
 9788SOL    HW130263   6.493   0.952   5.623
 9788SOL    HW230264   6.609   1.066   5.616
 9789SOL     OW30265   1.771   5.361   4.807
 9789SOL    HW130266   1.866   5.357   4.773
 9789SOL    HW230267   1.725   5.440   4.768
 9790SOL     OW30268   6.613   1.303   3.489
 9790SOL    HW130269   6.584   1.225   3.432
 9790SOL    HW230270   6.685   1.273   3.552
 9791SOL     OW30271   1.186   2.130   1.216
 9791SOL    HW130272   1.180   2.099   1.121
 9791SOL    HW230273   1.131   2.070   1.274
 9792SOL     OW30274   3.487   5.871   2.327
 9792SOL    HW130275   3.528   5.871   2.236
 9792SOL    HW230276   3.391   5.899   2.320
 9793SOL     OW30277   5.334   5.765   2.429
 9793SOL    HW130278   5.335   5.857   2.389
 9793SOL    HW230279   5.423   5.746   2.471
 9794SOL     OW30280   3.217   3.178   6.516
 9794SOL    HW130281   3.258   3.103   6.567
 9794SOL    HW230282   3.290   3.232   6.472
 9795SOL     OW30283   2.139   4.987   3.401
 9795SOL    HW130284   2.075   4.989   3.478
 9795SOL    HW230285   2.163   4.892   3.379
 9796SOL     OW30286   3.743   4.837   0.509
 9796SOL    HW130287   3.694   4.764   0.462
 9796SOL    HW230288   3.837   4.841   0.475
 9797SOL     OW30289   5.394   3.388   5.256
 9797SOL    HW130290   5.378   3.485   5.276
 9797SOL    HW230291   5.340   3.361   5.176
 9798SOL     OW30292   2.586   1.757   1.776
 9798SOL    HW130293   2.587   1.856   1.792
 9798SOL    HW230294   2.660   1.733   1.713
 9799SOL     OW30295   3.330   4.042   2.583
 9799SOL    HW130296   3.231   4.033   2.596
 9799SOL    HW230297   3.377   4.024   2.669
 9800SOL     OW30298   4.067   5.259   0.474
 9800SOL    HW130299   3.987   5.224   0.425
 9800SOL    HW230300   4.069   5.222   0.566
 9801SOL     OW30301   4.897   5.135   1.095
 9801SOL    HW130302   4.885   5.049   1.046
 9801SOL    HW230303   4.932   5.116   1.187
 9802SOL     OW30304   0.629   5.419   1.696
 9802SOL    HW130305   0.555   5.485   1.708
 9802SOL    HW230306   0.707   5.463   1.651
 9803SOL     OW30307   4.999   0.342   6.450
 9803SOL    HW130308   4.983   0.257   6.400
 9803SOL    HW230309   5.088   0.338   6.495
 9804SOL     OW30310   4.639   5.509   4.190
 9804SOL    HW130311   4.667   5.554   4.105
 9804SOL    HW230312   4.719   5.467   4.233
 9805SOL     OW30313   3.426   3.815   1.002
 9805SOL    HW130314   3.465   3.870   0.927
 9805SOL    HW230315   3.409   3.722   0.969
 9806SOL     OW30316   6.917   1.742   2.549
 9806SOL    HW130317   6.882   1.796   2.472
 9806SOL    HW230318   6.961   1.659   2.514
 9807SOL     OW30319   2.178   3.523   0.933
 9807SOL    HW130320   2.244   3.498   1.005
 9807SOL    HW230321   2.089   3.541   0.975
 9808SOL     OW30322   1.741   1.960   3.996
 9808SOL    HW130323   1.730   1.912   4.084
 9808SOL    HW230324   1.781   2.050   4.012
 9809SOL     OW30325   0.569   0.868   4.263
 9809SOL    HW130326   0.662   0.834   4.247
 9809SOL    HW230327   0.559   0.894   4.359
 9810SOL     OW30328   4.188   1.600   2.388
 9810SOL    HW130329   4.132   1.521   2.362
 9810SOL    HW230330   4.133   1.683   2.386
 9811SOL     OW30331   1.282   0.298   2.752
 9811SOL    HW130332   1.329   0.336   2.831
 9811SOL    HW230333   1.218   0.227   2.782
 9812SOL     OW30334   5.830   3.166   5.958
 9812SOL    HW130335   5.868   3.142   6.047
 9812SOL    HW230336   5.819   3.266   5.953
 9813SOL     OW30337   6.500   4.012   0.479
 9813SOL    HW130338   6.501   4.016   0.579
 9813SOL    HW230339   6.407   4.032   0.446
 9814SOL     OW30340   6.608   0.723   5.633
 9814SOL    HW130341   6.651   0.777   5.705
 9814SOL    HW230342   6.509   0.726   5.643
 9815SOL     OW30343   6.790   4.582   2.427
 9815SOL    HW130344   6.834   4.663   2.466
 9815SOL    HW230345   6.832   4.560   2.339
 9816SOL     OW30346   6.166   1.217   5.563
 9816SOL    HW130347   6.226   1.214   5.643
 9816SOL    HW230348   6.194   1.146   5.498
 9817SOL     OW30349   2.634   1.197   0.594
 9817SOL    HW130350   2.681   1.254   0.526
 9817SOL    HW230351   2.674   1.105   0.594
 9818SOL     OW30352   0.281   6.626   2.234
 9818SOL    HW130353   0.369   6.643   2.278
 9818SOL    HW230354   0.284   6.539   2.185
 9819SOL     OW30355   6.387   1.893   4.545
 9819SOL    HW130356   6.478   1.926   4.570
 9819SOL    HW230357   6.320   1.966   4.561
 9820SOL     OW30358   4.017   1.141   6.199
 9820SOL    HW130359   3.964   1.180   6.275
 9820SOL    HW230360   4.111   1.173   6.205
 9821SOL     OW30361   4.562   3.459   0.365
 9821SOL    HW130362   4.627   3.432   0.293
 9821SOL    HW230363   4.575   3.556   0.386
 9822SOL     OW30364   3.619   5.060   4.164
 9822SOL    HW130365   3.700   5.030   4.115
 9822SOL    HW230366   3.630   5.155   4.192
 9823SOL     OW30367   4.119   6.525   3.514
 9823SOL    HW130368   4.209   6.538   3.554
 9823SOL    HW230369   4.083   6.612   3.481
 9824SOL     OW30370   1.296   5.681   5.186
 9824SOL    HW130371   1.252   5.722   5.106
 9824SOL    HW230372   1.388   5.649   5.162
 9825SOL     OW30373   0.515   6.270   4.882
 9825SOL    HW130374   0.458   6.239   4.958
 9825SOL    HW230375   0.585   6.201   4.862
 9826SOL     OW30376   1.657   5.905   6.710
 9826SOL    HW130377   1.704   5.845   6.775
 9826SOL    HW230378   1.719   5.978   6.681
 9827SOL     OW30379   1.752   4.837   1.344
 9827SOL    HW130380   1.822   4.767   1.354
 9827SOL    HW230381   1.790   4.916   1.296
 9828SOL     OW30382   4.563   2.240   4.648
 9828SOL    HW130383   4.539   2.143   4.645
 9828SOL    HW230384   4.653   2.253   4.605
 9829SOL     OW30385   5.129   4.498   5.938
 9829SOL    HW130386   5.227   4.477   5.929
 9829SOL    HW230387   5.099   4.551   5.859
 9830SOL     OW30388   6.274   1.053   3.597
 9830SOL    HW130389   6.188   1.072   3.644
 9830SOL    HW230390   6.339   1.126   3.615
 9831SOL     OW30391   6.965   4.740   1.710
 9831SOL    HW130392   0.014   4.670   1.733
 9831SOL    HW230393   7.008   4.830   1.713
 9832SOL     OW30394   4.960   5.694   4.820
 9832SOL    HW130395   5.006   5.727   4.902
 9832SOL    HW230396   4.872   5.740   4.810
 9833SOL     OW30397   3.566   3.130   4.922
 9833SOL    HW130398   3.658   3.136   4.959
 9833SOL    HW230399   3.557   3.192   4.844
 9834SOL     OW30400   2.914   5.797   6.064
 9834SOL    HW130401   3.000   5.748   6.073
 9834SOL    HW230402   2.931   5.896   6.063
 9835SOL     OW30403   3.612   3.152   3.923
 9835SOL    HW130404   3.680   3.223   3.902
 9835SOL    HW230405   3.659   3.068   3.951
 9836SOL     OW30406   6.633   3.467   5.191
 9836SOL    HW130407   6.605   3.515   5.274
 9836SOL    HW230408   6.577   3.499   5.114
 9837SOL     OW30409   6.659   0.714   3.357
 9837SOL    HW130410   6.606   0.645   3.308
 9837SOL    HW230411   6.704   0.672   3.436
 9838SOL     OW30412   0.186   5.411   0.703
 9838SOL    HW130413   0.155   5.494   0.750
 9838SOL    HW230414   0.278   5.388   0.735
 9839SOL     OW30415   4.412   6.398   3.355
 9839SOL    HW130416   4.464   6.463   3.299
 9839SOL    HW230417   4.400   6.435   3.447
 9840SOL     OW30418   6.498   1.906   0.058
 9840SOL    HW130419   6.541   1.821   0.027
 9840SOL    HW230420   6.467   1.895   0.153
 9841SOL     OW30421   0.243   6.085   2.188
 9841SOL    HW130422   0.166   6.089   2.252
 9841SOL    HW230423   0.242   5.998   2.139
 9842SOL     OW30424   3.984   0.472   0.645
 9842SOL    HW130425   4.023   0.412   0.575
 9842SOL    HW230426   4.041   0.553   0.656
 9843SOL     OW30427   0.358   0.402   0.494
 9843SOL    HW130428   0.454   0.382   0.478
 9843SOL    HW230429   0.349   0.491   0.540
 9844SOL     OW30430   5.090   0.263   4.967
 9844SOL    HW130431   5.135   0.306   4.889
 9844SOL    HW230432   5.155   0.257   5.044
 9845SOL     OW30433   1.072   3.839   2.326
 9845SOL    HW130434   1.100   3.848   2.231
 9845SOL    HW230435   1.151   3.814   2.382
 9846SOL     OW30436   5.220   2.242   2.458
 9846SOL    HW130437   5.293   2.255   2.391
 9846SOL    HW230438   5.258   2.248   2.550
 9847SOL     OW30439   4.026   4.300   6.840
 9847SOL    HW130440   4.039   4.397   6.820
 9847SOL    HW230441   4.019   4.288   6.939
 9848SOL     OW30442   2.949   4.437   5.562
 9848SOL    HW130443   2.885   4.479   5.499
 9848SOL    HW230444   3.042   4.444   5.526
 9849SOL     OW30445   2.413   2.325   3.194
 9849SOL    HW130446   2.488   2.387   3.216
 9849SOL    HW230447   2.449   2.232   3.184
 9850SOL     OW30448   0.978   0.219   4.576
 9850SOL    HW130449   0.916   0.214   4.498
 9850SOL    HW230450   0.926   0.226   4.661
 9851SOL     OW30451   3.437   5.476   3.643
 9851SOL    HW130452   3.450   5.385   3.682
 9851SOL    HW230453   3.375   5.529   3.701
 9852SOL     OW30454   2.183   6.598   0.176
 9852SOL    HW130455   2.196   6.522   0.240
 9852SOL    HW230456   2.104   6.652   0.206
 9853SOL     OW30457   0.238   4.376   4.137
 9853SOL    HW130458   0.294   4.387   4.055
 9853SOL    HW230459   0.287   4.320   4.204
 9854SOL     OW30460   6.356   3.271   6.797
 9854SOL    HW130461   6.338   3.353   6.743
 9854SOL    HW230462   6.446   3.234   6.772
 9855SOL     OW30463   0.978   5.888   6.836
 9855SOL    HW130464   1.000   5.956   6.906
 9855SOL    HW230465   1.054   5.825   6.825
 9856SOL     OW30466   5.363   3.817   3.542
 9856SOL    HW130467   5.306   3.801   3.461
 9856SOL    HW230468   5.453   3.777   3.528
 9857SOL     OW30469   5.015   0.465   6.005
 9857SOL    HW130470   5.089   0.431   5.947
 9857SOL    HW230471   5.047   0.471   6.100
 9858SOL     OW30472   6.579   5.564   2.433
 9858SOL    HW130473   6.665   5.516   2.447
 9858SOL    HW230474   6.539   5.537   2.345
 9859SOL     OW30475   0.879   5.102   2.528
 9859SOL    HW130476   0.973   5.106   2.493
 9859SOL    HW230477   0.815   5.120   2.453
 9860SOL     OW30478   1.722   3.627   3.886
 9860SOL    HW130479   1.799   3.683   3.918
 9860SOL    HW230480   1.655   3.686   3.840
 9861SOL     OW30481   3.194   1.680   3.675
 9861SOL    HW130482   3.208   1.590   3.634
 9861SOL    HW230483   3.191   1.750   3.603
 9862SOL     OW30484   1.726   3.108   6.691
 9862SOL    HW130485   1.681   3.025   6.658
 9862SOL    HW230486   1.681   3.188   6.654
 9863SOL     OW30487   4.019   6.902   1.970
 9863SOL    HW130488   3.955   6.866   1.902
 9863SOL    HW230489   4.010   6.850   2.055
 9864SOL     OW30490   3.125   6.375   5.469
 9864SOL    HW130491   3.200   6.415   5.417
 9864SOL    HW230492   3.085   6.299   5.418
 9865SOL     OW30493   2.239   6.077   5.698
 9865SOL    HW130494   2.209   6.043   5.787
 9865SOL    HW230495   2.305   6.151   5.710
 9866SOL     OW30496   0.023   5.301   6.460
 9866SOL    HW130497   6.942   5.308   6.450
 9866SOL    HW230498   0.065   5.301   6.370
 9867SOL     OW30499   4.800   1.317   2.357
 9867SOL    HW130500   4.780   1.253   2.283
 9867SOL    HW230501   4.738   1.395   2.351
 9868SOL     OW30502   2.701   4.624   3.507
 9868SOL    HW130503   2.619   4.665   3.467
 9868SOL    HW230504   2.697   4.525   3.496
 9869SOL     OW30505   6.312   2.627   2.937
 9869SOL    HW130506   6.332   2.569   2.857
 9869SOL    HW230507   6.328   2.575   3.020
 9870SOL     OW30508   2.094   2.260   3.123
 9870SOL    HW130509   2.133   2.176   3.086
 9870SOL    HW230510   2.088   2.253   3.223
 9871SOL     OW30511   5.696   5.992   3.115
 9871SOL    HW130512   5.773   5.948   3.162
 9871SOL    HW230513   5.617   5.993   3.175
 9872SOL     OW30514   0.836   6.468   5.772
 9872SOL    HW130515   0.863   6.524   5.850
 9872SOL    HW230516   0.916   6.450   5.714
 9873SOL     OW30517   0.259   0.752   4.948
 9873SOL    HW130518   0.285   0.694   4.870
 9873SOL    HW230519   0.160   0.768   4.945
 9874SOL     OW30520   0.149   1.820   3.405
 9874SOL    HW130521   0.120   1.824   3.501
 9874SOL    HW230522   0.092   1.882   3.351
 9875SOL     OW30523   6.360   6.353   0.893
 9875SOL    HW130524   6.435   6.296   0.859
 9875SOL    HW230525   6.309   6.303   0.963
 9876SOL     OW30526   0.288   7.014   3.555
 9876SOL    HW130527   0.230   6.988   3.631
 9876SOL    HW230528   0.345   6.936   3.527
 9877SOL     OW30529   1.270   6.193   5.127
 9877SOL    HW130530   1.281   6.285   5.163
 9877SOL    HW230531   1.173   6.178   5.103
 9878SOL     OW30532   4.073   2.547   6.808
 9878SOL    HW130533   4.059   2.497   6.723
 9878SOL    HW230534   4.036   2.640   6.799
 9879SOL     OW30535   5.638   6.040   4.205
 9879SOL    HW130536   5.703   5.965   4.190
 9879SOL    HW230537   5.673   6.124   4.163
 9880SOL     OW30538   3.765   1.113   0.992
 9880SOL    HW130539   3.732   1.196   1.037
 9880SOL    HW230540   3.865   1.114   0.989
 9881SOL     OW30541   6.223   0.173   3.312
 9881SOL    HW130542   6.159   0.175   3.388
 9881SOL    HW230543   6.245   0.267   3.285
 9882SOL     OW30544   3.343   3.149   4.562
 9882SOL    HW130545   3.316   3.153   4.465
 9882SOL    HW230546   3.297   3.223   4.612
 9883SOL     OW30547   1.817   6.051   2.739
 9883SOL    HW130548   1.846   5.955   2.748
 9883SOL    HW230549   1.892   6.111   2.765
 9884SOL     OW30550   3.142   2.578   5.338
 9884SOL    HW130551   3.168   2.494   5.290
 9884SOL    HW230552   3.048   2.570   5.370
 9885SOL     OW30553   4.782   2.498   5.583
 9885SOL    HW130554   4.838   2.441   5.524
 9885SOL    HW230555   4.702   2.446   5.614
 9886SOL     OW30556   2.524   6.412   1.433
 9886SOL    HW130557   2.512   6.313   1.432
 9886SOL    HW230558   2.542   6.445   1.340
 9887SOL     OW30559   3.498   1.140   7.004
 9887SOL    HW130560   3.483   1.062   6.942
 9887SOL    HW230561   3.591   1.137   0.022
 9888SOL     OW30562   6.767   6.113   3.657
 9888SOL    HW130563   6.697   6.157   3.602
 9888SOL    HW230564   6.812   6.181   3.715
 9889SOL     OW30565   6.093   6.157   2.326
 9889SOL    HW130566   6.061   6.249   2.307
 9889SOL    HW230567   6.015   6.096   2.340
 9890SOL     OW30568   1.785   3.016   2.685
 9890SOL    HW130569   1.750   2.928   2.654
 9890SOL    HW230570   1.854   3.002   2.755
 9891SOL     OW30571   4.309   6.716   1.896
 9891SOL    HW130572   4.347   6.808   1.904
 9891SOL    HW230573   4.210   6.721   1.884
 9892SOL     OW30574   1.790   6.378   3.267
 9892SOL    HW130575   1.711   6.335   3.310
 9892SOL    HW230576   1.871   6.320   3.280
 9893SOL     OW30577   5.734   4.459   5.407
 9893SOL    HW130578   5.748   4.459   5.506
 9893SOL    HW230579   5.678   4.381   5.381
 9894SOL     OW30580   3.977   3.964   5.593
 9894SOL    HW130581   3.897   3.930   5.643
 9894SOL    HW230582   3.986   4.063   5.608
 9895SOL     OW30583   5.462   2.159   6.251
 9895SOL    HW130584   5.366   2.187   6.252
 9895SOL    HW230585   5.516   2.228   6.202
 9896SOL     OW30586   3.854   4.107   0.223
 9896SOL    HW130587   3.905   4.158   0.154
 9896SOL    HW230588   3.916   4.046   0.272
 9897SOL     OW30589   0.796   1.593   2.759
 9897SOL    HW130590   0.721   1.630   2.703
 9897SOL    HW230591   0.764   1.512   2.807
 9898SOL     OW30592   0.476   4.916   0.487
 9898SOL    HW130593   0.402   4.880   0.431
 9898SOL    HW230594   0.559   4.861   0.472
 9899SOL     OW30595   4.067   5.494   2.276
 9899SOL    HW130596   4.086   5.592   2.267
 9899SOL    HW230597   3.991   5.469   2.217
 9900SOL     OW30598   2.546   5.104   3.994
 9900SOL    HW130599   2.580   5.021   3.948
 9900SOL    HW230600   2.447   5.100   3.999
 9901SOL     OW30601   2.803   1.498   5.828
 9901SOL    HW130602   2.797   1.449   5.915
 9901SOL    HW230603   2.852   1.584   5.842
 9902SOL     OW30604   4.008   4.012   6.892
 9902SOL    HW130605   4.010   4.110   6.873
 9902SOL    HW230606   3.924   3.972   6.853
 9903SOL     OW30607   3.186   1.450   1.199
 9903SOL    HW130608   3.215   1.402   1.281
 9903SOL    HW230609   3.120   1.521   1.223
 9904SOL     OW30610   6.753   6.210   2.365
 9904SOL    HW130611   6.718   6.201   2.458
 9904SOL    HW230612   6.688   6.171   2.300
 9905SOL     OW30613   2.606   0.068   6.295
 9905SOL    HW130614   2.612   0.034   6.201
 9905SOL    HW230615   2.676   0.022   6.351
 9906SOL     OW30616   3.440   4.539   6.123
 9906SOL    HW130617   3.389   4.510   6.204
 9906SOL    HW230618   3.526   4.489   6.118
 9907SOL     OW30619   0.823   6.517   3.057
 9907SOL    HW130620   0.904   6.560   3.017
 9907SOL    HW230621   0.843   6.422   3.080
 9908SOL     OW30622   6.697   2.825   5.316
 9908SOL    HW130623   6.770   2.877   5.361
 9908SOL    HW230624   6.728   2.731   5.300
 9909SOL     OW30625   2.878   6.812   2.794
 9909SOL    HW130626   2.813   6.861   2.853
 9909SOL    HW230627   2.933   6.750   2.849
 9910SOL     OW30628   0.828   5.743   0.399
 9910SOL    HW130629   0.745   5.776   0.355
 9910SOL    HW230630   0.807   5.711   0.491
 9911SOL     OW30631   3.819   4.830   2.471
 9911SOL    HW130632   3.837   4.877   2.384
 9911SOL    HW230633   3.728   4.789   2.468
 9912SOL     OW30634   5.696   6.689   0.108
 9912SOL    HW130635   5.616   6.664   0.163
 9912SOL    HW230636   5.732   6.777   0.140
 9913SOL     OW30637   5.235   2.183   3.269
 9913SOL    HW130638   5.286   2.136   3.341
 9913SOL    HW230639   5.166   2.122   3.232
 9914SOL     OW30640   2.402   5.620   4.194
 9914SOL    HW130641   2.460   5.561   4.250
 9914SOL    HW230642   2.440   5.713   4.194
 9915SOL     OW30643   6.037   4.081   4.348
 9915SOL    HW130644   6.062   3.994   4.389
 9915SOL    HW230645   6.102   4.151   4.375
 9916SOL     OW30646   2.179   3.694   0.322
 9916SOL    HW130647   2.102   3.677   0.384
 9916SOL    HW230648   2.253   3.630   0.342
 9917SOL     OW30649   2.220   3.014   4.356
 9917SOL    HW130650   2.239   2.999   4.259
 9917SOL    HW230651   2.279   2.953   4.410
 9918SOL     OW30652   2.456   0.794   4.452
 9918SOL    HW130653   2.375   0.739   4.469
 9918SOL    HW230654   2.430   0.879   4.405
 9919SOL     OW30655   0.966   5.288   1.524
 9919SOL    HW130656   0.953   5.189   1.515
 9919SOL    HW230657   0.981   5.327   1.433
 9920SOL     OW30658   3.750   0.434   3.010
 9920SOL    HW130659   3.744   0.472   3.103
 9920SOL    HW230660   3.668   0.457   2.959
 9921SOL     OW30661   4.674   0.976   2.437
 9921SOL    HW130662   4.595   0.995   2.495
 9921SOL    HW230663   4.758   0.992   2.489
 9922SOL     OW30664   5.278   2.603   2.499
 9922SOL    HW130665   5.344   2.609   2.424
 9922SOL    HW230666   5.185   2.602   2.462
 9923SOL     OW30667   6.390   0.459   6.689
 9923SOL    HW130668   6.325   0.526   6.726
 9923SOL    HW230669   6.420   0.398   6.762
 9924SOL     OW30670   5.309   1.400   4.112
 9924SOL    HW130671   5.376   1.453   4.164
 9924SOL    HW230672   5.252   1.348   4.176
 9925SOL     OW30673   4.064   2.158   4.968
 9925SOL    HW130674   4.103   2.235   5.019
 9925SOL    HW230675   4.054   2.079   5.029
 9926SOL     OW30676   2.245   1.337   5.878
 9926SOL    HW130677   2.342   1.321   5.861
 9926SOL    HW230678   2.200   1.362   5.792
 9927SOL     OW30679   1.054   3.817   3.544
 9927SOL    HW130680   1.096   3.867   3.620
 9927SOL    HW230681   1.125   3.793   3.478
 9928SOL     OW30682   0.000   2.778   2.177
 9928SOL    HW130683   0.049   2.716   2.239
 9928SOL    HW230684   0.044   2.777   2.087
 9929SOL     OW30685   1.395   5.238   5.730
 9929SOL    HW130686   1.344   5.164   5.687
 9929SOL    HW230687   1.417   5.213   5.824
 9930SOL     OW30688   6.356   5.346   6.405
 9930SOL    HW130689   6.445   5.300   6.403
 9930SOL    HW230690   6.312   5.331   6.493
 9931SOL     OW30691   2.330   4.367   6.913
 9931SOL    HW130692   2.400   4.400   6.849
 9931SOL    HW230693   2.375   4.329   6.994
 9932SOL     OW30694   2.017   2.490   1.301
 9932SOL    HW130695   2.084   2.477   1.374
 9932SOL    HW230696   2.048   2.563   1.239
 9933SOL     OW30697   0.646   1.583   3.437
 9933SOL    HW130698   0.673   1.540   3.523
 9933SOL    HW230699   0.552   1.558   3.415
 9934SOL     OW30700   5.121   0.751   6.057
 9934SOL    HW130701   5.178   0.672   6.032
 9934SOL    HW230702   5.028   0.720   6.075
 9935SOL     OW30703   2.803   3.372   0.456
 9935SOL    HW130704   2.758   3.285   0.475
 9935SOL    HW230705   2.846   3.369   0.366
 9936SOL     OW30706   5.204   6.456   6.871
 9936SOL    HW130707   5.121   6.409   6.900
 9936SOL    HW230708   5.180   6.539   6.822
 9937SOL     OW30709   1.658   6.814   4.093
 9937SOL    HW130710   1.655   6.912   4.111
 9937SOL    HW230711   1.631   6.763   4.175
 9938SOL     OW30712   6.931   1.372   2.941
 9938SOL    HW130713   6.944   1.289   2.996
 9938SOL    HW230714   6.833   1.389   2.929
 9939SOL     OW30715   2.671   3.867   1.384
 9939SOL    HW130716   2.597   3.801   1.373
 9939SOL    HW230717   2.756   3.820   1.407
 9940SOL     OW30718   0.492   1.089   3.104
 9940SOL    HW130719   0.518   1.149   3.180
 9940SOL    HW230720   0.563   1.020   3.090
 9941SOL     OW30721   6.259   3.284   0.473
 9941SOL    HW130722   6.212   3.372   0.466
 9941SOL    HW230723   6.329   3.290   0.545
 9942SOL     OW30724   5.957   5.478   2.762
 9942SOL    HW130725   5.926   5.451   2.671
 9942SOL    HW230726   6.023   5.553   2.753
 9943SOL     OW30727   1.144   4.194   5.560
 9943SOL    HW130728   1.185   4.278   5.596
 9943SOL    HW230729   1.184   4.115   5.607
 9944SOL     OW30730   2.243   5.534   0.108
 9944SOL    HW130731   2.303   5.465   0.067
 9944SOL    HW230732   2.299   5.599   0.161
 9945SOL     OW30733   6.411   3.516   6.283
 9945SOL    HW130734   6.350   3.559   6.216
 9945SOL    HW230735   6.414   3.572   6.366
 9946SOL     OW30736   5.785   2.033   2.025
 9946SOL    HW130737   5.778   2.040   1.926
 9946SOL    HW230738   5.699   1.997   2.062
 9947SOL     OW30739   0.959   0.574   3.095
 9947SOL    HW130740   0.932   0.488   3.052
 9947SOL    HW230741   0.878   0.622   3.127
 9948SOL     OW30742   5.987   0.919   5.292
 9948SOL    HW130743   5.937   0.832   5.290
 9948SOL    HW230744   6.035   0.931   5.205
 9949SOL     OW30745   7.016   3.515   2.822
 9949SOL    HW130746   0.076   3.577   2.811
 9949SOL    HW230747   6.997   3.471   2.734
 9950SOL     OW30748   4.571   5.393   5.968
 9950SOL    HW130749   4.616   5.443   6.041
 9950SOL    HW230750   4.527   5.458   5.905
 9951SOL     OW30751   6.985   2.111   2.922
 9951SOL    HW130752   7.009   2.200   2.884
 9951SOL    HW230753   0.001   2.038   2.862
 9952SOL     OW30754   1.348   4.669   1.276
 9952SOL    HW130755   1.263   4.666   1.223
 9952SOL    HW230756   1.375   4.576   1.300
 9953SOL     OW30757   5.827   4.638   4.634
 9953SOL    HW130758   5.829   4.589   4.547
 9953SOL    HW230759   5.869   4.728   4.623
 9954SOL     OW30760   4.503   1.155   1.692
 9954SOL    HW130761   4.527   1.069   1.737
 9954SOL    HW230762   4.404   1.165   1.690
 9955SOL     OW30763   5.997   4.903   0.841
 9955SOL    HW130764   5.956   4.982   0.888
 9955SOL    HW230765   6.011   4.829   0.907
 9956SOL     OW30766   1.335   3.775   3.488
 9956SOL    HW130767   1.387   3.792   3.404
 9956SOL    HW230768   1.340   3.678   3.511
 9957SOL     OW30769   5.456   0.004   0.506
 9957SOL    HW130770   5.413   0.081   0.552
 9957SOL    HW230771   5.536   0.035   0.456
 9958SOL     OW30772   5.822   6.067   6.038
 9958SOL    HW130773   5.848   6.016   5.957
 9958SOL    HW230774   5.860   6.023   6.119
 9959SOL     OW30775   5.813   5.010   6.890
 9959SOL    HW130776   5.757   5.055   6.960
 9959SOL    HW230777   5.910   5.022   6.911
 9960SOL     OW30778   6.896   0.480   6.725
 9960SOL    HW130779   6.977   0.451   6.675
 9960SOL    HW230780   6.814   0.465   6.670
 9961SOL     OW30781   3.362   0.219   0.541
 9961SOL    HW130782   3.289   0.162   0.503
 9961SOL    HW230783   3.346   0.233   0.639
 9962SOL     OW30784   3.272   0.283   1.399
 9962SOL    HW130785   3.226   0.309   1.484
 9962SOL    HW230786   3.218   0.215   1.351
 9963SOL     OW30787   1.342   0.295   6.622
 9963SOL    HW130788   1.284   0.284   6.703
 9963SOL    HW230789   1.433   0.324   6.651
 9964SOL     OW30790   4.717   5.726   5.440
 9964SOL    HW130791   4.684   5.633   5.457
 9964SOL    HW230792   4.691   5.785   5.516
 9965SOL     OW30793   2.181   5.011   4.299
 9965SOL    HW130794   2.125   5.002   4.382
 9965SOL    HW230795   2.235   4.928   4.286
 9966SOL     OW30796   2.582   5.566   2.504
 9966SOL    HW130797   2.551   5.514   2.424
 9966SOL    HW230798   2.665   5.525   2.541
 9967SOL     OW30799   0.245   0.546   2.470
 9967SOL    HW130800   0.190   0.512   2.546
 9967SOL    HW230801   0.185   0.584   2.400
 9968SOL     OW30802   4.654   6.382   7.005
 9968SOL    HW130803   4.750   6.361   0.004
 9968SOL    HW230804   4.632   6.472   0.024
 9969SOL     OW30805   0.416   5.838   2.695
 9969SOL    HW130806   0.388   5.928   2.663
 9969SOL    HW230807   0.407   5.834   2.795
 9970SOL     OW30808   0.422   3.287   2.083
 9970SOL    HW130809   0.392   3.360   2.021
 9970SOL    HW230810   0.449   3.207   2.030
 9971SOL     OW30811   6.853   5.390   5.247
 9971SOL    HW130812   6.872   5.297   5.215
 9971SOL    HW230813   6.841   5.450   5.168
 9972SOL     OW30814   3.167   4.853   6.214
 9972SOL    HW130815   3.180   4.925   6.145
 9972SOL    HW230816   3.153   4.765   6.168
 9973SOL     OW30817   3.066   2.166   2.961
 9973SOL    HW130818   2.984   2.169   2.904
 9973SOL    HW230819   3.041   2.183   3.056
 9974SOL     OW30820   0.949   2.624   2.855
 9974SOL    HW130821   0.897   2.616   2.940
 9974SOL    HW230822   1.007   2.705   2.859
 9975SOL     OW30823   1.817   3.844   6.689
 9975SOL    HW130824   1.795   3.895   6.606
 9975SOL    HW230825   1.817   3.905   6.768
 9976SOL     OW30826   3.901   6.281   5.577
 9976SOL    HW130827   3.954   6.306   5.658
 9976SOL    HW230828   3.804   6.293   5.596
 9977SOL     OW30829   4.260   0.459   5.647
 9977SOL    HW130830   4.290   0.401   5.571
 9977SOL    HW230831   4.307   0.431   5.731
 9978SOL     OW30832   6.667   2.995   0.369
 9978SOL    HW130833   6.656   2.906   0.326
 9978SOL    HW230834   6.610   3.062   0.321
 9979SOL     OW30835   3.739   3.559   4.073
 9979SOL    HW130836   3.708   3.648   4.040
 9979SOL    HW230837   3.732   3.492   3.999
 9980SOL     OW30838   0.476   0.146   0.065
 9980SOL    HW130839   0.557   0.090   0.084
 9980SOL    HW230840   0.463   0.212   0.138
 9981SOL     OW30841   5.724   0.949   0.266
 9981SOL    HW130842   5.812   0.997   0.262
 9981SOL    HW230843   5.691   0.946   0.360
 9982SOL     OW30844   2.688   2.385   4.371
 9982SOL    HW130845   2.668   2.442   4.291
 9982SOL    HW230846   2.786   2.369   4.376
 9983SOL     OW30847   0.025   2.584   2.406
 9983SOL    HW130848   0.083   2.502   2.409
 9983SOL    HW230849   0.045   2.641   2.485
 9984SOL     OW30850   0.796   4.631   0.971
 9984SOL    HW130851   0.871   4.564   0.973
 9984SOL    HW230852   0.709   4.583   0.957
 9985SOL     OW30853   5.070   4.392   0.089
 9985SOL    HW130854   5.134   4.339   0.144
 9985SOL    HW230855   5.002   4.330   0.048
 9986SOL     OW30856   5.397   4.928   6.589
 9986SOL    HW130857   5.363   4.940   6.495
 9986SOL    HW230858   5.435   4.836   6.599
 9987SOL     OW30859   4.659   2.237   0.966
 9987SOL    HW130860   4.682   2.315   0.909
 9987SOL    HW230861   4.625   2.270   1.055
 9988SOL     OW30862   6.127   6.827   3.438
 9988SOL    HW130863   6.043   6.790   3.399
 9988SOL    HW230864   6.187   6.858   3.363
 9989SOL     OW30865   5.650   5.920   1.511
 9989SOL    HW130866   5.621   5.936   1.417
 9989SOL    HW230867   5.650   5.821   1.529
 9990SOL     OW30868   0.804   5.875   2.773
 9990SOL    HW130869   0.742   5.799   2.753
 9990SOL    HW230870   0.895   5.839   2.796
 9991SOL     OW30871   1.849   4.114   1.622
 9991SOL    HW130872   1.771   4.062   1.658
 9991SOL    HW230873   1.846   4.207   1.658
 9992SOL     OW30874   2.384   4.921   6.665
 9992SOL    HW130875   2.483   4.911   6.659
 9992SOL    HW230876   2.360   5.019   6.667
 9993SOL     OW30877   3.932   6.955   4.892
 9993SOL    HW130878   3.982   6.880   4.847
 9993SOL    HW230879   3.903   0.003   4.823
 9994SOL     OW30880   5.678   5.110   4.596
 9994SOL    HW130881   5.776   5.093   4.593
 9994SOL    HW230882   5.644   5.094   4.689
 9995SOL     OW30883   4.280   1.217   6.228
 9995SOL    HW130884   4.342   1.287   6.265
 9995SOL    HW230885   4.311   1.190   6.137
 9996SOL     OW30886   2.675   4.999   0.785
 9996SOL    HW130887   2.629   5.025   0.870
 9996SOL    HW230888   2.705   5.081   0.738
 9997SOL     OW30889   6.341   0.897   3.018
 9997SOL    HW130890   6.357   0.947   3.103
 9997SOL    HW230891   6.400   0.935   2.946
 9998SOL     OW30892   5.352   3.641   2.542
 9998SOL    HW130893   5.334   3.668   2.636
 9998SOL    HW230894   5.302   3.558   2.520
 9999SOL     OW30895   0.524   6.838   4.776
 9999SOL    HW130896   0.614   6.848   4.818
 9999SOL    HW230897   0.453   6.863   4.841
10000SOL     OW30898   4.531   2.829   1.570
10000SOL    HW130899   4.551   2.803   1.664
10000SOL    HW230900   4.435   2.855   1.561
10001SOL     OW30901   3.752   6.465   1.422
10001SOL    HW130902   3.824   6.522   1.383
10001SOL    HW230903   3.791   6.406   1.492
10002SOL     OW30904   2.219   6.603   2.515
10002SOL    HW130905   2.137   6.648   2.479
10002SOL    HW230906   2.197   6.562   2.604
10003SOL     OW30907   0.989   0.846   2.358
10003SOL    HW130908   1.017   0.941   2.342
10003SOL    HW230909   0.990   0.796   2.272
10004SOL     OW30910   0.024   3.476   3.810
10004SOL    HW130911   0.115   3.440   3.788
10004SOL    HW230912   6.993   3.495   3.725
10005SOL     OW30913   2.408   5.302   2.850
10005SOL    HW130914   2.496   5.267   2.881
10005SOL    HW230915   2.345   5.311   2.927
10006SOL     OW30916   5.231   1.972   5.571
10006SOL    HW130917   5.225   2.003   5.666
10006SOL    HW230918   5.197   2.044   5.511
10007SOL     OW30919   1.442   5.428   4.028
10007SOL    HW130920   1.453   5.347   4.084
10007SOL    HW230921   1.498   5.420   3.945
10008SOL     OW30922   4.266   0.887   5.665
10008SOL    HW130923   4.298   0.980   5.681
10008SOL    HW230924   4.341   0.831   5.628
10009SOL     OW30925   0.943   4.787   2.142
10009SOL    HW130926   0.889   4.712   2.103
10009SOL    HW230927   0.888   4.870   2.144
10010SOL     OW30928   2.077   4.478   0.829
10010SOL    HW130929   2.127   4.398   0.863
10010SOL    HW230930   1.992   4.448   0.785
10011SOL     OW30931   3.163   3.571   0.444
10011SOL    HW130932   3.104   3.551   0.523
10011SOL    HW230933   3.168   3.491   0.385
10012SOL     OW30934   5.398   2.093   3.883
10012SOL    HW130935   5.331   2.166   3.873
10012SOL    HW230936   5.375   2.018   3.821
10013SOL     OW30937   0.816   6.471   4.765
10013SOL    HW130938   0.852   6.411   4.694
10013SOL    HW230939   0.722   6.496   4.743
10014SOL     OW30940   1.279   1.057   3.611
10014SOL    HW130941   1.203   1.020   3.557
10014SOL    HW230942   1.243   1.095   3.697
10015SOL     OW30943   4.438   6.943   6.355
10015SOL    HW130944   4.399   6.966   6.444
10015SOL    HW230945   4.400   7.005   6.285
10016SOL     OW30946   2.906   0.973   4.257
10016SOL    HW130947   2.853   0.898   4.297
10016SOL    HW230948   2.972   1.006   4.324
10017SOL     OW30949   3.266   1.452   2.882
10017SOL    HW130950   3.222   1.514   2.817
10017SOL    HW230951   3.305   1.504   2.957
10018SOL     OW30952   7.001   4.801   5.276
10018SOL    HW130953   0.056   4.811   5.342
10018SOL    HW230954   7.007   4.874   5.208
10019SOL     OW30955   6.920   1.890   2.330
10019SOL    HW130956   6.867   1.830   2.271
10019SOL    HW230957   7.016   1.861   2.330
10020SOL     OW30958   6.241   0.886   2.236
10020SOL    HW130959   6.143   0.871   2.249
10020SOL    HW230960   6.286   0.798   2.220
10021SOL     OW30961   1.016   3.599   1.750
10021SOL    HW130962   1.026   3.624   1.654
10021SOL    HW230963   0.921   3.578   1.770
10022SOL     OW30964   1.591   6.242   5.849
10022SOL    HW130965   1.673   6.187   5.838
10022SOL    HW230966   1.510   6.184   5.846
10023SOL     OW30967   0.438   1.893   5.893
10023SOL    HW130968   0.447   1.903   5.794
10023SOL    HW230969   0.421   1.798   5.915
10024SOL     OW30970   2.317   4.530   3.222
10024SOL    HW130971   2.258   4.449   3.213
10024SOL    HW230972   2.400   4.517   3.168
10025SOL     OW30973   0.716   2.647   1.183
10025SOL    HW130974   0.677   2.737   1.202
10025SOL    HW230975   0.728   2.597   1.268
10026SOL     OW30976   6.066   0.969   4.968
10026SOL    HW130977   6.018   1.054   4.950
10026SOL    HW230978   6.060   0.909   4.888
10027SOL     OW30979   3.835   1.307   5.286
10027SOL    HW130980   3.862   1.289   5.192
10027SOL    HW230981   3.756   1.249   5.309
10028SOL     OW30982   3.737   0.134   2.157
10028SOL    HW130983   3.714   0.056   2.098
10028SOL    HW230984   3.836   0.148   2.155
10029SOL     OW30985   6.781   4.340   3.614
10029SOL    HW130986   6.848   4.266   3.614
10029SOL    HW230987   6.745   4.352   3.706
10030SOL     OW30988   2.028   0.032   4.573
10030SOL    HW130989   2.128   0.027   4.561
10030SOL    HW230990   1.993   6.961   4.599
10031SOL     OW30991   1.879   6.205   3.645
10031SOL    HW130992   1.861   6.302   3.658
10031SOL    HW230993   1.797   6.161   3.608
10032SOL     OW30994   3.174   5.901   3.940
10032SOL    HW130995   3.231   5.981   3.921
10032SOL    HW230996   3.159   5.850   3.856
10033SOL     OW30997   2.885   1.357   5.344
10033SOL    HW130998   2.906   1.260   5.359
10033SOL    HW230999   2.902   1.408   5.429
10034SOL     OW31000   2.574   1.032   2.269
10034SOL    HW131001   2.658   1.057   2.222
10034SOL    HW231002   2.555   0.935   2.256
10035SOL     OW31003   6.741   3.201   2.813
10035SOL    HW131004   6.665   3.267   2.821
10035SOL    HW231005   6.785   3.191   2.901
10036SOL     OW31006   1.084   0.711   0.020
10036SOL    HW131007   1.039   0.771   6.972
10036SOL    HW231008   1.181   0.735   0.027
10037SOL     OW31009   5.695   0.068   6.051
10037SOL    HW131010   5.754   0.027   6.120
10037SOL    HW231011   5.728   0.159   6.027
10038SOL     OW31012   5.068   6.278   6.591
10038SOL    HW131013   5.054   6.228   6.506
10038SOL    HW231014   5.104   6.369   6.569
10039SOL     OW31015   0.065   5.471   1.977
10039SOL    HW131016   0.035   5.563   2.002
10039SOL    HW231017   0.038   5.407   2.048
10040SOL     OW31018   2.479   0.057   0.351
10040SOL    HW131019   2.392   0.041   0.304
10040SOL    HW231020   2.550   0.075   0.283
10041SOL     OW31021   5.713   5.378   5.083
10041SOL    HW131022   5.778   5.449   5.057
10041SOL    HW231023   5.759   5.307   5.135
10042SOL     OW31024   6.664   0.729   5.165
10042SOL    HW131025   6.600   0.657   5.191
10042SOL    HW231026   6.752   0.713   5.209
10043SOL     OW31027   0.595   0.705   2.809
10043SOL    HW131028   0.500   0.720   2.781
10043SOL    HW231029   0.656   0.755   2.748
10044SOL     OW31030   2.847   2.027   0.072
10044SOL    HW131031   2.774   2.072   0.020
10044SOL    HW231032   2.854   1.931   0.044
10045SOL     OW31033   3.624   6.541   4.702
10045SOL    HW131034   3.586   6.615   4.757
10045SOL    HW231035   3.689   6.488   4.757
10046SOL     OW31036   7.009   2.037   2.042
10046SOL    HW131037   0.031   1.985   1.966
10046SOL    HW231038   6.918   2.000   2.062
10047SOL     OW31039   0.938   2.282   3.172
10047SOL    HW131040   0.877   2.218   3.219
10047SOL    HW231041   0.988   2.336   3.240
10048SOL     OW31042   3.897   2.513   1.737
10048SOL    HW131043   3.908   2.612   1.736
10048SOL    HW231044   3.826   2.489   1.804
10049SOL     OW31045   1.818   6.457   4.510
10049SOL    HW131046   1.748   6.399   4.470
10049SOL    HW231047   1.897   6.460   4.449
10050SOL     OW31048   5.676   1.183   5.052
10050SOL    HW131049   5.641   1.275   5.069
10050SOL    HW231050   5.776   1.185   5.053
10051SOL     OW31051   6.210   2.481   0.457
10051SOL    HW131052   6.300   2.508   0.492
10051SOL    HW231053   6.203   2.504   0.360
10052SOL     OW31054   1.502   4.913   1.282
10052SOL    HW131055   1.440   4.836   1.270
10052SOL    HW231056   1.588   4.880   1.321
10053SOL     OW31057   3.073   6.567   3.236
10053SOL    HW131058   3.105   6.495   3.297
10053SOL    HW231059   3.138   6.643   3.236
10054SOL     OW31060   4.402   5.612   3.893
10054SOL    HW131061   4.415   5.685   3.961
10054SOL    HW231062   4.365   5.531   3.938
10055SOL     OW31063   6.027   3.088   6.488
10055SOL    HW131064   5.936   3.056   6.462
10055SOL    HW231065   6.095   3.018   6.466
10056SOL     OW31066   5.970   4.578   2.414
10056SOL    HW131067   5.941   4.674   2.421
10056SOL    HW231068   5.890   4.519   2.422
10057SOL     OW31069   2.302   2.184   3.679
10057SOL    HW131070   2.350   2.244   3.743
10057SOL    HW231071   2.292   2.232   3.591
10058SOL     OW31072   1.080   4.986   3.686
10058SOL    HW131073   1.164   5.035   3.707
10058SOL    HW231074   1.096   4.924   3.609
10059SOL     OW31075   5.697   0.417   1.481
10059SOL    HW131076   5.637   0.433   1.559
10059SOL    HW231077   5.646   0.373   1.407
10060SOL     OW31078   2.392   2.656   2.217
10060SOL    HW131079   2.365   2.737   2.270
10060SOL    HW231080   2.409   2.683   2.122
10061SOL     OW31081   6.238   2.067   4.997
10061SOL    HW131082   6.281   2.112   5.075
10061SOL    HW231083   6.262   1.970   4.996
10062SOL     OW31084   5.299   5.619   2.982
10062SOL    HW131085   5.216   5.565   2.972
10062SOL    HW231086   5.284   5.692   3.048
10063SOL     OW31087   0.801   2.489   2.397
10063SOL    HW131088   0.764   2.496   2.305
10063SOL    HW231089   0.810   2.581   2.436
10064SOL     OW31090   5.468   5.702   5.477
10064SOL    HW131091   5.447   5.693   5.379
10064SOL    HW231092   5.465   5.799   5.503
10065SOL     OW31093   0.602   6.445   3.539
10065SOL    HW131094   0.634   6.423   3.631
10065SOL    HW231095   0.675   6.491   3.489
10066SOL     OW31096   0.613   0.492   3.466
10066SOL    HW131097   0.623   0.396   3.440
10066SOL    HW231098   0.541   0.500   3.534
10067SOL     OW31099   5.012   6.764   3.492
10067SOL    HW131100   5.074   6.805   3.425
10067SOL    HW231101   5.035   6.667   3.503
10068SOL     OW31102   5.013   3.828   5.716
10068SOL    HW131103   4.990   3.854   5.810
10068SOL    HW231104   4.935   3.847   5.656
10069SOL     OW31105   4.917   1.113   3.794
10069SOL    HW131106   4.837   1.062   3.824
10069SOL    HW231107   4.919   1.202   3.840
10070SOL     OW31108   1.479   0.035   4.589
10070SOL    HW131109   1.458   6.964   4.549
10070SOL    HW231110   1.417   0.052   4.665
10071SOL     OW31111   5.059   5.008   4.887
10071SOL    HW131112   5.132   4.940   4.879
10071SOL    HW231113   5.097   5.096   4.912
10072SOL     OW31114   1.305   0.145   3.578
10072SOL    HW131115   1.285   0.191   3.491
10072SOL    HW231116   1.383   0.190   3.622
10073SOL     OW31117   6.905   5.613   6.361
10073SOL    HW131118   6.855   5.635   6.444
10073SOL    HW231119   6.844   5.568   6.295
10074SOL     OW31120   2.761   0.137   5.848
10074SOL    HW131121   2.845   0.181   5.817
10074SOL    HW231122   2.738   0.061   5.787
10075SOL     OW31123   1.465   2.474   3.522
10075SOL    HW131124   1.368   2.498   3.527
10075SOL    HW231125   1.519   2.540   3.575
10076SOL     OW31126   6.005   0.127   3.994
10076SOL    HW131127   5.933   0.195   3.978
10076SOL    HW231128   6.084   0.171   4.035
10077SOL     OW31129   2.880   1.404   6.838
10077SOL    HW131130   2.865   1.330   6.903
10077SOL    HW231131   2.797   1.460   6.831
10078SOL     OW31132   5.496   5.977   5.530
10078SOL    HW131133   5.446   6.009   5.611
10078SOL    HW231134   5.529   6.056   5.478
10079SOL     OW31135   6.676   2.658   6.073
10079SOL    HW131136   6.711   2.736   6.124
10079SOL    HW231137   6.724   2.575   6.103
10080SOL     OW31138   1.217   2.355   5.501
10080SOL    HW131139   1.283   2.327   5.431
10080SOL    HW231140   1.151   2.418   5.460
10081SOL     OW31141   0.215   1.284   0.177
10081SOL    HW131142   0.186   1.190   0.197
10081SOL    HW231143   0.272   1.284   0.095
10082SOL     OW31144   0.067   0.325   0.649
10082SOL    HW131145   0.132   0.342   0.575
10082SOL    HW231146   0.096   0.374   0.731
10083SOL     OW31147   5.278   1.117   4.703
10083SOL    HW131148   5.306   1.063   4.623
10083SOL    HW231149   5.268   1.057   4.782
10084SOL     OW31150   2.431   0.963   6.494
10084SOL    HW131151   2.503   0.896   6.474
10084SOL    HW231152   2.349   0.940   6.441
10085SOL     OW31153   0.761   5.535   2.547
10085SOL    HW131154   0.858   5.513   2.539
10085SOL    HW231155   0.721   5.542   2.456
10086SOL     OW31156   6.780   3.709   2.416
10086SOL    HW131157   6.788   3.616   2.380
10086SOL    HW231158   6.865   3.733   2.464
10087SOL     OW31159   1.458   0.031   3.885
10087SOL    HW131160   1.421   0.115   3.846
10087SOL    HW231161   1.445   0.032   3.985
10088SOL     OW31162   6.753   0.435   4.818
10088SOL    HW131163   6.843   0.423   4.861
10088SOL    HW231164   6.720   0.528   4.835
10089SOL     OW31165   1.445   2.855   2.391
10089SOL    HW131166   1.419   2.759   2.384
10089SOL    HW231167   1.508   2.879   2.317
10090SOL     OW31168   0.145   4.558   1.814
10090SOL    HW131169   0.095   4.596   1.892
10090SOL    HW231170   0.129   4.459   1.809
10091SOL     OW31171   0.597   2.179   3.826
10091SOL    HW131172   0.658   2.201   3.750
10091SOL    HW231173   0.507   2.154   3.790
10092SOL     OW31174   1.940   2.882   4.884
10092SOL    HW131175   1.979   2.973   4.899
10092SOL    HW231176   1.995   2.814   4.935
10093SOL     OW31177   0.424   6.059   6.382
10093SOL    HW131178   0.345   6.025   6.434
10093SOL    HW231179   0.392   6.100   6.296
10094SOL     OW31180   1.388   1.356   2.045
10094SOL    HW131181   1.440   1.437   2.072
10094SOL    HW231182   1.447   1.293   1.995
10095SOL     OW31183   0.299   1.230   5.821
10095SOL    HW131184   0.336   1.254   5.731
10095SOL    HW231185   0.251   1.309   5.859
10096SOL     OW31186   6.923   5.327   2.187
10096SOL    HW131187   6.923   5.229   2.165
10096SOL    HW231188   6.953   5.339   2.282
10097SOL     OW31189   1.472   2.384   5.940
10097SOL    HW131190   1.434   2.348   5.855
10097SOL    HW231191   1.426   2.470   5.963
10098SOL     OW31192   3.425   5.534   6.755
10098SOL    HW131193   3.402   5.564   6.663
10098SOL    HW231194   3.427   5.612   6.817
10099SOL     OW31195   6.770   4.788   4.714
10099SOL    HW131196   6.748   4.765   4.809
10099SOL    HW231197   6.870   4.795   4.704
10100SOL     OW31198   5.360   0.788   5.362
10100SOL    HW131199   5.281   0.836   5.323
10100SOL    HW231200   5.353   0.690   5.341
10101SOL     OW31201   6.957   5.081   2.512
10101SOL    HW131202   6.992   5.168   2.477
10101SOL    HW231203   7.015   5.006   2.482
10102SOL     OW31204   3.856   0.734   3.556
10102SOL    HW131205   3.936   0.716   3.499
10102SOL    HW231206   3.850   0.664   3.627
10103SOL     OW31207   1.569   1.785   0.165
10103SOL    HW131208   1.627   1.867   0.174
10103SOL    HW231209   1.566   1.737   0.252
10104SOL     OW31210   1.679   5.736   5.549
10104SOL    HW131211   1.666   5.676   5.628
10104SOL    HW231212   1.590   5.756   5.507
10105SOL     OW31213   2.997   0.250   0.112
10105SOL    HW131214   3.016   0.200   0.028
10105SOL    HW231215   2.924   0.203   0.163
10106SOL     OW31216   5.160   5.658   1.132
10106SOL    HW131217   5.259   5.666   1.120
10106SOL    HW231218   5.135   5.563   1.146
10107SOL     OW31219   5.522   0.804   5.602
10107SOL    HW131220   5.468   0.814   5.518
10107SOL    HW231221   5.500   0.879   5.665
10108SOL     OW31222   5.918   6.457   6.897
10108SOL    HW131223   5.865   6.378   6.866
10108SOL    HW231224   6.013   6.431   6.911
10109SOL     OW31225   4.599   5.776   3.540
10109SOL    HW131226   4.655   5.855   3.519
10109SOL    HW231227   4.587   5.768   3.639
10110SOL     OW31228   3.362   1.517   5.773
10110SOL    HW131229   3.402   1.471   5.693
10110SOL    HW231230   3.284   1.463   5.806
10111SOL     OW31231   0.248   2.527   2.741
10111SOL    HW131232   0.312   2.466   2.789
10111SOL    HW231233   0.297   2.581   2.673
10112SOL     OW31234   4.513   4.103   6.281
10112SOL    HW131235   4.501   4.061   6.191
10112SOL    HW231236   4.518   4.203   6.271
10113SOL     OW31237   4.277   6.576   0.705
10113SOL    HW131238   4.244   6.482   0.703
10113SOL    HW231239   4.377   6.576   0.710
10114SOL     OW31240   4.065   1.619   1.503
10114SOL    HW131241   4.035   1.709   1.534
10114SOL    HW231242   4.082   1.622   1.404
10115SOL     OW31243   0.989   1.913   3.813
10115SOL    HW131244   0.975   1.829   3.762
10115SOL    HW231245   0.900   1.947   3.846
10116SOL     OW31246   0.829   0.842   0.857
10116SOL    HW131247   0.882   0.927   0.850
10116SOL    HW231248   0.764   0.850   0.932
10117SOL     OW31249   4.872   0.672   5.838
10117SOL    HW131250   4.902   0.754   5.886
10117SOL    HW231251   4.904   0.591   5.887
10118SOL     OW31252   5.866   4.846   2.410
10118SOL    HW131253   5.951   4.898   2.400
10118SOL    HW231254   5.832   4.857   2.504
10119SOL     OW31255   2.495   0.396   5.557
10119SOL    HW131256   2.524   0.389   5.652
10119SOL    HW231257   2.398   0.372   5.550
10120SOL     OW31258   5.837   3.122   3.748
10120SOL    HW131259   5.847   3.218   3.722
10120SOL    HW231260   5.748   3.107   3.790
10121SOL     OW31261   5.642   4.804   4.033
10121SOL    HW131262   5.658   4.720   4.085
10121SOL    HW231263   5.701   4.877   4.068
10122SOL     OW31264   5.316   3.552   6.625
10122SOL    HW131265   5.284   3.511   6.710
10122SOL    HW231266   5.240   3.560   6.560
10123SOL     OW31267   6.848   6.871   0.257
10123SOL    HW131268   6.773   6.919   0.302
10123SOL    HW231269   6.934   6.896   0.302
10124SOL     OW31270   3.140   4.713   0.717
10124SOL    HW131271   3.234   4.746   0.725
10124SOL    HW231272   3.138   4.614   0.725
10125SOL     OW31273   1.832   0.220   1.017
10125SOL    HW131274   1.774   0.224   1.098
10125SOL    HW231275   1.788   0.270   0.942
10126SOL     OW31276   5.379   5.074   0.039
10126SOL    HW131277   5.307   5.057   6.990
10126SOL    HW231278   5.432   4.991   0.053
10127SOL     OW31279   3.549   4.279   5.267
10127SOL    HW131280   3.461   4.297   5.312
10127SOL    HW231281   3.548   4.187   5.228
10128SOL     OW31282   0.055   1.836   1.331
10128SOL    HW131283   0.151   1.839   1.359
10128SOL    HW231284   0.042   1.760   1.268
10129SOL     OW31285   4.929   2.742   3.518
10129SOL    HW131286   4.867   2.732   3.441
10129SOL    HW231287   4.922   2.834   3.556
10130SOL     OW31288   6.304   5.815   1.322
10130SOL    HW131289   6.220   5.857   1.286
10130SOL    HW231290   6.360   5.885   1.365
10131SOL     OW31291   6.371   0.286   0.759
10131SOL    HW131292   6.339   0.191   0.757
10131SOL    HW231293   6.317   0.340   0.694
10132SOL     OW31294   2.595   0.061   2.909
10132SOL    HW131295   2.570   0.127   2.980
10132SOL    HW231296   2.556   0.090   2.821
10133SOL     OW31297   5.574   4.753   2.798
10133SOL    HW131298   5.599   4.798   2.884
10133SOL    HW231299   5.491   4.796   2.761
10134SOL     OW31300   0.335   1.373   2.080
10134SOL    HW131301   0.417   1.354   2.134
10134SOL    HW231302   0.254   1.360   2.137
10135SOL     OW31303   2.926   5.974   2.734
10135SOL    HW131304   2.917   5.874   2.731
10135SOL    HW231305   2.836   6.016   2.736
10136SOL     OW31306   6.857   0.402   2.319
10136SOL    HW131307   6.943   0.352   2.311
10136SOL    HW231308   6.861   0.485   2.264
10137SOL     OW31309   5.534   5.079   4.203
10137SOL    HW131310   5.524   5.042   4.296
10137SOL    HW231311   5.624   5.054   4.168
10138SOL     OW31312   5.548   2.474   6.830
10138SOL    HW131313   5.455   2.482   6.795
10138SOL    HW231314   5.564   2.382   6.864
10139SOL     OW31315   3.870   3.379   3.141
10139SOL    HW131316   3.797   3.389   3.208
10139SOL    HW231317   3.845   3.309   3.075
10140SOL     OW31318   0.829   5.116   4.822
10140SOL    HW131319   0.759   5.051   4.790
10140SOL    HW231320   0.793   5.168   4.899
10141SOL     OW31321   2.252   0.763   3.920
10141SOL    HW131322   2.348   0.785   3.930
10141SOL    HW231323   2.220   0.788   3.829
10142SOL     OW31324   4.888   5.959   4.103
10142SOL    HW131325   4.892   6.003   4.013
10142SOL    HW231326   4.792   5.948   4.130
10143SOL     OW31327   4.642   6.009   1.489
10143SOL    HW131328   4.601   6.072   1.555
10143SOL    HW231329   4.740   6.000   1.509
10144SOL     OW31330   2.627   5.034   3.220
10144SOL    HW131331   2.672   4.948   3.198
10144SOL    HW231332   2.590   5.030   3.313
10145SOL     OW31333   3.088   6.530   5.685
10145SOL    HW131334   3.003   6.514   5.735
10145SOL    HW231335   3.091   6.469   5.605
10146SOL     OW31336   5.233   4.798   4.408
10146SOL    HW131337   5.331   4.780   4.417
10146SOL    HW231338   5.192   4.727   4.350
10147SOL     OW31339   4.843   5.714   4.547
10147SOL    HW131340   4.911   5.748   4.481
10147SOL    HW231341   4.890   5.684   4.630
10148SOL     OW31342   5.836   5.173   0.232
10148SOL    HW131343   5.858   5.094   0.289
10148SOL    HW231344   5.738   5.171   0.210
10149SOL     OW31345   4.432   3.704   0.676
10149SOL    HW131346   4.445   3.698   0.578
10149SOL    HW231347   4.334   3.695   0.697
10150SOL     OW31348   5.737   4.076   1.113
10150SOL    HW131349   5.770   4.050   1.022
10150SOL    HW231350   5.656   4.023   1.136
10151SOL     OW31351   1.283   6.313   5.631
10151SOL    HW131352   1.287   6.243   5.560
10151SOL    HW231353   1.352   6.383   5.613
10152SOL     OW31354   0.033   5.457   3.914
10152SOL    HW131355   0.079   5.495   3.833
10152SOL    HW231356   0.077   5.370   3.939
10153SOL     OW31357   5.759   6.472   3.880
10153SOL    HW131358   5.808   6.410   3.819
10153SOL    HW231359   5.704   6.536   3.827
10154SOL     OW31360   6.516   5.507   5.473
10154SOL    HW131361   6.532   5.523   5.376
10154SOL    HW231362   6.522   5.594   5.522
10155SOL     OW31363   3.435   1.395   6.076
10155SOL    HW131364   3.489   1.455   6.134
10155SOL    HW231365   3.423   1.437   5.986
10156SOL     OW31366   5.451   0.269   2.504
10156SOL    HW131367   5.357   0.282   2.471
10156SOL    HW231368   5.512   0.258   2.426
10157SOL     OW31369   4.779   0.907   4.623
10157SOL    HW131370   4.690   0.872   4.650
10157SOL    HW231371   4.786   0.910   4.523
10158SOL     OW31372   4.509   3.742   6.096
10158SOL    HW131373   4.554   3.726   6.008
10158SOL    HW231374   4.454   3.826   6.091
10159SOL     OW31375   1.578   1.203   6.416
10159SOL    HW131376   1.555   1.146   6.338
10159SOL    HW231377   1.502   1.265   6.436
10160SOL     OW31378   1.134   5.623   3.448
10160SOL    HW131379   1.139   5.656   3.354
10160SOL    HW231380   1.076   5.541   3.452
10161SOL     OW31381   2.095   6.352   5.961
10161SOL    HW131382   2.048   6.328   5.876
10161SOL    HW231383   2.036   6.330   6.039
10162SOL     OW31384   3.290   2.177   6.981
10162SOL    HW131385   3.376   2.157   6.934
10162SOL    HW231386   3.252   2.263   6.945
10163SOL     OW31387   6.802   2.674   5.598
10163SOL    HW131388   6.772   2.699   5.690
10163SOL    HW231389   6.856   2.748   5.559
10164SOL     OW31390   0.848   2.246   5.153
10164SOL    HW131391   0.873   2.267   5.248
10164SOL    HW231392   0.887   2.158   5.128
10165SOL     OW31393   6.762   2.230   3.501
10165SOL    HW131394   6.853   2.226   3.544
10165SOL    HW231395   6.758   2.163   3.428
10166SOL     OW31396   0.504   1.198   2.237
10166SOL    HW131397   0.602   1.199   2.254
10166SOL    HW231398   0.464   1.115   2.275
10167SOL     OW31399   4.816   0.564   1.012
10167SOL    HW131400   4.779   0.473   1.028
10167SOL    HW231401   4.883   0.586   1.083
10168SOL     OW31402   6.579   4.125   4.444
10168SOL    HW131403   6.661   4.182   4.445
10168SOL    HW231404   6.604   4.030   4.459
10169SOL     OW31405   6.319   4.211   4.352
10169SOL    HW131406   6.316   4.160   4.266
10169SOL    HW231407   6.397   4.179   4.407
10170SOL     OW31408   1.450   3.728   4.618
10170SOL    HW131409   1.426   3.808   4.563
10170SOL    HW231410   1.488   3.657   4.558
10171SOL     OW31411   6.408   3.095   5.527
10171SOL    HW131412   6.373   3.189   5.523
10171SOL    HW231413   6.404   3.053   5.436
10172SOL     OW31414   4.511   1.098   4.097
10172SOL    HW131415   4.477   1.137   4.183
10172SOL    HW231416   4.438   1.048   4.052
10173SOL     OW31417   2.245   1.992   2.455
10173SOL    HW131418   2.276   2.080   2.420
10173SOL    HW231419   2.273   1.919   2.392
10174SOL     OW31420   6.003   4.656   0.715
10174SOL    HW131421   5.928   4.602   0.754
10174SOL    HW231422   5.980   4.753   0.719
10175SOL     OW31423   6.217   2.269   6.402
10175SOL    HW131424   6.216   2.356   6.353
10175SOL    HW231425   6.188   2.283   6.496
10176SOL     OW31426   2.273   3.719   0.059
10176SOL    HW131427   2.233   3.629   0.041
10176SOL    HW231428   2.255   3.745   0.154
10177SOL     OW31429   2.029   0.379   5.942
10177SOL    HW131430   1.999   0.460   5.892
10177SOL    HW231431   2.129   0.371   5.937
10178SOL     OW31432   5.759   2.863   5.068
10178SOL    HW131433   5.724   2.770   5.075
10178SOL    HW231434   5.738   2.913   5.152
10179SOL     OW31435   0.602   3.017   6.108
10179SOL    HW131436   0.651   3.099   6.079
10179SOL    HW231437   0.649   2.936   6.072
10180SOL     OW31438   2.526   6.758   5.796
10180SOL    HW131439   2.601   6.816   5.828
10180SOL    HW231440   2.519   6.764   5.696
10181SOL     OW31441   5.884   3.393   1.749
10181SOL    HW131442   5.892   3.345   1.836
10181SOL    HW231443   5.969   3.384   1.698
10182SOL     OW31444   4.783   1.793   0.521
10182SOL    HW131445   4.869   1.839   0.497
10182SOL    HW231446   4.797   1.694   0.519
10183SOL     OW31447   1.643   1.613   6.665
10183SOL    HW131448   1.598   1.694   6.625
10183SOL    HW231449   1.679   1.637   6.755
10184SOL     OW31450   4.634   0.147   6.582
10184SOL    HW131451   4.705   0.118   6.647
10184SOL    HW231452   4.577   0.217   6.625
10185SOL     OW31453   4.831   1.314   7.013
10185SOL    HW131454   4.791   1.391   6.964
10185SOL    HW231455   4.861   1.345   0.085
10186SOL     OW31456   4.375   1.926   2.924
10186SOL    HW131457   4.342   1.840   2.964
10186SOL    HW231458   4.356   1.927   2.826
10187SOL     OW31459   0.867   2.341   2.081
10187SOL    HW131460   0.867   2.248   2.118
10187SOL    HW231461   0.778   2.360   2.040
10188SOL     OW31462   3.614   5.010   1.252
10188SOL    HW131463   3.571   4.940   1.309
10188SOL    HW231464   3.634   4.972   1.162
10189SOL     OW31465   1.503   6.485   5.464
10189SOL    HW131466   1.515   6.583   5.472
10189SOL    HW231467   1.581   6.438   5.504
10190SOL     OW31468   4.858   2.558   0.197
10190SOL    HW131469   4.895   2.471   0.165
10190SOL    HW231470   4.893   2.632   0.140
10191SOL     OW31471   6.905   4.592   6.584
10191SOL    HW131472   6.866   4.635   6.502
10191SOL    HW231473   7.005   4.590   6.576
10192SOL     OW31474   3.361   1.324   0.344
10192SOL    HW131475   3.278   1.378   0.326
10192SOL    HW231476   3.365   1.247   0.280
10193SOL     OW31477   3.938   3.977   0.491
10193SOL    HW131478   3.906   4.071   0.504
10193SOL    HW231479   4.027   3.966   0.536
10194SOL     OW31480   5.253   3.324   5.606
10194SOL    HW131481   5.212   3.282   5.687
10194SOL    HW231482   5.234   3.422   5.607
10195SOL     OW31483   6.010   4.147   1.904
10195SOL    HW131484   5.955   4.084   1.959
10195SOL    HW231485   5.957   4.231   1.889
10196SOL     OW31486   0.443   1.561   4.642
10196SOL    HW131487   0.410   1.486   4.585
10196SOL    HW231488   0.366   1.601   4.693
10197SOL     OW31489   5.512   0.799   6.874
10197SOL    HW131490   5.477   0.888   6.902
10197SOL    HW231491   5.460   0.766   6.794
10198SOL     OW31492   4.520   6.736   3.387
10198SOL    HW131493   4.603   6.777   3.425
10198SOL    HW231494   4.439   6.783   3.424
10199SOL     OW31495   0.783   2.099   5.526
10199SOL    HW131496   0.691   2.139   5.519
10199SOL    HW231497   0.798   2.068   5.620
10200SOL     OW31498   5.179   1.756   1.586
10200SOL    HW131499   5.249   1.687   1.566
10200SOL    HW231500   5.088   1.717   1.573
10201SOL     OW31501   1.098   3.710   0.475
10201SOL    HW131502   1.064   3.649   0.546
10201SOL    HW231503   1.108   3.660   0.389
10202SOL     OW31504   4.507   0.632   4.196
10202SOL    HW131505   4.468   0.667   4.111
10202SOL    HW231506   4.577   0.695   4.229
10203SOL     OW31507   6.671   2.774   4.746
10203SOL    HW131508   6.674   2.714   4.827
10203SOL    HW231509   6.576   2.797   4.726
10204SOL     OW31510   5.539   5.100   6.198
10204SOL    HW131511   5.574   5.048   6.120
10204SOL    HW231512   5.616   5.129   6.255
10205SOL     OW31513   1.024   0.721   6.380
10205SOL    HW131514   1.067   0.769   6.303
10205SOL    HW231515   1.026   0.780   6.461
10206SOL     OW31516   1.648   0.827   4.906
10206SOL    HW131517   1.572   0.878   4.866
10206SOL    HW231518   1.659   0.740   4.858
10207SOL     OW31519   2.242   2.067   4.724
10207SOL    HW131520   2.205   2.134   4.788
10207SOL    HW231521   2.283   2.115   4.646
10208SOL     OW31522   6.942   6.320   5.606
10208SOL    HW131523   6.875   6.252   5.636
10208SOL    HW231524   6.927   6.341   5.509
10209SOL     OW31525   0.152   6.895   5.845
10209SOL    HW131526   0.069   6.852   5.810
10209SOL    HW231527   0.209   6.826   5.889
10210SOL     OW31528   3.079   7.015   1.552
10210SOL    HW131529   3.021   0.078   1.560
10210SOL    HW231530   3.047   6.945   1.616
10211SOL     OW31531   5.438   5.583   5.977
10211SOL    HW131532   5.442   5.680   6.001
10211SOL    HW231533   5.446   5.572   5.878
10212SOL     OW31534   0.474   0.634   6.331
10212SOL    HW131535   0.438   0.724   6.354
10212SOL    HW231536   0.514   0.592   6.412
10213SOL     OW31537   6.678   2.313   0.968
10213SOL    HW131538   6.669   2.221   0.930
10213SOL    HW231539   6.708   2.308   1.063
10214SOL     OW31540   1.247   2.157   6.761
10214SOL    HW131541   1.183   2.222   6.801
10214SOL    HW231542   1.242   2.163   6.661
10215SOL     OW31543   2.826   3.474   2.045
10215SOL    HW131544   2.737   3.503   2.012
10215SOL    HW231545   2.860   3.538   2.113
10216SOL     OW31546   0.559   6.338   2.307
10216SOL    HW131547   0.503   6.412   2.346
10216SOL    HW231548   0.651   6.343   2.344
10217SOL     OW31549   3.157   1.502   4.917
10217SOL    HW131550   3.147   1.539   4.824
10217SOL    HW231551   3.240   1.448   4.923
10218SOL     OW31552   0.952   3.174   2.458
10218SOL    HW131553   0.969   3.080   2.430
10218SOL    HW231554   1.034   3.228   2.446
10219SOL     OW31555   6.932   5.890   3.176
10219SOL    HW131556   6.929   5.799   3.218
10219SOL    HW231557   6.978   5.885   3.088
10220SOL     OW31558   3.620   3.297   0.291
10220SOL    HW131559   3.545   3.254   0.340
10220SOL    HW231560   3.584   3.344   0.210
10221SOL     OW31561   0.621   5.429   4.149
10221SOL    HW131562   0.597   5.521   4.178
10221SOL    HW231563   0.542   5.386   4.105
10222SOL     OW31564   3.435   3.755   3.832
10222SOL    HW131565   3.465   3.732   3.740
10222SOL    HW231566   3.514   3.782   3.888
10223SOL     OW31567   2.060   6.352   0.742
10223SOL    HW131568   1.997   6.278   0.722
10223SOL    HW231569   2.138   6.317   0.794
10224SOL     OW31570   6.663   4.267   2.817
10224SOL    HW131571   6.760   4.243   2.832
10224SOL    HW231572   6.649   4.290   2.721
10225SOL     OW31573   1.959   4.136   5.844
10225SOL    HW131574   2.051   4.115   5.812
10225SOL    HW231575   1.899   4.057   5.830
10226SOL     OW31576   5.351   3.870   0.275
10226SOL    HW131577   5.366   3.781   0.232
10226SOL    HW231578   5.438   3.919   0.280
10227SOL     OW31579   5.725   3.456   1.548
10227SOL    HW131580   5.775   3.417   1.625
10227SOL    HW231581   5.682   3.383   1.495
10228SOL     OW31582   5.081   0.548   0.643
10228SOL    HW131583   5.071   0.458   0.687
10228SOL    HW231584   5.016   0.612   0.685
10229SOL     OW31585   0.259   2.666   5.151
10229SOL    HW131586   0.182   2.607   5.131
10229SOL    HW231587   0.256   2.693   5.248
10230SOL     OW31588   6.761   5.951   1.603
10230SOL    HW131589   6.826   5.916   1.670
10230SOL    HW231590   6.690   5.882   1.586
10231SOL     OW31591   0.628   4.721   2.794
10231SOL    HW131592   0.710   4.765   2.757
10231SOL    HW231593   0.609   4.637   2.743
10232SOL     OW31594   4.772   4.649   3.002
10232SOL    HW131595   4.744   4.601   3.085
10232SOL    HW231596   4.692   4.694   2.961
10233SOL     OW31597   2.695   4.259   5.672
10233SOL    HW131598   2.610   4.300   5.704
10233SOL    HW231599   2.712   4.287   5.577
10234SOL     OW31600   0.769   1.100   2.231
10234SOL    HW131601   0.828   1.111   2.151
10234SOL    HW231602   0.796   1.165   2.302
10235SOL     OW31603   1.310   1.445   2.897
10235SOL    HW131604   1.322   1.451   2.798
10235SOL    HW231605   1.240   1.376   2.918
10236SOL     OW31606   1.622   6.773   2.388
10236SOL    HW131607   1.523   6.764   2.401
10236SOL    HW231608   1.640   6.832   2.310
10237SOL     OW31609   0.424   3.698   4.597
10237SOL    HW131610   0.464   3.609   4.620
10237SOL    HW231611   0.329   3.701   4.628
10238SOL     OW31612   2.797   6.947   1.389
10238SOL    HW131613   2.740   6.970   1.310
10238SOL    HW231614   2.820   0.013   1.439
10239SOL     OW31615   0.688   1.678   4.601
10239SOL    HW131616   0.733   1.705   4.687
10239SOL    HW231617   0.599   1.638   4.622
10240SOL     OW31618   1.841   6.179   0.712
10240SOL    HW131619   1.884   6.158   0.624
10240SOL    HW231620   1.785   6.261   0.704
10241SOL     OW31621   4.387   3.189   1.188
10241SOL    HW131622   4.414   3.180   1.093
10241SOL    HW231623   4.432   3.269   1.228
10242SOL     OW31624   6.928   2.790   6.573
10242SOL    HW131625   6.926   2.881   6.613
10242SOL    HW231626   6.984   2.791   6.490
10243SOL     OW31627   3.020   6.121   1.975
10243SOL    HW131628   3.054   6.169   1.894
10243SOL    HW231629   2.922   6.137   1.985
10244SOL     OW31630   2.935   5.450   2.150
10244SOL    HW131631   2.977   5.359   2.155
10244SOL    HW231632   2.846   5.448   2.196
10245SOL     OW31633   5.193   4.493   1.022
10245SOL    HW131634   5.128   4.453   0.957
10245SOL    HW231635   5.182   4.449   1.111
10246SOL     OW31636   3.237   3.023   4.087
10246SOL    HW131637   3.247   3.123   4.088
10246SOL    HW231638   3.251   2.987   4.179
10247SOL     OW31639   0.983   3.097   4.785
10247SOL    HW131640   0.993   3.005   4.823
10247SOL    HW231641   0.959   3.090   4.688
10248SOL     OW31642   0.892   1.007   5.127
10248SOL    HW131643   0.887   1.079   5.057
10248SOL    HW231644   0.819   0.940   5.110
10249SOL     OW31645   2.431   5.155   6.384
10249SOL    HW131646   2.418   5.245   6.343
10249SOL    HW231647   2.511   5.111   6.341
10250SOL     OW31648   3.380   2.289   0.594
10250SOL    HW131649   3.426   2.376   0.578
10250SOL    HW231650   3.298   2.303   0.650
10251SOL     OW31651   1.617   0.563   4.452
10251SOL    HW131652   1.526   0.591   4.420
10251SOL    HW231653   1.657   0.499   4.386
10252SOL     OW31654   5.015   4.813   5.796
10252SOL    HW131655   5.025   4.859   5.885
10252SOL    HW231656   4.967   4.874   5.733
10253SOL     OW31657   3.952   6.025   6.445
10253SOL    HW131658   3.881   6.037   6.514
10253SOL    HW231659   3.919   6.057   6.357
10254SOL     OW31660   6.661   1.864   5.444
10254SOL    HW131661   6.662   1.820   5.534
10254SOL    HW231662   6.584   1.926   5.438
10255SOL     OW31663   4.030   4.362   1.592
10255SOL    HW131664   4.099   4.404   1.651
10255SOL    HW231665   3.967   4.309   1.648
10256SOL     OW31666   3.601   1.057   4.633
10256SOL    HW131667   3.513   1.103   4.639
10256SOL    HW231668   3.665   1.099   4.698
10257SOL     OW31669   4.096   5.889   3.094
10257SOL    HW131670   4.118   5.814   3.156
10257SOL    HW231671   4.026   5.947   3.136
10258SOL     OW31672   2.692   1.594   2.143
10258SOL    HW131673   2.601   1.632   2.134
10258SOL    HW231674   2.724   1.605   2.237
10259SOL     OW31675   1.838   4.294   4.045
10259SOL    HW131676   1.760   4.279   4.105
10259SOL    HW231677   1.814   4.361   3.975
10260SOL     OW31678   0.442   0.094   3.235
10260SOL    HW131679   0.394   0.007   3.247
10260SOL    HW231680   0.444   0.117   3.138
10261SOL     OW31681   0.355   3.956   0.759
10261SOL    HW131682   0.375   3.860   0.780
10261SOL    HW231683   0.256   3.971   0.764
10262SOL     OW31684   3.743   1.050   0.066
10262SOL    HW131685   3.822   1.073   0.009
10262SOL    HW231686   3.762   0.966   0.118
10263SOL     OW31687   5.490   0.878   2.648
10263SOL    HW131688   5.400   0.872   2.692
10263SOL    HW231689   5.553   0.929   2.706
10264SOL     OW31690   6.655   0.686   6.483
10264SOL    HW131691   6.654   0.586   6.492
10264SOL    HW231692   6.666   0.710   6.386
10265SOL     OW31693   1.797   1.822   1.315
10265SOL    HW131694   1.846   1.744   1.354
10265SOL    HW231695   1.745   1.868   1.387
10266SOL     OW31696   2.594   3.429   1.678
10266SOL    HW131697   2.628   3.521   1.658
10266SOL    HW231698   2.525   3.434   1.751
10267SOL     OW31699   6.209   6.976   0.449
10267SOL    HW131700   6.298   7.008   0.414
10267SOL    HW231701   6.138   0.022   0.420
10268SOL     OW31702   3.793   6.416   2.082
10268SOL    HW131703   3.777   6.395   1.985
10268SOL    HW231704   3.741   6.499   2.106
10269SOL     OW31705   2.092   1.928   1.016
10269SOL    HW131706   2.103   1.949   0.919
10269SOL    HW231707   1.995   1.924   1.038
10270SOL     OW31708   3.029   0.406   3.135
10270SOL    HW131709   2.933   0.377   3.128
10270SOL    HW231710   3.032   0.504   3.157
10271SOL     OW31711   1.862   1.174   6.688
10271SOL    HW131712   1.784   1.115   6.666
10271SOL    HW231713   1.843   1.267   6.657
10272SOL     OW31714   6.276   6.894   4.503
10272SOL    HW131715   6.176   6.902   4.497
10272SOL    HW231716   6.316   6.910   4.412
10273SOL     OW31717   2.557   5.338   3.876
10273SOL    HW131718   2.545   5.246   3.915
10273SOL    HW231719   2.482   5.397   3.904
10274SOL     OW31720   0.619   4.416   4.858
10274SOL    HW131721   0.679   4.371   4.792
10274SOL    HW231722   0.653   4.398   4.951
10275SOL     OW31723   6.668   0.727   1.740
10275SOL    HW131724   6.758   0.769   1.744
10275SOL    HW231725   6.667   0.644   1.795
10276SOL     OW31726   2.984   5.457   5.384
10276SOL    HW131727   3.077   5.460   5.345
10276SOL    HW231728   2.939   5.545   5.367
10277SOL     OW31729   1.200   6.037   4.254
10277SOL    HW131730   1.181   5.947   4.291
10277SOL    HW231731   1.113   6.087   4.242
10278SOL     OW31732   6.693   6.837   4.820
10278SOL    HW131733   6.756   6.838   4.743
10278SOL    HW231734   6.724   6.902   4.890
10279SOL     OW31735   1.195   5.752   4.026
10279SOL    HW131736   1.104   5.713   4.012
10279SOL    HW231737   1.191   5.851   4.008
10280SOL     OW31738   6.671   4.658   0.404
10280SOL    HW131739   6.580   4.618   0.420
10280SOL    HW231740   6.664   4.729   0.335
10281SOL     OW31741   6.338   1.036   3.311
10281SOL    HW131742   6.436   1.047   3.328
10281SOL    HW231743   6.290   1.031   3.398
10282SOL     OW31744   4.982   3.008   3.664
10282SOL    HW131745   5.035   3.059   3.731
10282SOL    HW231746   5.011   3.032   3.572
10283SOL     OW31747   0.849   2.677   0.801
10283SOL    HW131748   0.862   2.702   0.897
10283SOL    HW231749   0.802   2.752   0.753
10284SOL     OW31750   6.939   4.118   3.763
10284SOL    HW131751   6.864   4.126   3.829
10284SOL    HW231752   7.000   4.197   3.772
10285SOL     OW31753   6.600   7.015   5.741
10285SOL    HW131754   6.646   6.979   5.822
10285SOL    HW231755   6.633   0.089   5.721
10286SOL     OW31756   2.704   1.508   3.093
10286SOL    HW131757   2.794   1.464   3.088
10286SOL    HW231758   2.702   1.572   3.170
10287SOL     OW31759   1.416   5.681   2.649
10287SOL    HW131760   1.476   5.626   2.591
10287SOL    HW231761   1.346   5.725   2.592
10288SOL     OW31762   3.904   5.982   5.054
10288SOL    HW131763   3.995   5.945   5.073
10288SOL    HW231764   3.842   5.907   5.033
10289SOL     OW31765   3.814   6.025   0.169
10289SOL    HW131766   3.801   5.935   0.212
10289SOL    HW231767   3.908   6.054   0.181
10290SOL     OW31768   3.305   3.346   1.809
10290SOL    HW131769   3.367   3.403   1.756
10290SOL    HW231770   3.244   3.404   1.863
10291SOL     OW31771   2.332   1.844   2.252
10291SOL    HW131772   2.399   1.848   2.178
10291SOL    HW231773   2.260   1.778   2.228
10292SOL     OW31774   6.994   0.081   6.130
10292SOL    HW131775   0.062   0.034   6.148
10292SOL    HW231776   6.997   0.123   6.039
10293SOL     OW31777   1.269   3.830   5.133
10293SOL    HW131778   1.353   3.882   5.148
10293SOL    HW231779   1.259   3.811   5.035
10294SOL     OW31780   3.501   0.726   2.500
10294SOL    HW131781   3.571   0.714   2.430
10294SOL    HW231782   3.538   0.700   2.590
10295SOL     OW31783   1.143   1.168   6.590
10295SOL    HW131784   1.124   1.205   6.681
10295SOL    HW231785   1.226   1.212   6.553
10296SOL     OW31786   6.151   1.565   5.853
10296SOL    HW131787   6.241   1.543   5.815
10296SOL    HW231788   6.085   1.572   5.778
10297SOL     OW31789   3.668   1.372   0.409
10297SOL    HW131790   3.578   1.331   0.398
10297SOL    HW231791   3.660   1.457   0.461
10298SOL     OW31792   0.477   2.380   2.315
10298SOL    HW131793   0.544   2.351   2.383
10298SOL    HW231794   0.517   2.448   2.254
10299SOL     OW31795   4.362   0.198   2.844
10299SOL    HW131796   4.455   0.234   2.843
10299SOL    HW231797   4.333   0.180   2.938
10300SOL     OW31798   1.304   3.863   1.458
10300SOL    HW131799   1.301   3.833   1.363
10300SOL    HW231800   1.317   3.784   1.518
10301SOL     OW31801   3.837   0.857   0.228
10301SOL    HW131802   3.838   0.758   0.213
10301SOL    HW231803   3.899   0.879   0.304
10302SOL     OW31804   2.784   6.453   4.913
10302SOL    HW131805   2.715   6.380   4.912
10302SOL    HW231806   2.824   6.461   4.822
10303SOL     OW31807   0.291   4.972   4.661
10303SOL    HW131808   0.264   5.067   4.678
10303SOL    HW231809   0.214   4.923   4.619
10304SOL     OW31810   5.884   6.195   0.720
10304SOL    HW131811   5.932   6.283   0.717
10304SOL    HW231812   5.804   6.198   0.661
10305SOL     OW31813   3.101   3.967   6.141
10305SOL    HW131814   3.166   4.032   6.180
10305SOL    HW231815   3.118   3.959   6.043
10306SOL     OW31816   4.003   0.417   1.092
10306SOL    HW131817   4.077   0.424   1.026
10306SOL    HW231818   3.915   0.427   1.044
10307SOL     OW31819   1.689   0.364   5.657
10307SOL    HW131820   1.722   0.301   5.587
10307SOL    HW231821   1.618   0.320   5.711
10308SOL     OW31822   3.127   4.676   1.759
10308SOL    HW131823   3.180   4.630   1.688
10308SOL    HW231824   3.052   4.616   1.788
10309SOL     OW31825   0.133   0.776   5.534
10309SOL    HW131826   0.176   0.765   5.444
10309SOL    HW231827   0.196   0.824   5.595
10310SOL     OW31828   2.428   4.048   5.547
10310SOL    HW131829   2.494   3.975   5.564
10310SOL    HW231830   2.335   4.011   5.555
10311SOL     OW31831   5.035   5.467   6.918
10311SOL    HW131832   5.108   5.533   6.903
10311SOL    HW231833   4.967   5.506   6.980
10312SOL     OW31834   3.631   6.905   2.065
10312SOL    HW131835   3.665   6.817   2.031
10312SOL    HW231836   3.594   6.958   1.988
10313SOL     OW31837   5.426   6.435   2.711
10313SOL    HW131838   5.380   6.460   2.796
10313SOL    HW231839   5.474   6.516   2.675
10314SOL     OW31840   0.391   0.231   0.824
10314SOL    HW131841   0.305   0.282   0.831
10314SOL    HW231842   0.464   0.293   0.795
10315SOL     OW31843   5.754   5.534   3.519
10315SOL    HW131844   5.786   5.586   3.598
10315SOL    HW231845   5.675   5.479   3.545
10316SOL     OW31846   0.585   1.428   0.043
10316SOL    HW131847   0.495   1.403   0.007
10316SOL    HW231848   0.656   1.401   6.996
10317SOL     OW31849   3.157   5.972   5.153
10317SOL    HW131850   3.227   6.008   5.091
10317SOL    HW231851   3.134   5.878   5.126
10318SOL     OW31852   6.609   0.364   0.126
10318SOL    HW131853   6.641   0.319   0.042
10318SOL    HW231854   6.545   0.304   0.174
10319SOL     OW31855   0.682   4.317   3.999
10319SOL    HW131856   0.611   4.387   3.986
10319SOL    HW231857   0.646   4.228   3.971
10320SOL     OW31858   0.673   6.974   3.320
10320SOL    HW131859   0.754   6.960   3.263
10320SOL    HW231860   0.620   0.034   3.285
10321SOL     OW31861   5.645   2.918   2.215
10321SOL    HW131862   5.642   3.008   2.259
10321SOL    HW231863   5.559   2.902   2.167
10322SOL     OW31864   4.546   4.441   4.848
10322SOL    HW131865   4.504   4.406   4.764
10322SOL    HW231866   4.474   4.479   4.907
10323SOL     OW31867   1.131   4.142   5.933
10323SOL    HW131868   1.184   4.093   5.864
10323SOL    HW231869   1.040   4.101   5.941
10324SOL     OW31870   3.191   3.137   2.189
10324SOL    HW131871   3.185   3.102   2.095
10324SOL    HW231872   3.110   3.109   2.240
10325SOL     OW31873   6.088   5.575   4.056
10325SOL    HW131874   5.996   5.537   4.067
10325SOL    HW231875   6.087   5.672   4.081
10326SOL     OW31876   5.448   3.750   6.497
10326SOL    HW131877   5.417   3.836   6.537
10326SOL    HW231878   5.410   3.674   6.550
10327SOL     OW31879   2.420   5.155   0.302
10327SOL    HW131880   2.399   5.059   0.281
10327SOL    HW231881   2.338   5.210   0.286
10328SOL     OW31882   5.676   2.455   2.344
10328SOL    HW131883   5.707   2.549   2.358
10328SOL    HW231884   5.664   2.437   2.247
10329SOL     OW31885   3.353   1.832   2.839
10329SOL    HW131886   3.290   1.860   2.767
10329SOL    HW231887   3.430   1.895   2.842
10330SOL     OW31888   5.521   0.433   1.706
10330SOL    HW131889   5.476   0.487   1.777
10330SOL    HW231890   5.550   0.345   1.744
10331SOL     OW31891   5.874   6.013   5.744
10331SOL    HW131892   5.842   6.103   5.717
10331SOL    HW231893   5.797   5.960   5.782
10332SOL     OW31894   1.776   1.412   6.537
10332SOL    HW131895   1.691   1.363   6.518
10332SOL    HW231896   1.755   1.496   6.588
10333SOL     OW31897   1.473   3.541   4.428
10333SOL    HW131898   1.378   3.527   4.401
10333SOL    HW231899   1.532   3.537   4.347
10334SOL     OW31900   3.156   1.498   4.158
10334SOL    HW131901   3.107   1.557   4.094
10334SOL    HW231902   3.246   1.477   4.121
10335SOL     OW31903   1.165   2.328   4.947
10335SOL    HW131904   1.126   2.395   4.884
10335SOL    HW231905   1.195   2.248   4.895
10336SOL     OW31906   5.680   6.848   3.057
10336SOL    HW131907   5.674   6.749   3.065
10336SOL    HW231908   5.624   6.879   2.980
10337SOL     OW31909   6.707   5.416   6.758
10337SOL    HW131910   6.706   5.460   6.848
10337SOL    HW231911   6.789   5.360   6.749
10338SOL     OW31912   1.160   6.343   1.725
10338SOL    HW131913   1.181   6.431   1.684
10338SOL    HW231914   1.183   6.270   1.660
10339SOL     OW31915   6.165   2.527   5.743
10339SOL    HW131916   6.080   2.560   5.701
10339SOL    HW231917   6.145   2.495   5.836
10340SOL     OW31918   2.503   3.792   6.244
10340SOL    HW131919   2.495   3.799   6.343
10340SOL    HW231920   2.539   3.702   6.219
10341SOL     OW31921   2.196   4.303   3.137
10341SOL    HW131922   2.116   4.246   3.121
10341SOL    HW231923   2.262   4.289   3.063
10342SOL     OW31924   0.235   0.807   3.655
10342SOL    HW131925   0.190   0.891   3.686
10342SOL    HW231926   0.247   0.809   3.556
10343SOL     OW31927   3.689   5.434   1.744
10343SOL    HW131928   3.706   5.464   1.650
10343SOL    HW231929   3.661   5.338   1.745
10344SOL     OW31930   4.518   6.884   6.642
10344SOL    HW131931   4.602   6.907   6.691
10344SOL    HW231932   4.494   6.788   6.658
10345SOL     OW31933   2.092   3.499   4.033
10345SOL    HW131934   2.010   3.458   3.992
10345SOL    HW231935   2.090   3.484   4.132
10346SOL     OW31936   0.370   5.795   0.086
10346SOL    HW131937   0.345   5.815   7.010
10346SOL    HW231938   0.301   5.734   0.127
10347SOL     OW31939   5.179   2.228   5.157
10347SOL    HW131940   5.256   2.288   5.136
10347SOL    HW231941   5.093   2.270   5.128
10348SOL     OW31942   6.411   4.755   1.149
10348SOL    HW131943   6.356   4.685   1.102
10348SOL    HW231944   6.500   4.717   1.172
10349SOL     OW31945   0.577   0.014   6.202
10349SOL    HW131946   0.664   7.003   6.241
10349SOL    HW231947   0.543   6.962   6.140
10350SOL     OW31948   2.931   0.642   6.527
10350SOL    HW131949   2.984   0.631   6.611
10350SOL    HW231950   2.899   0.552   6.496
10351SOL     OW31951   3.676   5.357   6.479
10351SOL    HW131952   3.736   5.285   6.445
10351SOL    HW231953   3.595   5.317   6.520
10352SOL     OW31954   3.635   4.153   6.270
10352SOL    HW131955   3.539   4.125   6.280
10352SOL    HW231956   3.655   4.226   6.336
10353SOL     OW31957   0.993   2.988   5.085
10353SOL    HW131958   1.074   3.038   5.114
10353SOL    HW231959   1.020   2.902   5.043
10354SOL     OW31960   5.288   1.727   1.306
10354SOL    HW131961   5.295   1.652   1.373
10354SOL    HW231962   5.366   1.789   1.318
10355SOL     OW31963   1.220   4.867   2.823
10355SOL    HW131964   1.120   4.862   2.821
10355SOL    HW231965   1.248   4.955   2.860
10356SOL     OW31966   0.516   2.243   4.544
10356SOL    HW131967   0.510   2.330   4.593
10356SOL    HW231968   0.541   2.261   4.448
10357SOL     OW31969   3.524   2.505   6.767
10357SOL    HW131970   3.461   2.517   6.690
10357SOL    HW231971   3.516   2.412   6.803
10358SOL     OW31972   6.916   1.087   2.268
10358SOL    HW131973   6.912   1.187   2.267
10358SOL    HW231974   6.857   1.052   2.341
10359SOL     OW31975   1.171   1.477   0.729
10359SOL    HW131976   1.190   1.458   0.825
10359SOL    HW231977   1.073   1.493   0.717
10360SOL     OW31978   6.857   4.819   3.130
10360SOL    HW131979   6.903   4.891   3.078
10360SOL    HW231980   6.824   4.855   3.216
10361SOL     OW31981   2.123   5.186   1.358
10361SOL    HW131982   2.143   5.187   1.260
10361SOL    HW231983   2.070   5.267   1.382
10362SOL     OW31984   1.988   4.765   4.899
10362SOL    HW131985   2.086   4.749   4.912
10362SOL    HW231986   1.941   4.677   4.890
10363SOL     OW31987   5.766   0.067   3.741
10363SOL    HW131988   5.828   0.145   3.748
10363SOL    HW231989   5.758   0.040   3.645
10364SOL     OW31990   1.672   4.197   1.018
10364SOL    HW131991   1.659   4.272   0.952
10364SOL    HW231992   1.710   4.234   1.103
10365SOL     OW31993   4.714   5.618   0.180
10365SOL    HW131994   4.641   5.558   0.148
10365SOL    HW231995   4.749   5.672   0.103
10366SOL     OW31996   4.095   6.372   4.110
10366SOL    HW131997   3.997   6.370   4.126
10366SOL    HW231998   4.116   6.320   4.027
10367SOL     OW31999   6.340   1.496   3.478
10367SOL    HW132000   6.382   1.431   3.542
10367SOL    HW232001   6.394   1.500   3.394
10368SOL     OW32002   2.283   0.542   1.192
10368SOL    HW132003   2.212   0.609   1.213
10368SOL    HW232004   2.372   0.587   1.190
10369SOL     OW32005   4.342   2.697   0.103
10369SOL    HW132006   4.299   2.786   0.089
10369SOL    HW232007   4.438   2.709   0.126
10370SOL     OW32008   4.152   0.827   5.188
10370SOL    HW132009   4.129   0.904   5.248
10370SOL    HW232010   4.117   0.742   5.228
10371SOL     OW32011   5.197   6.432   5.597
10371SOL    HW132012   5.166   6.376   5.520
10371SOL    HW232013   5.151   6.401   5.681
10372SOL     OW32014   1.360   0.802   3.234
10372SOL    HW132015   1.316   0.885   3.199
10372SOL    HW232016   1.459   0.808   3.220
10373SOL     OW32017   1.368   5.320   5.044
10373SOL    HW132018   1.318   5.266   5.112
10373SOL    HW232019   1.465   5.325   5.070
10374SOL     OW32020   2.959   1.983   4.325
10374SOL    HW132021   3.015   1.925   4.265
10374SOL    HW232022   2.928   1.929   4.403
10375SOL     OW32023   0.159   1.877   0.613
10375SOL    HW132024   0.176   1.813   0.688
10375SOL    HW232025   0.245   1.896   0.566
10376SOL     OW32026   6.323   0.582   3.449
10376SOL    HW132027   6.284   0.508   3.503
10376SOL    HW232028   6.408   0.551   3.407
10377SOL     OW32029   0.309   6.608   4.255
10377SOL    HW132030   0.286   6.511   4.263
10377SOL    HW232031   0.375   6.633   4.326
10378SOL     OW32032   6.146   6.909   6.052
10378SOL    HW132033   6.065   6.894   5.994
10378SOL    HW232034   6.225   6.865   6.010
10379SOL     OW32035   4.565   1.877   4.388
10379SOL    HW132036   4.513   1.921   4.461
10379SOL    HW232037   4.658   1.858   4.420
10380SOL     OW32038   4.168   1.066   3.765
10380SOL    HW132039   4.263   1.081   3.741
10380SOL    HW232040   4.137   0.978   3.728
10381SOL     OW32041   4.435   5.615   4.786
10381SOL    HW132042   4.490   5.620   4.703
10381SOL    HW232043   4.493   5.589   4.863
10382SOL     OW32044   1.137   5.771   0.349
10382SOL    HW132045   1.047   5.737   0.374
10382SOL    HW232046   1.163   5.734   0.259
10383SOL     OW32047   5.234   2.468   0.174
10383SOL    HW132048   5.316   2.523   0.186
10383SOL    HW232049   5.258   2.381   0.132
10384SOL     OW32050   6.184   0.995   6.722
10384SOL    HW132051   6.266   0.939   6.713
10384SOL    HW232052   6.206   1.091   6.706
10385SOL     OW32053   6.420   2.439   6.790
10385SOL    HW132054   6.440   2.524   6.741
10385SOL    HW232055   6.414   2.458   6.888
10386SOL     OW32056   6.526   1.484   6.332
10386SOL    HW132057   6.551   1.488   6.235
10386SOL    HW232058   6.456   1.553   6.351
10387SOL     OW32059   1.671   3.888   2.300
10387SOL    HW132060   1.635   3.884   2.207
10387SOL    HW232061   1.763   3.848   2.302
10388SOL     OW32062   1.737   4.796   2.334
10388SOL    HW132063   1.776   4.708   2.304
10388SOL    HW232064   1.644   4.781   2.368
10389SOL     OW32065   0.754   5.630   3.561
10389SOL    HW132066   0.682   5.573   3.600
10389SOL    HW232067   0.813   5.574   3.503
10390SOL     OW32068   2.125   3.980   3.503
10390SOL    HW132069   2.099   3.941   3.591
10390SOL    HW232070   2.204   4.040   3.514
10391SOL     OW32071   3.489   6.200   4.620
10391SOL    HW132072   3.396   6.231   4.639
10391SOL    HW232073   3.546   6.216   4.701
10392SOL     OW32074   6.262   5.285   6.634
10392SOL    HW132075   6.194   5.309   6.704
10392SOL    HW232076   6.337   5.234   6.675
10393SOL     OW32077   0.370   1.067   4.274
10393SOL    HW132078   0.440   1.000   4.297
10393SOL    HW232079   0.336   1.110   4.358
10394SOL     OW32080   2.886   6.775   1.117
10394SOL    HW132081   2.805   6.743   1.166
10394SOL    HW232082   2.963   6.782   1.180
10395SOL     OW32083   1.547   1.486   4.717
10395SOL    HW132084   1.570   1.390   4.706
10395SOL    HW232085   1.630   1.542   4.712
10396SOL     OW32086   0.563   0.162   5.180
10396SOL    HW132087   0.646   0.107   5.166
10396SOL    HW232088   0.487   0.102   5.204
10397SOL     OW32089   4.600   1.630   2.687
10397SOL    HW132090   4.547   1.563   2.739
10397SOL    HW232091   4.592   1.610   2.589
10398SOL     OW32092   6.803   3.481   2.293
10398SOL    HW132093   6.887   3.428   2.276
10398SOL    HW232094   6.734   3.421   2.332
10399SOL     OW32095   6.162   2.869   5.352
10399SOL    HW132096   6.236   2.807   5.375
10399SOL    HW232097   6.199   2.960   5.334
10400SOL     OW32098   1.500   4.830   1.764
10400SOL    HW132099   1.485   4.797   1.857
10400SOL    HW232100   1.588   4.795   1.730
10401SOL     OW32101   1.301   5.446   1.149
10401SOL    HW132102   1.205   5.425   1.168
10401SOL    HW232103   1.359   5.396   1.213
10402SOL     OW32104   0.957   2.104   4.758
10402SOL    HW132105   1.046   2.148   4.769
10402SOL    HW232106   0.967   2.021   4.704
10403SOL     OW32107   5.610   0.942   2.022
10403SOL    HW132108   5.582   0.999   2.100
10403SOL    HW232109   5.531   0.929   1.961
10404SOL     OW32110   6.979   0.319   4.127
10404SOL    HW132111   0.009   0.242   4.085
10404SOL    HW232112   6.946   0.293   4.217
10405SOL     OW32113   2.701   6.317   6.757
10405SOL    HW132114   2.695   6.321   6.657
10405SOL    HW232115   2.620   6.271   6.793
10406SOL     OW32116   1.812   5.967   5.591
10406SOL    HW132117   1.762   5.884   5.566
10406SOL    HW232118   1.882   5.985   5.522
10407SOL     OW32119   1.859   1.279   6.265
10407SOL    HW132120   1.938   1.337   6.243
10407SOL    HW232121   1.809   1.318   6.343
10408SOL     OW32122   4.218   6.910   2.787
10408SOL    HW132123   4.165   6.988   2.754
10408SOL    HW232124   4.301   6.901   2.732
10409SOL     OW32125   6.597   5.208   2.479
10409SOL    HW132126   6.666   5.278   2.460
10409SOL    HW232127   6.610   5.130   2.417
10410SOL     OW32128   5.060   6.158   0.939
10410SOL    HW132129   4.975   6.126   0.896
10410SOL    HW232130   5.087   6.245   0.898
10411SOL     OW32131   1.702   4.568   2.109
10411SOL    HW132132   1.743   4.523   2.188
10411SOL    HW232133   1.654   4.500   2.053
10412SOL     OW32134   0.436   2.225   6.196
10412SOL    HW132135   0.498   2.303   6.196
10412SOL    HW232136   0.487   2.141   6.179
10413SOL     OW32137   0.048   1.718   5.146
10413SOL    HW132138   0.056   1.802   5.091
10413SOL    HW232139   0.005   1.740   5.234
10414SOL     OW32140   5.690   5.920   5.181
10414SOL    HW132141   5.691   5.963   5.272
10414SOL    HW232142   5.779   5.932   5.138
10415SOL     OW32143   6.708   5.554   3.149
10415SOL    HW132144   6.665   5.581   3.063
10415SOL    HW232145   6.639   5.520   3.213
10416SOL     OW32146   4.930   0.259   0.417
10416SOL    HW132147   4.865   0.245   0.492
10416SOL    HW232148   4.987   0.178   0.406
10417SOL     OW32149   4.535   4.385   4.005
10417SOL    HW132150   4.600   4.432   3.944
10417SOL    HW232151   4.569   4.389   4.099
10418SOL     OW32152   6.044   3.599   0.124
10418SOL    HW132153   6.100   3.569   0.202
10418SOL    HW232154   6.018   3.519   0.069
10419SOL     OW32155   1.956   0.657   4.596
10419SOL    HW132156   1.890   0.625   4.663
10419SOL    HW232157   1.922   0.740   4.552
10420SOL     OW32158   6.387   3.881   4.645
10420SOL    HW132159   6.289   3.866   4.661
10420SOL    HW232160   6.418   3.958   4.701
10421SOL     OW32161   0.961   3.902   4.357
10421SOL    HW132162   0.919   3.992   4.373
10421SOL    HW232163   0.890   3.832   4.358
10422SOL     OW32164   6.140   3.452   5.863
10422SOL    HW132165   6.084   3.489   5.789
10422SOL    HW232166   6.080   3.427   5.940
10423SOL     OW32167   2.621   5.177   2.949
10423SOL    HW132168   2.609   5.152   3.045
10423SOL    HW232169   2.707   5.139   2.915
10424SOL     OW32170   4.114   0.865   1.911
10424SOL    HW132171   4.018   0.840   1.926
10424SOL    HW232172   4.121   0.963   1.893
10425SOL     OW32173   1.162   3.907   0.234
10425SOL    HW132174   1.218   3.980   0.274
10425SOL    HW232175   1.066   3.930   0.245
10426SOL     OW32176   6.734   2.081   6.897
10426SOL    HW132177   6.658   2.067   6.961
10426SOL    HW232178   6.698   2.111   6.809
10427SOL     OW32179   5.997   0.791   3.975
10427SOL    HW132180   6.007   0.749   3.884
10427SOL    HW232181   5.934   0.868   3.969
10428SOL     OW32182   1.585   6.720   4.683
10428SOL    HW132183   1.554   6.626   4.696
10428SOL    HW232184   1.546   6.778   4.755
10429SOL     OW32185   2.243   4.317   1.653
10429SOL    HW132186   2.310   4.384   1.686
10429SOL    HW232187   2.272   4.225   1.680
10430SOL     OW32188   3.684   6.856   4.717
10430SOL    HW132189   3.639   6.938   4.679
10430SOL    HW232190   3.635   6.827   4.799
10431SOL     OW32191   3.911   1.827   4.261
10431SOL    HW132192   3.924   1.926   4.263
10431SOL    HW232193   3.966   1.788   4.187
10432SOL     OW32194   0.715   4.803   0.441
10432SOL    HW132195   0.807   4.820   0.476
10432SOL    HW232196   0.718   4.726   0.377
10433SOL     OW32197   3.544   6.431   4.460
10433SOL    HW132198   3.566   6.497   4.532
10433SOL    HW232199   3.515   6.344   4.501
10434SOL     OW32200   4.346   0.796   6.739
10434SOL    HW132201   4.426   0.821   6.685
10434SOL    HW232202   4.263   0.831   6.695
10435SOL     OW32203   2.596   1.551   1.338
10435SOL    HW132204   2.531   1.573   1.410
10435SOL    HW232205   2.629   1.636   1.296
10436SOL     OW32206   0.964   3.552   4.936
10436SOL    HW132207   1.018   3.523   5.015
10436SOL    HW232208   0.913   3.474   4.901
10437SOL     OW32209   0.104   6.202   4.386
10437SOL    HW132210   0.151   6.232   4.469
10437SOL    HW232211   0.162   6.222   4.307
10438SOL     OW32212   6.752   5.648   6.577
10438SOL    HW132213   6.697   5.726   6.547
10438SOL    HW232214   6.692   5.571   6.601
10439SOL     OW32215   6.183   5.513   4.481
10439SOL    HW132216   6.251   5.542   4.548
10439SOL    HW232217   6.206   5.422   4.447
10440SOL     OW32218   5.824   2.535   1.270
10440SOL    HW132219   5.810   2.475   1.191
10440SOL    HW232220   5.849   2.480   1.350
10441SOL     OW32221   4.498   1.935   6.816
10441SOL    HW132222   4.471   1.918   6.721
10441SOL    HW232223   4.488   1.851   6.869
10442SOL     OW32224   2.760   1.001   4.985
10442SOL    HW132225   2.780   0.908   4.953
10442SOL    HW232226   2.667   1.026   4.959
10443SOL     OW32227   1.106   0.517   0.196
10443SOL    HW132228   1.096   0.569   0.111
10443SOL    HW232229   1.024   0.461   0.211
10444SOL     OW32230   4.401   5.324   3.743
10444SOL    HW132231   4.432   5.268   3.666
10444SOL    HW232232   4.313   5.366   3.721
10445SOL     OW32233   1.048   3.662   3.785
10445SOL    HW132234   1.093   3.573   3.783
10445SOL    HW232235   1.052   3.704   3.694
10446SOL     OW32236   2.359   4.977   4.642
10446SOL    HW132237   2.382   4.951   4.736
10446SOL    HW232238   2.390   5.070   4.625
10447SOL     OW32239   1.331   1.862   2.709
10447SOL    HW132240   1.263   1.795   2.739
10447SOL    HW232241   1.292   1.954   2.714
10448SOL     OW32242   1.085   5.783   2.578
10448SOL    HW132243   1.115   5.753   2.488
10448SOL    HW232244   0.985   5.794   2.578
10449SOL     OW32245   3.860   4.934   4.856
10449SOL    HW132246   3.915   4.893   4.782
10449SOL    HW232247   3.766   4.947   4.824
10450SOL     OW32248   0.929   2.280   3.740
10450SOL    HW132249   1.016   2.244   3.706
10450SOL    HW232250   0.854   2.237   3.691
10451SOL     OW32251   3.354   1.856   4.205
10451SOL    HW132252   3.353   1.955   4.195
10451SOL    HW232253   3.438   1.819   4.166
10452SOL     OW32254   6.884   2.945   4.698
10452SOL    HW132255   6.815   2.873   4.704
10452SOL    HW232256   6.959   2.913   4.639
10453SOL     OW32257   3.802   4.995   4.459
10453SOL    HW132258   3.809   5.089   4.492
10453SOL    HW232259   3.705   4.970   4.449
10454SOL     OW32260   6.651   1.067   6.796
10454SOL    HW132261   6.727   1.090   6.858
10454SOL    HW232262   6.600   1.151   6.775
10455SOL     OW32263   0.580   6.194   2.628
10455SOL    HW132264   0.604   6.156   2.718
10455SOL    HW232265   0.648   6.262   2.602
10456SOL     OW32266   1.482   5.333   6.558
10456SOL    HW132267   1.440   5.367   6.642
10456SOL    HW232268   1.565   5.386   6.539
10457SOL     OW32269   4.213   1.176   0.361
10457SOL    HW132270   4.135   1.150   0.305
10457SOL    HW232271   4.296   1.132   0.326
10458SOL     OW32272   1.304   6.374   0.175
10458SOL    HW132273   1.284   6.347   0.081
10458SOL    HW232274   1.379   6.441   0.175
10459SOL     OW32275   5.974   6.103   1.333
10459SOL    HW132276   5.956   6.070   1.426
10459SOL    HW232277   6.011   6.028   1.278
10460SOL     OW32278   5.894   0.670   6.967
10460SOL    HW132279   5.941   0.601   0.003
10460SOL    HW232280   5.798   0.674   6.992
10461SOL     OW32281   0.422   3.882   5.835
10461SOL    HW132282   0.345   3.821   5.857
10461SOL    HW232283   0.397   3.940   5.758
10462SOL     OW32284   3.804   3.936   6.753
10462SOL    HW132285   3.880   3.947   6.688
10462SOL    HW232286   3.731   3.883   6.711
10463SOL     OW32287   5.001   2.625   6.138
10463SOL    HW132288   4.963   2.715   6.155
10463SOL    HW232289   5.048   2.625   6.049
10464SOL     OW32290   6.434   4.295   1.800
10464SOL    HW132291   6.349   4.337   1.767
10464SOL    HW232292   6.450   4.323   1.895
10465SOL     OW32293   5.378   4.104   1.709
10465SOL    HW132294   5.346   4.135   1.798
10465SOL    HW232295   5.396   4.005   1.712
10466SOL     OW32296   5.908   3.922   5.398
10466SOL    HW132297   6.002   3.945   5.372
10466SOL    HW232298   5.863   3.875   5.322
10467SOL     OW32299   0.289   2.523   6.936
10467SOL    HW132300   0.257   2.449   6.877
10467SOL    HW232301   0.211   2.566   6.981
10468SOL     OW32302   1.637   3.975   3.947
10468SOL    HW132303   1.729   3.945   3.969
10468SOL    HW232304   1.571   3.915   3.992
10469SOL     OW32305   1.302   1.711   3.870
10469SOL    HW132306   1.279   1.806   3.894
10469SOL    HW232307   1.400   1.697   3.881
10470SOL     OW32308   2.160   3.979   1.832
10470SOL    HW132309   2.248   4.022   1.814
10470SOL    HW232310   2.165   3.881   1.812
10471SOL     OW32311   2.705   4.842   0.121
10471SOL    HW132312   2.635   4.845   0.050
10471SOL    HW232313   2.667   4.805   0.205
10472SOL     OW32314   4.065   5.496   6.354
10472SOL    HW132315   4.070   5.588   6.393
10472SOL    HW232316   4.141   5.442   6.388
10473SOL     OW32317   6.435   5.061   6.762
10473SOL    HW132318   6.414   4.977   6.811
10473SOL    HW232319   6.489   5.040   6.681
10474SOL     OW32320   6.363   6.417   5.241
10474SOL    HW132321   6.358   6.477   5.321
10474SOL    HW232322   6.282   6.431   5.184
10475SOL     OW32323   0.598   5.173   1.563
10475SOL    HW132324   0.611   5.265   1.602
10475SOL    HW232325   0.656   5.108   1.612
10476SOL     OW32326   5.443   6.911   1.312
10476SOL    HW132327   5.362   6.924   1.255
10476SOL    HW232328   5.421   6.937   1.407
10477SOL     OW32329   6.829   5.502   3.706
10477SOL    HW132330   6.874   5.587   3.734
10477SOL    HW232331   6.751   5.523   3.648
10478SOL     OW32332   0.070   0.807   6.521
10478SOL    HW132333   0.097   0.727   6.575
10478SOL    HW232334   0.021   0.777   6.439
10479SOL     OW32335   0.752   3.855   1.864
10479SOL    HW132336   0.690   3.777   1.859
10479SOL    HW232337   0.766   3.892   1.772
10480SOL     OW32338   2.479   0.765   3.036
10480SOL    HW132339   2.467   0.805   2.945
10480SOL    HW232340   2.493   0.667   3.028
10481SOL     OW32341   6.562   1.239   1.469
10481SOL    HW132342   6.562   1.160   1.531
10481SOL    HW232343   6.625   1.223   1.394
10482SOL     OW32344   5.576   3.810   4.361
10482SOL    HW132345   5.504   3.825   4.429
10482SOL    HW232346   5.594   3.712   4.352
10483SOL     OW32347   5.764   0.331   6.786
10483SOL    HW132348   5.853   0.297   6.816
10483SOL    HW232349   5.774   0.424   6.751
10484SOL     OW32350   6.345   0.797   1.742
10484SOL    HW132351   6.318   0.719   1.798
10484SOL    HW232352   6.435   0.779   1.701
10485SOL     OW32353   5.625   3.228   5.251
10485SOL    HW132354   5.702   3.285   5.223
10485SOL    HW232355   5.539   3.279   5.237
10486SOL     OW32356   5.355   2.611   2.759
10486SOL    HW132357   5.423   2.684   2.761
10486SOL    HW232358   5.331   2.590   2.664
10487SOL     OW32359   4.380   6.928   2.577
10487SOL    HW132360   4.350   6.870   2.500
10487SOL    HW232361   4.351   0.004   2.561
10488SOL     OW32362   3.690   4.134   6.908
10488SOL    HW132363   3.737   4.058   6.865
10488SOL    HW232364   3.635   4.182   6.840
10489SOL     OW32365   1.639   5.125   4.736
10489SOL    HW132366   1.560   5.126   4.797
10489SOL    HW232367   1.693   5.209   4.749
10490SOL     OW32368   6.197   0.415   4.155
10490SOL    HW132369   6.230   0.321   4.161
10490SOL    HW232370   6.249   0.465   4.085
10491SOL     OW32371   0.124   5.176   5.129
10491SOL    HW132372   0.029   5.163   5.157
10491SOL    HW232373   0.141   5.272   5.110
10492SOL     OW32374   4.431   4.035   5.780
10492SOL    HW132375   4.527   4.026   5.756
10492SOL    HW232376   4.402   4.130   5.770
10493SOL     OW32377   3.829   1.536   0.890
10493SOL    HW132378   3.863   1.462   0.832
10493SOL    HW232379   3.783   1.605   0.833
10494SOL     OW32380   5.239   1.574   5.854
10494SOL    HW132381   5.205   1.666   5.870
10494SOL    HW232382   5.194   1.536   5.773
10495SOL     OW32383   1.899   6.928   6.435
10495SOL    HW132384   1.976   6.979   6.397
10495SOL    HW232385   1.813   6.969   6.402
10496SOL     OW32386   6.360   0.155   5.569
10496SOL    HW132387   6.274   0.176   5.616
10496SOL    HW232388   6.436   0.166   5.634
10497SOL     OW32389   1.324   1.316   6.455
10497SOL    HW132390   1.362   1.376   6.525
10497SOL    HW232391   1.342   1.354   6.365
10498SOL     OW32392   3.428   4.930   6.181
10498SOL    HW132393   3.409   5.026   6.156
10498SOL    HW232394   3.341   4.881   6.191
10499SOL     OW32395   3.129   6.025   2.969
10499SOL    HW132396   3.116   6.018   2.870
10499SOL    HW232397   3.041   6.030   3.014
10500SOL     OW32398   2.156   1.995   6.823
10500SOL    HW132399   2.184   2.001   6.727
10500SOL    HW232400   2.101   2.075   6.847
10501SOL     OW32401   1.523   3.596   3.142
10501SOL    HW132402   1.507   3.693   3.159
10501SOL    HW232403   1.612   3.585   3.096
10502SOL     OW32404   3.211   5.762   4.751
10502SOL    HW132405   3.143   5.689   4.749
10502SOL    HW232406   3.291   5.734   4.698
10503SOL     OW32407   2.411   2.989   5.714
10503SOL    HW132408   2.372   3.078   5.694
10503SOL    HW232409   2.501   3.000   5.755
10504SOL     OW32410   2.088   3.661   1.280
10504SOL    HW132411   2.026   3.611   1.220
10504SOL    HW232412   2.035   3.712   1.348
10505SOL     OW32413   0.494   6.382   0.431
10505SOL    HW132414   0.438   6.429   0.499
10505SOL    HW232415   0.584   6.361   0.469
10506SOL     OW32416   0.225   4.165   5.139
10506SOL    HW132417   0.163   4.181   5.063
10506SOL    HW232418   0.175   4.123   5.215
10507SOL     OW32419   1.770   0.373   3.406
10507SOL    HW132420   1.734   0.343   3.494
10507SOL    HW232421   1.854   0.426   3.421
10508SOL     OW32422   5.849   3.919   2.870
10508SOL    HW132423   5.872   3.942   2.776
10508SOL    HW232424   5.756   3.882   2.874
10509SOL     OW32425   2.463   0.674   5.989
10509SOL    HW132426   2.544   0.629   6.025
10509SOL    HW232427   2.453   0.764   6.031
10510SOL     OW32428   5.867   6.908   6.790
10510SOL    HW132429   5.903   6.921   6.698
10510SOL    HW232430   5.825   6.994   6.821
10511SOL     OW32431   0.156   2.527   1.348
10511SOL    HW132432   0.115   2.460   1.286
10511SOL    HW232433   0.127   2.619   1.320
10512SOL     OW32434   2.600   0.343   6.278
10512SOL    HW132435   2.645   0.352   6.189
10512SOL    HW232436   2.583   0.247   6.298
10513SOL     OW32437   0.510   1.808   0.298
10513SOL    HW132438   0.533   1.728   0.354
10513SOL    HW232439   0.579   1.820   0.228
10514SOL     OW32440   0.617   2.935   1.702
10514SOL    HW132441   0.692   2.944   1.767
10514SOL    HW232442   0.579   2.842   1.707
10515SOL     OW32443   6.264   3.002   4.493
10515SOL    HW132444   6.180   2.998   4.439
10515SOL    HW232445   6.316   2.918   4.480
10516SOL     OW32446   2.619   6.521   0.826
10516SOL    HW132447   2.659   6.450   0.884
10516SOL    HW232448   2.642   6.503   0.730
10517SOL     OW32449   0.441   2.388   2.897
10517SOL    HW132450   0.430   2.427   2.988
10517SOL    HW232451   0.538   2.391   2.870
10518SOL     OW32452   0.909   6.286   2.557
10518SOL    HW132453   0.828   6.344   2.552
10518SOL    HW232454   0.951   6.295   2.647
10519SOL     OW32455   4.166   3.607   6.119
10519SOL    HW132456   4.225   3.594   6.199
10519SOL    HW232457   4.218   3.651   6.046
10520SOL     OW32458   3.653   5.081   6.802
10520SOL    HW132459   3.701   5.156   6.757
10520SOL    HW232460   3.645   5.100   6.899
10521SOL     OW32461   6.160   5.493   1.829
10521SOL    HW132462   6.098   5.561   1.868
10521SOL    HW232463   6.147   5.405   1.875
10522SOL     OW32464   0.023   0.017   2.097
10522SOL    HW132465   0.070   7.013   2.012
10522SOL    HW232466   6.944   7.015   2.087
10523SOL     OW32467   6.735   6.174   5.736
10523SOL    HW132468   6.670   6.121   5.682
10523SOL    HW232469   6.689   6.253   5.776
10524SOL     OW32470   4.814   0.585   4.370
10524SOL    HW132471   4.779   0.496   4.398
10524SOL    HW232472   4.741   0.638   4.328
10525SOL     OW32473   3.112   6.230   4.909
10525SOL    HW132474   3.127   6.180   4.995
10525SOL    HW232475   3.189   6.214   4.848
10526SOL     OW32476   5.239   6.757   2.518
10526SOL    HW132477   5.233   6.845   2.470
10526SOL    HW232478   5.251   6.774   2.615
10527SOL     OW32479   1.539   3.177   4.474
10527SOL    HW132480   1.451   3.223   4.466
10527SOL    HW232481   1.534   3.108   4.547
10528SOL     OW32482   5.943   4.965   5.338
10528SOL    HW132483   5.914   4.870   5.336
10528SOL    HW232484   5.925   5.004   5.429
10529SOL     OW32485   0.025   5.918   4.005
10529SOL    HW132486   0.070   5.949   3.921
10529SOL    HW232487   0.012   5.819   4.000
10530SOL     OW32488   1.560   1.704   5.275
10530SOL    HW132489   1.556   1.668   5.368
10530SOL    HW232490   1.537   1.802   5.276
10531SOL     OW32491   1.651   1.933   4.912
10531SOL    HW132492   1.573   1.884   4.871
10531SOL    HW232493   1.684   1.882   4.992
10532SOL     OW32494   3.000   3.122   5.031
10532SOL    HW132495   3.050   3.045   4.991
10532SOL    HW232496   2.978   3.189   4.960
10533SOL     OW32497   3.392   1.090   6.406
10533SOL    HW132498   3.416   1.014   6.347
10533SOL    HW232499   3.343   1.160   6.353
10534SOL     OW32500   5.557   5.215   1.254
10534SOL    HW132501   5.477   5.224   1.195
10534SOL    HW232502   5.553   5.284   1.326
10535SOL     OW32503   0.125   0.971   1.469
10535SOL    HW132504   0.077   1.006   1.550
10535SOL    HW232505   0.119   0.871   1.469
10536SOL     OW32506   5.271   5.796   3.213
10536SOL    HW132507   5.343   5.854   3.251
10536SOL    HW232508   5.264   5.712   3.267
10537SOL     OW32509   6.442   5.752   1.097
10537SOL    HW132510   6.411   5.778   1.188
10537SOL    HW232511   6.368   5.764   1.030
10538SOL     OW32512   4.416   3.869   6.976
10538SOL    HW132513   4.345   3.817   0.006
10538SOL    HW232514   4.380   3.959   6.951
10539SOL     OW32515   0.833   3.134   5.380
10539SOL    HW132516   0.899   3.098   5.313
10539SOL    HW232517   0.790   3.058   5.429
10540SOL     OW32518   3.475   0.724   0.205
10540SOL    HW132519   3.491   0.626   0.206
10540SOL    HW232520   3.403   0.746   0.139
10541SOL     OW32521   3.954   2.489   0.800
10541SOL    HW132522   3.906   2.456   0.882
10541SOL    HW232523   3.995   2.411   0.753
10542SOL     OW32524   1.432   2.076   6.946
10542SOL    HW132525   1.427   2.151   7.012
10542SOL    HW232526   1.370   2.094   6.870
10543SOL     OW32527   2.824   0.390   5.009
10543SOL    HW132528   2.924   0.394   5.010
10543SOL    HW232529   2.793   0.301   5.041
10544SOL     OW32530   6.833   2.335   1.509
10544SOL    HW132531   6.763   2.266   1.529
10544SOL    HW232532   6.922   2.304   1.543
10545SOL     OW32533   4.707   1.332   3.206
10545SOL    HW132534   4.633   1.265   3.203
10545SOL    HW232535   4.673   1.418   3.243
10546SOL     OW32536   4.254   1.364   5.184
10546SOL    HW132537   4.306   1.367   5.098
10546SOL    HW232538   4.201   1.279   5.187
10547SOL     OW32539   4.925   6.957   1.329
10547SOL    HW132540   4.865   6.971   1.408
10547SOL    HW232541   4.955   6.861   1.328
10548SOL     OW32542   4.539   4.629   5.353
10548SOL    HW132543   4.449   4.589   5.336
10548SOL    HW232544   4.532   4.728   5.354
10549SOL     OW32545   0.879   1.532   1.348
10549SOL    HW132546   0.847   1.617   1.390
10549SOL    HW232547   0.810   1.461   1.359
10550SOL     OW32548   5.165   6.347   5.000
10550SOL    HW132549   5.133   6.387   5.086
10550SOL    HW232550   5.158   6.415   4.927
10551SOL     OW32551   1.126   2.628   5.867
10551SOL    HW132552   1.044   2.670   5.827
10551SOL    HW232553   1.108   2.532   5.885
10552SOL     OW32554   3.082   2.199   4.696
10552SOL    HW132555   3.114   2.269   4.759
10552SOL    HW232556   2.991   2.168   4.725
10553SOL     OW32557   3.207   5.062   6.016
10553SOL    HW132558   3.174   5.139   6.070
10553SOL    HW232559   3.261   5.096   5.939
10554SOL     OW32560   6.212   4.066   6.056
10554SOL    HW132561   6.266   4.009   5.995
10554SOL    HW232562   6.205   4.158   6.019
10555SOL     OW32563   3.560   2.957   1.370
10555SOL    HW132564   3.560   2.860   1.345
10555SOL    HW232565   3.468   2.984   1.397
10556SOL     OW32566   1.515   3.686   3.723
10556SOL    HW132567   1.560   3.733   3.648
10556SOL    HW232568   1.471   3.603   3.689
10557SOL     OW32569   5.533   1.101   3.750
10557SOL    HW132570   5.555   1.024   3.690
10557SOL    HW232571   5.555   1.187   3.702
10558SOL     OW32572   5.226   6.080   4.946
10558SOL    HW132573   5.208   6.173   4.975
10558SOL    HW232574   5.161   6.018   4.991
10559SOL     OW32575   4.255   2.647   0.774
10559SOL    HW132576   4.160   2.655   0.746
10559SOL    HW232577   4.269   2.560   0.820
10560SOL     OW32578   0.223   2.447   4.344
10560SOL    HW132579   0.265   2.392   4.272
10560SOL    HW232580   0.173   2.523   4.303
10561SOL     OW32581   2.188   4.068   6.356
10561SOL    HW132582   2.125   4.136   6.395
10561SOL    HW232583   2.213   4.094   6.263
10562SOL     OW32584   3.613   1.661   0.464
10562SOL    HW132585   3.514   1.665   0.471
10562SOL    HW232586   3.644   1.730   0.399
10563SOL     OW32587   1.313   2.306   2.600
10563SOL    HW132588   1.275   2.398   2.609
10563SOL    HW232589   1.301   2.274   2.507
10564SOL     OW32590   0.220   2.048   2.198
10564SOL    HW132591   0.205   2.118   2.267
10564SOL    HW232592   0.138   2.039   2.141
10565SOL     OW32593   5.344   1.555   4.612
10565SOL    HW132594   5.341   1.630   4.678
10565SOL    HW232595   5.425   1.498   4.630
10566SOL     OW32596   4.529   5.298   6.724
10566SOL    HW132597   4.622   5.330   6.705
10566SOL    HW232598   4.471   5.318   6.644
10567SOL     OW32599   2.281   5.088   3.975
10567SOL    HW132600   2.234   5.170   3.942
10567SOL    HW232601   2.214   5.026   4.017
10568SOL     OW32602   3.768   1.335   2.960
10568SOL    HW132603   3.756   1.317   3.058
10568SOL    HW232604   3.860   1.307   2.932
10569SOL     OW32605   6.410   2.895   3.404
10569SOL    HW132606   6.449   2.860   3.319
10569SOL    HW232607   6.352   2.974   3.384
10570SOL     OW32608   1.196   4.030   0.882
10570SOL    HW132609   1.202   4.097   0.956
10570SOL    HW232610   1.259   4.054   0.809
10571SOL     OW32611   6.340   6.643   4.584
10571SOL    HW132612   6.301   6.734   4.566
10571SOL    HW232613   6.317   6.615   4.678
10572SOL     OW32614   6.900   3.316   1.837
10572SOL    HW132615   6.876   3.391   1.775
10572SOL    HW232616   6.828   3.247   1.836
10573SOL     OW32617   6.045   4.497   5.825
10573SOL    HW132618   6.054   4.573   5.889
10573SOL    HW232619   6.080   4.413   5.868
10574SOL     OW32620   0.547   2.284   3.429
10574SOL    HW132621   0.471   2.270   3.366
10574SOL    HW232622   0.600   2.364   3.400
10575SOL     OW32623   1.103   6.955   6.049
10575SOL    HW132624   1.109   0.036   6.062
10575SOL    HW232625   1.018   6.921   6.091
10576SOL     OW32626   1.120   5.730   3.174
10576SOL    HW132627   1.162   5.672   3.104
10576SOL    HW232628   1.023   5.742   3.154
10577SOL     OW32629   0.505   2.466   5.634
10577SOL    HW132630   0.480   2.494   5.726
10577SOL    HW232631   0.533   2.370   5.634
10578SOL     OW32632   5.660   1.166   5.470
10578SOL    HW132633   5.756   1.144   5.453
10578SOL    HW232634   5.607   1.082   5.478
10579SOL     OW32635   5.597   6.889   0.695
10579SOL    HW132636   5.530   6.940   0.641
10579SOL    HW232637   5.614   6.801   0.652
10580SOL     OW32638   0.624   6.020   0.537
10580SOL    HW132639   0.540   6.069   0.516
10580SOL    HW232640   0.668   5.992   0.452
10581SOL     OW32641   4.703   2.646   3.912
10581SOL    HW132642   4.794   2.605   3.924
10581SOL    HW232643   4.704   2.706   3.833
10582SOL     OW32644   3.185   4.849   0.078
10582SOL    HW132645   3.230   4.937   0.066
10582SOL    HW232646   3.249   4.784   0.119
10583SOL     OW32647   4.690   1.029   1.481
10583SOL    HW132648   4.611   0.975   1.451
10583SOL    HW232649   4.658   1.112   1.527
10584SOL     OW32650   6.208   6.821   0.992
10584SOL    HW132651   6.222   6.861   1.082
10584SOL    HW232652   6.150   6.882   0.937
10585SOL     OW32653   2.621   4.634   6.605
10585SOL    HW132654   2.522   4.640   6.609
10585SOL    HW232655   2.650   4.540   6.625
10586SOL     OW32656   4.756   1.729   0.794
10586SOL    HW132657   4.790   1.770   0.709
10586SOL    HW232658   4.658   1.744   0.802
10587SOL     OW32659   6.064   3.163   0.307
10587SOL    HW132660   5.982   3.120   0.346
10587SOL    HW232661   6.125   3.191   0.381
10588SOL     OW32662   1.305   5.127   2.907
10588SOL    HW132663   1.267   5.181   2.982
10588SOL    HW232664   1.405   5.125   2.915
10589SOL     OW32665   5.634   1.686   4.308
10589SOL    HW132666   5.661   1.776   4.343
10589SOL    HW232667   5.701   1.617   4.337
10590SOL     OW32668   1.316   0.104   5.280
10590SOL    HW132669   1.305   0.196   5.318
10590SOL    HW232670   1.412   0.076   5.288
10591SOL     OW32671   1.604   2.395   1.651
10591SOL    HW132672   1.673   2.451   1.606
10591SOL    HW232673   1.626   2.387   1.748
10592SOL     OW32674   6.025   1.352   6.726
10592SOL    HW132675   6.108   1.310   6.764
10592SOL    HW232676   6.023   1.338   6.627
10593SOL     OW32677   1.053   4.665   1.448
10593SOL    HW132678   1.117   4.717   1.504
10593SOL    HW232679   1.095   4.580   1.418
10594SOL     OW32680   1.537   1.433   4.073
10594SOL    HW132681   1.503   1.441   4.167
10594SOL    HW232682   1.607   1.503   4.056
10595SOL     OW32683   2.270   6.091   4.655
10595SOL    HW132684   2.203   6.152   4.613
10595SOL    HW232685   2.232   6.052   4.739
10596SOL     OW32686   3.145   1.086   1.812
10596SOL    HW132687   3.241   1.114   1.824
10596SOL    HW232688   3.139   1.017   1.740
10597SOL     OW32689   1.400   0.655   4.267
10597SOL    HW132690   1.348   0.613   4.341
10597SOL    HW232691   1.342   0.664   4.186
10598SOL     OW32692   2.032   1.324   0.488
10598SOL    HW132693   2.131   1.339   0.499
10598SOL    HW232694   1.993   1.399   0.434
10599SOL     OW32695   5.179   0.716   6.716
10599SOL    HW132696   5.174   0.781   6.792
10599SOL    HW232697   5.157   0.763   6.630
10600SOL     OW32698   1.542   2.883   5.204
10600SOL    HW132699   1.490   2.856   5.285
10600SOL    HW232700   1.625   2.828   5.198
10601SOL     OW32701   3.294   6.004   5.426
10601SOL    HW132702   3.393   6.019   5.432
10601SOL    HW232703   3.264   6.019   5.331
10602SOL     OW32704   4.576   1.432   1.477
10602SOL    HW132705   4.500   1.480   1.521
10602SOL    HW232706   4.539   1.364   1.413
10603SOL     OW32707   0.917   5.372   5.082
10603SOL    HW132708   0.893   5.454   5.134
10603SOL    HW232709   0.998   5.390   5.026
10604SOL     OW32710   0.516   4.054   5.588
10604SOL    HW132711   0.477   4.076   5.498
10604SOL    HW232712   0.599   4.108   5.601
10605SOL     OW32713   1.693   5.076   6.648
10605SOL    HW132714   1.664   5.153   6.704
10605SOL    HW232715   1.669   5.093   6.552
10606SOL     OW32716   0.129   0.953   2.182
10606SOL    HW132717   0.129   0.951   2.082
10606SOL    HW232718   0.065   1.023   2.214
10607SOL     OW32719   5.571   4.626   6.606
10607SOL    HW132720   5.618   4.665   6.527
10607SOL    HW232721   5.622   4.648   6.689
10608SOL     OW32722   5.420   0.077   2.846
10608SOL    HW132723   5.326   0.073   2.813
10608SOL    HW232724   5.458   0.168   2.828
10609SOL     OW32725   3.813   6.901   2.647
10609SOL    HW132726   3.800   6.861   2.737
10609SOL    HW232727   3.757   6.984   2.639
10610SOL     OW32728   2.090   4.567   4.573
10610SOL    HW132729   2.186   4.595   4.584
10610SOL    HW232730   2.032   4.648   4.572
10611SOL     OW32731   4.779   2.305   6.501
10611SOL    HW132732   4.733   2.349   6.578
10611SOL    HW232733   4.787   2.370   6.426
10612SOL     OW32734   1.588   0.301   1.227
10612SOL    HW132735   1.528   0.304   1.307
10612SOL    HW232736   1.566   0.377   1.166
10613SOL     OW32737   0.605   6.319   6.956
10613SOL    HW132738   0.692   6.310   7.004
10613SOL    HW232739   0.558   6.402   6.986
10614SOL     OW32740   6.792   0.636   2.839
10614SOL    HW132741   6.872   0.584   2.868
10614SOL    HW232742   6.709   0.584   2.858
10615SOL     OW32743   0.257   6.502   4.973
10615SOL    HW132744   0.297   6.424   5.022
10615SOL    HW232745   0.312   6.584   4.991
10616SOL     OW32746   2.776   6.113   1.402
10616SOL    HW132747   2.759   6.177   1.327
10616SOL    HW232748   2.824   6.032   1.366
10617SOL     OW32749   0.227   1.617   0.028
10617SOL    HW132750   0.273   1.529   0.022
10617SOL    HW232751   0.176   1.633   6.961
10618SOL     OW32752   6.227   3.893   0.843
10618SOL    HW132753   6.252   3.858   0.753
10618SOL    HW232754   6.202   3.818   0.903
10619SOL     OW32755   0.616   3.711   3.059
10619SOL    HW132756   0.564   3.779   3.109
10619SOL    HW232757   0.624   3.738   2.963
10620SOL     OW32758   1.489   5.395   4.432
10620SOL    HW132759   1.471   5.302   4.465
10620SOL    HW232760   1.484   5.459   4.509
10621SOL     OW32761   3.484   6.305   0.791
10621SOL    HW132762   3.472   6.239   0.717
10621SOL    HW232763   3.477   6.257   0.879
10622SOL     OW32764   4.100   1.983   0.856
10622SOL    HW132765   4.196   1.986   0.881
10622SOL    HW232766   4.044   2.014   0.933
10623SOL     OW32767   0.014   1.074   4.629
10623SOL    HW132768   0.015   0.982   4.591
10623SOL    HW232769   0.010   1.069   4.729
10624SOL     OW32770   2.998   0.940   3.630
10624SOL    HW132771   2.947   1.007   3.684
10624SOL    HW232772   3.070   0.899   3.687
10625SOL     OW32773   0.751   2.887   0.392
10625SOL    HW132774   0.682   2.957   0.374
10625SOL    HW232775   0.837   2.912   0.346
10626SOL     OW32776   5.966   2.591   2.142
10626SOL    HW132777   6.047   2.610   2.087
10626SOL    HW232778   5.948   2.493   2.143
10627SOL     OW32779   5.420   6.039   4.649
10627SOL    HW132780   5.354   5.965   4.664
10627SOL    HW232781   5.511   6.009   4.678
10628SOL     OW32782   0.045   5.877   5.644
10628SOL    HW132783   6.997   5.900   5.574
10628SOL    HW232784   7.017   5.832   5.721
10629SOL     OW32785   2.605   4.277   6.817
10629SOL    HW132786   2.592   4.276   6.718
10629SOL    HW232787   2.659   4.358   6.842
10630SOL     OW32788   6.288   0.581   1.903
10630SOL    HW132789   6.372   0.587   1.958
10630SOL    HW232790   6.210   0.568   1.963
10631SOL     OW32791   1.427   6.814   4.883
10631SOL    HW132792   1.472   6.859   4.961
10631SOL    HW232793   1.402   6.721   4.909
10632SOL     OW32794   6.849   3.183   5.984
10632SOL    HW132795   6.781   3.180   5.911
10632SOL    HW232796   6.922   3.117   5.964
10633SOL     OW32797   1.120   5.123   0.339
10633SOL    HW132798   1.047   5.083   0.283
10633SOL    HW232799   1.111   5.089   0.433
10634SOL     OW32800   3.423   6.303   2.497
10634SOL    HW132801   3.420   6.382   2.436
10634SOL    HW232802   3.346   6.243   2.477
10635SOL     OW32803   1.770   1.109   1.209
10635SOL    HW132804   1.722   1.083   1.293
10635SOL    HW232805   1.726   1.190   1.170
10636SOL     OW32806   5.131   1.414   0.895
10636SOL    HW132807   5.228   1.438   0.898
10636SOL    HW232808   5.085   1.450   0.976
10637SOL     OW32809   2.970   4.418   6.276
10637SOL    HW132810   3.016   4.428   6.188
10637SOL    HW232811   2.954   4.321   6.294
10638SOL     OW32812   6.712   6.808   5.944
10638SOL    HW132813   6.710   6.874   6.019
10638SOL    HW232814   6.671   6.722   5.975
10639SOL     OW32815   3.314   2.090   5.030
10639SOL    HW132816   3.245   2.158   5.006
10639SOL    HW232817   3.294   2.004   4.981
10640SOL     OW32818   4.550   6.265   0.711
10640SOL    HW132819   4.504   6.216   0.636
10640SOL    HW232820   4.534   6.216   0.797
10641SOL     OW32821   3.416   0.140   6.806
10641SOL    HW132822   3.434   0.045   6.830
10641SOL    HW232823   3.502   0.184   6.779
10642SOL     OW32824   6.963   4.990   0.449
10642SOL    HW132825   0.021   5.054   0.460
10642SOL    HW232826   6.891   5.033   0.394
10643SOL     OW32827   4.056   3.160   5.363
10643SOL    HW132828   4.000   3.199   5.290
10643SOL    HW232829   4.142   3.209   5.370
10644SOL     OW32830   3.924   1.281   4.996
10644SOL    HW132831   3.983   1.361   4.983
10644SOL    HW232832   3.883   1.254   4.908
10645SOL     OW32833   2.297   0.075   4.652
10645SOL    HW132834   2.260   0.074   4.745
10645SOL    HW232835   2.339   0.165   4.635
10646SOL     OW32836   0.332   4.837   6.862
10646SOL    HW132837   0.300   4.799   6.776
10646SOL    HW232838   0.432   4.843   6.861
10647SOL     OW32839   0.605   5.897   0.788
10647SOL    HW132840   0.518   5.928   0.827
10647SOL    HW232841   0.601   5.904   0.688
10648SOL     OW32842   4.980   4.891   6.280
10648SOL    HW132843   5.009   4.903   6.185
10648SOL    HW232844   4.892   4.844   6.282
10649SOL     OW32845   0.344   4.222   6.149
10649SOL    HW132846   0.378   4.128   6.138
10649SOL    HW232847   0.393   4.267   6.223
10650SOL     OW32848   2.952   0.641   5.629
10650SOL    HW132849   3.016   0.719   5.634
10650SOL    HW232850   2.917   0.633   5.535
10651SOL     OW32851   2.724   0.856   5.455
10651SOL    HW132852   2.657   0.801   5.505
10651SOL    HW232853   2.786   0.795   5.405
10652SOL     OW32854   3.949   1.593   0.484
10652SOL    HW132855   3.919   1.573   0.390
10652SOL    HW232856   4.044   1.564   0.496
10653SOL     OW32857   6.270   4.060   4.113
10653SOL    HW132858   6.312   3.986   4.167
10653SOL    HW232859   6.290   4.045   4.016
10654SOL     OW32860   4.658   0.696   1.882
10654SOL    HW132861   4.737   0.681   1.823
10654SOL    HW232862   4.574   0.684   1.828
10655SOL     OW32863   2.597   5.549   1.660
10655SOL    HW132864   2.623   5.492   1.738
10655SOL    HW232865   2.533   5.499   1.601
10656SOL     OW32866   6.435   2.643   6.625
10656SOL    HW132867   6.462   2.723   6.680
10656SOL    HW232868   6.503   2.628   6.554
10657SOL     OW32869   6.505   0.216   1.216
10657SOL    HW132870   6.555   0.164   1.146
10657SOL    HW232871   6.533   0.312   1.212
10658SOL     OW32872   0.011   6.229   4.029
10658SOL    HW132873   0.009   6.129   4.025
10658SOL    HW232874   6.940   6.265   4.003
10659SOL     OW32875   4.899   1.194   1.222
10659SOL    HW132876   4.954   1.111   1.215
10659SOL    HW232877   4.831   1.182   1.295
10660SOL     OW32878   5.774   5.642   5.904
10660SOL    HW132879   5.793   5.545   5.889
10660SOL    HW232880   5.721   5.678   5.827
10661SOL     OW32881   0.283   0.571   2.072
10661SOL    HW132882   0.216   0.626   2.123
10661SOL    HW232883   0.370   0.571   2.121
10662SOL     OW32884   6.796   1.932   0.202
10662SOL    HW132885   6.714   1.984   0.228
10662SOL    HW232886   6.783   1.836   0.225
10663SOL     OW32887   0.736   2.228   0.413
10663SOL    HW132888   0.643   2.240   0.449
10663SOL    HW232889   0.755   2.300   0.346
10664SOL     OW32890   2.156   5.305   5.979
10664SOL    HW132891   2.218   5.227   5.974
10664SOL    HW232892   2.179   5.361   6.059
10665SOL     OW32893   6.010   1.735   6.822
10665SOL    HW132894   6.080   1.682   6.871
10665SOL    HW232895   5.928   1.679   6.811
10666SOL     OW32896   0.676   6.861   0.350
10666SOL    HW132897   0.723   6.785   0.394
10666SOL    HW232898   0.577   6.850   0.361
10667SOL     OW32899   2.656   2.661   5.572
10667SOL    HW132900   2.654   2.573   5.525
10667SOL    HW232901   2.750   2.697   5.572
10668SOL     OW32902   2.248   0.903   6.306
10668SOL    HW132903   2.165   0.953   6.284
10668SOL    HW232904   2.319   0.925   6.239
10669SOL     OW32905   1.670   6.278   6.309
10669SOL    HW132906   1.618   6.208   6.261
10669SOL    HW232907   1.644   6.278   6.406
10670SOL     OW32908   6.307   4.121   4.813
10670SOL    HW132909   6.355   4.185   4.753
10670SOL    HW232910   6.343   4.129   4.906
10671SOL     OW32911   2.137   2.753   2.832
10671SOL    HW132912   2.144   2.747   2.931
10671SOL    HW232913   2.140   2.849   2.803
10672SOL     OW32914   0.054   2.496   0.772
10672SOL    HW132915   7.005   2.450   0.714
10672SOL    HW232916   0.124   2.429   0.801
10673SOL     OW32917   3.175   3.798   3.949
10673SOL    HW132918   3.190   3.897   3.952
10673SOL    HW232919   3.247   3.755   3.895
10674SOL     OW32920   3.980   1.396   2.406
10674SOL    HW132921   4.018   1.326   2.466
10674SOL    HW232922   3.951   1.354   2.320
10675SOL     OW32923   1.081   1.184   5.446
10675SOL    HW132924   1.029   1.219   5.368
10675SOL    HW232925   1.039   1.215   5.531
10676SOL     OW32926   6.851   0.781   6.713
10676SOL    HW132927   6.773   0.781   6.651
10676SOL    HW232928   6.874   0.686   6.736
10677SOL     OW32929   5.664   1.058   0.895
10677SOL    HW132930   5.721   1.000   0.953
10677SOL    HW232931   5.680   1.154   0.919
10678SOL     OW32932   1.682   5.221   3.530
10678SOL    HW132933   1.624   5.154   3.482
10678SOL    HW232934   1.765   5.237   3.476
10679SOL     OW32935   5.076   4.888   3.651
10679SOL    HW132936   5.052   4.962   3.714
10679SOL    HW232937   5.159   4.912   3.602
10680SOL     OW32938   0.383   2.694   3.413
10680SOL    HW132939   0.295   2.659   3.446
10680SOL    HW232940   0.383   2.696   3.313
10681SOL     OW32941   0.464   2.747   6.888
10681SOL    HW132942   0.423   2.656   6.894
10681SOL    HW232943   0.564   2.740   6.898
10682SOL     OW32944   6.392   1.834   3.292
10682SOL    HW132945   6.461   1.835   3.365
10682SOL    HW232946   6.415   1.904   3.224
10683SOL     OW32947   1.071   0.551   4.366
10683SOL    HW132948   0.974   0.526   4.368
10683SOL    HW232949   1.084   0.639   4.411
10684SOL     OW32950   4.999   5.805   0.866
10684SOL    HW132951   4.981   5.893   0.823
10684SOL    HW232952   5.073   5.816   0.933
10685SOL     OW32953   6.046   2.940   2.523
10685SOL    HW132954   6.015   2.850   2.492
10685SOL    HW232955   6.146   2.940   2.532
10686SOL     OW32956   4.429   4.478   1.533
10686SOL    HW132957   4.384   4.425   1.461
10686SOL    HW232958   4.410   4.575   1.519
10687SOL     OW32959   6.588   5.213   1.084
10687SOL    HW132960   6.499   5.173   1.107
10687SOL    HW232961   6.650   5.204   1.162
10688SOL     OW32962   0.723   4.915   1.155
10688SOL    HW132963   0.635   4.887   1.117
10688SOL    HW232964   0.742   4.864   1.238
10689SOL     OW32965   1.305   0.261   0.722
10689SOL    HW132966   1.254   0.304   0.797
10689SOL    HW232967   1.398   0.241   0.752
10690SOL     OW32968   4.531   7.004   3.183
10690SOL    HW132969   4.592   6.925   3.190
10690SOL    HW232970   4.441   6.974   3.150
10691SOL     OW32971   5.772   0.862   1.609
10691SOL    HW132972   5.840   0.934   1.599
10691SOL    HW232973   5.804   0.795   1.677
10692SOL     OW32974   6.379   6.658   4.003
10692SOL    HW132975   6.301   6.649   3.942
10692SOL    HW232976   6.348   6.683   4.094
10693SOL     OW32977   4.835   3.118   4.611
10693SOL    HW132978   4.755   3.062   4.593
10693SOL    HW232979   4.902   3.065   4.664
10694SOL     OW32980   2.483   6.004   0.412
10694SOL    HW132981   2.451   6.098   0.427
10694SOL    HW232982   2.570   6.006   0.363
10695SOL     OW32983   5.547   3.397   5.831
10695SOL    HW132984   5.646   3.396   5.849
10695SOL    HW232985   5.528   3.461   5.756
10696SOL     OW32986   6.604   6.742   0.988
10696SOL    HW132987   6.567   6.662   1.037
10696SOL    HW232988   6.694   6.719   0.952
10697SOL     OW32989   1.895   6.384   2.969
10697SOL    HW132990   1.875   6.357   3.063
10697SOL    HW232991   1.817   6.433   2.931
10698SOL     OW32992   3.012   0.616   4.759
10698SOL    HW132993   3.025   0.700   4.705
10698SOL    HW232994   2.996   0.539   4.698
10699SOL     OW32995   1.556   2.684   3.682
10699SOL    HW132996   1.530   2.692   3.778
10699SOL    HW232997   1.541   2.771   3.636
10700SOL     OW32998   1.029   2.881   2.437
10700SOL    HW132999   1.004   2.821   2.513
10700SOL    HW233000   1.128   2.895   2.437
10701SOL     OW33001   2.580   0.274   1.157
10701SOL    HW133002   2.638   0.304   1.082
10701SOL    HW233003   2.497   0.233   1.121
10702SOL     OW33004   4.935   2.335   0.621
10702SOL    HW133005   4.875   2.413   0.601
10702SOL    HW233006   5.013   2.336   0.560
10703SOL     OW33007   3.643   3.202   4.344
10703SOL    HW133008   3.553   3.165   4.324
10703SOL    HW233009   3.644   3.300   4.327
10704SOL     OW33010   5.617   5.404   2.289
10704SOL    HW133011   5.620   5.353   2.375
10704SOL    HW233012   5.525   5.441   2.275
10705SOL     OW33013   1.349   3.173   6.636
10705SOL    HW133014   1.388   3.192   6.546
10705SOL    HW233015   1.253   3.200   6.638
10706SOL     OW33016   3.705   3.182   0.889
10706SOL    HW133017   3.723   3.122   0.967
10706SOL    HW233018   3.762   3.264   0.896
10707SOL     OW33019   6.013   6.902   6.555
10707SOL    HW133020   6.094   6.943   6.513
10707SOL    HW233021   6.013   6.803   6.538
10708SOL     OW33022   4.812   1.859   1.686
10708SOL    HW133023   4.811   1.865   1.786
10708SOL    HW233024   4.718   1.862   1.652
10709SOL     OW33025   0.806   0.179   6.126
10709SOL    HW133026   0.779   0.248   6.193
10709SOL    HW233027   0.801   0.088   6.168
10710SOL     OW33028   0.308   6.008   3.525
10710SOL    HW133029   0.220   5.992   3.479
10710SOL    HW233030   0.342   6.099   3.502
10711SOL     OW33031   2.193   4.608   5.705
10711SOL    HW133032   2.158   4.698   5.680
10711SOL    HW233033   2.241   4.567   5.627
10712SOL     OW33034   3.380   1.860   6.573
10712SOL    HW133035   3.433   1.821   6.648
10712SOL    HW233036   3.294   1.809   6.564
10713SOL     OW33037   2.265   0.003   0.197
10713SOL    HW133038   2.216   6.955   0.255
10713SOL    HW233039   2.209   0.023   0.116
10714SOL     OW33040   5.342   5.293   4.116
10714SOL    HW133041   5.272   5.267   4.182
10714SOL    HW233042   5.429   5.248   4.141
10715SOL     OW33043   5.951   0.732   2.803
10715SOL    HW133044   6.029   0.735   2.740
10715SOL    HW233045   5.873   0.689   2.758
10716SOL     OW33046   6.904   0.860   1.771
10716SOL    HW133047   6.864   0.886   1.859
10716SOL    HW233048   6.988   0.808   1.788
10717SOL     OW33049   0.523   6.508   1.896
10717SOL    HW133050   0.553   6.418   1.864
10717SOL    HW233051   0.481   6.559   1.820
10718SOL     OW33052   1.006   4.444   5.184
10718SOL    HW133053   0.948   4.522   5.160
10718SOL    HW233054   1.017   4.384   5.105
10719SOL     OW33055   3.848   6.535   3.036
10719SOL    HW133056   3.783   6.463   3.012
10719SOL    HW233057   3.860   6.537   3.135
10720SOL     OW33058   0.365   2.894   5.894
10720SOL    HW133059   0.366   2.974   5.834
10720SOL    HW233060   0.329   2.815   5.844
10721SOL     OW33061   5.301   1.733   4.045
10721SOL    HW133062   5.304   1.694   4.137
10721SOL    HW233063   5.388   1.778   4.025
10722SOL     OW33064   0.752   5.388   0.527
10722SOL    HW133065   0.684   5.330   0.483
10722SOL    HW233066   0.708   5.473   0.556
10723SOL     OW33067   6.576   4.064   6.488
10723SOL    HW133068   6.625   4.027   6.566
10723SOL    HW233069   6.597   4.162   6.478
10724SOL     OW33070   3.470   6.778   5.901
10724SOL    HW133071   3.416   6.858   5.872
10724SOL    HW233072   3.446   6.700   5.843
10725SOL     OW33073   0.157   6.834   5.296
10725SOL    HW133074   0.148   6.819   5.198
10725SOL    HW233075   0.115   6.758   5.345
10726SOL     OW33076   0.077   0.324   3.126
10726SOL    HW133077   0.119   0.300   3.213
10726SOL    HW233078   0.146   0.318   3.053
10727SOL     OW33079   4.574   6.535   6.226
10727SOL    HW133080   4.668   6.523   6.260
10727SOL    HW233081   4.577   6.558   6.129
10728SOL     OW33082   5.827   5.699   3.728
10728SOL    HW133083   5.783   5.782   3.692
10728SOL    HW233084   5.806   5.690   3.826
10729SOL     OW33085   0.057   2.969   4.420
10729SOL    HW133086   0.014   2.886   4.384
10729SOL    HW233087   0.136   2.944   4.476
10730SOL     OW33088   1.584   6.353   4.407
10730SOL    HW133089   1.549   6.386   4.319
10730SOL    HW233090   1.587   6.253   4.406
10731SOL     OW33091   4.864   4.577   5.983
10731SOL    HW133092   4.877   4.675   5.997
10731SOL    HW233093   4.953   4.534   5.967
10732SOL     OW33094   6.075   5.838   2.065
10732SOL    HW133095   6.154   5.823   2.125
10732SOL    HW233096   6.043   5.751   2.029
10733SOL     OW33097   0.407   1.639   5.937
10733SOL    HW133098   0.324   1.590   5.913
10733SOL    HW233099   0.418   1.641   6.037
10734SOL     OW33100   0.566   0.952   4.519
10734SOL    HW133101   0.622   1.035   4.524
10734SOL    HW233102   0.517   0.940   4.605
10735SOL     OW33103   6.898   0.550   1.485
10735SOL    HW133104   6.988   0.593   1.490
10735SOL    HW233105   6.909   0.452   1.469
10736SOL     OW33106   5.682   6.081   3.742
10736SOL    HW133107   5.760   6.057   3.799
10736SOL    HW233108   5.610   6.122   3.798
10737SOL     OW33109   0.093   0.520   0.949
10737SOL    HW133110   7.017   0.554   0.952
10737SOL    HW233111   0.108   0.458   1.026
10738SOL     OW33112   1.374   6.576   1.900
10738SOL    HW133113   1.317   6.651   1.936
10738SOL    HW233114   1.430   6.539   1.974
10739SOL     OW33115   4.714   2.877   4.589
10739SOL    HW133116   4.800   2.827   4.581
10739SOL    HW233117   4.641   2.813   4.615
10740SOL     OW33118   2.845   0.762   6.028
10740SOL    HW133119   2.783   0.746   5.952
10740SOL    HW233120   2.940   0.751   5.996
10741SOL     OW33121   1.455   2.619   4.194
10741SOL    HW133122   1.358   2.635   4.213
10741SOL    HW233123   1.509   2.644   4.274
10742SOL     OW33124   0.336   0.310   2.249
10742SOL    HW133125   0.376   0.247   2.316
10742SOL    HW233126   0.382   0.398   2.254
10743SOL     OW33127   3.992   2.297   5.788
10743SOL    HW133128   4.005   2.199   5.779
10743SOL    HW233129   4.013   2.342   5.702
10744SOL     OW33130   1.920   2.252   1.183
10744SOL    HW133131   1.945   2.342   1.218
10744SOL    HW233132   1.929   2.185   1.257
10745SOL     OW33133   3.070   5.545   1.533
10745SOL    HW133134   3.002   5.538   1.460
10745SOL    HW233135   3.048   5.481   1.606
10746SOL     OW33136   2.429   5.403   6.254
10746SOL    HW133137   2.339   5.392   6.211
10746SOL    HW233138   2.479   5.477   6.209
10747SOL     OW33139   6.835   6.855   4.592
10747SOL    HW133140   6.798   6.904   4.514
10747SOL    HW233141   6.857   6.761   4.566
10748SOL     OW33142   2.828   6.543   2.637
10748SOL    HW133143   2.831   6.628   2.690
10748SOL    HW233144   2.865   6.559   2.546
10749SOL     OW33145   4.920   3.726   2.044
10749SOL    HW133146   4.862   3.716   2.125
10749SOL    HW233147   4.898   3.811   1.997
10750SOL     OW33148   3.844   1.839   3.958
10750SOL    HW133149   3.800   1.922   3.991
10750SOL    HW233150   3.942   1.857   3.944
10751SOL     OW33151   6.339   6.155   3.807
10751SOL    HW133152   6.376   6.245   3.785
10751SOL    HW233153   6.359   6.092   3.732
10752SOL     OW33154   0.505   5.972   6.643
10752SOL    HW133155   0.504   5.977   6.543
10752SOL    HW233156   0.597   5.988   6.677
10753SOL     OW33157   5.390   6.616   5.005
10753SOL    HW133158   5.451   6.544   4.974
10753SOL    HW233159   5.369   6.677   4.928
10754SOL     OW33160   0.240   5.591   2.229
10754SOL    HW133161   0.209   5.681   2.198
10754SOL    HW233162   0.329   5.600   2.274
10755SOL     OW33163   0.177   2.030   1.729
10755SOL    HW133164   0.161   1.961   1.800
10755SOL    HW233165   0.243   1.996   1.663
10756SOL     OW33166   1.309   6.811   5.874
10756SOL    HW133167   1.246   6.874   5.919
10756SOL    HW233168   1.260   6.729   5.846
10757SOL     OW33169   0.074   2.978   1.969
10757SOL    HW133170   0.018   2.980   1.886
10757SOL    HW233171   0.031   3.034   2.039
10758SOL     OW33172   0.915   1.512   0.606
10758SOL    HW133173   0.855   1.589   0.584
10758SOL    HW233174   0.974   1.492   0.527
10759SOL     OW33175   3.995   4.020   5.124
10759SOL    HW133176   4.071   4.028   5.189
10759SOL    HW233177   3.937   4.102   5.132
10760SOL     OW33178   0.952   4.668   6.875
10760SOL    HW133179   1.005   4.751   6.856
10760SOL    HW233180   1.012   4.588   6.869
10761SOL     OW33181   1.653   1.039   6.631
10761SOL    HW133182   1.601   1.087   6.560
10761SOL    HW233183   1.697   0.959   6.590
10762SOL     OW33184   1.737   6.443   0.749
10762SOL    HW133185   1.737   6.437   0.849
10762SOL    HW233186   1.732   6.538   0.721
10763SOL     OW33187   4.987   1.258   2.543
10763SOL    HW133188   5.058   1.216   2.486
10763SOL    HW233189   4.910   1.284   2.485
10764SOL     OW33190   5.215   6.241   5.325
10764SOL    HW133191   5.208   6.141   5.320
10764SOL    HW233192   5.306   6.270   5.297
10765SOL     OW33193   0.049   2.989   0.972
10765SOL    HW133194   0.019   3.083   0.988
10765SOL    HW233195   0.146   2.981   0.993
10766SOL     OW33196   3.029   4.674   6.759
10766SOL    HW133197   2.976   4.677   6.844
10766SOL    HW233198   2.971   4.699   6.682
10767SOL     OW33199   1.924   4.932   6.663
10767SOL    HW133200   1.975   4.933   6.749
10767SOL    HW233201   1.862   5.011   6.659
10768SOL     OW33202   5.399   6.329   6.552
10768SOL    HW133203   5.331   6.397   6.526
10768SOL    HW233204   5.475   6.373   6.601
10769SOL     OW33205   3.024   3.734   4.789
10769SOL    HW133206   2.961   3.678   4.735
10769SOL    HW233207   3.118   3.719   4.758
10770SOL     OW33208   4.794   6.880   3.902
10770SOL    HW133209   4.710   6.895   3.849
10770SOL    HW233210   4.871   6.868   3.840
10771SOL     OW33211   4.549   5.983   5.918
10771SOL    HW133212   4.561   5.934   6.004
10771SOL    HW233213   4.520   6.077   5.937
10772SOL     OW33214   4.789   4.002   3.066
10772SOL    HW133215   4.782   3.965   3.159
10772SOL    HW233216   4.727   4.079   3.057
10773SOL     OW33217   0.631   4.011   0.742
10773SOL    HW133218   0.537   3.977   0.737
10773SOL    HW233219   0.649   4.045   0.835
10774SOL     OW33220   0.379   3.272   0.703
10774SOL    HW133221   0.298   3.280   0.761
10774SOL    HW233222   0.350   3.264   0.607
10775SOL     OW33223   2.102   4.770   0.199
10775SOL    HW133224   2.071   4.865   0.205
10775SOL    HW233225   2.075   4.732   0.110
10776SOL     OW33226   0.677   3.431   3.088
10776SOL    HW133227   0.733   3.440   3.171
10776SOL    HW233228   0.660   3.522   3.049
10777SOL     OW33229   1.533   0.019   1.627
10777SOL    HW133230   1.608   6.973   1.642
10777SOL    HW233231   1.571   0.108   1.599
10778SOL     OW33232   4.716   0.261   3.800
10778SOL    HW133233   4.698   0.168   3.830
10778SOL    HW233234   4.743   0.318   3.878
10779SOL     OW33235   5.960   2.691   6.038
10779SOL    HW133236   6.020   2.769   6.058
10779SOL    HW233237   5.872   2.724   6.003
10780SOL     OW33238   1.234   5.113   5.161
10780SOL    HW133239   1.156   5.080   5.107
10780SOL    HW233240   1.319   5.075   5.122
10781SOL     OW33241   6.268   2.137   6.080
10781SOL    HW133242   6.333   2.129   6.005
10781SOL    HW233243   6.317   2.146   6.167
10782SOL     OW33244   0.980   3.294   5.543
10782SOL    HW133245   1.079   3.296   5.535
10782SOL    HW233246   0.942   3.237   5.471
10783SOL     OW33247   1.577   4.150   3.756
10783SOL    HW133248   1.510   4.105   3.697
10783SOL    HW233249   1.594   4.095   3.837
10784SOL     OW33250   4.763   5.406   3.748
10784SOL    HW133251   4.681   5.357   3.775
10784SOL    HW233252   4.841   5.343   3.747
10785SOL     OW33253   1.696   5.431   1.728
10785SOL    HW133254   1.673   5.337   1.702
10785SOL    HW233255   1.750   5.430   1.813
10786SOL     OW33256   5.121   1.407   2.736
10786SOL    HW133257   5.059   1.438   2.808
10786SOL    HW233258   5.074   1.340   2.678
10787SOL     OW33259   3.490   1.312   3.496
10787SOL    HW133260   3.587   1.294   3.476
10787SOL    HW233261   3.480   1.406   3.528
10788SOL     OW33262   1.395   2.801   6.959
10788SOL    HW133263   1.400   2.900   6.942
10788SOL    HW233264   1.475   2.756   6.921
10789SOL     OW33265   6.306   1.746   2.735
10789SOL    HW133266   6.353   1.734   2.648
10789SOL    HW233267   6.244   1.824   2.729
10790SOL     OW33268   0.053   2.122   5.174
10790SOL    HW133269   0.020   2.167   5.257
10790SOL    HW233270   0.113   2.046   5.198
10791SOL     OW33271   2.139   3.688   3.681
10791SOL    HW133272   2.118   3.721   3.773
10791SOL    HW233273   2.153   3.589   3.683
10792SOL     OW33274   3.969   1.270   2.126
10792SOL    HW133275   3.886   1.290   2.074
10792SOL    HW233276   3.946   1.212   2.204
10793SOL     OW33277   3.722   2.069   4.973
10793SOL    HW133278   3.701   2.113   4.886
10793SOL    HW233279   3.665   2.108   5.045
10794SOL     OW33280   4.864   2.847   6.388
10794SOL    HW133281   4.782   2.802   6.423
10794SOL    HW233282   4.859   2.854   6.288
10795SOL     OW33283   6.025   3.077   3.550
10795SOL    HW133284   6.085   3.004   3.584
10795SOL    HW233285   5.972   3.115   3.627
10796SOL     OW33286   0.474   1.641   6.786
10796SOL    HW133287   0.570   1.620   6.804
10796SOL    HW233288   0.443   1.711   6.851
10797SOL     OW33289   5.435   5.210   6.612
10797SOL    HW133290   5.414   5.114   6.601
10797SOL    HW233291   5.533   5.225   6.596
10798SOL     OW33292   1.737   5.904   0.641
10798SOL    HW133293   1.784   5.986   0.675
10798SOL    HW233294   1.691   5.925   0.555
10799SOL     OW33295   1.906   0.506   2.727
10799SOL    HW133296   1.935   0.572   2.658
10799SOL    HW233297   1.982   0.488   2.790
10800SOL     OW33298   2.231   0.652   4.492
10800SOL    HW133299   2.152   0.679   4.546
10800SOL    HW233300   2.214   0.564   4.448
10801SOL     OW33301   3.009   6.180   6.708
10801SOL    HW133302   3.099   6.143   6.685
10801SOL    HW233303   3.020   6.262   6.764
10802SOL     OW33304   0.967   4.861   3.925
10802SOL    HW133305   1.010   4.892   3.840
10802SOL    HW233306   1.016   4.901   4.003
10803SOL     OW33307   6.653   4.497   4.252
10803SOL    HW133308   6.613   4.522   4.340
10803SOL    HW233309   6.694   4.577   4.209
10804SOL     OW33310   4.320   4.565   0.400
10804SOL    HW133311   4.326   4.658   0.436
10804SOL    HW233312   4.240   4.520   0.439
10805SOL     OW33313   4.532   6.351   0.343
10805SOL    HW133314   4.464   6.424   0.333
10805SOL    HW233315   4.613   6.374   0.291
10806SOL     OW33316   5.014   2.986   5.756
10806SOL    HW133317   5.103   2.994   5.802
10806SOL    HW233318   5.012   3.048   5.677
10807SOL     OW33319   4.648   2.421   5.318
10807SOL    HW133320   4.747   2.428   5.331
10807SOL    HW233321   4.613   2.508   5.284
10808SOL     OW33322   0.544   2.550   0.092
10808SOL    HW133323   0.521   2.639   0.132
10808SOL    HW233324   0.463   2.513   0.045
10809SOL     OW33325   1.029   0.599   2.500
10809SOL    HW133326   0.991   0.663   2.433
10809SOL    HW233327   1.058   0.649   2.582
10810SOL     OW33328   1.699   1.158   6.064
10810SOL    HW133329   1.690   1.060   6.051
10810SOL    HW233330   1.739   1.176   6.154
10811SOL     OW33331   3.983   6.336   6.479
10811SOL    HW133332   3.997   6.361   6.383
10811SOL    HW233333   3.994   6.237   6.491
10812SOL     OW33334   6.746   3.031   3.300
10812SOL    HW133335   6.780   3.017   3.392
10812SOL    HW233336   6.662   3.086   3.303
10813SOL     OW33337   3.004   5.730   2.543
10813SOL    HW133338   2.938   5.774   2.482
10813SOL    HW233339   3.055   5.660   2.493
10814SOL     OW33340   2.433   6.322   4.562
10814SOL    HW133341   2.400   6.236   4.600
10814SOL    HW233342   2.502   6.304   4.492
10815SOL     OW33343   5.382   1.745   5.585
10815SOL    HW133344   5.336   1.833   5.575
10815SOL    HW233345   5.319   1.679   5.625
10816SOL     OW33346   2.152   2.126   1.575
10816SOL    HW133347   2.150   2.027   1.580
10816SOL    HW233348   2.245   2.157   1.555
10817SOL     OW33349   3.629   1.756   2.143
10817SOL    HW133350   3.615   1.749   2.044
10817SOL    HW233351   3.630   1.852   2.171
10818SOL     OW33352   4.822   3.539   6.166
10818SOL    HW133353   4.753   3.531   6.237
10818SOL    HW233354   4.860   3.449   6.145
10819SOL     OW33355   2.018   3.915   4.991
10819SOL    HW133356   2.111   3.950   4.997
10819SOL    HW233357   2.004   3.845   5.061
10820SOL     OW33358   0.663   6.015   5.327
10820SOL    HW133359   0.699   6.103   5.295
10820SOL    HW233360   0.706   5.991   5.414
10821SOL     OW33361   0.493   0.494   6.872
10821SOL    HW133362   0.395   0.509   6.879
10821SOL    HW233363   0.540   0.546   6.944
10822SOL     OW33364   0.891   4.587   6.315
10822SOL    HW133365   0.914   4.669   6.263
10822SOL    HW233366   0.882   4.510   6.251
10823SOL     OW33367   1.662   2.159   0.559
10823SOL    HW133368   1.604   2.109   0.623
10823SOL    HW233369   1.743   2.105   0.538
10824SOL     OW33370   5.702   1.155   4.791
10824SOL    HW133371   5.701   1.147   4.890
10824SOL    HW233372   5.660   1.242   4.764
10825SOL     OW33373   3.018   1.162   2.060
10825SOL    HW133374   3.044   1.250   2.099
10825SOL    HW233375   3.095   1.123   2.010
10826SOL     OW33376   6.694   3.358   1.393
10826SOL    HW133377   6.617   3.364   1.457
10826SOL    HW233378   6.660   3.370   1.300
10827SOL     OW33379   0.764   2.756   4.188
10827SOL    HW133380   0.669   2.743   4.160
10827SOL    HW233381   0.774   2.733   4.285
10828SOL     OW33382   2.563   4.774   0.329
10828SOL    HW133383   2.591   4.817   0.414
10828SOL    HW233384   2.474   4.730   0.342
10829SOL     OW33385   2.425   4.088   1.733
10829SOL    HW133386   2.478   4.170   1.711
10829SOL    HW233387   2.467   4.008   1.690
10830SOL     OW33388   6.346   0.776   3.683
10830SOL    HW133389   6.301   0.849   3.633
10830SOL    HW233390   6.349   0.694   3.627
10831SOL     OW33391   5.111   2.277   2.095
10831SOL    HW133392   5.034   2.269   2.032
10831SOL    HW233393   5.079   2.315   2.182
10832SOL     OW33394   1.098   2.942   2.156
10832SOL    HW133395   1.097   2.859   2.102
10832SOL    HW233396   1.062   2.923   2.248
10833SOL     OW33397   3.286   6.903   4.459
10833SOL    HW133398   3.305   6.914   4.362
10833SOL    HW233399   3.361   6.941   4.513
10834SOL     OW33400   0.177   1.489   5.912
10834SOL    HW133401   0.103   1.519   5.852
10834SOL    HW233402   0.169   1.536   6.000
10835SOL     OW33403   0.787   2.018   0.578
10835SOL    HW133404   0.706   2.008   0.636
10835SOL    HW233405   0.774   2.096   0.516
10836SOL     OW33406   0.778   2.431   1.033
10836SOL    HW133407   0.745   2.444   0.939
10836SOL    HW233408   0.766   2.516   1.084
10837SOL     OW33409   1.082   5.579   0.653
10837SOL    HW133410   1.156   5.579   0.721
10837SOL    HW233411   1.121   5.563   0.562
10838SOL     OW33412   6.800   5.954   0.602
10838SOL    HW133413   6.774   5.954   0.699
10838SOL    HW233414   6.888   5.907   0.591
10839SOL     OW33415   2.331   1.755   6.813
10839SOL    HW133416   2.248   1.806   6.840
10839SOL    HW233417   2.412   1.808   6.840
10840SOL     OW33418   2.027   0.309   3.082
10840SOL    HW133419   1.929   0.311   3.066
10840SOL    HW233420   2.073   0.367   3.015
10841SOL     OW33421   4.533   4.145   0.742
10841SOL    HW133422   4.613   4.178   0.691
10841SOL    HW233423   4.493   4.219   0.795
10842SOL     OW33424   6.351   1.841   1.850
10842SOL    HW133425   6.379   1.761   1.904
10842SOL    HW233426   6.251   1.847   1.850
10843SOL     OW33427   1.116   2.375   1.132
10843SOL    HW133428   1.192   2.426   1.092
10843SOL    HW233429   1.146   2.282   1.154
10844SOL     OW33430   5.069   0.051   4.342
10844SOL    HW133431   5.088   6.973   4.319
10844SOL    HW233432   5.141   0.087   4.400
10845SOL     OW33433   2.291   3.469   1.340
10845SOL    HW133434   2.298   3.466   1.440
10845SOL    HW233435   2.232   3.545   1.313
10846SOL     OW33436   3.499   3.114   1.832
10846SOL    HW133437   3.562   3.188   1.853
10846SOL    HW233438   3.407   3.151   1.819
10847SOL     OW33439   4.738   2.049   5.452
10847SOL    HW133440   4.753   2.090   5.541
10847SOL    HW233441   4.821   2.001   5.423
10848SOL     OW33442   1.638   0.726   6.886
10848SOL    HW133443   1.601   0.740   6.794
10848SOL    HW233444   1.730   0.764   6.891
10849SOL     OW33445   1.309   4.535   4.674
10849SOL    HW133446   1.248   4.485   4.735
10849SOL    HW233447   1.359   4.470   4.616
10850SOL     OW33448   5.633   1.048   2.831
10850SOL    HW133449   5.697   0.993   2.885
10850SOL    HW233450   5.592   1.118   2.889
10851SOL     OW33451   4.809   2.780   6.712
10851SOL    HW133452   4.738   2.778   6.642
10851SOL    HW233453   4.893   2.819   6.674
10852SOL     OW33454   5.753   0.960   5.990
10852SOL    HW133455   5.702   1.009   6.062
10852SOL    HW233456   5.784   0.872   6.026
10853SOL     OW33457   3.095   0.623   5.224
10853SOL    HW133458   3.107   0.529   5.192
10853SOL    HW233459   3.076   0.683   5.146
10854SOL     OW33460   6.474   6.878   0.154
10854SOL    HW133461   6.379   6.849   0.139
10854SOL    HW233462   6.521   6.809   0.209
10855SOL     OW33463   0.652   5.582   1.344
10855SOL    HW133464   0.650   5.488   1.310
10855SOL    HW233465   0.642   5.646   1.268
10856SOL     OW33466   5.118   6.704   6.766
10856SOL    HW133467   5.154   6.756   6.843
10856SOL    HW233468   5.033   6.745   6.734
10857SOL     OW33469   6.480   6.442   4.459
10857SOL    HW133470   6.440   6.512   4.518
10857SOL    HW233471   6.519   6.484   4.377
10858SOL     OW33472   1.643   2.333   0.360
10858SOL    HW133473   1.641   2.265   0.434
10858SOL    HW233474   1.575   2.308   0.290
10859SOL     OW33475   2.483   5.626   2.189
10859SOL    HW133476   2.547   5.703   2.184
10859SOL    HW233477   2.390   5.660   2.191
10860SOL     OW33478   6.200   1.562   1.562
10860SOL    HW133479   6.286   1.534   1.603
10860SOL    HW233480   6.161   1.486   1.510
10861SOL     OW33481   1.609   3.941   1.350
10861SOL    HW133482   1.592   3.946   1.448
10861SOL    HW233483   1.574   3.853   1.315
10862SOL     OW33484   3.582   4.115   5.585
10862SOL    HW133485   3.500   4.070   5.619
10862SOL    HW233486   3.663   4.064   5.615
10863SOL     OW33487   1.235   0.215   3.301
10863SOL    HW133488   1.334   0.206   3.311
10863SOL    HW233489   1.214   0.267   3.219
10864SOL     OW33490   3.067   3.964   1.899
10864SOL    HW133491   3.055   4.002   1.990
10864SOL    HW233492   3.096   4.036   1.836
10865SOL     OW33493   2.827   1.825   2.832
10865SOL    HW133494   2.880   1.757   2.782
10865SOL    HW233495   2.734   1.830   2.794
10866SOL     OW33496   0.850   3.477   4.033
10866SOL    HW133497   0.891   3.554   3.982
10866SOL    HW233498   0.823   3.508   4.124
10867SOL     OW33499   4.776   3.128   0.142
10867SOL    HW133500   4.834   3.133   0.224
10867SOL    HW233501   4.680   3.129   0.169
10868SOL     OW33502   0.905   6.838   5.468
10868SOL    HW133503   0.917   6.931   5.435
10868SOL    HW233504   0.994   6.794   5.479
10869NA      NA33505   0.105   1.025   6.580
10870NA      NA33506   4.674   4.830   5.008
10871NA      NA33507   0.682   4.821   3.207
10872NA      NA33508   6.397   3.727   3.438
10873NA      NA33509   4.140   2.343   5.287
10874NA      NA33510   2.348   3.868   6.921
10875NA      NA33511   1.531   5.498   0.660
10876NA      NA33512   4.266   4.797   2.237
10877NA      NA33513   5.242   3.435   1.163
10878NA      NA33514   3.851   1.815   0.574
10879NA      NA33515   5.550   6.691   1.313
10880NA      NA33516   2.760   6.661   4.698
10881NA      NA33517   3.768   5.504   2.804
10882NA      NA33518   4.007   5.130   6.560
   7.01819   7.01819   7.01819
