Generated by trjconv : CNT in water t= 199.00000
33518
    1C        C    1   2.838   2.766   4.748
    1C        C    2   2.902   2.725   4.867
    1C        C    3   2.847   2.775   4.986
    1C        C    4   2.848   2.776   4.261
    1C        C    5   2.901   2.727   4.383
    1C        C    6   2.843   2.772   4.504
    1C        C    7   3.016   2.650   4.624
    1C        C    8   2.895   2.724   4.626
    1C        C    9   3.081   2.612   4.743
    1C        C   10   3.016   2.643   4.865
    1C        C   11   3.182   2.489   4.972
    1C        C   12   3.065   2.567   4.972
    1C        C   13   2.847   2.772   3.772
    1C        C   14   2.901   2.724   3.893
    1C        C   15   2.848   2.775   4.014
    1C        C   16   3.018   2.653   4.139
    1C        C   17   2.903   2.734   4.138
    1C        C   18   3.081   2.615   4.260
    1C        C   19   3.021   2.653   4.382
    1C        C   20   3.214   2.566   4.504
    1C        C   21   3.083   2.617   4.504
    1C        C   22   3.284   2.544   4.625
    1C        C   23   3.213   2.558   4.746
    1C        C   24   3.415   2.485   4.867
    1C        C   25   3.274   2.508   4.864
    1C        C   26   3.495   2.474   4.982
    1C        C   27   2.849   2.773   3.282
    1C        C   28   2.903   2.726   3.404
    1C        C   29   2.852   2.772   3.527
    1C        C   30   3.017   2.642   3.651
    1C        C   31   2.906   2.729   3.651
    1C        C   32   3.078   2.607   3.774
    1C        C   33   3.018   2.646   3.896
    1C        C   34   3.214   2.565   4.016
    1C        C   35   3.082   2.615   4.018
    1C        C   36   3.282   2.543   4.138
    1C        C   37   3.212   2.563   4.259
    1C        C   38   3.419   2.514   4.382
    1C        C   39   3.281   2.544   4.381
    1C        C   40   3.491   2.503   4.502
    1C        C   41   3.421   2.510   4.625
    1C        C   42   3.631   2.484   4.743
    1C        C   43   3.488   2.483   4.746
    1C        C   44   3.705   2.482   4.863
    1C        C   45   3.634   2.472   4.983
    1C        C   46   2.843   2.759   2.795
    1C        C   47   2.897   2.711   2.917
    1C        C   48   2.843   2.764   3.037
    1C        C   49   3.019   2.649   3.161
    1C        C   50   2.900   2.724   3.160
    1C        C   51   3.082   2.616   3.284
    1C        C   52   3.019   2.645   3.407
    1C        C   53   3.212   2.557   3.527
    1C        C   54   3.081   2.609   3.529
    1C        C   55   3.278   2.537   3.651
    1C        C   56   3.209   2.556   3.772
    1C        C   57   3.419   2.511   3.893
    1C        C   58   3.281   2.542   3.894
    1C        C   59   3.488   2.502   4.016
    1C        C   60   3.420   2.513   4.140
    1C        C   61   3.633   2.502   4.260
    1C        C   62   3.492   2.506   4.261
    1C        C   63   3.704   2.508   4.382
    1C        C   64   3.632   2.506   4.504
    1C        C   65   3.842   2.540   4.621
    1C        C   66   3.705   2.505   4.625
    1C        C   67   3.909   2.559   4.744
    1C        C   68   3.841   2.521   4.861
    1C        C   69   4.049   2.585   4.978
    1C        C   70   3.923   2.524   4.974
    1C        C   71   2.828   2.735   2.309
    1C        C   72   2.888   2.696   2.431
    1C        C   73   2.835   2.748   2.551
    1C        C   74   3.009   2.626   2.674
    1C        C   75   2.895   2.709   2.673
    1C        C   76   3.075   2.596   2.795
    1C        C   77   3.016   2.635   2.917
    1C        C   78   3.210   2.554   3.038
    1C        C   79   3.080   2.610   3.040
    1C        C   80   3.277   2.535   3.161
    1C        C   81   3.211   2.559   3.283
    1C        C   82   3.417   2.504   3.405
    1C        C   83   3.279   2.535   3.405
    1C        C   84   3.490   2.502   3.526
    1C        C   85   3.418   2.514   3.647
    1C        C   86   3.628   2.506   3.771
    1C        C   87   3.487   2.505   3.770
    1C        C   88   3.699   2.513   3.894
    1C        C   89   3.630   2.503   4.016
    1C        C   90   3.838   2.550   4.134
    1C        C   91   3.702   2.511   4.137
    1C        C   92   3.905   2.568   4.257
    1C        C   93   3.841   2.543   4.380
    1C        C   94   4.038   2.627   4.499
    1C        C   95   3.911   2.566   4.501
    1C        C   96   4.098   2.664   4.622
    1C        C   97   4.036   2.625   4.742
    1C        C   98   4.195   2.764   4.861
    1C        C   99   4.102   2.655   4.864
    1C        C  100   4.212   2.844   4.975
    1C        C  101   2.813   2.725   2.072
    1C        C  102   2.987   2.588   2.192
    1C        C  103   2.874   2.676   2.188
    1C        C  104   3.063   2.572   2.310
    1C        C  105   3.004   2.615   2.431
    1C        C  106   3.203   2.540   2.550
    1C        C  107   3.070   2.587   2.552
    1C        C  108   3.273   2.525   2.672
    1C        C  109   3.207   2.544   2.795
    1C        C  110   3.415   2.495   2.915
    1C        C  111   3.277   2.527   2.917
    1C        C  112   3.485   2.493   3.038
    1C        C  113   3.416   2.507   3.161
    1C        C  114   3.628   2.499   3.279
    1C        C  115   3.486   2.494   3.282
    1C        C  116   3.698   2.509   3.401
    1C        C  117   3.631   2.502   3.525
    1C        C  118   3.836   2.541   3.646
    1C        C  119   3.699   2.507   3.649
    1C        C  120   3.901   2.570   3.768
    1C        C  121   3.837   2.541   3.891
    1C        C  122   4.028   2.639   4.012
    1C        C  123   3.905   2.570   4.012
    1C        C  124   4.093   2.666   4.134
    1C        C  125   4.033   2.628   4.256
    1C        C  126   4.198   2.766   4.376
    1C        C  127   4.094   2.670   4.377
    1C        C  128   4.241   2.823   4.498
    1C        C  129   4.196   2.766   4.619
    1C        C  130   4.326   2.935   4.739
    1C        C  131   4.245   2.818   4.740
    1C        C  132   4.354   3.003   4.860
    1C        C  133   4.279   2.966   4.972
    1C        C  134   3.174   2.473   2.077
    1C        C  135   3.039   2.511   2.083
    1C        C  136   3.258   2.481   2.188
    1C        C  137   3.196   2.520   2.309
    1C        C  138   3.406   2.477   2.430
    1C        C  139   3.268   2.507   2.429
    1C        C  140   3.482   2.481   2.549
    1C        C  141   3.411   2.495   2.670
    1C        C  142   3.624   2.490   2.790
    1C        C  143   3.483   2.486   2.792
    1C        C  144   3.696   2.501   2.912
    1C        C  145   3.626   2.498   3.035
    1C        C  146   3.835   2.537   3.156
    1C        C  147   3.698   2.502   3.156
    1C        C  148   3.902   2.558   3.279
    1C        C  149   3.837   2.532   3.401
    1C        C  150   4.030   2.621   3.522
    1C        C  151   3.904   2.558   3.523
    1C        C  152   4.087   2.665   3.644
    1C        C  153   4.026   2.636   3.768
    1C        C  154   4.199   2.762   3.889
    1C        C  155   4.086   2.678   3.889
    1C        C  156   4.246   2.814   4.012
    1C        C  157   4.197   2.762   4.134
    1C        C  158   4.342   2.922   4.253
    1C        C  159   4.252   2.812   4.254
    1C        C  160   4.379   2.983   4.375
    1C        C  161   4.334   2.930   4.497
    1C        C  162   4.440   3.115   4.614
    1C        C  163   4.374   2.990   4.618
    1C        C  164   4.465   3.184   4.735
    1C        C  165   4.429   3.122   4.857
    1C        C  166   4.508   3.323   4.974
    1C        C  167   4.471   3.189   4.973
    1C        C  168   3.473   2.437   2.074
    1C        C  169   3.397   2.456   2.190
    1C        C  170   3.618   2.462   2.304
    1C        C  171   3.476   2.466   2.307
    1C        C  172   3.691   2.485   2.422
    1C        C  173   3.623   2.488   2.546
    1C        C  174   3.831   2.532   2.665
    1C        C  175   3.693   2.502   2.668
    1C        C  176   3.897   2.554   2.788
    1C        C  177   3.833   2.533   2.912
    1C        C  178   4.027   2.623   3.031
    1C        C  179   3.901   2.559   3.033
    1C        C  180   4.087   2.658   3.154
    1C        C  181   4.029   2.621   3.278
    1C        C  182   4.194   2.754   3.398
    1C        C  183   4.089   2.660   3.399
    1C        C  184   4.242   2.806   3.520
    1C        C  185   4.196   2.755   3.644
    1C        C  186   4.336   2.918   3.764
    1C        C  187   4.249   2.807   3.764
    1C        C  188   4.380   2.975   3.886
    1C        C  189   4.338   2.921   4.010
    1C        C  190   4.443   3.108   4.129
    1C        C  191   4.380   2.981   4.130
    1C        C  192   4.470   3.174   4.251
    1C        C  193   4.445   3.108   4.374
    1C        C  194   4.509   3.316   4.492
    1C        C  195   4.474   3.179   4.493
    1C        C  196   4.522   3.389   4.613
    1C        C  197   4.504   3.321   4.735
    1C        C  198   4.557   3.534   4.850
    1C        C  199   4.529   3.394   4.854
    1C        C  200   4.584   3.619   4.962
    1C        C  201   3.612   2.416   2.076
    1C        C  202   3.830   2.506   2.181
    1C        C  203   3.694   2.459   2.184
    1C        C  204   3.899   2.535   2.302
    1C        C  205   3.829   2.516   2.423
    1C        C  206   4.023   2.614   2.543
    1C        C  207   3.899   2.548   2.542
    1C        C  208   4.083   2.656   2.664
    1C        C  209   4.023   2.618   2.786
    1C        C  210   4.197   2.745   2.906
    1C        C  211   4.085   2.658   2.907
    1C        C  212   4.248   2.794   3.029
    1C        C  213   4.196   2.748   3.152
    1C        C  214   4.335   2.908   3.273
    1C        C  215   4.245   2.799   3.274
    1C        C  216   4.372   2.968   3.396
    1C        C  217   4.330   2.916   3.520
    1C        C  218   4.437   3.102   3.639
    1C        C  219   4.372   2.977   3.641
    1C        C  220   4.461   3.170   3.760
    1C        C  221   4.442   3.102   3.882
    1C        C  222   4.497   3.307   4.003
    1C        C  223   4.469   3.168   4.004
    1C        C  224   4.508   3.379   4.124
    1C        C  225   4.507   3.310   4.247
    1C        C  226   4.526   3.523   4.365
    1C        C  227   4.519   3.382   4.368
    1C        C  228   4.521   3.599   4.484
    1C        C  229   4.533   3.529   4.607
    1C        C  230   4.506   3.742   4.726
    1C        C  231   4.540   3.603   4.727
    1C        C  232   4.493   3.818   4.844
    1C        C  233   4.546   3.754   4.957
    1C        C  234   4.015   2.615   2.058
    1C        C  235   3.895   2.544   2.063
    1C        C  236   4.081   2.647   2.177
    1C        C  237   4.021   2.608   2.299
    1C        C  238   4.198   2.734   2.420
    1C        C  239   4.081   2.652   2.420
    1C        C  240   4.252   2.783   2.541
    1C        C  241   4.197   2.739   2.664
    1C        C  242   4.340   2.900   2.782
    1C        C  243   4.250   2.791   2.784
    1C        C  244   4.377   2.960   2.905
    1C        C  245   4.336   2.904   3.028
    1C        C  246   4.435   3.092   3.147
    1C        C  247   4.374   2.965   3.150
    1C        C  248   4.456   3.159   3.270
    1C        C  249   4.432   3.096   3.394
    1C        C  250   4.496   3.301   3.513
    1C        C  251   4.462   3.164   3.514
    1C        C  252   4.510   3.371   3.635
    1C        C  253   4.497   3.307   3.760
    1C        C  254   4.523   3.518   3.877
    1C        C  255   4.513   3.377   3.882
    1C        C  256   4.519   3.588   3.999
    1C        C  257   4.517   3.521   4.123
    1C        C  258   4.490   3.732   4.241
    1C        C  259   4.520   3.594   4.244
    1C        C  260   4.470   3.803   4.362
    1C        C  261   4.491   3.737   4.484
    1C        C  262   4.427   3.940   4.605
    1C        C  263   4.479   3.809   4.605
    1C        C  264   4.404   4.013   4.724
    1C        C  265   4.432   3.946   4.845
    1C        C  266   4.318   4.129   4.959
    1C        C  267   4.395   4.013   4.962
    1C        C  268   4.256   2.775   2.061
    1C        C  269   4.194   2.731   2.179
    1C        C  270   4.345   2.888   2.299
    1C        C  271   4.251   2.782   2.298
    1C        C  272   4.384   2.953   2.418
    1C        C  273   4.337   2.896   2.538
    1C        C  274   4.445   3.081   2.660
    1C        C  275   4.380   2.956   2.659
    1C        C  276   4.471   3.150   2.781
    1C        C  277   4.443   3.084   2.903
    1C        C  278   4.498   3.291   3.024
    1C        C  279   4.469   3.153   3.024
    1C        C  280   4.509   3.363   3.145
    1C        C  281   4.494   3.295   3.268
    1C        C  282   4.517   3.508   3.387
    1C        C  283   4.507   3.368   3.389
    1C        C  284   4.514   3.581   3.508
    1C        C  285   4.513   3.512   3.631
    1C        C  286   4.490   3.724   3.752
    1C        C  287   4.514   3.585   3.753
    1C        C  288   4.474   3.795   3.873
    1C        C  289   4.495   3.727   3.995
    1C        C  290   4.424   3.928   4.114
    1C        C  291   4.479   3.798   4.117
    1C        C  292   4.397   3.997   4.235
    1C        C  293   4.426   3.938   4.359
    1C        C  294   4.319   4.121   4.478
    1C        C  295   4.392   4.000   4.482
    1C        C  296   4.283   4.185   4.598
    1C        C  297   4.330   4.134   4.721
    1C        C  298   4.201   4.312   4.838
    1C        C  299   4.283   4.195   4.841
    1C        C  300   4.174   4.402   4.946
    1C        C  301   4.343   2.884   2.063
    1C        C  302   4.468   3.067   2.177
    1C        C  303   4.395   2.944   2.178
    1C        C  304   4.481   3.144   2.295
    1C        C  305   4.447   3.080   2.416
    1C        C  306   4.514   3.282   2.536
    1C        C  307   4.474   3.146   2.538
    1C        C  308   4.519   3.354   2.657
    1C        C  309   4.505   3.287   2.781
    1C        C  310   4.524   3.501   2.898
    1C        C  311   4.513   3.360   2.901
    1C        C  312   4.520   3.572   3.020
    1C        C  313   4.517   3.504   3.144
    1C        C  314   4.492   3.718   3.261
    1C        C  315   4.509   3.578   3.264
    1C        C  316   4.476   3.788   3.383
    1C        C  317   4.487   3.720   3.506
    1C        C  318   4.426   3.923   3.626
    1C        C  319   4.472   3.789   3.628
    1C        C  320   4.391   3.987   3.747
    1C        C  321   4.423   3.927   3.870
    1C        C  322   4.315   4.110   3.991
    1C        C  323   4.393   3.992   3.992
    1C        C  324   4.272   4.169   4.112
    1C        C  325   4.321   4.116   4.234
    1C        C  326   4.181   4.278   4.353
    1C        C  327   4.279   4.176   4.354
    1C        C  328   4.133   4.337   4.472
    1C        C  329   4.193   4.294   4.593
    1C        C  330   4.028   4.432   4.712
    1C        C  331   4.141   4.345   4.713
    1C        C  332   3.970   4.483   4.830
    1C        C  333   4.055   4.475   4.942
    1C        C  334   4.555   3.268   2.060
    1C        C  335   4.530   3.131   2.064
    1C        C  336   4.542   3.351   2.172
    1C        C  337   4.516   3.282   2.292
    1C        C  338   4.523   3.493   2.410
    1C        C  339   4.526   3.352   2.414
    1C        C  340   4.515   3.565   2.532
    1C        C  341   4.522   3.495   2.654
    1C        C  342   4.497   3.709   2.772
    1C        C  343   4.517   3.569   2.775
    1C        C  344   4.476   3.778   2.894
    1C        C  345   4.496   3.712   3.017
    1C        C  346   4.426   3.915   3.136
    1C        C  347   4.480   3.784   3.137
    1C        C  348   4.391   3.979   3.257
    1C        C  349   4.427   3.920   3.380
    1C        C  350   4.318   4.101   3.502
    1C        C  351   4.401   3.986   3.502
    1C        C  352   4.273   4.162   3.621
    1C        C  353   4.316   4.107   3.744
    1C        C  354   4.176   4.265   3.867
    1C        C  355   4.272   4.162   3.867
    1C        C  356   4.119   4.318   3.986
    1C        C  357   4.175   4.271   4.107
    1C        C  358   4.008   4.399   4.229
    1C        C  359   4.123   4.317   4.230
    1C        C  360   3.951   4.446   4.350
    1C        C  361   4.017   4.417   4.471
    1C        C  362   3.830   4.516   4.591
    1C        C  363   3.961   4.465   4.592
    1C        C  364   3.763   4.547   4.712
    1C        C  365   3.838   4.531   4.831
    1C        C  366   3.632   4.591   4.947
    1C        C  367   3.769   4.567   4.948
    1C        C  368   4.504   3.565   2.050
    1C        C  369   4.528   3.491   2.167
    1C        C  370   4.507   3.705   2.286
    1C        C  371   4.522   3.564   2.288
    1C        C  372   4.487   3.778   2.405
    1C        C  373   4.494   3.705   2.526
    1C        C  374   4.427   3.905   2.649
    1C        C  375   4.477   3.773   2.648
    1C        C  376   4.397   3.972   2.770
    1C        C  377   4.429   3.911   2.894
    1C        C  378   4.318   4.096   3.011
    1C        C  379   4.396   3.979   3.013
    1C        C  380   4.272   4.151   3.133
    1C        C  381   4.315   4.098   3.257
    1C        C  382   4.173   4.255   3.376
    1C        C  383   4.273   4.154   3.379
    1C        C  384   4.117   4.300   3.497
    1C        C  385   4.172   4.260   3.621
    1C        C  386   4.004   4.385   3.742
    1C        C  387   4.123   4.309   3.744
    1C        C  388   3.939   4.427   3.861
    1C        C  389   3.999   4.392   3.984
    1C        C  390   3.815   4.489   4.109
    1C        C  391   3.944   4.432   4.108
    1C        C  392   3.751   4.518   4.231
    1C        C  393   3.821   4.501   4.352
    1C        C  394   3.615   4.553   4.474
    1C        C  395   3.755   4.533   4.473
    1C        C  396   3.546   4.567   4.596
    1C        C  397   3.624   4.571   4.713
    1C        C  398   3.412   4.554   4.841
    1C        C  399   3.551   4.577   4.834
    1C        C  400   3.346   4.511   4.956
    1C        C  401   4.505   3.704   2.049
    1C        C  402   4.454   3.914   2.166
    1C        C  403   4.497   3.779   2.167
    1C        C  404   4.416   3.979   2.285
    1C        C  405   4.444   3.912   2.407
    1C        C  406   4.327   4.091   2.525
    1C        C  407   4.406   3.975   2.528
    1C        C  408   4.276   4.147   2.645
    1C        C  409   4.319   4.090   2.767
    1C        C  410   4.175   4.249   2.887
    1C        C  411   4.273   4.147   2.887
    1C        C  412   4.121   4.296   3.009
    1C        C  413   4.174   4.253   3.133
    1C        C  414   4.002   4.378   3.253
    1C        C  415   4.121   4.302   3.254
    1C        C  416   3.939   4.412   3.375
    1C        C  417   4.001   4.382   3.498
    1C        C  418   3.813   4.479   3.619
    1C        C  419   3.941   4.420   3.620
    1C        C  420   3.745   4.505   3.740
    1C        C  421   3.812   4.488   3.863
    1C        C  422   3.610   4.538   3.986
    1C        C  423   3.749   4.513   3.987
    1C        C  424   3.541   4.541   4.110
    1C        C  425   3.611   4.542   4.232
    1C        C  426   3.399   4.552   4.357
    1C        C  427   3.540   4.553   4.354
    1C        C  428   3.330   4.552   4.481
    1C        C  429   3.405   4.560   4.600
    1C        C  430   3.196   4.519   4.722
    1C        C  431   3.335   4.547   4.722
    1C        C  432   3.127   4.495   4.845
    1C        C  433   3.209   4.486   4.958
    1C        C  434   4.379   4.120   2.052
    1C        C  435   4.445   3.997   2.054
    1C        C  436   4.300   4.161   2.164
    1C        C  437   4.332   4.093   2.285
    1C        C  438   4.184   4.251   2.404
    1C        C  439   4.283   4.150   2.405
    1C        C  440   4.126   4.300   2.524
    1C        C  441   4.177   4.247   2.644
    1C        C  442   4.006   4.377   2.764
    1C        C  443   4.122   4.296   2.765
    1C        C  444   3.946   4.414   2.886
    1C        C  445   4.004   4.375   3.009
    1C        C  446   3.811   4.467   3.130
    1C        C  447   3.940   4.409   3.130
    1C        C  448   3.743   4.492   3.251
    1C        C  449   3.810   4.470   3.374
    1C        C  450   3.608   4.532   3.496
    1C        C  451   3.744   4.496   3.496
    1C        C  452   3.537   4.542   3.618
    1C        C  453   3.607   4.537   3.741
    1C        C  454   3.398   4.548   3.865
    1C        C  455   3.540   4.552   3.864
    1C        C  456   3.330   4.540   3.988
    1C        C  457   3.400   4.541   4.110
    1C        C  458   3.193   4.508   4.237
    1C        C  459   3.331   4.537   4.234
    1C        C  460   3.127   4.490   4.360
    1C        C  461   3.194   4.513   4.482
    1C        C  462   2.999   4.428   4.605
    1C        C  463   3.126   4.490   4.603
    1C        C  464   2.934   4.397   4.726
    1C        C  465   2.995   4.439   4.847
    1C        C  466   2.804   4.332   4.960
    1C        C  467   2.908   4.426   4.959
    1C        C  468   4.122   4.287   2.043
    1C        C  469   4.188   4.250   2.161
    1C        C  470   4.010   4.374   2.280
    1C        C  471   4.130   4.298   2.282
    1C        C  472   3.941   4.398   2.401
    1C        C  473   4.006   4.373   2.524
    1C        C  474   3.812   4.467   2.642
    1C        C  475   3.940   4.409   2.644
    1C        C  476   3.746   4.490   2.765
    1C        C  477   3.816   4.470   2.886
    1C        C  478   3.608   4.523   3.009
    1C        C  479   3.746   4.491   3.007
    1C        C  480   3.536   4.530   3.130
    1C        C  481   3.606   4.527   3.252
    1C        C  482   3.395   4.539   3.377
    1C        C  483   3.536   4.539   3.375
    1C        C  484   3.323   4.536   3.499
    1C        C  485   3.396   4.540   3.620
    1C        C  486   3.190   4.504   3.746
    1C        C  487   3.327   4.535   3.743
    1C        C  488   3.127   4.479   3.870
    1C        C  489   3.195   4.498   3.992
    1C        C  490   3.003   4.414   4.118
    1C        C  491   3.128   4.480   4.115
    1C        C  492   2.942   4.382   4.241
    1C        C  493   3.001   4.425   4.362
    1C        C  494   2.832   4.297   4.482
    1C        C  495   2.935   4.393   4.483
    1C        C  496   2.778   4.249   4.604
    1C        C  497   2.820   4.311   4.724
    1C        C  498   2.662   4.167   4.838
    1C        C  499   2.753   4.275   4.843
    1C        C  500   2.600   4.114   4.952
    1C        C  501   4.006   4.362   2.040
    1C        C  502   3.816   4.464   2.156
    1C        C  503   3.945   4.406   2.159
    1C        C  504   3.744   4.479   2.277
    1C        C  505   3.810   4.451   2.398
    1C        C  506   3.605   4.505   2.522
    1C        C  507   3.743   4.479   2.519
    1C        C  508   3.534   4.509   2.644
    1C        C  509   3.606   4.511   2.766
    1C        C  510   3.395   4.523   2.889
    1C        C  511   3.536   4.526   2.887
    1C        C  512   3.322   4.525   3.010
    1C        C  513   3.394   4.531   3.131
    1C        C  514   3.188   4.499   3.257
    1C        C  515   3.326   4.529   3.254
    1C        C  516   3.121   4.471   3.378
    1C        C  517   3.186   4.503   3.500
    1C        C  518   2.997   4.413   3.626
    1C        C  519   3.123   4.478   3.624
    1C        C  520   2.943   4.372   3.750
    1C        C  521   3.005   4.408   3.872
    1C        C  522   2.838   4.280   3.997
    1C        C  523   2.947   4.370   3.995
    1C        C  524   2.788   4.233   4.120
    1C        C  525   2.835   4.290   4.240
    1C        C  526   2.696   4.130   4.361
    1C        C  527   2.781   4.243   4.362
    1C        C  528   2.651   4.075   4.483
    1C        C  529   2.691   4.138   4.603
    1C        C  530   2.583   3.957   4.731
    1C        C  531   2.637   4.088   4.724
    1C        C  532   2.535   3.900   4.852
    1C        C  533   2.527   3.995   4.958
    1C        C  534   3.620   4.557   2.044
    1C        C  535   3.752   4.509   2.040
    1C        C  536   3.535   4.535   2.157
    1C        C  537   3.605   4.507   2.277
    1C        C  538   3.393   4.516   2.401
    1C        C  539   3.534   4.511   2.400
    1C        C  540   3.321   4.507   2.522
    1C        C  541   3.393   4.509   2.644
    1C        C  542   3.185   4.487   2.767
    1C        C  543   3.324   4.514   2.768
    1C        C  544   3.121   4.468   2.891
    1C        C  545   3.184   4.492   3.015
    1C        C  546   2.995   4.400   3.134
    1C        C  547   3.117   4.473   3.138
    1C        C  548   2.938   4.365   3.258
    1C        C  549   2.997   4.405   3.379
    1C        C  550   2.834   4.278   3.507
    1C        C  551   2.940   4.371   3.504
    1C        C  552   2.784   4.228   3.630
    1C        C  553   2.836   4.279   3.751
    1C        C  554   2.707   4.114   3.874
    1C        C  555   2.791   4.228   3.874
    1C        C  556   2.665   4.060   3.998
    1C        C  557   2.702   4.121   4.120
    1C        C  558   2.600   3.936   4.246
    1C        C  559   2.662   4.063   4.242
    1C        C  560   2.568   3.874   4.370
    1C        C  561   2.591   3.947   4.489
    1C        C  562   2.525   3.748   4.615
    1C        C  563   2.556   3.886   4.611
    1C        C  564   2.513   3.680   4.738
    1C        C  565   2.513   3.758   4.857
    1C        C  566   2.529   3.544   4.979
    1C        C  567   2.526   3.683   4.974
    1C        C  568   3.322   4.484   2.041
    1C        C  569   3.395   4.509   2.158
    1C        C  570   3.183   4.479   2.281
    1C        C  571   3.321   4.512   2.280
    1C        C  572   3.113   4.459   2.402
    1C        C  573   3.184   4.476   2.523
    1C        C  574   2.988   4.402   2.649
    1C        C  575   3.117   4.461   2.646
    1C        C  576   2.928   4.366   2.771
    1C        C  577   2.995   4.404   2.890
    1C        C  578   2.829   4.270   3.015
    1C        C  579   2.937   4.361   3.011
    1C        C  580   2.778   4.224   3.138
    1C        C  581   2.830   4.273   3.260
    1C        C  582   2.701   4.112   3.385
    1C        C  583   2.788   4.223   3.385
    1C        C  584   2.662   4.056   3.509
    1C        C  585   2.703   4.113   3.632
    1C        C  586   2.599   3.928   3.757
    1C        C  587   2.664   4.054   3.754
    1C        C  588   2.576   3.866   3.881
    1C        C  589   2.602   3.934   4.003
    1C        C  590   2.534   3.734   4.128
    1C        C  591   2.571   3.870   4.125
    1C        C  592   2.518   3.669   4.252
    1C        C  593   2.529   3.739   4.375
    1C        C  594   2.501   3.530   4.499
    1C        C  595   2.512   3.671   4.497
    1C        C  596   2.507   3.461   4.622
    1C        C  597   2.511   3.538   4.740
    1C        C  598   2.533   3.326   4.863
    1C        C  599   2.519   3.467   4.862
    1C        C  600   2.532   3.249   4.980
    1C        C  601   3.191   4.441   2.045
    1C        C  602   2.980   4.392   2.161
    1C        C  603   3.114   4.443   2.162
    1C        C  604   2.922   4.360   2.287
    1C        C  605   2.983   4.402   2.407
    1C        C  606   2.819   4.269   2.529
    1C        C  607   2.925   4.362   2.529
    1C        C  608   2.771   4.217   2.651
    1C        C  609   2.823   4.272   2.771
    1C        C  610   2.693   4.105   2.897
    1C        C  611   2.777   4.219   2.894
    1C        C  612   2.655   4.048   3.020
    1C        C  613   2.693   4.110   3.141
    1C        C  614   2.597   3.924   3.266
    1C        C  615   2.660   4.051   3.264
    1C        C  616   2.573   3.863   3.391
    1C        C  617   2.603   3.928   3.512
    1C        C  618   2.533   3.727   3.636
    1C        C  619   2.573   3.863   3.634
    1C        C  620   2.517   3.662   3.761
    1C        C  621   2.526   3.734   3.882
    1C        C  622   2.506   3.524   4.010
    1C        C  623   2.517   3.665   4.005
    1C        C  624   2.511   3.455   4.133
    1C        C  625   2.510   3.528   4.254
    1C        C  626   2.529   3.320   4.380
    1C        C  627   2.504   3.459   4.377
    1C        C  628   2.551   3.251   4.501
    1C        C  629   2.529   3.321   4.622
    1C        C  630   2.602   3.121   4.746
    1C        C  631   2.547   3.252   4.744
    1C        C  632   2.620   3.050   4.868
    1C        C  633   2.561   3.112   4.983
    1C        C  634   2.781   4.304   2.052
    1C        C  635   2.894   4.387   2.047
    1C        C  636   2.750   4.230   2.166
    1C        C  637   2.812   4.271   2.287
    1C        C  638   2.681   4.105   2.408
    1C        C  639   2.763   4.220   2.409
    1C        C  640   2.642   4.047   2.531
    1C        C  641   2.683   4.107   2.652
    1C        C  642   2.584   3.922   2.779
    1C        C  643   2.652   4.046   2.775
    1C        C  644   2.564   3.853   2.901
    1C        C  645   2.591   3.921   3.022
    1C        C  646   2.528   3.722   3.149
    1C        C  647   2.567   3.858   3.145
    1C        C  648   2.516   3.653   3.272
    1C        C  649   2.534   3.727   3.391
    1C        C  650   2.509   3.518   3.518
    1C        C  651   2.519   3.659   3.514
    1C        C  652   2.512   3.452   3.643
    1C        C  653   2.508   3.521   3.766
    1C        C  654   2.524   3.311   3.890
    1C        C  655   2.503   3.451   3.889
    1C        C  656   2.544   3.245   4.013
    1C        C  657   2.528   3.315   4.136
    1C        C  658   2.598   3.117   4.258
    1C        C  659   2.545   3.248   4.259
    1C        C  660   2.636   3.057   4.380
    1C        C  661   2.606   3.121   4.502
    1C        C  662   2.706   2.934   4.626
    1C        C  663   2.634   3.056   4.624
    1C        C  664   2.747   2.875   4.747
    1C        C  665   2.696   2.929   4.868
    1C        C  666   2.747   2.873   4.986
    1C        C  667   2.682   4.022   2.055
    1C        C  668   2.686   4.104   2.168
    1C        C  669   2.590   3.909   2.289
    1C        C  670   2.648   4.039   2.288
    1C        C  671   2.559   3.849   2.413
    1C        C  672   2.583   3.918   2.534
    1C        C  673   2.521   3.719   2.659
    1C        C  674   2.556   3.856   2.658
    1C        C  675   2.512   3.646   2.780
    1C        C  676   2.533   3.715   2.901
    1C        C  677   2.508   3.511   3.029
    1C        C  678   2.520   3.651   3.027
    1C        C  679   2.509   3.439   3.151
    1C        C  680   2.508   3.512   3.272
    1C        C  681   2.528   3.305   3.399
    1C        C  682   2.510   3.445   3.397
    1C        C  683   2.547   3.241   3.524
    1C        C  684   2.532   3.313   3.645
    1C        C  685   2.598   3.113   3.771
    1C        C  686   2.546   3.244   3.767
    1C        C  687   2.628   3.051   3.895
    1C        C  688   2.596   3.114   4.017
    1C        C  689   2.705   2.931   4.137
    1C        C  690   2.626   3.048   4.138
    1C        C  691   2.749   2.877   4.260
    1C        C  692   2.710   2.936   4.382
    1C        C  693   2.747   2.875   4.504
    1C        C  694   2.630   3.892   2.056
    1C        C  695   2.520   3.704   2.177
    1C        C  696   2.573   3.834   2.170
    1C        C  697   2.500   3.637   2.300
    1C        C  698   2.523   3.713   2.417
    1C        C  699   2.497   3.504   2.537
    1C        C  700   2.509   3.645   2.540
    1C        C  701   2.495   3.436   2.661
    1C        C  702   2.494   3.506   2.784
    1C        C  703   2.517   3.298   2.910
    1C        C  704   2.499   3.438   2.908
    1C        C  705   2.535   3.228   3.032
    1C        C  706   2.523   3.299   3.154
    1C        C  707   2.589   3.101   3.281
    1C        C  708   2.541   3.234   3.278
    1C        C  709   2.625   3.043   3.405
    1C        C  710   2.596   3.109   3.526
    1C        C  711   2.707   2.930   3.649
    1C        C  712   2.630   3.048   3.650
    1C        C  713   2.753   2.878   3.772
    1C        C  714   2.702   2.930   3.893
    1C        C  715   2.753   2.879   4.014
    1C        C  716   2.443   3.497   2.062
    1C        C  717   2.481   3.632   2.063
    1C        C  718   2.461   3.419   2.181
    1C        C  719   2.481   3.496   2.299
    1C        C  720   2.509   3.285   2.426
    1C        C  721   2.489   3.425   2.421
    1C        C  722   2.532   3.219   2.548
    1C        C  723   2.514   3.296   2.666
    1C        C  724   2.587   3.098   2.789
    1C        C  725   2.533   3.228   2.788
    1C        C  726   2.621   3.036   2.912
    1C        C  727   2.590   3.098   3.035
    1C        C  728   2.701   2.921   3.159
    1C        C  729   2.620   3.037   3.159
    1C        C  730   2.749   2.873   3.283
    1C        C  731   2.706   2.927   3.406
    1C        C  732   2.754   2.874   3.528
    1C        C  733   2.488   3.198   2.069
    1C        C  734   2.485   3.278   2.184
    1C        C  735   2.570   3.080   2.310
    1C        C  736   2.514   3.210   2.306
    1C        C  737   2.599   3.012   2.430
    1C        C  738   2.577   3.085   2.549
    1C        C  739   2.700   2.911   2.671
    1C        C  740   2.622   3.029   2.671
    1C        C  741   2.742   2.858   2.794
    1C        C  742   2.702   2.920   2.914
    1C        C  743   2.746   2.866   3.037
    1C        C  744   2.544   3.070   2.075
    1C        C  745   2.684   2.899   2.188
    1C        C  746   2.601   3.013   2.189
    1C        C  747   2.734   2.842   2.308
    1C        C  748   2.685   2.899   2.427
    1C        C  749   2.735   2.849   2.549
    1C        C  750   2.724   2.832   2.072
    1C        C  751   3.643   2.295   1.996
    1C        O  752   3.649   2.190   2.066
    1C        O  753   3.728   2.297   1.885
    1C        C  754   4.623   3.054   1.978
    1C        O  755   4.611   3.067   1.853
    1C        O  756   4.752   3.025   2.022
    1C        C  757   4.454   4.225   1.980
    1C        O  758   4.521   4.315   2.038
    1C        O  759   4.482   4.210   1.844
    1C        C  760   3.585   4.658   1.941
    1C        O  761   3.534   4.773   1.953
    1C        O  762   3.587   4.606   1.811
    1C        C  763   2.876   4.511   1.968
    1C        O  764   2.841   4.503   1.847
    1C        O  765   2.803   4.615   2.027
    1C        C  766   2.322   3.480   1.978
    1C        O  767   2.316   3.519   1.858
    1C        O  768   2.197   3.477   2.040
    1C        C  769   4.683   3.587   5.067
    1C        O  770   4.658   3.553   5.186
    1C        O  771   4.812   3.637   5.046
    1C        C  772   4.275   4.458   5.039
    1C        O  773   4.257   4.491   5.159
    1C        O  774   4.398   4.513   5.000
    1C        C  775   4.130   2.548   5.096
    1C        O  776   4.244   2.495   5.089
    1C        O  777   4.115   2.618   5.216
    1C        C  778   2.884   4.543   5.048
    1C        O  779   2.787   4.619   5.026
    1C        O  780   2.886   4.511   5.184
    1C        C  781   2.464   3.031   5.059
    1C        O  782   2.344   3.027   5.019
    1C        O  783   2.472   3.027   5.198
    1C        C  784   2.413   4.006   5.052
    1C        O  785   2.293   3.991   5.015
    1C        O  786   2.425   4.001   5.192
    1C        C  787   2.956   2.454   1.974
    1C        O  788   2.946   2.503   1.859
    1C        O  789   2.919   2.321   1.969
    1C        C  790   3.157   2.360   5.040
    1C        O  791   3.104   2.255   4.995
    1C        O  792   3.146   2.370   5.179
    1C        H  793   4.231   3.043   5.029
    1C        H  794   4.138   2.824   5.050
    1C        H  795   4.492   3.126   5.057
    1C        H  796   4.478   3.379   5.060
    1C        H  797   4.596   3.814   5.029
    1C        H  798   4.435   3.983   5.056
    1C        H  799   4.242   4.137   5.035
    1C        H  800   4.030   4.530   5.031
    1C        H  801   3.826   4.607   5.029
    1C        H  802   3.589   4.628   5.038
    1C        H  803   3.406   4.439   5.009
    1C        H  804   3.164   4.523   5.048
    1C        H  805   3.894   2.471   5.063
    1C        H  806   3.680   2.465   5.079
    1C        H  807   3.001   2.549   5.056
    1C        H  808   3.447   2.449   5.075
    1C        H  809   2.847   2.709   5.070
    1C        H  810   2.708   2.900   5.082
    1C        H  811   2.469   3.281   5.060
    1C        H  812   2.595   3.506   5.054
    1C        H  813   2.565   3.730   5.062
    1C        H  814   2.658   4.125   5.042
    1C        H  815   2.760   4.304   5.054
    1C        H  816   2.668   2.846   1.981
    1C        H  817   2.848   2.692   1.977
    1C        H  818   3.206   2.422   1.988
    1C        H  819   3.425   2.431   1.979
    1C        H  820   3.846   2.520   1.971
    1C        H  821   4.071   2.602   1.968
    1C        H  822   4.266   2.703   1.983
    1C        H  823   4.397   2.900   1.972
    1C        H  824   4.634   3.303   1.996
    1C        H  825   4.456   3.514   1.969
    1C        H  826   4.526   3.752   1.955
    1C        H  827   3.807   4.511   1.949
    1C        H  828   4.000   4.431   1.958
    1C        H  829   4.131   4.223   1.957
    1C        H  830   4.469   3.959   1.956
    1C        H  831   2.652   3.832   1.970
    1C        H  832   2.686   4.071   1.960
    1C        H  833   2.716   4.300   1.967
    1C        H  834   3.359   4.529   1.951
    1C        H  835   3.158   4.383   1.961
    1C        H  836   2.523   3.006   1.992
    1C        H  837   2.477   3.248   1.975
    1C        H  838   2.478   3.684   1.969
    2V3OU   H29  839   2.802   3.549   1.962
    2V3OU   C27  840   2.784   3.499   2.061
    2V3OU   H27  841   2.725   3.565   2.130
    2V3OU   H28  842   2.725   3.406   2.039
    2V3OU   O11  843   2.910   3.468   2.121
    2V3OU   C15  844   2.924   3.398   2.239
    2V3OU   C13  845   3.052   3.375   2.293
    2V3OU   C14  846   3.074   3.270   2.383
    2V3OU   C16  847   2.974   3.189   2.436
    2V3OU    H6  848   2.991   3.108   2.507
    2V3OU   C12  849   3.210   3.227   2.423
    2V3OU    O2  850   3.237   3.125   2.489
    2V3OU   C10  851   3.325   3.309   2.381
    2V3OU    C8  852   3.456   3.270   2.404
    2V3OU   O10  853   3.489   3.157   2.471
    2V3OU   H26  854   3.401   3.118   2.485
    2V3OU    C6  855   3.568   3.350   2.363
    2V3OU    C5  856   3.539   3.467   2.294
    2V3OU    C4  857   3.705   3.292   2.355
    2V3OU    H4  858   3.718   3.227   2.446
    2V3OU    H5  859   3.712   3.226   2.264
    2V3OU    C2  860   3.819   3.394   2.352
    2V3OU    O6  861   3.812   3.476   2.469
    2V3OU   H21  862   3.765   3.551   2.429
    2V3OU    C3  863   3.785   3.495   2.242
    2V3OU    H2  864   3.870   3.568   2.241
    2V3OU    H3  865   3.783   3.434   2.148
    2V3OU   C25  866   3.952   3.319   2.341
    2V3OU    O7  867   4.001   3.299   2.230
    2V3OU   C26  868   4.026   3.287   2.469
    2V3OU   H22  869   4.067   3.378   2.520
    2V3OU   H23  870   4.116   3.223   2.446
    2V3OU    O8  871   3.953   3.209   2.561
    2V3OU   H24  872   3.929   3.268   2.634
    2V3OU    C1  873   3.648   3.561   2.251
    2V3OU    H1  874   3.625   3.616   2.155
    2V3OU    O3  875   3.655   3.652   2.361
    2V3OU   C19  876   3.620   3.790   2.361
    2V3OU    H9  877   3.524   3.805   2.303
    2V3OU    O4  878   3.712   3.850   2.272
    2V3OU   C20  879   3.844   3.871   2.324
    2V3OU   H10  880   3.895   3.772   2.342
    2V3OU   C24  881   3.606   3.857   2.498
    2V3OU   H16  882   3.545   3.795   2.569
    2V3OU   H17  883   3.561   3.959   2.488
    2V3OU   C23  884   3.748   3.874   2.553
    2V3OU   H15  885   3.790   3.770   2.576
    2V3OU    N1  886   3.732   3.956   2.672
    2V3OU   H19  887   3.790   3.918   2.744
    2V3OU   H20  888   3.641   3.932   2.706
    2V3OU   C21  889   3.849   3.945   2.458
    2V3OU   H11  890   3.950   3.930   2.506
    2V3OU    O5  891   3.828   4.086   2.458
    2V3OU   H18  892   3.792   4.100   2.547
    2V3OU   C22  893   3.909   3.949   2.211
    2V3OU   H12  894   3.856   4.046   2.195
    2V3OU   H13  895   3.902   3.891   2.115
    2V3OU   H14  896   4.019   3.956   2.226
    2V3OU   C11  897   3.161   3.471   2.269
    2V3OU    O1  898   3.143   3.590   2.236
    2V3OU    C9  899   3.296   3.432   2.316
    2V3OU    C7  900   3.404   3.508   2.272
    2V3OU    O9  901   3.386   3.615   2.187
    2V3OU   H25  902   3.291   3.625   2.170
    2V3OU   C17  903   2.822   3.315   2.290
    2V3OU    H7  904   2.726   3.342   2.246
    2V3OU   C18  905   2.848   3.215   2.383
    2V3OU    H8  906   2.769   3.160   2.435
    3SOL     OW  907   3.489   4.707   0.965
    3SOL    HW1  908   3.436   4.669   1.041
    3SOL    HW2  909   3.428   4.733   0.891
    4SOL     OW  910   6.681   5.682   1.688
    4SOL    HW1  911   6.699   5.597   1.638
    4SOL    HW2  912   6.589   5.715   1.665
    5SOL     OW  913   4.646   1.181   2.545
    5SOL    HW1  914   4.558   1.228   2.533
    5SOL    HW2  915   4.630   1.090   2.582
    6SOL     OW  916   4.151   1.478   1.156
    6SOL    HW1  917   4.188   1.561   1.115
    6SOL    HW2  918   4.053   1.488   1.172
    7SOL     OW  919   6.993   3.714   2.441
    7SOL    HW1  920   6.987   3.810   2.412
    7SOL    HW2  921   6.903   3.671   2.433
    8SOL     OW  922   2.658   0.371   6.510
    8SOL    HW1  923   2.718   0.338   6.437
    8SOL    HW2  924   2.605   0.295   6.548
    9SOL     OW  925   6.756   5.917   6.642
    9SOL    HW1  926   6.854   5.927   6.621
    9SOL    HW2  927   6.702   5.965   6.572
   10SOL     OW  928   1.000   5.130   6.261
   10SOL    HW1  929   0.941   5.211   6.266
   10SOL    HW2  930   1.086   5.154   6.216
   11SOL     OW  931   2.614   0.534   6.731
   11SOL    HW1  932   2.683   0.605   6.746
   11SOL    HW2  933   2.635   0.484   6.647
   12SOL     OW  934   3.705   6.515   3.857
   12SOL    HW1  935   3.723   6.517   3.955
   12SOL    HW2  936   3.611   6.544   3.840
   13SOL     OW  937   3.444   5.576   3.694
   13SOL    HW1  938   3.425   5.671   3.669
   13SOL    HW2  939   3.479   5.571   3.787
   14SOL     OW  940   4.703   4.957   5.701
   14SOL    HW1  941   4.788   4.932   5.654
   14SOL    HW2  942   4.725   5.011   5.782
   15SOL     OW  943   1.487   5.829   1.619
   15SOL    HW1  944   1.459   5.770   1.543
   15SOL    HW2  945   1.484   5.925   1.589
   16SOL     OW  946   5.449   2.960   5.745
   16SOL    HW1  947   5.521   3.017   5.704
   16SOL    HW2  948   5.468   2.864   5.725
   17SOL     OW  949   5.154   6.044   5.198
   17SOL    HW1  950   5.244   6.002   5.209
   17SOL    HW2  951   5.106   6.046   5.286
   18SOL     OW  952   3.327   0.944   6.037
   18SOL    HW1  953   3.268   0.867   6.013
   18SOL    HW2  954   3.381   0.969   5.957
   19SOL     OW  955   0.380   0.351   3.369
   19SOL    HW1  956   0.339   0.438   3.342
   19SOL    HW2  957   0.465   0.368   3.419
   20SOL     OW  958   5.255   2.780   4.450
   20SOL    HW1  959   5.353   2.757   4.449
   20SOL    HW2  960   5.223   2.794   4.357
   21SOL     OW  961   3.073   2.112   2.406
   21SOL    HW1  962   3.007   2.146   2.339
   21SOL    HW2  963   3.160   2.093   2.361
   22SOL     OW  964   2.055   6.769   6.824
   22SOL    HW1  965   2.116   6.836   6.782
   22SOL    HW2  966   2.005   6.812   6.899
   23SOL     OW  967   4.781   6.559   2.950
   23SOL    HW1  968   4.719   6.561   2.872
   23SOL    HW2  969   4.810   6.652   2.972
   24SOL     OW  970   4.642   1.041   3.433
   24SOL    HW1  971   4.591   1.126   3.417
   24SOL    HW2  972   4.609   0.970   3.371
   25SOL     OW  973   3.154   0.287   5.222
   25SOL    HW1  974   3.214   0.340   5.161
   25SOL    HW2  975   3.059   0.299   5.194
   26SOL     OW  976   6.918   0.603   0.695
   26SOL    HW1  977   7.016   0.621   0.684
   26SOL    HW2  978   6.903   0.504   0.703
   27SOL     OW  979   1.194   1.263   1.862
   27SOL    HW1  980   1.110   1.234   1.908
   27SOL    HW2  981   1.185   1.248   1.764
   28SOL     OW  982   3.790   1.408   6.539
   28SOL    HW1  983   3.836   1.320   6.556
   28SOL    HW2  984   3.857   1.482   6.543
   29SOL     OW  985   4.651   2.629   2.039
   29SOL    HW1  986   4.605   2.553   2.086
   29SOL    HW2  987   4.693   2.689   2.107
   30SOL     OW  988   3.660   1.469   4.219
   30SOL    HW1  989   3.596   1.546   4.228
   30SOL    HW2  990   3.702   1.472   4.129
   31SOL     OW  991   0.762   2.719   6.096
   31SOL    HW1  992   0.676   2.668   6.100
   31SOL    HW2  993   0.758   2.784   6.020
   32SOL     OW  994   0.300   1.457   3.242
   32SOL    HW1  995   0.339   1.473   3.151
   32SOL    HW2  996   0.342   1.519   3.308
   33SOL     OW  997   2.339   3.851   6.706
   33SOL    HW1  998   2.382   3.789   6.772
   33SOL    HW2  999   2.391   3.937   6.703
   34SOL     OW 1000   2.420   1.454   3.952
   34SOL    HW1 1001   2.427   1.537   4.007
   34SOL    HW2 1002   2.323   1.431   3.938
   35SOL     OW 1003   3.406   3.207   6.589
   35SOL    HW1 1004   3.468   3.142   6.632
   35SOL    HW2 1005   3.421   3.206   6.490
   36SOL     OW 1006   5.889   0.826   5.733
   36SOL    HW1 1007   5.825   0.771   5.787
   36SOL    HW2 1008   5.977   0.779   5.728
   37SOL     OW 1009   0.902   0.638   0.462
   37SOL    HW1 1010   0.891   0.641   0.561
   37SOL    HW2 1011   0.933   0.546   0.435
   38SOL     OW 1012   0.388   4.844   2.810
   38SOL    HW1 1013   0.319   4.787   2.766
   38SOL    HW2 1014   0.349   4.886   2.892
   39SOL     OW 1015   0.063   5.409   6.932
   39SOL    HW1 1016   7.004   5.439   6.883
   39SOL    HW2 1017   0.040   5.333   6.992
   40SOL     OW 1018   5.249   2.247   1.834
   40SOL    HW1 1019   5.149   2.251   1.839
   40SOL    HW2 1020   5.278   2.240   1.738
   41SOL     OW 1021   6.807   6.263   4.346
   41SOL    HW1 1022   6.872   6.216   4.406
   41SOL    HW2 1023   6.853   6.287   4.260
   42SOL     OW 1024   2.416   5.037   5.308
   42SOL    HW1 1025   2.455   4.952   5.343
   42SOL    HW2 1026   2.469   5.115   5.342
   43SOL     OW 1027   5.544   6.540   5.351
   43SOL    HW1 1028   5.453   6.499   5.353
   43SOL    HW2 1029   5.536   6.637   5.328
   44SOL     OW 1030   5.577   1.676   6.752
   44SOL    HW1 1031   5.483   1.652   6.726
   44SOL    HW2 1032   5.630   1.593   6.768
   45SOL     OW 1033   3.496   6.842   3.134
   45SOL    HW1 1034   3.521   6.939   3.132
   45SOL    HW2 1035   3.548   6.796   3.206
   46SOL     OW 1036   0.656   3.551   3.111
   46SOL    HW1 1037   0.702   3.466   3.138
   46SOL    HW2 1038   0.647   3.553   3.011
   47SOL     OW 1039   5.170   4.824   1.534
   47SOL    HW1 1040   5.133   4.786   1.619
   47SOL    HW2 1041   5.164   4.755   1.462
   48SOL     OW 1042   6.608   2.690   5.772
   48SOL    HW1 1043   6.612   2.622   5.846
   48SOL    HW2 1044   6.700   2.711   5.741
   49SOL     OW 1045   5.061   3.968   1.927
   49SOL    HW1 1046   5.108   3.890   1.969
   49SOL    HW2 1047   4.992   3.934   1.863
   50SOL     OW 1048   6.255   2.071   5.321
   50SOL    HW1 1049   6.179   2.136   5.309
   50SOL    HW2 1050   6.244   1.995   5.256
   51SOL     OW 1051   3.036   6.483   2.557
   51SOL    HW1 1052   3.013   6.473   2.654
   51SOL    HW2 1053   3.109   6.551   2.547
   52SOL     OW 1054   4.973   2.015   3.319
   52SOL    HW1 1055   5.016   1.927   3.299
   52SOL    HW2 1056   4.877   2.011   3.294
   53SOL     OW 1057   3.579   6.658   4.684
   53SOL    HW1 1058   3.661   6.702   4.720
   53SOL    HW2 1059   3.501   6.720   4.693
   54SOL     OW 1060   3.840   4.913   0.986
   54SOL    HW1 1061   3.819   4.885   0.892
   54SOL    HW2 1062   3.805   4.845   1.050
   55SOL     OW 1063   2.938   1.571   6.273
   55SOL    HW1 1064   2.983   1.539   6.356
   55SOL    HW2 1065   2.990   1.647   6.234
   56SOL     OW 1066   0.413   0.717   1.433
   56SOL    HW1 1067   0.405   0.671   1.521
   56SOL    HW2 1068   0.398   0.815   1.445
   57SOL     OW 1069   5.477   0.766   1.033
   57SOL    HW1 1070   5.551   0.754   1.100
   57SOL    HW2 1071   5.516   0.795   0.946
   58SOL     OW 1072   6.410   6.784   6.043
   58SOL    HW1 1073   6.493   6.840   6.033
   58SOL    HW2 1074   6.415   6.706   5.981
   59SOL     OW 1075   0.863   1.776   5.871
   59SOL    HW1 1076   0.881   1.707   5.801
   59SOL    HW2 1077   0.944   1.789   5.927
   60SOL     OW 1078   5.305   1.305   5.926
   60SOL    HW1 1079   5.244   1.226   5.919
   60SOL    HW2 1080   5.296   1.346   6.017
   61SOL     OW 1081   5.151   2.129   4.814
   61SOL    HW1 1082   5.069   2.088   4.855
   61SOL    HW2 1083   5.177   2.211   4.865
   62SOL     OW 1084   0.078   1.038   2.591
   62SOL    HW1 1085   0.051   1.121   2.640
   62SOL    HW2 1086   0.159   0.999   2.634
   63SOL     OW 1087   5.408   1.219   4.039
   63SOL    HW1 1088   5.351   1.277   3.981
   63SOL    HW2 1089   5.481   1.178   3.984
   64SOL     OW 1090   0.252   3.679   5.885
   64SOL    HW1 1091   0.210   3.719   5.804
   64SOL    HW2 1092   0.195   3.604   5.918
   65SOL     OW 1093   0.045   4.909   5.650
   65SOL    HW1 1094   6.975   4.930   5.682
   65SOL    HW2 1095   0.081   4.831   5.702
   66SOL     OW 1096   3.630   0.750   5.673
   66SOL    HW1 1097   3.587   0.667   5.708
   66SOL    HW2 1098   3.646   0.814   5.748
   67SOL     OW 1099   5.587   4.356   5.775
   67SOL    HW1 1100   5.615   4.313   5.689
   67SOL    HW2 1101   5.489   4.341   5.790
   68SOL     OW 1102   5.717   0.472   6.955
   68SOL    HW1 1103   5.681   0.469   0.026
   68SOL    HW2 1104   5.715   0.566   6.922
   69SOL     OW 1105   0.675   3.926   5.746
   69SOL    HW1 1106   0.685   3.839   5.794
   69SOL    HW2 1107   0.709   4.000   5.804
   70SOL     OW 1108   5.780   4.803   4.666
   70SOL    HW1 1109   5.779   4.714   4.622
   70SOL    HW2 1110   5.801   4.793   4.763
   71SOL     OW 1111   3.992   1.745   3.246
   71SOL    HW1 1112   4.082   1.720   3.281
   71SOL    HW2 1113   3.946   1.663   3.211
   72SOL     OW 1114   2.453   6.421   4.361
   72SOL    HW1 1115   2.390   6.374   4.300
   72SOL    HW2 1116   2.449   6.520   4.344
   73SOL     OW 1117   3.041   1.051   0.970
   73SOL    HW1 1118   3.025   0.966   0.919
   73SOL    HW2 1119   3.053   1.126   0.906
   74SOL     OW 1120   5.311   6.715   6.862
   74SOL    HW1 1121   5.212   6.705   6.855
   74SOL    HW2 1122   5.354   6.662   6.788
   75SOL     OW 1123   3.714   0.000   0.024
   75SOL    HW1 1124   3.651   0.068   7.010
   75SOL    HW2 1125   3.778   6.995   6.976
   76SOL     OW 1126   2.650   2.831   0.859
   76SOL    HW1 1127   2.579   2.780   0.907
   76SOL    HW2 1128   2.612   2.870   0.775
   77SOL     OW 1129   6.528   6.562   3.350
   77SOL    HW1 1130   6.512   6.464   3.355
   77SOL    HW2 1131   6.558   6.586   3.257
   78SOL     OW 1132   5.799   0.724   6.847
   78SOL    HW1 1133   5.897   0.729   6.826
   78SOL    HW2 1134   5.780   0.779   6.928
   79SOL     OW 1135   3.061   6.018   0.319
   79SOL    HW1 1136   3.020   5.967   0.243
   79SOL    HW2 1137   3.121   5.957   0.371
   80SOL     OW 1138   5.206   1.951   3.745
   80SOL    HW1 1139   5.195   2.040   3.790
   80SOL    HW2 1140   5.125   1.931   3.691
   81SOL     OW 1141   2.157   6.993   3.070
   81SOL    HW1 1142   2.084   0.031   3.039
   81SOL    HW2 1143   2.245   0.014   3.057
   82SOL     OW 1144   6.648   5.160   1.013
   82SOL    HW1 1145   6.644   5.099   0.934
   82SOL    HW2 1146   6.557   5.167   1.055
   83SOL     OW 1147   0.147   0.754   0.612
   83SOL    HW1 1148   0.136   0.850   0.638
   83SOL    HW2 1149   0.244   0.730   0.613
   84SOL     OW 1150   5.689   2.635   3.423
   84SOL    HW1 1151   5.721   2.690   3.500
   84SOL    HW2 1152   5.667   2.694   3.346
   85SOL     OW 1153   1.898   2.036   4.245
   85SOL    HW1 1154   1.971   2.040   4.177
   85SOL    HW2 1155   1.812   2.066   4.203
   86SOL     OW 1156   6.944   0.583   4.989
   86SOL    HW1 1157   6.942   0.579   4.889
   86SOL    HW2 1158   6.974   0.674   5.018
   87SOL     OW 1159   5.289   3.532   0.508
   87SOL    HW1 1160   5.379   3.491   0.495
   87SOL    HW2 1161   5.230   3.509   0.430
   88SOL     OW 1162   3.429   1.702   6.163
   88SOL    HW1 1163   3.425   1.781   6.101
   88SOL    HW2 1164   3.523   1.668   6.167
   89SOL     OW 1165   1.097   2.496   5.684
   89SOL    HW1 1166   1.079   2.593   5.699
   89SOL    HW2 1167   1.119   2.482   5.587
   90SOL     OW 1168   3.843   5.909   1.974
   90SOL    HW1 1169   3.856   5.821   1.928
   90SOL    HW2 1170   3.818   5.893   2.069
   91SOL     OW 1171   4.637   4.388   4.902
   91SOL    HW1 1172   4.666   4.350   4.990
   91SOL    HW2 1173   4.549   4.432   4.912
   92SOL     OW 1174   4.072   4.701   0.472
   92SOL    HW1 1175   4.112   4.718   0.381
   92SOL    HW2 1176   4.022   4.782   0.502
   93SOL     OW 1177   2.846   4.116   6.562
   93SOL    HW1 1178   2.784   4.045   6.529
   93SOL    HW2 1179   2.938   4.098   6.527
   94SOL     OW 1180   2.152   6.033   6.043
   94SOL    HW1 1181   2.246   6.013   6.020
   94SOL    HW2 1182   2.105   6.072   5.964
   95SOL     OW 1183   1.229   0.498   3.211
   95SOL    HW1 1184   1.304   0.431   3.202
   95SOL    HW2 1185   1.148   0.463   3.164
   96SOL     OW 1186   3.115   0.165   5.453
   96SOL    HW1 1187   3.060   0.085   5.428
   96SOL    HW2 1188   3.126   0.224   5.374
   97SOL     OW 1189   2.097   3.119   5.863
   97SOL    HW1 1190   2.094   3.034   5.810
   97SOL    HW2 1191   2.051   3.191   5.812
   98SOL     OW 1192   6.920   3.214   0.982
   98SOL    HW1 1193   6.991   3.285   0.987
   98SOL    HW2 1194   6.840   3.244   1.034
   99SOL     OW 1195   4.053   3.608   0.915
   99SOL    HW1 1196   4.024   3.594   1.009
   99SOL    HW2 1197   4.038   3.704   0.889
  100SOL     OW 1198   6.747   0.029   5.023
  100SOL    HW1 1199   6.784   0.091   4.953
  100SOL    HW2 1200   6.822   7.001   5.065
  101SOL     OW 1201   2.019   5.289   2.269
  101SOL    HW1 1202   2.054   5.266   2.359
  101SOL    HW2 1203   2.076   5.361   2.229
  102SOL     OW 1204   3.923   6.389   2.688
  102SOL    HW1 1205   3.946   6.485   2.700
  102SOL    HW2 1206   3.946   6.360   2.595
  103SOL     OW 1207   2.489   1.211   2.170
  103SOL    HW1 1208   2.558   1.183   2.236
  103SOL    HW2 1209   2.529   1.210   2.078
  104SOL     OW 1210   0.598   5.550   2.907
  104SOL    HW1 1211   0.512   5.551   2.855
  104SOL    HW2 1212   0.595   5.475   2.973
  105SOL     OW 1213   6.687   2.634   6.868
  105SOL    HW1 1214   6.664   2.548   6.824
  105SOL    HW2 1215   6.607   2.668   6.918
  106SOL     OW 1216   3.385   6.207   5.090
  106SOL    HW1 1217   3.321   6.137   5.058
  106SOL    HW2 1218   3.468   6.163   5.123
  107SOL     OW 1219   2.184   1.091   1.164
  107SOL    HW1 1220   2.164   1.189   1.171
  107SOL    HW2 1221   2.162   1.059   1.071
  108SOL     OW 1222   3.582   5.017   5.825
  108SOL    HW1 1223   3.638   4.947   5.780
  108SOL    HW2 1224   3.578   5.098   5.767
  109SOL     OW 1225   6.817   0.542   1.845
  109SOL    HW1 1226   6.831   0.447   1.815
  109SOL    HW2 1227   6.878   0.562   1.921
  110SOL     OW 1228   3.343   5.651   5.040
  110SOL    HW1 1229   3.244   5.658   5.026
  110SOL    HW2 1230   3.361   5.618   5.132
  111SOL     OW 1231   2.483   1.273   4.287
  111SOL    HW1 1232   2.509   1.362   4.325
  111SOL    HW2 1233   2.539   1.254   4.206
  112SOL     OW 1234   4.752   6.684   6.403
  112SOL    HW1 1235   4.835   6.634   6.379
  112SOL    HW2 1236   4.737   6.758   6.338
  113SOL     OW 1237   6.056   6.438   2.936
  113SOL    HW1 1238   5.958   6.421   2.944
  113SOL    HW2 1239   6.104   6.351   2.926
  114SOL     OW 1240   0.359   0.125   1.340
  114SOL    HW1 1241   0.345   0.187   1.263
  114SOL    HW2 1242   0.319   0.036   1.320
  115SOL     OW 1243   4.196   1.541   3.334
  115SOL    HW1 1244   4.120   1.494   3.379
  115SOL    HW2 1245   4.206   1.508   3.241
  116SOL     OW 1246   5.686   4.849   1.376
  116SOL    HW1 1247   5.733   4.936   1.390
  116SOL    HW2 1248   5.590   4.859   1.401
  117SOL     OW 1249   1.226   1.799   0.624
  117SOL    HW1 1250   1.227   1.731   0.698
  117SOL    HW2 1251   1.137   1.845   0.622
  118SOL     OW 1252   1.670   0.888   3.608
  118SOL    HW1 1253   1.671   0.987   3.615
  118SOL    HW2 1254   1.679   0.848   3.699
  119SOL     OW 1255   0.431   1.219   0.255
  119SOL    HW1 1256   0.414   1.309   0.214
  119SOL    HW2 1257   0.474   1.159   0.188
  120SOL     OW 1258   6.452   6.905   6.941
  120SOL    HW1 1259   6.528   6.918   6.878
  120SOL    HW2 1260   6.371   6.951   6.906
  121SOL     OW 1261   1.916   3.720   6.160
  121SOL    HW1 1262   1.924   3.669   6.074
  121SOL    HW2 1263   1.819   3.736   6.180
  122SOL     OW 1264   2.171   3.741   6.485
  122SOL    HW1 1265   2.209   3.777   6.571
  122SOL    HW2 1266   2.173   3.814   6.416
  123SOL     OW 1267   0.503   0.817   2.313
  123SOL    HW1 1268   0.403   0.809   2.322
  123SOL    HW2 1269   0.527   0.911   2.289
  124SOL     OW 1270   4.388   3.077   0.899
  124SOL    HW1 1271   4.423   2.984   0.911
  124SOL    HW2 1272   4.361   3.115   0.988
  125SOL     OW 1273   3.233   1.759   1.513
  125SOL    HW1 1274   3.264   1.850   1.542
  125SOL    HW2 1275   3.280   1.689   1.566
  126SOL     OW 1276   2.791   4.026   0.906
  126SOL    HW1 1277   2.732   4.009   0.827
  126SOL    HW2 1278   2.883   3.994   0.886
  127SOL     OW 1279   0.732   5.421   6.954
  127SOL    HW1 1280   0.697   5.372   6.874
  127SOL    HW2 1281   0.789   5.359   7.008
  128SOL     OW 1282   5.176   3.073   1.466
  128SOL    HW1 1283   5.202   3.144   1.401
  128SOL    HW2 1284   5.160   2.987   1.418
  129SOL     OW 1285   2.222   3.169   6.123
  129SOL    HW1 1286   2.156   3.132   6.057
  129SOL    HW2 1287   2.268   3.095   6.170
  130SOL     OW 1288   0.926   2.152   4.034
  130SOL    HW1 1289   0.908   2.249   4.018
  130SOL    HW2 1290   0.987   2.118   3.962
  131SOL     OW 1291   5.374   1.752   3.785
  131SOL    HW1 1292   5.377   1.713   3.877
  131SOL    HW2 1293   5.306   1.824   3.781
  132SOL     OW 1294   2.234   2.027   1.189
  132SOL    HW1 1295   2.169   2.051   1.116
  132SOL    HW2 1296   2.326   2.054   1.161
  133SOL     OW 1297   4.984   6.676   3.630
  133SOL    HW1 1298   5.052   6.624   3.680
  133SOL    HW2 1299   4.934   6.736   3.693
  134SOL     OW 1300   6.794   1.309   2.657
  134SOL    HW1 1301   6.884   1.288   2.695
  134SOL    HW2 1302   6.726   1.247   2.696
  135SOL     OW 1303   5.733   3.985   3.668
  135SOL    HW1 1304   5.664   4.033   3.613
  135SOL    HW2 1305   5.800   4.051   3.702
  136SOL     OW 1306   3.420   3.852   5.877
  136SOL    HW1 1307   3.353   3.834   5.949
  136SOL    HW2 1308   3.490   3.914   5.912
  137SOL     OW 1309   5.607   2.022   4.666
  137SOL    HW1 1310   5.587   2.067   4.579
  137SOL    HW2 1311   5.525   2.024   4.724
  138SOL     OW 1312   1.018   4.094   2.502
  138SOL    HW1 1313   0.958   4.100   2.422
  138SOL    HW2 1314   0.975   4.140   2.579
  139SOL     OW 1315   2.022   0.012   4.563
  139SOL    HW1 1316   1.940   0.021   4.506
  139SOL    HW2 1317   2.102   7.021   4.505
  140SOL     OW 1318   0.772   5.760   2.854
  140SOL    HW1 1319   0.695   5.699   2.872
  140SOL    HW2 1320   0.841   5.712   2.799
  141SOL     OW 1321   6.485   3.269   5.230
  141SOL    HW1 1322   6.525   3.191   5.183
  141SOL    HW2 1323   6.458   3.243   5.322
  142SOL     OW 1324   1.021   4.000   0.961
  142SOL    HW1 1325   1.055   4.090   0.934
  142SOL    HW2 1326   1.099   3.938   0.975
  143SOL     OW 1327   6.237   4.012   1.271
  143SOL    HW1 1328   6.253   3.926   1.318
  143SOL    HW2 1329   6.208   3.995   1.177
  144SOL     OW 1330   1.053   6.619   5.760
  144SOL    HW1 1331   1.033   6.553   5.832
  144SOL    HW2 1332   1.097   6.572   5.683
  145SOL     OW 1333   6.800   5.559   0.217
  145SOL    HW1 1334   6.810   5.477   0.160
  145SOL    HW2 1335   6.717   5.552   0.271
  146SOL     OW 1336   4.707   0.254   6.863
  146SOL    HW1 1337   4.798   0.256   6.822
  146SOL    HW2 1338   4.687   0.161   6.895
  147SOL     OW 1339   6.369   3.554   6.200
  147SOL    HW1 1340   6.314   3.522   6.277
  147SOL    HW2 1341   6.423   3.634   6.227
  148SOL     OW 1342   6.798   5.700   6.378
  148SOL    HW1 1343   6.855   5.769   6.421
  148SOL    HW2 1344   6.705   5.706   6.415
  149SOL     OW 1345   2.995   1.642   4.179
  149SOL    HW1 1346   2.951   1.711   4.122
  149SOL    HW2 1347   2.988   1.553   4.134
  150SOL     OW 1348   5.752   5.643   6.767
  150SOL    HW1 1349   5.706   5.724   6.729
  150SOL    HW2 1350   5.812   5.604   6.698
  151SOL     OW 1351   2.898   2.020   0.703
  151SOL    HW1 1352   2.850   2.056   0.782
  151SOL    HW2 1353   2.991   1.992   0.730
  152SOL     OW 1354   1.323   1.082   2.389
  152SOL    HW1 1355   1.248   1.026   2.423
  152SOL    HW2 1356   1.401   1.023   2.366
  153SOL     OW 1357   2.832   0.622   1.649
  153SOL    HW1 1358   2.781   0.559   1.708
  153SOL    HW2 1359   2.905   0.666   1.703
  154SOL     OW 1360   0.577   2.201   2.453
  154SOL    HW1 1361   0.646   2.269   2.480
  154SOL    HW2 1362   0.616   2.140   2.383
  155SOL     OW 1363   6.817   1.668   3.243
  155SOL    HW1 1364   6.787   1.683   3.149
  155SOL    HW2 1365   6.738   1.645   3.300
  156SOL     OW 1366   0.222   2.224   0.824
  156SOL    HW1 1367   0.177   2.205   0.737
  156SOL    HW2 1368   0.319   2.241   0.809
  157SOL     OW 1369   5.683   3.035   1.599
  157SOL    HW1 1370   5.644   3.127   1.606
  157SOL    HW2 1371   5.664   2.985   1.683
  158SOL     OW 1372   2.313   5.311   2.609
  158SOL    HW1 1373   2.403   5.310   2.566
  158SOL    HW2 1374   2.246   5.271   2.547
  159SOL     OW 1375   4.472   4.818   2.186
  159SOL    HW1 1376   4.408   4.895   2.179
  159SOL    HW2 1377   4.444   4.745   2.123
  160SOL     OW 1378   5.577   5.389   0.398
  160SOL    HW1 1379   5.569   5.378   0.299
  160SOL    HW2 1380   5.586   5.300   0.441
  161SOL     OW 1381   2.027   5.633   3.845
  161SOL    HW1 1382   2.031   5.700   3.771
  161SOL    HW2 1383   2.070   5.548   3.816
  162SOL     OW 1384   3.691   5.627   0.185
  162SOL    HW1 1385   3.643   5.552   0.139
  162SOL    HW2 1386   3.638   5.658   0.264
  163SOL     OW 1387   5.821   5.590   0.952
  163SOL    HW1 1388   5.760   5.551   1.022
  163SOL    HW2 1389   5.789   5.564   0.861
  164SOL     OW 1390   6.766   4.731   0.404
  164SOL    HW1 1391   6.677   4.686   0.405
  164SOL    HW2 1392   6.824   4.689   0.334
  165SOL     OW 1393   4.932   3.074   1.592
  165SOL    HW1 1394   5.021   3.079   1.548
  165SOL    HW2 1395   4.880   2.997   1.555
  166SOL     OW 1396   0.019   4.278   2.828
  166SOL    HW1 1397   7.007   4.185   2.831
  166SOL    HW2 1398   0.054   4.298   2.737
  167SOL     OW 1399   5.028   2.893   0.821
  167SOL    HW1 1400   5.084   2.932   0.895
  167SOL    HW2 1401   5.006   2.965   0.755
  168SOL     OW 1402   2.406   3.121   1.304
  168SOL    HW1 1403   2.388   3.123   1.403
  168SOL    HW2 1404   2.355   3.194   1.259
  169SOL     OW 1405   4.756   1.245   1.581
  169SOL    HW1 1406   4.723   1.158   1.541
  169SOL    HW2 1407   4.738   1.319   1.517
  170SOL     OW 1408   1.644   1.158   3.428
  170SOL    HW1 1409   1.738   1.193   3.425
  170SOL    HW2 1410   1.630   1.097   3.350
  171SOL     OW 1411   3.987   4.218   6.723
  171SOL    HW1 1412   4.048   4.169   6.786
  171SOL    HW2 1413   3.915   4.264   6.776
  172SOL     OW 1414   6.171   2.039   3.296
  172SOL    HW1 1415   6.104   2.102   3.338
  172SOL    HW2 1416   6.219   1.989   3.368
  173SOL     OW 1417   6.675   1.897   4.506
  173SOL    HW1 1418   6.654   1.934   4.415
  173SOL    HW2 1419   6.683   1.798   4.501
  174SOL     OW 1420   3.689   5.211   3.615
  174SOL    HW1 1421   3.782   5.201   3.579
  174SOL    HW2 1422   3.647   5.121   3.624
  175SOL     OW 1423   2.389   0.217   1.586
  175SOL    HW1 1424   2.446   0.143   1.552
  175SOL    HW2 1425   2.317   0.237   1.520
  176SOL     OW 1426   0.829   4.396   0.671
  176SOL    HW1 1427   0.841   4.494   0.660
  176SOL    HW2 1428   0.909   4.348   0.634
  177SOL     OW 1429   5.863   3.130   3.086
  177SOL    HW1 1430   5.827   3.039   3.109
  177SOL    HW2 1431   5.791   3.184   3.043
  178SOL     OW 1432   2.530   2.716   6.985
  178SOL    HW1 1433   2.526   2.661   0.046
  178SOL    HW2 1434   2.446   2.702   6.932
  179SOL     OW 1435   3.637   0.891   5.411
  179SOL    HW1 1436   3.542   0.907   5.385
  179SOL    HW2 1437   3.639   0.840   5.497
  180SOL     OW 1438   1.821   6.822   0.327
  180SOL    HW1 1439   1.756   6.898   0.320
  180SOL    HW2 1440   1.914   6.856   0.317
  181SOL     OW 1441   3.553   2.862   6.338
  181SOL    HW1 1442   3.643   2.880   6.297
  181SOL    HW2 1443   3.483   2.860   6.267
  182SOL     OW 1444   3.858   1.579   5.015
  182SOL    HW1 1445   3.850   1.676   4.995
  182SOL    HW2 1446   3.888   1.530   4.933
  183SOL     OW 1447   3.688   2.068   3.216
  183SOL    HW1 1448   3.661   2.115   3.300
  183SOL    HW2 1449   3.738   2.131   3.156
  184SOL     OW 1450   1.512   6.376   4.491
  184SOL    HW1 1451   1.499   6.278   4.476
  184SOL    HW2 1452   1.518   6.423   4.403
  185SOL     OW 1453   0.197   1.613   6.176
  185SOL    HW1 1454   0.131   1.540   6.157
  185SOL    HW2 1455   0.290   1.578   6.167
  186SOL     OW 1456   5.711   0.714   4.721
  186SOL    HW1 1457   5.656   0.630   4.712
  186SOL    HW2 1458   5.695   0.773   4.642
  187SOL     OW 1459   4.223   6.910   3.102
  187SOL    HW1 1460   4.190   6.829   3.054
  187SOL    HW2 1461   4.161   6.930   3.179
  188SOL     OW 1462   0.507   1.794   3.129
  188SOL    HW1 1463   0.599   1.766   3.103
  188SOL    HW2 1464   0.512   1.857   3.207
  189SOL     OW 1465   2.103   5.288   1.542
  189SOL    HW1 1466   2.009   5.279   1.510
  189SOL    HW2 1467   2.103   5.308   1.640
  190SOL     OW 1468   5.387   1.988   4.877
  190SOL    HW1 1469   5.408   1.916   4.943
  190SOL    HW2 1470   5.289   2.007   4.879
  191SOL     OW 1471   6.209   6.303   0.180
  191SOL    HW1 1472   6.188   6.236   0.109
  191SOL    HW2 1473   6.131   6.312   0.242
  192SOL     OW 1474   0.939   6.078   2.144
  192SOL    HW1 1475   0.964   6.001   2.086
  192SOL    HW2 1476   1.004   6.086   2.220
  193SOL     OW 1477   4.933   2.530   5.215
  193SOL    HW1 1478   5.025   2.532   5.254
  193SOL    HW2 1479   4.936   2.486   5.125
  194SOL     OW 1480   3.944   0.332   2.910
  194SOL    HW1 1481   3.881   0.410   2.907
  194SOL    HW2 1482   3.907   0.263   2.972
  195SOL     OW 1483   2.060   0.281   5.222
  195SOL    HW1 1484   2.136   0.218   5.228
  195SOL    HW2 1485   2.018   0.275   5.131
  196SOL     OW 1486   2.874   6.989   0.624
  196SOL    HW1 1487   2.970   6.970   0.646
  196SOL    HW2 1488   2.861   6.989   0.525
  197SOL     OW 1489   2.486   7.016   1.477
  197SOL    HW1 1490   2.512   0.028   1.387
  197SOL    HW2 1491   2.393   6.979   1.473
  198SOL     OW 1492   4.651   0.590   2.700
  198SOL    HW1 1493   4.731   0.530   2.694
  198SOL    HW2 1494   4.640   0.623   2.794
  199SOL     OW 1495   6.833   1.866   3.927
  199SOL    HW1 1496   6.853   1.804   4.003
  199SOL    HW2 1497   6.897   1.849   3.852
  200SOL     OW 1498   1.248   3.844   0.948
  200SOL    HW1 1499   1.332   3.817   0.995
  200SOL    HW2 1500   1.183   3.768   0.952
  201SOL     OW 1501   0.141   0.222   6.160
  201SOL    HW1 1502   0.173   0.274   6.238
  201SOL    HW2 1503   0.166   0.269   6.075
  202SOL     OW 1504   3.690   0.978   6.968
  202SOL    HW1 1505   3.721   1.013   0.034
  202SOL    HW2 1506   3.625   1.043   6.928
  203SOL     OW 1507   5.518   2.297   5.333
  203SOL    HW1 1508   5.530   2.396   5.346
  203SOL    HW2 1509   5.513   2.252   5.422
  204SOL     OW 1510   1.203   0.520   5.222
  204SOL    HW1 1511   1.117   0.567   5.201
  204SOL    HW2 1512   1.195   0.474   5.310
  205SOL     OW 1513   6.972   2.336   3.210
  205SOL    HW1 1514   6.909   2.307   3.282
  205SOL    HW2 1515   6.943   2.298   3.122
  206SOL     OW 1516   0.647   4.466   0.872
  206SOL    HW1 1517   0.563   4.496   0.827
  206SOL    HW2 1518   0.713   4.434   0.803
  207SOL     OW 1519   6.558   1.845   3.495
  207SOL    HW1 1520   6.536   1.919   3.559
  207SOL    HW2 1521   6.526   1.869   3.404
  208SOL     OW 1522   6.706   4.120   5.635
  208SOL    HW1 1523   6.611   4.089   5.628
  208SOL    HW2 1524   6.745   4.090   5.722
  209SOL     OW 1525   0.591   5.531   4.411
  209SOL    HW1 1526   0.649   5.605   4.445
  209SOL    HW2 1527   0.648   5.454   4.383
  210SOL     OW 1528   4.248   1.960   0.852
  210SOL    HW1 1529   4.284   1.883   0.800
  210SOL    HW2 1530   4.273   2.046   0.806
  211SOL     OW 1531   2.010   6.477   2.576
  211SOL    HW1 1532   1.936   6.435   2.629
  211SOL    HW2 1533   2.089   6.493   2.636
  212SOL     OW 1534   0.942   4.224   1.989
  212SOL    HW1 1535   0.968   4.297   1.926
  212SOL    HW2 1536   0.850   4.190   1.964
  213SOL     OW 1537   2.947   0.072   0.354
  213SOL    HW1 1538   2.922   0.134   0.279
  213SOL    HW2 1539   3.001   0.121   0.421
  214SOL     OW 1540   4.164   5.176   2.499
  214SOL    HW1 1541   4.147   5.121   2.580
  214SOL    HW2 1542   4.092   5.159   2.431
  215SOL     OW 1543   2.618   4.002   0.682
  215SOL    HW1 1544   2.659   3.999   0.590
  215SOL    HW2 1545   2.551   3.929   0.691
  216SOL     OW 1546   1.560   5.986   3.767
  216SOL    HW1 1547   1.577   6.035   3.853
  216SOL    HW2 1548   1.636   6.004   3.703
  217SOL     OW 1549   1.327   3.027   4.014
  217SOL    HW1 1550   1.357   2.949   3.961
  217SOL    HW2 1551   1.259   3.079   3.963
  218SOL     OW 1552   0.274   3.245   4.563
  218SOL    HW1 1553   0.247   3.249   4.659
  218SOL    HW2 1554   0.292   3.151   4.537
  219SOL     OW 1555   4.308   0.591   0.375
  219SOL    HW1 1556   4.344   0.520   0.315
  219SOL    HW2 1557   4.216   0.617   0.345
  220SOL     OW 1558   3.237   6.751   1.673
  220SOL    HW1 1559   3.183   6.821   1.721
  220SOL    HW2 1560   3.261   6.679   1.738
  221SOL     OW 1561   6.323   4.209   0.844
  221SOL    HW1 1562   6.250   4.226   0.778
  221SOL    HW2 1563   6.313   4.118   0.883
  222SOL     OW 1564   2.086   4.465   5.638
  222SOL    HW1 1565   2.039   4.390   5.685
  222SOL    HW2 1566   2.034   4.493   5.558
  223SOL     OW 1567   6.574   3.347   6.130
  223SOL    HW1 1568   6.490   3.399   6.142
  223SOL    HW2 1569   6.605   3.312   6.218
  224SOL     OW 1570   2.815   1.749   5.514
  224SOL    HW1 1571   2.749   1.751   5.589
  224SOL    HW2 1572   2.794   1.672   5.454
  225SOL     OW 1573   4.859   3.901   6.526
  225SOL    HW1 1574   4.802   3.981   6.510
  225SOL    HW2 1575   4.811   3.836   6.584
  226SOL     OW 1576   0.823   1.364   5.754
  226SOL    HW1 1577   0.913   1.321   5.763
  226SOL    HW2 1578   0.832   1.454   5.711
  227SOL     OW 1579   1.203   4.018   1.840
  227SOL    HW1 1580   1.122   4.010   1.899
  227SOL    HW2 1581   1.259   4.095   1.869
  228SOL     OW 1582   2.890   0.205   3.877
  228SOL    HW1 1583   2.791   0.200   3.896
  228SOL    HW2 1584   2.936   0.246   3.955
  229SOL     OW 1585   6.183   6.313   6.475
  229SOL    HW1 1586   6.255   6.246   6.494
  229SOL    HW2 1587   6.224   6.395   6.434
  230SOL     OW 1588   3.262   4.954   3.718
  230SOL    HW1 1589   3.230   4.974   3.811
  230SOL    HW2 1590   3.183   4.934   3.660
  231SOL     OW 1591   6.133   1.741   0.001
  231SOL    HW1 1592   6.141   1.832   6.983
  231SOL    HW2 1593   6.152   1.672   6.954
  232SOL     OW 1594   0.592   3.191   6.855
  232SOL    HW1 1595   0.623   3.194   6.759
  232SOL    HW2 1596   0.541   3.275   6.876
  233SOL     OW 1597   3.364   1.233   3.079
  233SOL    HW1 1598   3.366   1.328   3.048
  233SOL    HW2 1599   3.397   1.227   3.173
  234SOL     OW 1600   5.519   0.638   6.421
  234SOL    HW1 1601   5.501   0.712   6.357
  234SOL    HW2 1602   5.450   0.566   6.409
  235SOL     OW 1603   4.458   2.361   1.808
  235SOL    HW1 1604   4.507   2.425   1.749
  235SOL    HW2 1605   4.360   2.381   1.806
  236SOL     OW 1606   5.602   2.574   6.424
  236SOL    HW1 1607   5.526   2.602   6.366
  236SOL    HW2 1608   5.579   2.490   6.473
  237SOL     OW 1609   6.606   4.718   1.689
  237SOL    HW1 1610   6.683   4.657   1.667
  237SOL    HW2 1611   6.592   4.782   1.613
  238SOL     OW 1612   5.561   1.211   0.598
  238SOL    HW1 1613   5.498   1.259   0.538
  238SOL    HW2 1614   5.554   1.248   0.691
  239SOL     OW 1615   0.629   5.226   6.772
  239SOL    HW1 1616   0.549   5.185   6.816
  239SOL    HW2 1617   0.675   5.157   6.716
  240SOL     OW 1618   6.638   3.241   3.349
  240SOL    HW1 1619   6.576   3.168   3.321
  240SOL    HW2 1620   6.720   3.201   3.390
  241SOL     OW 1621   2.856   2.231   5.056
  241SOL    HW1 1622   2.955   2.241   5.066
  241SOL    HW2 1623   2.831   2.135   5.069
  242SOL     OW 1624   4.077   3.716   4.094
  242SOL    HW1 1625   3.982   3.747   4.096
  242SOL    HW2 1626   4.091   3.647   4.164
  243SOL     OW 1627   4.629   0.158   6.320
  243SOL    HW1 1628   4.688   0.234   6.347
  243SOL    HW2 1629   4.586   0.118   6.401
  244SOL     OW 1630   5.847   2.890   5.442
  244SOL    HW1 1631   5.853   2.843   5.530
  244SOL    HW2 1632   5.931   2.941   5.426
  245SOL     OW 1633   5.177   3.129   4.006
  245SOL    HW1 1634   5.082   3.132   3.974
  245SOL    HW2 1635   5.197   3.212   4.058
  246SOL     OW 1636   4.639   2.225   3.264
  246SOL    HW1 1637   4.565   2.292   3.261
  246SOL    HW2 1638   4.720   2.267   3.304
  247SOL     OW 1639   2.978   1.754   0.254
  247SOL    HW1 1640   2.969   1.833   0.315
  247SOL    HW2 1641   2.968   1.784   0.159
  248SOL     OW 1642   3.980   1.437   2.319
  248SOL    HW1 1643   4.020   1.370   2.382
  248SOL    HW2 1644   3.968   1.524   2.365
  249SOL     OW 1645   4.211   0.401   4.920
  249SOL    HW1 1646   4.205   0.391   5.020
  249SOL    HW2 1647   4.255   0.320   4.882
  250SOL     OW 1648   4.913   3.061   0.639
  250SOL    HW1 1649   4.848   3.127   0.674
  250SOL    HW2 1650   4.986   3.108   0.589
  251SOL     OW 1651   4.815   3.882   5.613
  251SOL    HW1 1652   4.864   3.807   5.568
  251SOL    HW2 1653   4.717   3.868   5.601
  252SOL     OW 1654   6.836   5.674   5.931
  252SOL    HW1 1655   6.800   5.680   5.838
  252SOL    HW2 1656   6.781   5.732   5.992
  253SOL     OW 1657   2.469   4.674   5.873
  253SOL    HW1 1658   2.560   4.695   5.835
  253SOL    HW2 1659   2.446   4.579   5.854
  254SOL     OW 1660   5.885   2.533   4.036
  254SOL    HW1 1661   5.866   2.481   4.120
  254SOL    HW2 1662   5.943   2.479   3.976
  255SOL     OW 1663   1.641   4.878   5.335
  255SOL    HW1 1664   1.554   4.915   5.366
  255SOL    HW2 1665   1.628   4.829   5.248
  256SOL     OW 1666   6.106   3.586   5.889
  256SOL    HW1 1667   6.042   3.514   5.863
  256SOL    HW2 1668   6.200   3.553   5.881
  257SOL     OW 1669   4.985   0.720   3.826
  257SOL    HW1 1670   4.939   0.656   3.765
  257SOL    HW2 1671   5.066   0.757   3.781
  258SOL     OW 1672   2.217   5.269   5.012
  258SOL    HW1 1673   2.124   5.270   4.976
  258SOL    HW2 1674   2.253   5.176   5.009
  259SOL     OW 1675   0.104   1.826   2.632
  259SOL    HW1 1676   0.159   1.743   2.644
  259SOL    HW2 1677   0.159   1.906   2.655
  260SOL     OW 1678   4.337   0.309   1.638
  260SOL    HW1 1679   4.351   0.256   1.722
  260SOL    HW2 1680   4.354   0.406   1.656
  261SOL     OW 1681   6.561   3.188   0.571
  261SOL    HW1 1682   6.603   3.253   0.508
  261SOL    HW2 1683   6.496   3.131   0.521
  262SOL     OW 1684   0.451   3.450   6.863
  262SOL    HW1 1685   0.401   3.517   6.809
  262SOL    HW2 1686   0.518   3.496   6.921
  263SOL     OW 1687   2.068   0.995   4.347
  263SOL    HW1 1688   1.992   1.051   4.315
  263SOL    HW2 1689   2.154   1.034   4.317
  264SOL     OW 1690   5.990   3.562   6.985
  264SOL    HW1 1691   5.907   3.518   6.949
  264SOL    HW2 1692   6.006   3.530   0.056
  265SOL     OW 1693   4.918   6.547   2.596
  265SOL    HW1 1694   4.923   6.615   2.670
  265SOL    HW2 1695   4.830   6.500   2.600
  266SOL     OW 1696   3.441   2.745   5.903
  266SOL    HW1 1697   3.380   2.693   5.963
  266SOL    HW2 1698   3.401   2.751   5.812
  267SOL     OW 1699   0.335   1.343   6.913
  267SOL    HW1 1700   0.246   1.365   6.872
  267SOL    HW2 1701   0.399   1.318   6.840
  268SOL     OW 1702   3.351   0.756   5.745
  268SOL    HW1 1703   3.411   0.698   5.800
  268SOL    HW2 1704   3.365   0.852   5.770
  269SOL     OW 1705   0.725   3.496   1.813
  269SOL    HW1 1706   0.698   3.592   1.808
  269SOL    HW2 1707   0.810   3.482   1.762
  270SOL     OW 1708   1.023   6.678   0.147
  270SOL    HW1 1709   0.961   6.603   0.128
  270SOL    HW2 1710   0.978   6.746   0.204
  271SOL     OW 1711   6.596   1.898   7.003
  271SOL    HW1 1712   6.549   1.956   6.935
  271SOL    HW2 1713   6.538   1.820   0.002
  272SOL     OW 1714   3.721   5.633   4.475
  272SOL    HW1 1715   3.643   5.663   4.420
  272SOL    HW2 1716   3.802   5.688   4.450
  273SOL     OW 1717   1.881   4.613   4.535
  273SOL    HW1 1718   1.929   4.567   4.460
  273SOL    HW2 1719   1.794   4.568   4.552
  274SOL     OW 1720   4.231   2.215   3.287
  274SOL    HW1 1721   4.237   2.153   3.365
  274SOL    HW2 1722   4.194   2.166   3.208
  275SOL     OW 1723   6.053   4.866   4.561
  275SOL    HW1 1724   6.002   4.848   4.476
  275SOL    HW2 1725   6.078   4.780   4.604
  276SOL     OW 1726   6.732   6.845   3.036
  276SOL    HW1 1727   6.827   6.878   3.034
  276SOL    HW2 1728   6.722   6.770   2.971
  277SOL     OW 1729   1.588   4.222   0.181
  277SOL    HW1 1730   1.553   4.305   0.137
  277SOL    HW2 1731   1.544   4.211   0.270
  278SOL     OW 1732   6.729   5.179   1.918
  278SOL    HW1 1733   6.702   5.214   1.828
  278SOL    HW2 1734   6.650   5.140   1.964
  279SOL     OW 1735   6.149   3.446   4.098
  279SOL    HW1 1736   6.077   3.392   4.055
  279SOL    HW2 1737   6.117   3.539   4.115
  280SOL     OW 1738   3.042   6.946   3.312
  280SOL    HW1 1739   3.123   6.935   3.369
  280SOL    HW2 1740   3.006   0.016   3.323
  281SOL     OW 1741   2.512   4.478   1.862
  281SOL    HW1 1742   2.506   4.442   1.769
  281SOL    HW2 1743   2.607   4.495   1.885
  282SOL     OW 1744   3.233   1.727   5.904
  282SOL    HW1 1745   3.227   1.643   5.958
  282SOL    HW2 1746   3.242   1.703   5.807
  283SOL     OW 1747   6.110   1.590   6.327
  283SOL    HW1 1748   6.032   1.611   6.267
  283SOL    HW2 1749   6.089   1.621   6.420
  284SOL     OW 1750   1.428   4.199   3.294
  284SOL    HW1 1751   1.527   4.211   3.300
  284SOL    HW2 1752   1.385   4.286   3.270
  285SOL     OW 1753   6.046   5.021   4.925
  285SOL    HW1 1754   5.967   5.024   4.864
  285SOL    HW2 1755   6.105   5.100   4.906
  286SOL     OW 1756   3.247   5.828   6.050
  286SOL    HW1 1757   3.342   5.825   6.018
  286SOL    HW2 1758   3.189   5.862   5.976
  287SOL     OW 1759   0.907   3.809   0.486
  287SOL    HW1 1760   0.877   3.843   0.575
  287SOL    HW2 1761   0.850   3.850   0.414
  288SOL     OW 1762   3.913   1.007   6.271
  288SOL    HW1 1763   3.844   1.067   6.229
  288SOL    HW2 1764   3.869   0.926   6.308
  289SOL     OW 1765   0.071   4.464   5.363
  289SOL    HW1 1766   0.072   4.551   5.315
  289SOL    HW2 1767   0.071   4.389   5.296
  290SOL     OW 1768   6.391   1.974   4.817
  290SOL    HW1 1769   6.471   2.023   4.783
  290SOL    HW2 1770   6.422   1.898   4.876
  291SOL     OW 1771   1.720   2.291   4.299
  291SOL    HW1 1772   1.702   2.289   4.397
  291SOL    HW2 1773   1.678   2.211   4.256
  292SOL     OW 1774   1.497   2.486   3.365
  292SOL    HW1 1775   1.440   2.526   3.294
  292SOL    HW2 1776   1.485   2.387   3.366
  293SOL     OW 1777   4.130   5.815   2.226
  293SOL    HW1 1778   4.120   5.791   2.130
  293SOL    HW2 1779   4.153   5.912   2.234
  294SOL     OW 1780   0.808   5.728   6.474
  294SOL    HW1 1781   0.812   5.641   6.423
  294SOL    HW2 1782   0.865   5.796   6.428
  295SOL     OW 1783   3.780   1.888   4.114
  295SOL    HW1 1784   3.780   1.810   4.176
  295SOL    HW2 1785   3.720   1.868   4.036
  296SOL     OW 1786   4.239   1.814   3.055
  296SOL    HW1 1787   4.321   1.758   3.045
  296SOL    HW2 1788   4.158   1.757   3.046
  297SOL     OW 1789   2.505   4.463   3.257
  297SOL    HW1 1790   2.536   4.537   3.317
  297SOL    HW2 1791   2.547   4.474   3.166
  298SOL     OW 1792   3.951   6.287   1.135
  298SOL    HW1 1793   3.933   6.189   1.121
  298SOL    HW2 1794   3.864   6.337   1.132
  299SOL     OW 1795   5.242   3.425   5.767
  299SOL    HW1 1796   5.294   3.390   5.688
  299SOL    HW2 1797   5.163   3.476   5.734
  300SOL     OW 1798   6.907   1.095   2.400
  300SOL    HW1 1799   6.843   1.148   2.456
  300SOL    HW2 1800   6.993   1.083   2.450
  301SOL     OW 1801   5.026   3.481   1.507
  301SOL    HW1 1802   5.062   3.505   1.416
  301SOL    HW2 1803   4.946   3.423   1.496
  302SOL     OW 1804   0.869   0.894   3.124
  302SOL    HW1 1805   0.860   0.798   3.151
  302SOL    HW2 1806   0.850   0.953   3.203
  303SOL     OW 1807   5.686   0.940   2.160
  303SOL    HW1 1808   5.714   0.914   2.068
  303SOL    HW2 1809   5.603   0.995   2.155
  304SOL     OW 1810   2.330   6.832   4.167
  304SOL    HW1 1811   2.339   6.922   4.123
  304SOL    HW2 1812   2.331   6.761   4.097
  305SOL     OW 1813   0.892   3.283   0.446
  305SOL    HW1 1814   0.927   3.245   0.361
  305SOL    HW2 1815   0.942   3.243   0.523
  306SOL     OW 1816   2.126   1.588   3.365
  306SOL    HW1 1817   2.203   1.566   3.305
  306SOL    HW2 1818   2.150   1.666   3.423
  307SOL     OW 1819   5.037   0.273   0.724
  307SOL    HW1 1820   5.035   0.362   0.769
  307SOL    HW2 1821   5.096   0.278   0.643
  308SOL     OW 1822   6.357   3.755   4.769
  308SOL    HW1 1823   6.395   3.722   4.683
  308SOL    HW2 1824   6.423   3.816   4.814
  309SOL     OW 1825   3.021   4.775   6.653
  309SOL    HW1 1826   3.026   4.847   6.722
  309SOL    HW2 1827   2.931   4.733   6.655
  310SOL     OW 1828   6.197   6.869   5.881
  310SOL    HW1 1829   6.273   6.849   5.942
  310SOL    HW2 1830   6.222   6.945   5.820
  311SOL     OW 1831   5.978   5.050   1.271
  311SOL    HW1 1832   5.997   5.013   1.180
  311SOL    HW2 1833   6.057   5.032   1.331
  312SOL     OW 1834   4.476   1.127   5.889
  312SOL    HW1 1835   4.562   1.102   5.934
  312SOL    HW2 1836   4.444   1.215   5.925
  313SOL     OW 1837   3.079   4.124   1.842
  313SOL    HW1 1838   3.089   4.156   1.936
  313SOL    HW2 1839   3.006   4.177   1.797
  314SOL     OW 1840   3.709   4.693   6.531
  314SOL    HW1 1841   3.702   4.650   6.441
  314SOL    HW2 1842   3.773   4.769   6.526
  315SOL     OW 1843   1.135   3.432   3.458
  315SOL    HW1 1844   1.228   3.417   3.424
  315SOL    HW2 1845   1.129   3.521   3.502
  316SOL     OW 1846   2.834   2.253   4.238
  316SOL    HW1 1847   2.901   2.254   4.163
  316SOL    HW2 1848   2.882   2.252   4.325
  317SOL     OW 1849   1.171   0.343   0.898
  317SOL    HW1 1850   1.076   0.359   0.870
  317SOL    HW2 1851   1.172   0.288   0.981
  318SOL     OW 1852   0.828   6.301   6.930
  318SOL    HW1 1853   0.729   6.282   6.928
  318SOL    HW2 1854   0.864   6.294   6.837
  319SOL     OW 1855   6.971   0.857   3.752
  319SOL    HW1 1856   0.037   0.903   3.747
  319SOL    HW2 1857   6.982   0.769   3.797
  320SOL     OW 1858   5.560   2.078   6.996
  320SOL    HW1 1859   5.540   1.980   6.994
  320SOL    HW2 1860   5.528   2.118   0.059
  321SOL     OW 1861   3.308   1.095   1.197
  321SOL    HW1 1862   3.214   1.123   1.215
  321SOL    HW2 1863   3.367   1.129   1.270
  322SOL     OW 1864   3.502   3.911   4.553
  322SOL    HW1 1865   3.593   3.872   4.567
  322SOL    HW2 1866   3.480   3.972   4.629
  323SOL     OW 1867   0.395   3.666   6.713
  323SOL    HW1 1868   0.450   3.742   6.748
  323SOL    HW2 1869   0.393   3.670   6.613
  324SOL     OW 1870   2.192   2.393   3.871
  324SOL    HW1 1871   2.191   2.424   3.775
  324SOL    HW2 1872   2.283   2.361   3.895
  325SOL     OW 1873   1.142   2.899   1.549
  325SOL    HW1 1874   1.153   2.858   1.458
  325SOL    HW2 1875   1.132   2.827   1.618
  326SOL     OW 1876   1.850   5.220   6.122
  326SOL    HW1 1877   1.887   5.204   6.031
  326SOL    HW2 1878   1.756   5.252   6.114
  327SOL     OW 1879   1.455   5.183   3.669
  327SOL    HW1 1880   1.511   5.112   3.625
  327SOL    HW2 1881   1.507   5.268   3.673
  328SOL     OW 1882   2.343   5.754   1.920
  328SOL    HW1 1883   2.405   5.777   1.845
  328SOL    HW2 1884   2.256   5.800   1.907
  329SOL     OW 1885   3.169   4.139   4.491
  329SOL    HW1 1886   3.163   4.239   4.492
  329SOL    HW2 1887   3.159   4.107   4.396
  330SOL     OW 1888   3.346   6.695   1.151
  330SOL    HW1 1889   3.354   6.685   1.250
  330SOL    HW2 1890   3.371   6.609   1.106
  331SOL     OW 1891   4.118   4.691   6.784
  331SOL    HW1 1892   4.155   4.754   6.852
  331SOL    HW2 1893   4.113   4.736   6.695
  332SOL     OW 1894   3.568   1.863   4.876
  332SOL    HW1 1895   3.505   1.888   4.949
  332SOL    HW2 1896   3.544   1.914   4.793
  333SOL     OW 1897   3.373   6.685   6.669
  333SOL    HW1 1898   3.354   6.776   6.707
  333SOL    HW2 1899   3.408   6.695   6.576
  334SOL     OW 1900   2.589   0.218   0.998
  334SOL    HW1 1901   2.616   0.167   0.916
  334SOL    HW2 1902   2.649   0.297   1.009
  335SOL     OW 1903   3.383   6.384   4.462
  335SOL    HW1 1904   3.293   6.394   4.420
  335SOL    HW2 1905   3.433   6.470   4.451
  336SOL     OW 1906   2.926   1.543   3.840
  336SOL    HW1 1907   3.021   1.561   3.863
  336SOL    HW2 1908   2.870   1.623   3.865
  337SOL     OW 1909   6.940   3.161   0.625
  337SOL    HW1 1910   6.937   3.070   0.668
  337SOL    HW2 1911   6.903   3.155   0.532
  338SOL     OW 1912   2.892   2.733   0.766
  338SOL    HW1 1913   2.811   2.771   0.812
  338SOL    HW2 1914   2.893   2.633   0.777
  339SOL     OW 1915   3.546   6.409   4.774
  339SOL    HW1 1916   3.544   6.502   4.736
  339SOL    HW2 1917   3.453   6.379   4.793
  340SOL     OW 1918   4.974   4.338   5.080
  340SOL    HW1 1919   4.883   4.317   5.116
  340SOL    HW2 1920   5.018   4.253   5.051
  341SOL     OW 1921   6.415   0.395   4.441
  341SOL    HW1 1922   6.352   0.322   4.417
  341SOL    HW2 1923   6.372   0.457   4.507
  342SOL     OW 1924   5.891   3.288   6.902
  342SOL    HW1 1925   5.989   3.300   6.915
  342SOL    HW2 1926   5.861   3.206   6.952
  343SOL     OW 1927   2.121   5.405   0.931
  343SOL    HW1 1928   2.148   5.315   0.898
  343SOL    HW2 1929   2.022   5.406   0.947
  344SOL     OW 1930   1.538   4.726   1.974
  344SOL    HW1 1931   1.564   4.803   2.032
  344SOL    HW2 1932   1.565   4.744   1.879
  345SOL     OW 1933   6.713   1.536   5.037
  345SOL    HW1 1934   6.796   1.480   5.022
  345SOL    HW2 1935   6.699   1.595   4.958
  346SOL     OW 1936   1.889   1.001   1.898
  346SOL    HW1 1937   1.862   0.933   1.829
  346SOL    HW2 1938   1.936   0.955   1.973
  347SOL     OW 1939   3.827   6.651   5.974
  347SOL    HW1 1940   3.738   6.692   5.951
  347SOL    HW2 1941   3.899   6.719   5.961
  348SOL     OW 1942   4.650   5.046   1.403
  348SOL    HW1 1943   4.583   5.058   1.477
  348SOL    HW2 1944   4.680   4.951   1.401
  349SOL     OW 1945   6.263   4.713   1.500
  349SOL    HW1 1946   6.170   4.686   1.523
  349SOL    HW2 1947   6.328   4.656   1.550
  350SOL     OW 1948   3.651   3.153   1.963
  350SOL    HW1 1949   3.700   3.066   1.951
  350SOL    HW2 1950   3.717   3.228   1.970
  351SOL     OW 1951   2.239   2.722   0.438
  351SOL    HW1 1952   2.237   2.703   0.537
  351SOL    HW2 1953   2.239   2.820   0.423
  352SOL     OW 1954   3.469   0.294   4.742
  352SOL    HW1 1955   3.421   0.309   4.656
  352SOL    HW2 1956   3.489   0.382   4.785
  353SOL     OW 1957   2.747   6.793   0.781
  353SOL    HW1 1958   2.755   6.874   0.723
  353SOL    HW2 1959   2.814   6.799   0.855
  354SOL     OW 1960   3.878   2.596   0.622
  354SOL    HW1 1961   3.843   2.505   0.644
  354SOL    HW2 1962   3.820   2.638   0.553
  355SOL     OW 1963   6.635   3.400   2.757
  355SOL    HW1 1964   6.699   3.471   2.727
  355SOL    HW2 1965   6.686   3.329   2.806
  356SOL     OW 1966   4.000   5.983   5.024
  356SOL    HW1 1967   3.963   5.914   4.962
  356SOL    HW2 1968   3.992   6.073   4.983
  357SOL     OW 1969   6.384   0.107   5.702
  357SOL    HW1 1970   6.459   0.136   5.642
  357SOL    HW2 1971   6.303   0.089   5.646
  358SOL     OW 1972   5.589   0.385   1.854
  358SOL    HW1 1973   5.625   0.296   1.824
  358SOL    HW2 1974   5.578   0.384   1.953
  359SOL     OW 1975   1.498   2.112   2.507
  359SOL    HW1 1976   1.469   2.200   2.545
  359SOL    HW2 1977   1.598   2.107   2.506
  360SOL     OW 1978   1.809   5.786   6.146
  360SOL    HW1 1979   1.851   5.847   6.213
  360SOL    HW2 1980   1.739   5.835   6.095
  361SOL     OW 1981   5.674   5.915   2.991
  361SOL    HW1 1982   5.729   5.997   2.976
  361SOL    HW2 1983   5.621   5.895   2.908
  362SOL     OW 1984   3.749   4.133   0.674
  362SOL    HW1 1985   3.697   4.148   0.590
  362SOL    HW2 1986   3.727   4.204   0.741
  363SOL     OW 1987   4.586   4.519   3.364
  363SOL    HW1 1988   4.618   4.431   3.328
  363SOL    HW2 1989   4.636   4.541   3.448
  364SOL     OW 1990   0.185   5.742   5.461
  364SOL    HW1 1991   0.249   5.791   5.403
  364SOL    HW2 1992   0.156   5.800   5.536
  365SOL     OW 1993   4.615   5.366   2.455
  365SOL    HW1 1994   4.547   5.435   2.429
  365SOL    HW2 1995   4.640   5.379   2.551
  366SOL     OW 1996   6.168   1.024   0.132
  366SOL    HW1 1997   6.255   1.024   0.181
  366SOL    HW2 1998   6.111   1.099   0.166
  367SOL     OW 1999   5.168   2.851   1.320
  367SOL    HW1 2000   5.159   2.761   1.364
  367SOL    HW2 2001   5.148   2.842   1.223
  368SOL     OW 2002   0.760   3.956   4.826
  368SOL    HW1 2003   0.740   3.973   4.923
  368SOL    HW2 2004   0.832   3.887   4.818
  369SOL     OW 2005   6.412   5.013   1.728
  369SOL    HW1 2006   6.475   4.937   1.715
  369SOL    HW2 2007   6.334   5.002   1.665
  370SOL     OW 2008   3.281   1.979   5.647
  370SOL    HW1 2009   3.223   2.061   5.640
  370SOL    HW2 2010   3.232   1.901   5.609
  371SOL     OW 2011   2.421   3.587   6.328
  371SOL    HW1 2012   2.351   3.648   6.291
  371SOL    HW2 2013   2.416   3.499   6.282
  372SOL     OW 2014   6.629   1.032   5.020
  372SOL    HW1 2015   6.639   1.041   4.921
  372SOL    HW2 2016   6.543   0.987   5.041
  373SOL     OW 2017   6.034   6.684   5.003
  373SOL    HW1 2018   6.116   6.711   5.053
  373SOL    HW2 2019   5.970   6.639   5.066
  374SOL     OW 2020   3.593   0.183   2.535
  374SOL    HW1 2021   3.641   0.268   2.515
  374SOL    HW2 2022   3.633   0.141   2.617
  375SOL     OW 2023   0.490   4.854   3.990
  375SOL    HW1 2024   0.533   4.919   4.053
  375SOL    HW2 2025   0.505   4.761   4.023
  376SOL     OW 2026   1.677   3.289   3.992
  376SOL    HW1 2027   1.641   3.226   4.060
  376SOL    HW2 2028   1.759   3.249   3.949
  377SOL     OW 2029   6.291   2.692   1.922
  377SOL    HW1 2030   6.269   2.651   1.834
  377SOL    HW2 2031   6.375   2.746   1.913
  378SOL     OW 2032   3.246   2.818   5.580
  378SOL    HW1 2033   3.324   2.879   5.591
  378SOL    HW2 2034   3.167   2.855   5.628
  379SOL     OW 2035   6.186   4.413   1.582
  379SOL    HW1 2036   6.267   4.454   1.624
  379SOL    HW2 2037   6.117   4.483   1.566
  380SOL     OW 2038   2.491   1.491   1.687
  380SOL    HW1 2039   2.571   1.467   1.741
  380SOL    HW2 2040   2.518   1.513   1.594
  381SOL     OW 2041   2.090   4.537   1.754
  381SOL    HW1 2042   2.078   4.438   1.749
  381SOL    HW2 2043   2.170   4.565   1.702
  382SOL     OW 2044   5.126   6.300   6.516
  382SOL    HW1 2045   5.097   6.211   6.481
  382SOL    HW2 2046   5.201   6.335   6.459
  383SOL     OW 2047   6.081   2.702   6.162
  383SOL    HW1 2048   6.009   2.666   6.221
  383SOL    HW2 2049   6.085   2.802   6.172
  384SOL     OW 2050   0.321   4.058   4.846
  384SOL    HW1 2051   0.264   3.979   4.871
  384SOL    HW2 2052   0.369   4.091   4.927
  385SOL     OW 2053   4.375   6.382   6.545
  385SOL    HW1 2054   4.377   6.289   6.582
  385SOL    HW2 2055   4.398   6.447   6.616
  386SOL     OW 2056   3.512   0.290   5.160
  386SOL    HW1 2057   3.446   0.352   5.118
  386SOL    HW2 2058   3.502   0.293   5.259
  387SOL     OW 2059   6.743   5.886   3.765
  387SOL    HW1 2060   6.677   5.864   3.838
  387SOL    HW2 2061   6.721   5.832   3.684
  388SOL     OW 2062   0.583   2.335   4.447
  388SOL    HW1 2063   0.542   2.292   4.366
  388SOL    HW2 2064   0.646   2.407   4.418
  389SOL     OW 2065   4.273   4.268   1.681
  389SOL    HW1 2066   4.295   4.257   1.584
  389SOL    HW2 2067   4.353   4.242   1.736
  390SOL     OW 2068   3.335   1.227   0.395
  390SOL    HW1 2069   3.268   1.202   0.466
  390SOL    HW2 2070   3.333   1.158   0.322
  391SOL     OW 2071   2.173   3.940   5.284
  391SOL    HW1 2072   2.194   3.853   5.328
  391SOL    HW2 2073   2.257   3.982   5.250
  392SOL     OW 2074   1.448   3.150   2.300
  392SOL    HW1 2075   1.367   3.092   2.310
  392SOL    HW2 2076   1.517   3.101   2.248
  393SOL     OW 2077   1.430   5.450   0.518
  393SOL    HW1 2078   1.490   5.510   0.570
  393SOL    HW2 2079   1.481   5.372   0.484
  394SOL     OW 2080   0.890   3.246   6.500
  394SOL    HW1 2081   0.950   3.257   6.580
  394SOL    HW2 2082   0.944   3.250   6.417
  395SOL     OW 2083   5.451   4.022   2.133
  395SOL    HW1 2084   5.548   4.037   2.115
  395SOL    HW2 2085   5.414   4.100   2.183
  396SOL     OW 2086   2.370   2.281   2.126
  396SOL    HW1 2087   2.319   2.222   2.189
  396SOL    HW2 2088   2.466   2.254   2.125
  397SOL     OW 2089   5.516   1.600   6.309
  397SOL    HW1 2090   5.585   1.528   6.314
  397SOL    HW2 2091   5.433   1.570   6.355
  398SOL     OW 2092   1.394   6.097   4.550
  398SOL    HW1 2093   1.298   6.072   4.560
  398SOL    HW2 2094   1.450   6.041   4.611
  399SOL     OW 2095   6.445   5.861   4.430
  399SOL    HW1 2096   6.515   5.930   4.411
  399SOL    HW2 2097   6.489   5.772   4.443
  400SOL     OW 2098   6.537   6.454   5.203
  400SOL    HW1 2099   6.578   6.389   5.138
  400SOL    HW2 2100   6.448   6.420   5.232
  401SOL     OW 2101   5.440   6.828   6.033
  401SOL    HW1 2102   5.511   6.841   5.964
  401SOL    HW2 2103   5.420   6.731   6.042
  402SOL     OW 2104   6.192   0.353   2.359
  402SOL    HW1 2105   6.281   0.321   2.329
  402SOL    HW2 2106   6.202   0.400   2.447
  403SOL     OW 2107   3.418   0.279   6.477
  403SOL    HW1 2108   3.377   0.189   6.469
  403SOL    HW2 2109   3.500   0.284   6.419
  404SOL     OW 2110   2.609   5.642   5.609
  404SOL    HW1 2111   2.518   5.603   5.620
  404SOL    HW2 2112   2.672   5.570   5.578
  405SOL     OW 2113   2.300   4.140   3.585
  405SOL    HW1 2114   2.332   4.050   3.612
  405SOL    HW2 2115   2.228   4.170   3.648
  406SOL     OW 2116   0.684   4.678   5.387
  406SOL    HW1 2117   0.756   4.609   5.399
  406SOL    HW2 2118   0.622   4.674   5.466
  407SOL     OW 2119   1.849   2.789   3.537
  407SOL    HW1 2120   1.948   2.787   3.555
  407SOL    HW2 2121   1.810   2.869   3.582
  408SOL     OW 2122   3.373   2.046   3.230
  408SOL    HW1 2123   3.446   2.114   3.233
  408SOL    HW2 2124   3.339   2.038   3.136
  409SOL     OW 2125   6.877   3.224   1.508
  409SOL    HW1 2126   6.963   3.194   1.465
  409SOL    HW2 2127   6.843   3.305   1.460
  410SOL     OW 2128   1.402   1.798   1.184
  410SOL    HW1 2129   1.496   1.770   1.170
  410SOL    HW2 2130   1.344   1.717   1.199
  411SOL     OW 2131   6.418   1.960   2.119
  411SOL    HW1 2132   6.351   1.952   2.192
  411SOL    HW2 2133   6.481   1.882   2.122
  412SOL     OW 2134   3.558   4.916   2.901
  412SOL    HW1 2135   3.477   4.884   2.949
  412SOL    HW2 2136   3.547   4.901   2.802
  413SOL     OW 2137   4.184   5.241   1.960
  413SOL    HW1 2138   4.094   5.223   1.999
  413SOL    HW2 2139   4.187   5.334   1.923
  414SOL     OW 2140   3.662   0.412   4.041
  414SOL    HW1 2141   3.653   0.322   3.999
  414SOL    HW2 2142   3.617   0.412   4.130
  415SOL     OW 2143   0.103   1.408   0.150
  415SOL    HW1 2144   0.067   1.347   0.079
  415SOL    HW2 2145   0.203   1.412   0.142
  416SOL     OW 2146   5.268   4.555   4.515
  416SOL    HW1 2147   5.200   4.527   4.583
  416SOL    HW2 2148   5.266   4.492   4.438
  417SOL     OW 2149   1.828   1.238   6.602
  417SOL    HW1 2150   1.883   1.255   6.520
  417SOL    HW2 2151   1.885   1.245   6.683
  418SOL     OW 2152   2.950   6.972   5.406
  418SOL    HW1 2153   2.874   6.924   5.363
  418SOL    HW2 2154   3.022   6.907   5.430
  419SOL     OW 2155   0.018   6.667   2.866
  419SOL    HW1 2156   0.052   6.588   2.917
  419SOL    HW2 2157   6.941   6.661   2.858
  420SOL     OW 2158   5.717   0.990   6.779
  420SOL    HW1 2159   5.639   0.930   6.761
  420SOL    HW2 2160   5.776   0.994   6.699
  421SOL     OW 2161   5.765   4.251   5.160
  421SOL    HW1 2162   5.748   4.214   5.251
  421SOL    HW2 2163   5.713   4.199   5.093
  422SOL     OW 2164   5.641   2.163   0.627
  422SOL    HW1 2165   5.740   2.169   0.638
  422SOL    HW2 2166   5.619   2.154   0.530
  423SOL     OW 2167   2.460   1.047   6.715
  423SOL    HW1 2168   2.399   1.126   6.726
  423SOL    HW2 2169   2.444   1.005   6.626
  424SOL     OW 2170   2.044   5.118   2.897
  424SOL    HW1 2171   2.051   5.064   2.814
  424SOL    HW2 2172   2.011   5.061   2.972
  425SOL     OW 2173   5.124   0.944   4.622
  425SOL    HW1 2174   5.197   0.891   4.666
  425SOL    HW2 2175   5.041   0.938   4.678
  426SOL     OW 2176   2.176   3.007   5.278
  426SOL    HW1 2177   2.123   2.946   5.337
  426SOL    HW2 2178   2.266   3.023   5.318
  427SOL     OW 2179   5.161   1.270   4.366
  427SOL    HW1 2180   5.121   1.282   4.457
  427SOL    HW2 2181   5.091   1.288   4.296
  428SOL     OW 2182   2.540   0.562   4.538
  428SOL    HW1 2183   2.570   0.537   4.630
  428SOL    HW2 2184   2.441   0.576   4.538
  429SOL     OW 2185   0.781   5.074   4.193
  429SOL    HW1 2186   0.777   4.989   4.140
  429SOL    HW2 2187   0.861   5.071   4.253
  430SOL     OW 2188   1.903   0.278   3.808
  430SOL    HW1 2189   1.930   0.214   3.880
  430SOL    HW2 2190   1.850   0.352   3.847
  431SOL     OW 2191   2.150   2.191   0.469
  431SOL    HW1 2192   2.125   2.182   0.373
  431SOL    HW2 2193   2.085   2.140   0.525
  432SOL     OW 2194   5.339   1.744   1.052
  432SOL    HW1 2195   5.425   1.708   1.085
  432SOL    HW2 2196   5.323   1.834   1.092
  433SOL     OW 2197   3.726   6.687   6.244
  433SOL    HW1 2198   3.628   6.668   6.247
  433SOL    HW2 2199   3.761   6.670   6.152
  434SOL     OW 2200   3.799   5.875   3.885
  434SOL    HW1 2201   3.750   5.871   3.798
  434SOL    HW2 2202   3.751   5.820   3.954
  435SOL     OW 2203   3.880   0.963   5.561
  435SOL    HW1 2204   3.962   0.973   5.506
  435SOL    HW2 2205   3.800   0.961   5.501
  436SOL     OW 2206   3.170   6.078   2.554
  436SOL    HW1 2207   3.224   6.017   2.496
  436SOL    HW2 2208   3.117   6.140   2.497
  437SOL     OW 2209   0.296   1.219   4.757
  437SOL    HW1 2210   0.373   1.268   4.714
  437SOL    HW2 2211   0.321   1.123   4.771
  438SOL     OW 2212   1.292   4.396   2.869
  438SOL    HW1 2213   1.258   4.418   2.778
  438SOL    HW2 2214   1.315   4.480   2.918
  439SOL     OW 2215   5.725   0.777   3.091
  439SOL    HW1 2216   5.708   0.720   3.171
  439SOL    HW2 2217   5.678   0.865   3.103
  440SOL     OW 2218   3.672   1.409   6.819
  440SOL    HW1 2219   3.654   1.460   6.735
  440SOL    HW2 2220   3.760   1.363   6.812
  441SOL     OW 2221   6.041   4.376   3.079
  441SOL    HW1 2222   6.028   4.468   3.042
  441SOL    HW2 2223   6.028   4.309   3.006
  442SOL     OW 2224   5.204   4.185   5.645
  442SOL    HW1 2225   5.125   4.188   5.583
  442SOL    HW2 2226   5.187   4.119   5.718
  443SOL     OW 2227   5.225   4.858   3.324
  443SOL    HW1 2228   5.209   4.843   3.227
  443SOL    HW2 2229   5.299   4.923   3.337
  444SOL     OW 2230   3.950   1.329   6.799
  444SOL    HW1 2231   4.029   1.389   6.801
  444SOL    HW2 2232   3.943   1.279   6.885
  445SOL     OW 2233   2.732   6.320   2.581
  445SOL    HW1 2234   2.642   6.360   2.598
  445SOL    HW2 2235   2.746   6.311   2.483
  446SOL     OW 2236   4.638   6.005   2.900
  446SOL    HW1 2237   4.598   5.924   2.943
  446SOL    HW2 2238   4.690   5.978   2.819
  447SOL     OW 2239   6.204   3.292   5.511
  447SOL    HW1 2240   6.276   3.291   5.579
  447SOL    HW2 2241   6.194   3.383   5.473
  448SOL     OW 2242   1.948   1.395   3.178
  448SOL    HW1 2243   1.995   1.468   3.228
  448SOL    HW2 2244   1.933   1.423   3.083
  449SOL     OW 2245   2.111   2.479   3.336
  449SOL    HW1 2246   2.019   2.443   3.351
  449SOL    HW2 2247   2.142   2.453   3.245
  450SOL     OW 2248   0.898   4.645   3.520
  450SOL    HW1 2249   0.902   4.738   3.483
  450SOL    HW2 2250   0.937   4.581   3.454
  451SOL     OW 2251   6.798   2.699   3.513
  451SOL    HW1 2252   6.718   2.758   3.514
  451SOL    HW2 2253   6.771   2.605   3.494
  452SOL     OW 2254   3.387   6.804   2.706
  452SOL    HW1 2255   3.469   6.771   2.753
  452SOL    HW2 2256   3.322   6.838   2.774
  453SOL     OW 2257   4.512   0.421   6.808
  453SOL    HW1 2258   4.592   0.368   6.835
  453SOL    HW2 2259   4.499   0.497   6.872
  454SOL     OW 2260   6.659   4.119   6.481
  454SOL    HW1 2261   6.585   4.080   6.426
  454SOL    HW2 2262   6.621   4.189   6.542
  455SOL     OW 2263   6.571   3.741   5.658
  455SOL    HW1 2264   6.489   3.796   5.644
  455SOL    HW2 2265   6.588   3.686   5.576
  456SOL     OW 2266   1.678   0.809   3.879
  456SOL    HW1 2267   1.630   0.764   3.955
  456SOL    HW2 2268   1.761   0.853   3.913
  457SOL     OW 2269   1.322   5.817   5.764
  457SOL    HW1 2270   1.383   5.782   5.836
  457SOL    HW2 2271   1.327   5.757   5.684
  458SOL     OW 2272   2.378   1.164   2.711
  458SOL    HW1 2273   2.453   1.226   2.735
  458SOL    HW2 2274   2.321   1.148   2.792
  459SOL     OW 2275   2.175   0.632   5.449
  459SOL    HW1 2276   2.210   0.542   5.474
  459SOL    HW2 2277   2.196   0.697   5.522
  460SOL     OW 2278   1.300   1.548   5.172
  460SOL    HW1 2279   1.307   1.457   5.130
  460SOL    HW2 2280   1.327   1.617   5.106
  461SOL     OW 2281   6.937   4.862   5.012
  461SOL    HW1 2282   6.855   4.807   5.026
  461SOL    HW2 2283   6.934   4.942   5.072
  462SOL     OW 2284   3.758   3.816   4.549
  462SOL    HW1 2285   3.751   3.740   4.614
  462SOL    HW2 2286   3.780   3.781   4.458
  463SOL     OW 2287   6.064   6.819   2.618
  463SOL    HW1 2288   6.070   6.774   2.529
  463SOL    HW2 2289   6.047   6.917   2.605
  464SOL     OW 2290   3.175   6.542   6.412
  464SOL    HW1 2291   3.211   6.464   6.464
  464SOL    HW2 2292   3.087   6.516   6.371
  465SOL     OW 2293   1.255   2.164   0.415
  465SOL    HW1 2294   1.202   2.244   0.441
  465SOL    HW2 2295   1.195   2.084   0.408
  466SOL     OW 2296   3.451   6.166   4.590
  466SOL    HW1 2297   3.423   6.255   4.553
  466SOL    HW2 2298   3.460   6.101   4.515
  467SOL     OW 2299   0.981   1.552   2.323
  467SOL    HW1 2300   1.010   1.532   2.417
  467SOL    HW2 2301   0.881   1.558   2.319
  468SOL     OW 2302   5.127   0.230   6.157
  468SOL    HW1 2303   5.094   0.323   6.144
  468SOL    HW2 2304   5.196   0.229   6.230
  469SOL     OW 2305   3.058   4.490   5.820
  469SOL    HW1 2306   2.986   4.463   5.756
  469SOL    HW2 2307   3.020   4.553   5.888
  470SOL     OW 2308   3.220   6.104   3.358
  470SOL    HW1 2309   3.301   6.110   3.416
  470SOL    HW2 2310   3.216   6.014   3.316
  471SOL     OW 2311   2.583   2.475   4.257
  471SOL    HW1 2312   2.654   2.436   4.316
  471SOL    HW2 2313   2.495   2.432   4.278
  472SOL     OW 2314   5.682   4.464   6.491
  472SOL    HW1 2315   5.594   4.510   6.501
  472SOL    HW2 2316   5.702   4.450   6.394
  473SOL     OW 2317   6.727   2.682   2.569
  473SOL    HW1 2318   6.747   2.649   2.661
  473SOL    HW2 2319   6.795   2.751   2.542
  474SOL     OW 2320   6.358   5.655   4.972
  474SOL    HW1 2321   6.415   5.737   4.968
  474SOL    HW2 2322   6.335   5.625   4.880
  475SOL     OW 2323   5.582   2.907   0.440
  475SOL    HW1 2324   5.503   2.939   0.493
  475SOL    HW2 2325   5.639   2.985   0.416
  476SOL     OW 2326   0.134   3.797   2.088
  476SOL    HW1 2327   0.052   3.786   2.032
  476SOL    HW2 2328   0.141   3.720   2.152
  477SOL     OW 2329   2.825   6.057   3.722
  477SOL    HW1 2330   2.792   5.969   3.756
  477SOL    HW2 2331   2.756   6.096   3.660
  478SOL     OW 2332   4.343   5.915   3.045
  478SOL    HW1 2333   4.291   5.975   2.984
  478SOL    HW2 2334   4.307   5.924   3.138
  479SOL     OW 2335   3.823   3.366   3.923
  479SOL    HW1 2336   3.741   3.422   3.936
  479SOL    HW2 2337   3.895   3.421   3.881
  480SOL     OW 2338   1.643   7.019   2.932
  480SOL    HW1 2339   1.712   6.947   2.927
  480SOL    HW2 2340   1.594   0.002   2.844
  481SOL     OW 2341   1.175   6.032   1.544
  481SOL    HW1 2342   1.099   5.972   1.517
  481SOL    HW2 2343   1.170   6.118   1.492
  482SOL     OW 2344   5.203   4.439   2.874
  482SOL    HW1 2345   5.103   4.431   2.864
  482SOL    HW2 2346   5.228   4.424   2.969
  483SOL     OW 2347   6.058   2.779   2.849
  483SOL    HW1 2348   6.087   2.684   2.843
  483SOL    HW2 2349   6.084   2.827   2.766
  484SOL     OW 2350   1.813   4.256   4.411
  484SOL    HW1 2351   1.904   4.295   4.399
  484SOL    HW2 2352   1.759   4.269   4.328
  485SOL     OW 2353   5.687   3.456   2.606
  485SOL    HW1 2354   5.764   3.456   2.542
  485SOL    HW2 2355   5.717   3.420   2.694
  486SOL     OW 2356   6.073   0.351   6.564
  486SOL    HW1 2357   6.045   0.256   6.554
  486SOL    HW2 2358   6.059   0.399   6.477
  487SOL     OW 2359   0.175   0.198   3.451
  487SOL    HW1 2360   0.243   0.248   3.397
  487SOL    HW2 2361   0.220   0.144   3.521
  488SOL     OW 2362   1.809   6.893   3.226
  488SOL    HW1 2363   1.871   6.837   3.171
  488SOL    HW2 2364   1.861   6.937   3.299
  489SOL     OW 2365   6.351   5.877   4.676
  489SOL    HW1 2366   6.268   5.930   4.691
  489SOL    HW2 2367   6.371   5.872   4.578
  490SOL     OW 2368   1.496   5.686   5.937
  490SOL    HW1 2369   1.482   5.640   6.025
  490SOL    HW2 2370   1.555   5.630   5.880
  491SOL     OW 2371   6.930   3.459   0.656
  491SOL    HW1 2372   6.908   3.362   0.644
  491SOL    HW2 2373   7.009   3.468   0.716
  492SOL     OW 2374   1.460   1.285   6.000
  492SOL    HW1 2375   1.396   1.348   6.044
  492SOL    HW2 2376   1.505   1.331   5.924
  493SOL     OW 2377   2.709   0.061   5.179
  493SOL    HW1 2378   2.720   6.987   5.200
  493SOL    HW2 2379   2.719   0.075   5.080
  494SOL     OW 2380   2.615   1.107   5.741
  494SOL    HW1 2381   2.678   1.145   5.809
  494SOL    HW2 2382   2.576   1.022   5.776
  495SOL     OW 2383   3.894   5.997   5.629
  495SOL    HW1 2384   3.915   6.087   5.590
  495SOL    HW2 2385   3.900   5.927   5.558
  496SOL     OW 2386   6.747   1.788   3.024
  496SOL    HW1 2387   6.751   1.815   2.928
  496SOL    HW2 2388   6.718   1.866   3.079
  497SOL     OW 2389   3.657   1.286   5.670
  497SOL    HW1 2390   3.644   1.385   5.670
  497SOL    HW2 2391   3.739   1.263   5.723
  498SOL     OW 2392   6.928   5.752   2.128
  498SOL    HW1 2393   6.856   5.713   2.185
  498SOL    HW2 2394   6.889   5.781   2.040
  499SOL     OW 2395   3.128   4.955   6.455
  499SOL    HW1 2396   3.072   4.905   6.521
  499SOL    HW2 2397   3.069   4.997   6.386
  500SOL     OW 2398   5.222   2.697   6.471
  500SOL    HW1 2399   5.195   2.617   6.525
  500SOL    HW2 2400   5.252   2.667   6.381
  501SOL     OW 2401   2.181   7.018   2.522
  501SOL    HW1 2402   2.193   0.032   2.614
  501SOL    HW2 2403   2.265   0.007   2.470
  502SOL     OW 2404   1.664   4.714   5.977
  502SOL    HW1 2405   1.671   4.720   5.878
  502SOL    HW2 2406   1.635   4.803   6.014
  503SOL     OW 2407   3.169   4.532   6.557
  503SOL    HW1 2408   3.126   4.621   6.544
  503SOL    HW2 2409   3.179   4.485   6.469
  504SOL     OW 2410   6.484   6.051   2.066
  504SOL    HW1 2411   6.582   6.052   2.048
  504SOL    HW2 2412   6.465   6.102   2.150
  505SOL     OW 2413   3.840   6.995   5.334
  505SOL    HW1 2414   3.832   0.071   5.351
  505SOL    HW2 2415   3.892   6.954   5.409
  506SOL     OW 2416   3.376   5.480   2.964
  506SOL    HW1 2417   3.333   5.570   2.970
  506SOL    HW2 2418   3.472   5.490   2.937
  507SOL     OW 2419   4.215   1.214   1.749
  507SOL    HW1 2420   4.137   1.175   1.700
  507SOL    HW2 2421   4.281   1.143   1.769
  508SOL     OW 2422   6.836   3.488   4.161
  508SOL    HW1 2423   6.911   3.426   4.137
  508SOL    HW2 2424   6.864   3.582   4.144
  509SOL     OW 2425   5.275   0.496   0.249
  509SOL    HW1 2426   5.297   0.593   0.262
  509SOL    HW2 2427   5.331   0.459   0.175
  510SOL     OW 2428   6.557   4.383   5.468
  510SOL    HW1 2429   6.623   4.406   5.540
  510SOL    HW2 2430   6.550   4.283   5.459
  511SOL     OW 2431   0.988   1.722   6.723
  511SOL    HW1 2432   1.050   1.733   6.801
  511SOL    HW2 2433   0.930   1.642   6.738
  512SOL     OW 2434   5.541   2.538   0.089
  512SOL    HW1 2435   5.609   2.571   0.024
  512SOL    HW2 2436   5.586   2.480   0.157
  513SOL     OW 2437   5.881   6.820   2.281
  513SOL    HW1 2438   5.878   6.770   2.367
  513SOL    HW2 2439   5.954   6.888   2.284
  514SOL     OW 2440   6.971   6.293   3.853
  514SOL    HW1 2441   0.011   6.369   3.835
  514SOL    HW2 2442   6.920   6.270   3.771
  515SOL     OW 2443   2.870   0.870   6.282
  515SOL    HW1 2444   2.941   0.803   6.263
  515SOL    HW2 2445   2.826   0.849   6.369
  516SOL     OW 2446   2.371   4.134   1.616
  516SOL    HW1 2447   2.370   4.127   1.516
  516SOL    HW2 2448   2.414   4.052   1.655
  517SOL     OW 2449   3.601   4.911   2.585
  517SOL    HW1 2450   3.678   4.881   2.641
  517SOL    HW2 2451   3.634   4.953   2.501
  518SOL     OW 2452   2.207   3.251   3.426
  518SOL    HW1 2453   2.140   3.298   3.369
  518SOL    HW2 2454   2.251   3.178   3.372
  519SOL     OW 2455   6.856   6.395   4.077
  519SOL    HW1 2456   6.921   6.440   4.139
  519SOL    HW2 2457   6.902   6.373   3.991
  520SOL     OW 2458   1.497   3.312   6.737
  520SOL    HW1 2459   1.527   3.285   6.828
  520SOL    HW2 2460   1.570   3.360   6.690
  521SOL     OW 2461   4.505   5.348   4.675
  521SOL    HW1 2462   4.592   5.349   4.628
  521SOL    HW2 2463   4.515   5.301   4.763
  522SOL     OW 2464   4.240   3.760   1.453
  522SOL    HW1 2465   4.337   3.735   1.455
  522SOL    HW2 2466   4.222   3.819   1.374
  523SOL     OW 2467   0.094   6.400   1.902
  523SOL    HW1 2468   0.101   6.475   1.836
  523SOL    HW2 2469   0.109   6.313   1.855
  524SOL     OW 2470   0.663   2.757   2.337
  524SOL    HW1 2471   0.726   2.679   2.339
  524SOL    HW2 2472   0.630   2.772   2.244
  525SOL     OW 2473   1.005   3.428   6.663
  525SOL    HW1 2474   1.088   3.377   6.688
  525SOL    HW2 2475   1.025   3.488   6.586
  526SOL     OW 2476   3.347   6.885   4.000
  526SOL    HW1 2477   3.291   6.898   3.918
  526SOL    HW2 2478   3.423   6.824   3.978
  527SOL     OW 2479   1.144   2.768   0.138
  527SOL    HW1 2480   1.096   2.854   0.126
  527SOL    HW2 2481   1.085   2.702   0.184
  528SOL     OW 2482   0.750   3.643   3.523
  528SOL    HW1 2483   0.797   3.621   3.437
  528SOL    HW2 2484   0.794   3.593   3.598
  529SOL     OW 2485   2.604   0.517   5.762
  529SOL    HW1 2486   2.685   0.573   5.779
  529SOL    HW2 2487   2.623   0.422   5.788
  530SOL     OW 2488   3.764   2.918   2.079
  530SOL    HW1 2489   3.769   2.936   2.178
  530SOL    HW2 2490   3.856   2.918   2.040
  531SOL     OW 2491   2.255   0.437   2.599
  531SOL    HW1 2492   2.201   0.517   2.627
  531SOL    HW2 2493   2.215   0.398   2.516
  532SOL     OW 2494   1.787   3.924   0.570
  532SOL    HW1 2495   1.725   3.854   0.606
  532SOL    HW2 2496   1.879   3.886   0.560
  533SOL     OW 2497   5.412   0.219   3.617
  533SOL    HW1 2498   5.337   0.158   3.590
  533SOL    HW2 2499   5.458   0.254   3.535
  534SOL     OW 2500   0.707   5.925   1.869
  534SOL    HW1 2501   0.680   5.897   1.961
  534SOL    HW2 2502   0.655   6.007   1.843
  535SOL     OW 2503   6.633   4.345   2.978
  535SOL    HW1 2504   6.693   4.388   2.910
  535SOL    HW2 2505   6.584   4.416   3.028
  536SOL     OW 2506   6.608   5.680   2.951
  536SOL    HW1 2507   6.645   5.762   2.994
  536SOL    HW2 2508   6.677   5.607   2.953
  537SOL     OW 2509   3.485   6.630   4.409
  537SOL    HW1 2510   3.534   6.707   4.369
  537SOL    HW2 2511   3.491   6.636   4.509
  538SOL     OW 2512   1.399   5.280   5.549
  538SOL    HW1 2513   1.408   5.211   5.477
  538SOL    HW2 2514   1.345   5.357   5.515
  539SOL     OW 2515   1.145   5.237   2.058
  539SOL    HW1 2516   1.232   5.287   2.054
  539SOL    HW2 2517   1.164   5.139   2.060
  540SOL     OW 2518   1.944   0.938   3.973
  540SOL    HW1 2519   2.035   0.933   3.933
  540SOL    HW2 2520   1.907   1.031   3.961
  541SOL     OW 2521   4.140   5.813   3.634
  541SOL    HW1 2522   4.135   5.842   3.730
  541SOL    HW2 2523   4.082   5.733   3.620
  542SOL     OW 2524   3.665   6.309   6.269
  542SOL    HW1 2525   3.659   6.210   6.285
  542SOL    HW2 2526   3.611   6.357   6.338
  543SOL     OW 2527   5.492   3.610   3.849
  543SOL    HW1 2528   5.508   3.651   3.759
  543SOL    HW2 2529   5.434   3.671   3.904
  544SOL     OW 2530   0.365   4.741   0.115
  544SOL    HW1 2531   0.330   4.721   0.024
  544SOL    HW2 2532   0.463   4.760   0.110
  545SOL     OW 2533   4.488   1.031   1.208
  545SOL    HW1 2534   4.528   0.949   1.249
  545SOL    HW2 2535   4.497   1.027   1.108
  546SOL     OW 2536   0.465   4.145   1.528
  546SOL    HW1 2537   0.518   4.219   1.488
  546SOL    HW2 2538   0.525   4.067   1.547
  547SOL     OW 2539   3.193   2.652   0.452
  547SOL    HW1 2540   3.139   2.569   0.462
  547SOL    HW2 2541   3.139   2.732   0.481
  548SOL     OW 2542   3.247   3.275   0.967
  548SOL    HW1 2543   3.149   3.290   0.975
  548SOL    HW2 2544   3.278   3.214   1.041
  549SOL     OW 2545   5.135   2.591   1.409
  549SOL    HW1 2546   5.222   2.543   1.396
  549SOL    HW2 2547   5.060   2.532   1.377
  550SOL     OW 2548   6.720   5.127   3.256
  550SOL    HW1 2549   6.676   5.184   3.186
  550SOL    HW2 2550   6.722   5.176   3.343
  551SOL     OW 2551   0.125   0.694   0.933
  551SOL    HW1 2552   0.199   0.675   0.868
  551SOL    HW2 2553   0.140   0.783   0.975
  552SOL     OW 2554   4.965   5.366   5.228
  552SOL    HW1 2555   5.030   5.290   5.236
  552SOL    HW2 2556   4.888   5.338   5.170
  553SOL     OW 2557   3.750   0.695   4.051
  553SOL    HW1 2558   3.819   0.693   4.124
  553SOL    HW2 2559   3.705   0.606   4.046
  554SOL     OW 2560   5.633   5.585   7.003
  554SOL    HW1 2561   5.712   5.579   6.942
  554SOL    HW2 2562   5.555   5.624   6.954
  555SOL     OW 2563   3.442   5.276   5.128
  555SOL    HW1 2564   3.375   5.284   5.203
  555SOL    HW2 2565   3.523   5.329   5.151
  556SOL     OW 2566   5.255   1.638   4.468
  556SOL    HW1 2567   5.254   1.733   4.498
  556SOL    HW2 2568   5.282   1.579   4.544
  557SOL     OW 2569   6.818   4.753   6.666
  557SOL    HW1 2570   6.721   4.779   6.662
  557SOL    HW2 2571   6.873   4.825   6.623
  558SOL     OW 2572   4.152   3.458   3.683
  558SOL    HW1 2573   4.236   3.404   3.683
  558SOL    HW2 2574   4.124   3.476   3.777
  559SOL     OW 2575   6.444   6.207   5.679
  559SOL    HW1 2576   6.351   6.237   5.663
  559SOL    HW2 2577   6.462   6.205   5.778
  560SOL     OW 2578   6.460   3.660   3.277
  560SOL    HW1 2579   6.386   3.625   3.219
  560SOL    HW2 2580   6.519   3.719   3.222
  561SOL     OW 2581   6.584   2.443   6.712
  561SOL    HW1 2582   6.526   2.491   6.646
  561SOL    HW2 2583   6.653   2.390   6.663
  562SOL     OW 2584   4.686   0.162   6.056
  562SOL    HW1 2585   4.605   0.132   6.005
  562SOL    HW2 2586   4.682   0.127   6.149
  563SOL     OW 2587   2.357   1.301   3.551
  563SOL    HW1 2588   2.360   1.374   3.619
  563SOL    HW2 2589   2.435   1.310   3.489
  564SOL     OW 2590   7.006   1.811   6.591
  564SOL    HW1 2591   6.968   1.729   6.548
  564SOL    HW2 2592   0.080   1.818   6.568
  565SOL     OW 2593   2.874   3.362   3.872
  565SOL    HW1 2594   2.901   3.341   3.966
  565SOL    HW2 2595   2.776   3.383   3.869
  566SOL     OW 2596   1.827   4.592   3.029
  566SOL    HW1 2597   1.801   4.559   3.120
  566SOL    HW2 2598   1.920   4.628   3.033
  567SOL     OW 2599   2.888   2.300   0.503
  567SOL    HW1 2600   2.979   2.259   0.499
  567SOL    HW2 2601   2.893   2.395   0.473
  568SOL     OW 2602   5.769   6.991   0.751
  568SOL    HW1 2603   5.685   6.993   0.805
  568SOL    HW2 2604   5.842   0.013   0.801
  569SOL     OW 2605   1.071   2.830   1.282
  569SOL    HW1 2606   1.059   2.783   1.195
  569SOL    HW2 2607   0.981   2.847   1.323
  570SOL     OW 2608   3.437   6.946   6.774
  570SOL    HW1 2609   3.394   6.933   6.863
  570SOL    HW2 2610   3.523   6.995   6.785
  571SOL     OW 2611   2.695   5.055   3.811
  571SOL    HW1 2612   2.676   5.096   3.900
  571SOL    HW2 2613   2.636   4.976   3.797
  572SOL     OW 2614   1.968   5.195   5.350
  572SOL    HW1 2615   1.940   5.216   5.257
  572SOL    HW2 2616   2.003   5.101   5.354
  573SOL     OW 2617   6.306   1.312   5.432
  573SOL    HW1 2618   6.287   1.228   5.381
  573SOL    HW2 2619   6.288   1.391   5.374
  574SOL     OW 2620   3.804   0.288   5.377
  574SOL    HW1 2621   3.718   0.322   5.416
  574SOL    HW2 2622   3.871   0.275   5.450
  575SOL     OW 2623   4.436   2.697   1.341
  575SOL    HW1 2624   4.377   2.769   1.305
  575SOL    HW2 2625   4.381   2.631   1.393
  576SOL     OW 2626   1.573   3.050   2.764
  576SOL    HW1 2627   1.561   3.107   2.845
  576SOL    HW2 2628   1.517   3.085   2.689
  577SOL     OW 2629   1.489   0.496   2.214
  577SOL    HW1 2630   1.429   0.495   2.294
  577SOL    HW2 2631   1.489   0.587   2.173
  578SOL     OW 2632   1.620   5.923   5.977
  578SOL    HW1 2633   1.567   5.839   5.972
  578SOL    HW2 2634   1.561   5.999   6.004
  579SOL     OW 2635   1.488   4.593   2.674
  579SOL    HW1 2636   1.566   4.552   2.626
  579SOL    HW2 2637   1.495   4.573   2.771
  580SOL     OW 2638   4.147   4.812   5.400
  580SOL    HW1 2639   4.225   4.809   5.339
  580SOL    HW2 2640   4.177   4.845   5.490
  581SOL     OW 2641   1.390   3.160   3.627
  581SOL    HW1 2642   1.315   3.103   3.660
  581SOL    HW2 2643   1.420   3.222   3.700
  582SOL     OW 2644   4.588   5.728   3.445
  582SOL    HW1 2645   4.677   5.701   3.482
  582SOL    HW2 2646   4.602   5.794   3.371
  583SOL     OW 2647   2.581   5.761   5.244
  583SOL    HW1 2648   2.628   5.737   5.159
  583SOL    HW2 2649   2.647   5.802   5.307
  584SOL     OW 2650   3.621   6.859   6.593
  584SOL    HW1 2651   3.555   6.885   6.664
  584SOL    HW2 2652   3.657   6.768   6.613
  585SOL     OW 2653   4.271   0.619   1.300
  585SOL    HW1 2654   4.201   0.673   1.254
  585SOL    HW2 2655   4.256   0.625   1.399
  586SOL     OW 2656   3.586   0.479   1.021
  586SOL    HW1 2657   3.589   0.482   1.121
  586SOL    HW2 2658   3.539   0.560   0.987
  587SOL     OW 2659   4.989   2.329   2.534
  587SOL    HW1 2660   5.050   2.408   2.527
  587SOL    HW2 2661   4.906   2.355   2.583
  588SOL     OW 2662   1.731   5.125   0.721
  588SOL    HW1 2663   1.786   5.043   0.703
  588SOL    HW2 2664   1.710   5.130   0.818
  589SOL     OW 2665   3.541   5.469   1.581
  589SOL    HW1 2666   3.541   5.420   1.668
  589SOL    HW2 2667   3.621   5.529   1.576
  590SOL     OW 2668   5.496   1.318   0.859
  590SOL    HW1 2669   5.518   1.385   0.929
  590SOL    HW2 2670   5.480   1.229   0.901
  591SOL     OW 2671   3.995   6.149   3.862
  591SOL    HW1 2672   3.937   6.144   3.781
  591SOL    HW2 2673   3.939   6.173   3.942
  592SOL     OW 2674   4.436   0.219   3.148
  592SOL    HW1 2675   4.493   0.296   3.121
  592SOL    HW2 2676   4.389   0.182   3.067
  593SOL     OW 2677   4.520   2.122   4.724
  593SOL    HW1 2678   4.474   2.084   4.805
  593SOL    HW2 2679   4.582   2.195   4.752
  594SOL     OW 2680   6.447   1.602   0.546
  594SOL    HW1 2681   6.375   1.540   0.514
  594SOL    HW2 2682   6.522   1.604   0.479
  595SOL     OW 2683   5.965   6.746   3.235
  595SOL    HW1 2684   5.948   6.734   3.137
  595SOL    HW2 2685   5.959   6.843   3.258
  596SOL     OW 2686   6.974   5.064   3.169
  596SOL    HW1 2687   6.882   5.084   3.202
  596SOL    HW2 2688   7.012   4.987   3.221
  597SOL     OW 2689   2.627   6.504   5.951
  597SOL    HW1 2690   2.648   6.589   5.904
  597SOL    HW2 2691   2.558   6.453   5.898
  598SOL     OW 2692   3.183   4.112   5.140
  598SOL    HW1 2693   3.246   4.116   5.062
  598SOL    HW2 2694   3.089   4.112   5.106
  599SOL     OW 2695   2.150   5.870   2.601
  599SOL    HW1 2696   2.249   5.881   2.603
  599SOL    HW2 2697   2.106   5.952   2.637
  600SOL     OW 2698   6.811   3.429   6.043
  600SOL    HW1 2699   6.730   3.373   6.064
  600SOL    HW2 2700   6.795   3.523   6.074
  601SOL     OW 2701   1.316   1.674   4.457
  601SOL    HW1 2702   1.334   1.585   4.416
  601SOL    HW2 2703   1.390   1.737   4.435
  602SOL     OW 2704   2.928   0.585   5.916
  602SOL    HW1 2705   2.901   0.681   5.919
  602SOL    HW2 2706   2.895   0.543   5.831
  603SOL     OW 2707   1.853   2.015   5.297
  603SOL    HW1 2708   1.946   2.010   5.334
  603SOL    HW2 2709   1.788   1.998   5.371
  604SOL     OW 2710   0.957   2.161   1.561
  604SOL    HW1 2711   1.027   2.113   1.507
  604SOL    HW2 2712   0.923   2.101   1.633
  605SOL     OW 2713   6.867   4.649   1.578
  605SOL    HW1 2714   6.922   4.617   1.501
  605SOL    HW2 2715   6.926   4.697   1.643
  606SOL     OW 2716   4.843   6.480   5.776
  606SOL    HW1 2717   4.854   6.442   5.684
  606SOL    HW2 2718   4.831   6.579   5.770
  607SOL     OW 2719   0.115   5.062   4.899
  607SOL    HW1 2720   0.052   4.996   4.939
  607SOL    HW2 2721   0.209   5.028   4.909
  608SOL     OW 2722   3.985   6.546   6.703
  608SOL    HW1 2723   4.074   6.588   6.685
  608SOL    HW2 2724   3.925   6.556   6.624
  609SOL     OW 2725   3.655   2.755   1.752
  609SOL    HW1 2726   3.600   2.685   1.797
  609SOL    HW2 2727   3.603   2.840   1.746
  610SOL     OW 2728   4.873   2.285   0.263
  610SOL    HW1 2729   4.924   2.360   0.220
  610SOL    HW2 2730   4.784   2.319   0.295
  611SOL     OW 2731   3.163   0.137   2.401
  611SOL    HW1 2732   3.230   0.077   2.446
  611SOL    HW2 2733   3.203   0.175   2.318
  612SOL     OW 2734   2.946   5.778   4.876
  612SOL    HW1 2735   2.983   5.733   4.958
  612SOL    HW2 2736   2.945   5.713   4.800
  613SOL     OW 2737   5.406   4.566   4.783
  613SOL    HW1 2738   5.401   4.594   4.687
  613SOL    HW2 2739   5.347   4.487   4.798
  614SOL     OW 2740   6.037   5.523   4.663
  614SOL    HW1 2741   5.998   5.553   4.750
  614SOL    HW2 2742   5.964   5.507   4.597
  615SOL     OW 2743   7.000   2.207   1.623
  615SOL    HW1 2744   0.029   2.177   1.703
  615SOL    HW2 2745   0.030   2.188   1.540
  616SOL     OW 2746   6.380   2.268   2.719
  616SOL    HW1 2747   6.363   2.181   2.674
  616SOL    HW2 2748   6.308   2.333   2.695
  617SOL     OW 2749   1.296   4.885   5.981
  617SOL    HW1 2750   1.289   4.796   5.937
  617SOL    HW2 2751   1.256   4.881   6.073
  618SOL     OW 2752   1.462   2.510   1.077
  618SOL    HW1 2753   1.466   2.463   1.165
  618SOL    HW2 2754   1.472   2.608   1.091
  619SOL     OW 2755   1.682   1.990   0.517
  619SOL    HW1 2756   1.633   2.041   0.587
  619SOL    HW2 2757   1.706   2.051   0.442
  620SOL     OW 2758   4.347   2.092   0.453
  620SOL    HW1 2759   4.377   2.091   0.358
  620SOL    HW2 2760   4.393   2.018   0.503
  621SOL     OW 2761   4.429   5.528   6.547
  621SOL    HW1 2762   4.513   5.514   6.495
  621SOL    HW2 2763   4.379   5.605   6.509
  622SOL     OW 2764   1.218   1.440   6.712
  622SOL    HW1 2765   1.186   1.460   6.804
  622SOL    HW2 2766   1.152   1.380   6.666
  623SOL     OW 2767   0.653   6.067   5.907
  623SOL    HW1 2768   0.685   5.973   5.896
  623SOL    HW2 2769   0.615   6.100   5.820
  624SOL     OW 2770   0.879   2.627   1.870
  624SOL    HW1 2771   0.916   2.540   1.900
  624SOL    HW2 2772   0.781   2.630   1.887
  625SOL     OW 2773   2.713   2.523   1.155
  625SOL    HW1 2774   2.646   2.470   1.206
  625SOL    HW2 2775   2.691   2.621   1.163
  626SOL     OW 2776   2.724   5.480   3.626
  626SOL    HW1 2777   2.809   5.518   3.661
  626SOL    HW2 2778   2.663   5.554   3.597
  627SOL     OW 2779   5.247   0.257   0.999
  627SOL    HW1 2780   5.171   0.228   1.058
  627SOL    HW2 2781   5.229   0.228   0.905
  628SOL     OW 2782   4.709   4.906   5.055
  628SOL    HW1 2783   4.697   4.807   5.054
  628SOL    HW2 2784   4.628   4.950   5.094
  629SOL     OW 2785   0.286   0.195   1.095
  629SOL    HW1 2786   0.372   0.213   1.047
  629SOL    HW2 2787   0.218   0.263   1.069
  630SOL     OW 2788   5.487   2.126   2.724
  630SOL    HW1 2789   5.510   2.223   2.738
  630SOL    HW2 2790   5.420   2.118   2.650
  631SOL     OW 2791   3.433   0.242   5.442
  631SOL    HW1 2792   3.333   0.242   5.443
  631SOL    HW2 2793   3.467   0.149   5.451
  632SOL     OW 2794   2.851   1.568   0.417
  632SOL    HW1 2795   2.929   1.510   0.442
  632SOL    HW2 2796   2.878   1.627   0.341
  633SOL     OW 2797   3.842   5.180   0.101
  633SOL    HW1 2798   3.817   5.200   0.006
  633SOL    HW2 2799   3.936   5.146   0.104
  634SOL     OW 2800   4.082   4.465   1.686
  634SOL    HW1 2801   4.153   4.395   1.689
  634SOL    HW2 2802   4.013   4.440   1.619
  635SOL     OW 2803   4.622   6.621   2.735
  635SOL    HW1 2804   4.564   6.626   2.653
  635SOL    HW2 2805   4.599   6.696   2.797
  636SOL     OW 2806   5.154   5.851   6.226
  636SOL    HW1 2807   5.113   5.765   6.197
  636SOL    HW2 2808   5.197   5.895   6.147
  637SOL     OW 2809   5.305   4.531   1.655
  637SOL    HW1 2810   5.229   4.563   1.711
  637SOL    HW2 2811   5.339   4.444   1.691
  638SOL     OW 2812   5.251   1.334   2.373
  638SOL    HW1 2813   5.239   1.401   2.446
  638SOL    HW2 2814   5.342   1.343   2.333
  639SOL     OW 2815   5.126   4.433   1.915
  639SOL    HW1 2816   5.042   4.437   1.967
  639SOL    HW2 2817   5.171   4.345   1.931
  640SOL     OW 2818   2.312   4.665   5.240
  640SOL    HW1 2819   2.230   4.679   5.183
  640SOL    HW2 2820   2.392   4.655   5.181
  641SOL     OW 2821   0.606   5.435   4.729
  641SOL    HW1 2822   0.646   5.343   4.719
  641SOL    HW2 2823   0.549   5.455   4.650
  642SOL     OW 2824   0.028   4.024   4.035
  642SOL    HW1 2825   0.094   3.998   4.105
  642SOL    HW2 2826   0.074   4.029   3.946
  643SOL     OW 2827   5.917   5.187   5.112
  643SOL    HW1 2828   5.908   5.091   5.137
  643SOL    HW2 2829   6.010   5.206   5.081
  644SOL     OW 2830   0.985   5.326   2.778
  644SOL    HW1 2831   0.900   5.354   2.732
  644SOL    HW2 2832   0.995   5.227   2.772
  645SOL     OW 2833   4.958   2.689   4.257
  645SOL    HW1 2834   4.877   2.747   4.249
  645SOL    HW2 2835   5.040   2.741   4.233
  646SOL     OW 2836   2.615   2.224   3.225
  646SOL    HW1 2837   2.676   2.145   3.235
  646SOL    HW2 2838   2.521   2.192   3.214
  647SOL     OW 2839   5.812   2.519   5.811
  647SOL    HW1 2840   5.736   2.556   5.864
  647SOL    HW2 2841   5.896   2.525   5.865
  648SOL     OW 2842   5.914   3.742   2.694
  648SOL    HW1 2843   5.908   3.723   2.596
  648SOL    HW2 2844   5.823   3.760   2.731
  649SOL     OW 2845   4.319   4.212   0.082
  649SOL    HW1 2846   4.377   4.148   0.032
  649SOL    HW2 2847   4.319   4.189   0.179
  650SOL     OW 2848   4.895   4.496   0.214
  650SOL    HW1 2849   4.986   4.457   0.226
  650SOL    HW2 2850   4.833   4.425   0.181
  651SOL     OW 2851   0.706   6.682   0.369
  651SOL    HW1 2852   0.706   6.582   0.379
  651SOL    HW2 2853   0.616   6.718   0.393
  652SOL     OW 2854   5.134   6.393   3.550
  652SOL    HW1 2855   5.050   6.423   3.505
  652SOL    HW2 2856   5.112   6.353   3.638
  653SOL     OW 2857   3.515   5.245   5.694
  653SOL    HW1 2858   3.498   5.326   5.750
  653SOL    HW2 2859   3.537   5.273   5.601
  654SOL     OW 2860   6.781   4.382   5.925
  654SOL    HW1 2861   6.745   4.399   5.833
  654SOL    HW2 2862   6.717   4.418   5.993
  655SOL     OW 2863   0.527   6.960   2.155
  655SOL    HW1 2864   0.520   6.997   2.247
  655SOL    HW2 2865   0.620   6.925   2.140
  656SOL     OW 2866   2.369   5.532   1.328
  656SOL    HW1 2867   2.344   5.552   1.423
  656SOL    HW2 2868   2.293   5.485   1.283
  657SOL     OW 2869   2.034   1.867   1.737
  657SOL    HW1 2870   2.102   1.795   1.753
  657SOL    HW2 2871   1.953   1.848   1.792
  658SOL     OW 2872   3.182   3.216   6.074
  658SOL    HW1 2873   3.259   3.279   6.089
  658SOL    HW2 2874   3.192   3.172   5.985
  659SOL     OW 2875   3.276   6.363   6.594
  659SOL    HW1 2876   3.239   6.273   6.573
  659SOL    HW2 2877   3.227   6.402   6.671
  660SOL     OW 2878   4.202   4.893   1.543
  660SOL    HW1 2879   4.206   4.826   1.470
  660SOL    HW2 2880   4.136   4.965   1.519
  661SOL     OW 2881   4.493   6.499   3.862
  661SOL    HW1 2882   4.569   6.461   3.916
  661SOL    HW2 2883   4.487   6.451   3.775
  662SOL     OW 2884   3.788   0.641   5.333
  662SOL    HW1 2885   3.722   0.571   5.361
  662SOL    HW2 2886   3.831   0.681   5.414
  663SOL     OW 2887   2.526   4.000   5.809
  663SOL    HW1 2888   2.464   3.922   5.819
  663SOL    HW2 2889   2.480   4.073   5.758
  664SOL     OW 2890   0.356   6.079   5.992
  664SOL    HW1 2891   0.445   6.105   5.954
  664SOL    HW2 2892   0.324   5.996   5.947
  665SOL     OW 2893   4.224   5.408   2.390
  665SOL    HW1 2894   4.150   5.475   2.380
  665SOL    HW2 2895   4.192   5.331   2.445
  666SOL     OW 2896   4.764   0.873   1.688
  666SOL    HW1 2897   4.837   0.924   1.734
  666SOL    HW2 2898   4.759   0.901   1.592
  667SOL     OW 2899   1.022   5.113   2.410
  667SOL    HW1 2900   0.936   5.071   2.439
  667SOL    HW2 2901   1.002   5.192   2.353
  668SOL     OW 2902   5.209   6.304   5.688
  668SOL    HW1 2903   5.118   6.272   5.661
  668SOL    HW2 2904   5.239   6.253   5.769
  669SOL     OW 2905   6.062   0.596   3.513
  669SOL    HW1 2906   5.997   0.592   3.588
  669SOL    HW2 2907   6.128   0.521   3.522
  670SOL     OW 2908   2.585   2.098   2.004
  670SOL    HW1 2909   2.602   2.014   2.055
  670SOL    HW2 2910   2.657   2.111   1.936
  671SOL     OW 2911   3.191   5.905   0.947
  671SOL    HW1 2912   3.095   5.922   0.924
  671SOL    HW2 2913   3.209   5.807   0.942
  672SOL     OW 2914   6.666   5.508   2.229
  672SOL    HW1 2915   6.711   5.419   2.234
  672SOL    HW2 2916   6.625   5.519   2.138
  673SOL     OW 2917   6.251   6.761   1.087
  673SOL    HW1 2918   6.227   6.783   1.182
  673SOL    HW2 2919   6.195   6.815   1.025
  674SOL     OW 2920   0.526   1.279   4.373
  674SOL    HW1 2921   0.530   1.301   4.470
  674SOL    HW2 2922   0.616   1.246   4.342
  675SOL     OW 2923   5.487   2.403   2.828
  675SOL    HW1 2924   5.546   2.450   2.895
  675SOL    HW2 2925   5.499   2.444   2.738
  676SOL     OW 2926   2.423   5.138   4.314
  676SOL    HW1 2927   2.438   5.042   4.289
  676SOL    HW2 2928   2.455   5.154   4.407
  677SOL     OW 2929   4.752   1.027   1.003
  677SOL    HW1 2930   4.783   0.960   1.070
  677SOL    HW2 2931   4.825   1.045   0.937
  678SOL     OW 2932   2.726   5.685   5.015
  678SOL    HW1 2933   2.795   5.734   4.961
  678SOL    HW2 2934   2.648   5.662   4.957
  679SOL     OW 2935   4.760   1.368   4.560
  679SOL    HW1 2936   4.832   1.430   4.588
  679SOL    HW2 2937   4.776   1.277   4.599
  680SOL     OW 2938   4.392   5.909   4.429
  680SOL    HW1 2939   4.423   5.815   4.418
  680SOL    HW2 2940   4.442   5.952   4.503
  681SOL     OW 2941   4.598   5.892   1.816
  681SOL    HW1 2942   4.681   5.921   1.864
  681SOL    HW2 2943   4.602   5.794   1.797
  682SOL     OW 2944   5.863   1.506   2.165
  682SOL    HW1 2945   5.819   1.509   2.075
  682SOL    HW2 2946   5.881   1.599   2.196
  683SOL     OW 2947   4.621   2.714   0.717
  683SOL    HW1 2948   4.605   2.616   0.733
  683SOL    HW2 2949   4.689   2.725   0.646
  684SOL     OW 2950   6.545   0.802   0.420
  684SOL    HW1 2951   6.632   0.834   0.382
  684SOL    HW2 2952   6.557   0.773   0.514
  685SOL     OW 2953   3.413   2.102   4.014
  685SOL    HW1 2954   3.407   2.083   4.112
  685SOL    HW2 2955   3.505   2.134   3.992
  686SOL     OW 2956   4.683   1.957   4.307
  686SOL    HW1 2957   4.778   1.939   4.282
  686SOL    HW2 2958   4.674   1.951   4.407
  687SOL     OW 2959   1.039   2.063   4.262
  687SOL    HW1 2960   0.970   2.096   4.197
  687SOL    HW2 2961   1.076   2.141   4.313
  688SOL     OW 2962   6.934   1.477   6.440
  688SOL    HW1 2963   6.922   1.515   6.532
  688SOL    HW2 2964   6.886   1.535   6.374
  689SOL     OW 2965   1.525   4.510   6.098
  689SOL    HW1 2966   1.571   4.423   6.114
  689SOL    HW2 2967   1.592   4.577   6.066
  690SOL     OW 2968   6.911   3.791   3.244
  690SOL    HW1 2969   6.914   3.691   3.246
  690SOL    HW2 2970   6.818   3.821   3.223
  691SOL     OW 2971   3.552   1.703   0.377
  691SOL    HW1 2972   3.490   1.628   0.354
  691SOL    HW2 2973   3.607   1.677   0.456
  692SOL     OW 2974   4.392   2.033   4.945
  692SOL    HW1 2975   4.330   2.101   4.984
  692SOL    HW2 2976   4.340   1.951   4.922
  693SOL     OW 2977   4.733   6.645   4.136
  693SOL    HW1 2978   4.729   6.565   4.077
  693SOL    HW2 2979   4.680   6.719   4.095
  694SOL     OW 2980   4.069   6.282   4.962
  694SOL    HW1 2981   4.022   6.366   4.934
  694SOL    HW2 2982   4.047   6.262   5.058
  695SOL     OW 2983   3.848   6.576   4.125
  695SOL    HW1 2984   3.822   6.518   4.203
  695SOL    HW2 2985   3.942   6.555   4.098
  696SOL     OW 2986   4.900   4.577   3.451
  696SOL    HW1 2987   4.993   4.611   3.436
  696SOL    HW2 2988   4.890   4.548   3.546
  697SOL     OW 2989   1.820   3.451   2.295
  697SOL    HW1 2990   1.909   3.420   2.261
  697SOL    HW2 2991   1.833   3.527   2.359
  698SOL     OW 2992   5.581   6.268   0.820
  698SOL    HW1 2993   5.497   6.220   0.845
  698SOL    HW2 2994   5.590   6.268   0.720
  699SOL     OW 2995   1.679   3.465   6.558
  699SOL    HW1 2996   1.716   3.374   6.539
  699SOL    HW2 2997   1.735   3.534   6.514
  700SOL     OW 2998   3.240   6.809   2.016
  700SOL    HW1 2999   3.260   6.885   1.955
  700SOL    HW2 3000   3.184   6.742   1.968
  701SOL     OW 3001   0.197   4.383   6.854
  701SOL    HW1 3002   0.282   4.384   6.801
  701SOL    HW2 3003   0.188   4.469   6.905
  702SOL     OW 3004   2.113   6.753   4.639
  702SOL    HW1 3005   2.065   6.839   4.655
  702SOL    HW2 3006   2.057   6.693   4.583
  703SOL     OW 3007   3.427   3.024   5.283
  703SOL    HW1 3008   3.413   2.941   5.230
  703SOL    HW2 3009   3.390   3.103   5.232
  704SOL     OW 3010   1.799   2.500   6.250
  704SOL    HW1 3011   1.786   2.594   6.220
  704SOL    HW2 3012   1.808   2.441   6.170
  705SOL     OW 3013   6.184   5.591   3.236
  705SOL    HW1 3014   6.150   5.684   3.221
  705SOL    HW2 3015   6.121   5.526   3.194
  706SOL     OW 3016   4.397   2.096   5.521
  706SOL    HW1 3017   4.469   2.165   5.518
  706SOL    HW2 3018   4.375   2.075   5.616
  707SOL     OW 3019   4.023   4.814   3.083
  707SOL    HW1 3020   4.093   4.744   3.069
  707SOL    HW2 3021   4.067   4.903   3.098
  708SOL     OW 3022   2.627   1.295   2.783
  708SOL    HW1 3023   2.709   1.280   2.728
  708SOL    HW2 3024   2.654   1.318   2.877
  709SOL     OW 3025   1.421   5.969   0.788
  709SOL    HW1 3026   1.400   5.986   0.691
  709SOL    HW2 3027   1.340   5.989   0.843
  710SOL     OW 3028   4.778   2.113   1.669
  710SOL    HW1 3029   4.747   2.131   1.575
  710SOL    HW2 3030   4.699   2.102   1.729
  711SOL     OW 3031   0.043   2.716   6.241
  711SOL    HW1 3032   0.131   2.744   6.281
  711SOL    HW2 3033   6.999   2.790   6.252
  712SOL     OW 3034   4.721   2.238   0.551
  712SOL    HW1 3035   4.670   2.174   0.609
  712SOL    HW2 3036   4.818   2.233   0.574
  713SOL     OW 3037   4.181   3.274   5.380
  713SOL    HW1 3038   4.210   3.364   5.348
  713SOL    HW2 3039   4.128   3.229   5.308
  714SOL     OW 3040   6.964   5.398   3.669
  714SOL    HW1 3041   6.975   5.391   3.769
  714SOL    HW2 3042   6.973   5.493   3.641
  715SOL     OW 3043   5.786   5.704   6.423
  715SOL    HW1 3044   5.740   5.792   6.412
  715SOL    HW2 3045   5.723   5.639   6.464
  716SOL     OW 3046   1.147   1.221   2.687
  716SOL    HW1 3047   1.247   1.225   2.680
  716SOL    HW2 3048   1.121   1.199   2.781
  717SOL     OW 3049   6.622   4.922   4.222
  717SOL    HW1 3050   6.551   4.864   4.183
  717SOL    HW2 3051   6.650   4.990   4.154
  718SOL     OW 3052   4.941   2.688   4.831
  718SOL    HW1 3053   4.936   2.704   4.732
  718SOL    HW2 3054   4.991   2.603   4.848
  719SOL     OW 3055   5.763   0.121   3.124
  719SOL    HW1 3056   5.665   0.101   3.124
  719SOL    HW2 3057   5.807   0.071   3.050
  720SOL     OW 3058   1.780   0.364   5.838
  720SOL    HW1 3059   1.722   0.335   5.762
  720SOL    HW2 3060   1.866   0.400   5.802
  721SOL     OW 3061   1.989   1.259   1.827
  721SOL    HW1 3062   1.946   1.182   1.875
  721SOL    HW2 3063   1.990   1.339   1.886
  722SOL     OW 3064   3.222   1.074   5.189
  722SOL    HW1 3065   3.276   1.110   5.265
  722SOL    HW2 3066   3.211   1.144   5.119
  723SOL     OW 3067   1.968   5.146   3.776
  723SOL    HW1 3068   1.998   5.052   3.760
  723SOL    HW2 3069   2.047   5.207   3.776
  724SOL     OW 3070   0.291   1.419   3.626
  724SOL    HW1 3071   0.363   1.447   3.563
  724SOL    HW2 3072   0.248   1.500   3.666
  725SOL     OW 3073   1.781   4.697   2.292
  725SOL    HW1 3074   1.728   4.767   2.340
  725SOL    HW2 3075   1.838   4.740   2.222
  726SOL     OW 3076   2.548   4.932   1.077
  726SOL    HW1 3077   2.508   5.023   1.090
  726SOL    HW2 3078   2.610   4.934   0.998
  727SOL     OW 3079   4.805   4.610   6.382
  727SOL    HW1 3080   4.865   4.653   6.314
  727SOL    HW2 3081   4.719   4.661   6.388
  728SOL     OW 3082   6.644   3.583   4.328
  728SOL    HW1 3083   6.698   3.646   4.383
  728SOL    HW2 3084   6.705   3.525   4.274
  729SOL     OW 3085   0.630   2.968   0.976
  729SOL    HW1 3086   0.692   3.012   0.910
  729SOL    HW2 3087   0.537   2.968   0.940
  730SOL     OW 3088   5.868   0.446   4.054
  730SOL    HW1 3089   5.879   0.504   3.973
  730SOL    HW2 3090   5.782   0.396   4.048
  731SOL     OW 3091   4.832   5.126   0.233
  731SOL    HW1 3092   4.893   5.170   0.300
  731SOL    HW2 3093   4.738   5.126   0.268
  732SOL     OW 3094   5.970   2.595   2.535
  732SOL    HW1 3095   5.914   2.567   2.613
  732SOL    HW2 3096   5.918   2.583   2.450
  733SOL     OW 3097   5.883   0.262   4.774
  733SOL    HW1 3098   5.877   0.165   4.748
  733SOL    HW2 3099   5.836   0.318   4.707
  734SOL     OW 3100   6.180   5.364   2.963
  734SOL    HW1 3101   6.231   5.348   3.048
  734SOL    HW2 3102   6.146   5.277   2.928
  735SOL     OW 3103   4.135   1.361   0.387
  735SOL    HW1 3104   4.213   1.309   0.352
  735SOL    HW2 3105   4.090   1.407   0.311
  736SOL     OW 3106   1.495   1.347   3.905
  736SOL    HW1 3107   1.420   1.369   3.968
  736SOL    HW2 3108   1.469   1.269   3.848
  737SOL     OW 3109   5.632   1.837   6.359
  737SOL    HW1 3110   5.584   1.751   6.340
  737SOL    HW2 3111   5.631   1.894   6.276
  738SOL     OW 3112   2.511   3.903   1.626
  738SOL    HW1 3113   2.585   3.897   1.692
  738SOL    HW2 3114   2.521   3.830   1.558
  739SOL     OW 3115   3.641   0.531   4.775
  739SOL    HW1 3116   3.678   0.583   4.851
  739SOL    HW2 3117   3.716   0.489   4.724
  740SOL     OW 3118   5.751   1.476   2.751
  740SOL    HW1 3119   5.832   1.515   2.795
  740SOL    HW2 3120   5.779   1.422   2.671
  741SOL     OW 3121   2.216   0.657   4.012
  741SOL    HW1 3122   2.172   0.569   4.032
  741SOL    HW2 3123   2.242   0.660   3.916
  742SOL     OW 3124   2.175   6.079   1.541
  742SOL    HW1 3125   2.238   6.106   1.468
  742SOL    HW2 3126   2.210   6.113   1.629
  743SOL     OW 3127   0.242   5.846   3.070
  743SOL    HW1 3128   0.209   5.754   3.049
  743SOL    HW2 3129   0.330   5.862   3.025
  744SOL     OW 3130   6.310   1.139   0.504
  744SOL    HW1 3131   6.214   1.166   0.512
  744SOL    HW2 3132   6.346   1.115   0.595
  745SOL     OW 3133   2.086   5.694   5.303
  745SOL    HW1 3134   2.170   5.668   5.256
  745SOL    HW2 3135   2.088   5.658   5.397
  746SOL     OW 3136   5.685   4.188   5.972
  746SOL    HW1 3137   5.605   4.141   6.009
  746SOL    HW2 3138   5.656   4.255   5.904
  747SOL     OW 3139   4.233   5.668   4.719
  747SOL    HW1 3140   4.320   5.639   4.760
  747SOL    HW2 3141   4.195   5.592   4.666
  748SOL     OW 3142   4.599   5.584   2.097
  748SOL    HW1 3143   4.550   5.539   2.172
  748SOL    HW2 3144   4.677   5.633   2.134
  749SOL     OW 3145   6.016   3.661   4.168
  749SOL    HW1 3146   6.029   3.743   4.112
  749SOL    HW2 3147   5.952   3.682   4.243
  750SOL     OW 3148   2.335   0.875   0.899
  750SOL    HW1 3149   2.270   0.944   0.868
  750SOL    HW2 3150   2.291   0.815   0.966
  751SOL     OW 3151   4.115   1.405   0.859
  751SOL    HW1 3152   4.167   1.388   0.775
  751SOL    HW2 3153   4.179   1.416   0.936
  752SOL     OW 3154   3.227   2.453   0.153
  752SOL    HW1 3155   3.264   2.362   0.171
  752SOL    HW2 3156   3.136   2.461   0.193
  753SOL     OW 3157   2.152   3.501   6.032
  753SOL    HW1 3158   2.069   3.515   5.977
  753SOL    HW2 3159   2.230   3.489   5.971
  754SOL     OW 3160   4.188   1.002   0.300
  754SOL    HW1 3161   4.102   1.035   0.261
  754SOL    HW2 3162   4.250   1.080   0.316
  755SOL     OW 3163   3.015   4.897   5.487
  755SOL    HW1 3164   3.048   4.871   5.577
  755SOL    HW2 3165   3.056   4.836   5.418
  756SOL     OW 3166   3.211   4.578   0.032
  756SOL    HW1 3167   3.160   4.664   0.034
  756SOL    HW2 3168   3.177   4.522   6.979
  757SOL     OW 3169   2.081   6.134   2.649
  757SOL    HW1 3170   2.159   6.190   2.679
  757SOL    HW2 3171   2.074   6.137   2.549
  758SOL     OW 3172   4.286   0.977   3.939
  758SOL    HW1 3173   4.360   0.922   3.978
  758SOL    HW2 3174   4.320   1.069   3.917
  759SOL     OW 3175   6.701   3.142   2.545
  759SOL    HW1 3176   6.692   3.216   2.478
  759SOL    HW2 3177   6.696   3.180   2.637
  760SOL     OW 3178   6.352   6.729   4.226
  760SOL    HW1 3179   6.362   6.631   4.211
  760SOL    HW2 3180   6.432   6.776   4.191
  761SOL     OW 3181   5.719   4.547   6.191
  761SOL    HW1 3182   5.753   4.596   6.112
  761SOL    HW2 3183   5.727   4.448   6.175
  762SOL     OW 3184   2.726   0.073   5.608
  762SOL    HW1 3185   2.786   7.016   5.618
  762SOL    HW2 3186   2.752   0.126   5.527
  763SOL     OW 3187   4.755   6.612   6.846
  763SOL    HW1 3188   4.731   6.603   6.749
  763SOL    HW2 3189   4.677   6.647   6.897
  764SOL     OW 3190   5.546   1.156   5.756
  764SOL    HW1 3191   5.521   1.253   5.748
  764SOL    HW2 3192   5.464   1.101   5.771
  765SOL     OW 3193   1.714   6.514   0.598
  765SOL    HW1 3194   1.660   6.598   0.590
  765SOL    HW2 3195   1.751   6.489   0.508
  766SOL     OW 3196   2.994   2.588   5.344
  766SOL    HW1 3197   2.916   2.527   5.358
  766SOL    HW2 3198   3.066   2.540   5.295
  767SOL     OW 3199   6.240   6.274   3.504
  767SOL    HW1 3200   6.238   6.356   3.560
  767SOL    HW2 3201   6.153   6.225   3.513
  768SOL     OW 3202   2.245   5.804   3.466
  768SOL    HW1 3203   2.284   5.714   3.488
  768SOL    HW2 3204   2.317   5.864   3.432
  769SOL     OW 3205   3.214   1.417   5.278
  769SOL    HW1 3206   3.230   1.386   5.184
  769SOL    HW2 3207   3.116   1.419   5.295
  770SOL     OW 3208   1.625   4.769   4.304
  770SOL    HW1 3209   1.710   4.717   4.309
  770SOL    HW2 3210   1.627   4.842   4.372
  771SOL     OW 3211   1.218   4.626   3.080
  771SOL    HW1 3212   1.204   4.683   2.999
  771SOL    HW2 3213   1.139   4.635   3.141
  772SOL     OW 3214   5.767   4.277   6.250
  772SOL    HW1 3215   5.770   4.261   6.151
  772SOL    HW2 3216   5.860   4.268   6.287
  773SOL     OW 3217   0.667   3.906   2.601
  773SOL    HW1 3218   0.708   3.860   2.523
  773SOL    HW2 3219   0.573   3.872   2.615
  774SOL     OW 3220   1.983   1.177   2.563
  774SOL    HW1 3221   1.921   1.251   2.585
  774SOL    HW2 3222   2.072   1.214   2.534
  775SOL     OW 3223   2.187   2.015   4.672
  775SOL    HW1 3224   2.182   2.112   4.653
  775SOL    HW2 3225   2.162   1.963   4.590
  776SOL     OW 3226   6.893   0.326   6.208
  776SOL    HW1 3227   6.887   0.226   6.215
  776SOL    HW2 3228   6.921   0.351   6.115
  777SOL     OW 3229   1.929   3.803   1.099
  777SOL    HW1 3230   1.847   3.757   1.064
  777SOL    HW2 3231   1.905   3.856   1.180
  778SOL     OW 3232   2.240   0.252   1.350
  778SOL    HW1 3233   2.173   0.325   1.344
  778SOL    HW2 3234   2.207   0.171   1.300
  779SOL     OW 3235   6.510   1.829   1.752
  779SOL    HW1 3236   6.564   1.821   1.668
  779SOL    HW2 3237   6.544   1.905   1.807
  780SOL     OW 3238   0.904   2.362   4.449
  780SOL    HW1 3239   0.994   2.393   4.418
  780SOL    HW2 3240   0.838   2.436   4.436
  781SOL     OW 3241   6.477   5.143   0.425
  781SOL    HW1 3242   6.419   5.172   0.350
  781SOL    HW2 3243   6.562   5.196   0.425
  782SOL     OW 3244   2.230   3.762   5.755
  782SOL    HW1 3245   2.315   3.752   5.806
  782SOL    HW2 3246   2.183   3.846   5.783
  783SOL     OW 3247   5.951   4.365   1.361
  783SOL    HW1 3248   5.987   4.398   1.274
  783SOL    HW2 3249   5.851   4.358   1.355
  784SOL     OW 3250   3.257   5.197   1.816
  784SOL    HW1 3251   3.257   5.288   1.776
  784SOL    HW2 3252   3.171   5.150   1.795
  785SOL     OW 3253   0.244   1.635   3.787
  785SOL    HW1 3254   0.278   1.729   3.776
  785SOL    HW2 3255   0.304   1.584   3.848
  786SOL     OW 3256   0.034   0.750   2.527
  786SOL    HW1 3257   0.001   0.819   2.591
  786SOL    HW2 3258   0.081   0.677   2.577
  787SOL     OW 3259   2.254   6.893   6.690
  787SOL    HW1 3260   2.241   6.975   6.635
  787SOL    HW2 3261   2.267   6.814   6.629
  788SOL     OW 3262   4.164   2.699   1.433
  788SOL    HW1 3263   4.118   2.610   1.425
  788SOL    HW2 3264   4.138   2.757   1.357
  789SOL     OW 3265   4.443   5.589   2.380
  789SOL    HW1 3266   4.364   5.528   2.374
  789SOL    HW2 3267   4.417   5.673   2.427
  790SOL     OW 3268   2.270   1.062   1.620
  790SOL    HW1 3269   2.172   1.056   1.637
  790SOL    HW2 3270   2.299   1.158   1.623
  791SOL     OW 3271   2.551   6.149   5.584
  791SOL    HW1 3272   2.465   6.099   5.578
  791SOL    HW2 3273   2.560   6.210   5.506
  792SOL     OW 3274   0.663   1.007   2.095
  792SOL    HW1 3275   0.601   0.929   2.106
  792SOL    HW2 3276   0.648   1.049   2.005
  793SOL     OW 3277   5.108   5.728   5.012
  793SOL    HW1 3278   5.098   5.696   5.106
  793SOL    HW2 3279   5.031   5.788   4.989
  794SOL     OW 3280   3.093   3.493   5.878
  794SOL    HW1 3281   3.132   3.541   5.799
  794SOL    HW2 3282   3.076   3.398   5.854
  795SOL     OW 3283   3.849   0.462   5.980
  795SOL    HW1 3284   3.911   0.540   5.992
  795SOL    HW2 3285   3.895   0.378   6.006
  796SOL     OW 3286   1.820   3.051   0.581
  796SOL    HW1 3287   1.865   2.969   0.615
  796SOL    HW2 3288   1.726   3.053   0.613
  797SOL     OW 3289   4.367   0.228   0.585
  797SOL    HW1 3290   4.291   0.201   0.525
  797SOL    HW2 3291   4.431   0.285   0.534
  798SOL     OW 3292   2.922   6.579   1.496
  798SOL    HW1 3293   2.950   6.602   1.590
  798SOL    HW2 3294   2.848   6.640   1.468
  799SOL     OW 3295   0.221   1.730   6.415
  799SOL    HW1 3296   0.256   1.682   6.496
  799SOL    HW2 3297   0.228   1.671   6.335
  800SOL     OW 3298   6.724   2.063   2.597
  800SOL    HW1 3299   6.761   1.991   2.656
  800SOL    HW2 3300   6.739   2.038   2.501
  801SOL     OW 3301   2.116   4.156   4.927
  801SOL    HW1 3302   2.149   4.228   4.866
  801SOL    HW2 3303   2.192   4.097   4.955
  802SOL     OW 3304   3.884   2.395   6.774
  802SOL    HW1 3305   3.858   2.376   6.868
  802SOL    HW2 3306   3.857   2.488   6.750
  803SOL     OW 3307   2.065   6.974   6.083
  803SOL    HW1 3308   2.062   0.034   6.026
  803SOL    HW2 3309   1.983   6.920   6.067
  804SOL     OW 3310   6.762   6.619   1.549
  804SOL    HW1 3311   6.839   6.569   1.588
  804SOL    HW2 3312   6.715   6.562   1.482
  805SOL     OW 3313   1.484   0.295   4.319
  805SOL    HW1 3314   1.541   0.305   4.401
  805SOL    HW2 3315   1.539   0.313   4.238
  806SOL     OW 3316   6.592   0.590   6.054
  806SOL    HW1 3317   6.540   0.669   6.022
  806SOL    HW2 3318   6.538   0.540   6.122
  807SOL     OW 3319   0.443   0.129   4.154
  807SOL    HW1 3320   0.398   0.060   4.097
  807SOL    HW2 3321   0.489   0.195   4.096
  808SOL     OW 3322   5.406   2.854   6.646
  808SOL    HW1 3323   5.403   2.781   6.715
  808SOL    HW2 3324   5.377   2.817   6.558
  809SOL     OW 3325   0.793   4.681   0.659
  809SOL    HW1 3326   0.704   4.706   0.621
  809SOL    HW2 3327   0.808   4.731   0.745
  810SOL     OW 3328   2.851   3.403   0.754
  810SOL    HW1 3329   2.902   3.321   0.777
  810SOL    HW2 3330   2.883   3.439   0.666
  811SOL     OW 3331   5.559   5.325   4.196
  811SOL    HW1 3332   5.499   5.361   4.267
  811SOL    HW2 3333   5.654   5.325   4.229
  812SOL     OW 3334   0.553   1.841   1.974
  812SOL    HW1 3335   0.460   1.845   2.012
  812SOL    HW2 3336   0.592   1.933   1.974
  813SOL     OW 3337   2.636   6.981   4.680
  813SOL    HW1 3338   2.695   7.013   4.607
  813SOL    HW2 3339   2.662   0.002   4.766
  814SOL     OW 3340   6.255   5.934   2.405
  814SOL    HW1 3341   6.197   5.949   2.484
  814SOL    HW2 3342   6.317   5.857   2.423
  815SOL     OW 3343   5.415   2.525   3.178
  815SOL    HW1 3344   5.384   2.620   3.173
  815SOL    HW2 3345   5.336   2.463   3.175
  816SOL     OW 3346   4.716   4.771   6.984
  816SOL    HW1 3347   4.695   4.852   6.929
  816SOL    HW2 3348   4.750   4.698   6.925
  817SOL     OW 3349   1.104   5.174   1.757
  817SOL    HW1 3350   1.062   5.123   1.832
  817SOL    HW2 3351   1.134   5.263   1.791
  818SOL     OW 3352   5.688   2.661   3.853
  818SOL    HW1 3353   5.713   2.620   3.941
  818SOL    HW2 3354   5.589   2.664   3.844
  819SOL     OW 3355   5.819   2.733   1.881
  819SOL    HW1 3356   5.737   2.765   1.834
  819SOL    HW2 3357   5.845   2.799   1.952
  820SOL     OW 3358   3.200   1.994   4.716
  820SOL    HW1 3359   3.275   2.027   4.658
  820SOL    HW2 3360   3.230   1.914   4.767
  821SOL     OW 3361   6.285   4.748   5.740
  821SOL    HW1 3362   6.209   4.689   5.770
  821SOL    HW2 3363   6.313   4.722   5.648
  822SOL     OW 3364   0.783   4.086   2.800
  822SOL    HW1 3365   0.841   4.159   2.763
  822SOL    HW2 3366   0.731   4.044   2.726
  823SOL     OW 3367   6.244   4.669   6.209
  823SOL    HW1 3368   6.171   4.725   6.248
  823SOL    HW2 3369   6.296   4.724   6.143
  824SOL     OW 3370   5.314   1.142   5.461
  824SOL    HW1 3371   5.252   1.216   5.488
  824SOL    HW2 3372   5.333   1.085   5.541
  825SOL     OW 3373   6.630   5.841   0.603
  825SOL    HW1 3374   6.571   5.818   0.526
  825SOL    HW2 3375   6.579   5.830   0.689
  826SOL     OW 3376   3.354   2.509   5.725
  826SOL    HW1 3377   3.387   2.561   5.647
  826SOL    HW2 3378   3.258   2.485   5.712
  827SOL     OW 3379   2.964   4.329   5.366
  827SOL    HW1 3380   2.961   4.392   5.444
  827SOL    HW2 3381   2.935   4.378   5.283
  828SOL     OW 3382   6.230   5.961   5.902
  828SOL    HW1 3383   6.322   5.981   5.869
  828SOL    HW2 3384   6.163   5.981   5.830
  829SOL     OW 3385   3.168   3.169   2.031
  829SOL    HW1 3386   3.151   3.107   2.108
  829SOL    HW2 3387   3.267   3.178   2.017
  830SOL     OW 3388   5.613   5.035   6.945
  830SOL    HW1 3389   5.633   4.992   6.856
  830SOL    HW2 3390   5.638   5.131   6.941
  831SOL     OW 3391   6.470   6.781   1.459
  831SOL    HW1 3392   6.553   6.794   1.405
  831SOL    HW2 3393   6.493   6.733   1.544
  832SOL     OW 3394   4.402   1.324   4.625
  832SOL    HW1 3395   4.429   1.417   4.599
  832SOL    HW2 3396   4.413   1.263   4.547
  833SOL     OW 3397   1.933   3.627   6.732
  833SOL    HW1 3398   1.912   3.632   6.634
  833SOL    HW2 3399   2.027   3.657   6.748
  834SOL     OW 3400   5.157   2.980   0.298
  834SOL    HW1 3401   5.207   3.067   0.293
  834SOL    HW2 3402   5.206   2.917   0.359
  835SOL     OW 3403   2.332   0.453   4.976
  835SOL    HW1 3404   2.355   0.434   5.072
  835SOL    HW2 3405   2.288   0.373   4.936
  836SOL     OW 3406   3.044   0.935   5.351
  836SOL    HW1 3407   3.097   1.000   5.298
  836SOL    HW2 3408   3.060   0.842   5.317
  837SOL     OW 3409   1.269   0.021   0.804
  837SOL    HW1 3410   1.197   0.056   0.864
  837SOL    HW2 3411   1.265   0.068   0.716
  838SOL     OW 3412   2.055   5.964   4.131
  838SOL    HW1 3413   1.999   5.979   4.212
  838SOL    HW2 3414   2.076   5.867   4.122
  839SOL     OW 3415   2.286   1.336   1.579
  839SOL    HW1 3416   2.332   1.363   1.664
  839SOL    HW2 3417   2.310   1.399   1.506
  840SOL     OW 3418   6.197   5.500   6.852
  840SOL    HW1 3419   6.163   5.408   6.830
  840SOL    HW2 3420   6.286   5.492   6.897
  841SOL     OW 3421   3.716   5.751   6.018
  841SOL    HW1 3422   3.776   5.787   6.089
  841SOL    HW2 3423   3.757   5.767   5.928
  842SOL     OW 3424   3.631   6.348   7.004
  842SOL    HW1 3425   3.550   6.382   0.029
  842SOL    HW2 3426   3.607   6.267   6.951
  843SOL     OW 3427   1.811   1.880   1.867
  843SOL    HW1 3428   1.867   1.939   1.925
  843SOL    HW2 3429   1.719   1.873   1.906
  844SOL     OW 3430   0.222   6.278   1.431
  844SOL    HW1 3431   0.231   6.231   1.343
  844SOL    HW2 3432   0.131   6.260   1.470
  845SOL     OW 3433   5.189   2.643   3.367
  845SOL    HW1 3434   5.181   2.548   3.338
  845SOL    HW2 3435   5.105   2.672   3.411
  846SOL     OW 3436   3.095   0.659   6.323
  846SOL    HW1 3437   3.150   0.718   6.382
  846SOL    HW2 3438   3.098   0.565   6.358
  847SOL     OW 3439   2.066   3.243   2.052
  847SOL    HW1 3440   2.095   3.338   2.041
  847SOL    HW2 3441   2.115   3.202   2.129
  848SOL     OW 3442   6.608   6.828   5.722
  848SOL    HW1 3443   6.674   6.885   5.673
  848SOL    HW2 3444   6.574   6.878   5.802
  849SOL     OW 3445   6.351   4.062   6.410
  849SOL    HW1 3446   6.333   4.147   6.458
  849SOL    HW2 3447   6.265   4.025   6.374
  850SOL     OW 3448   0.067   0.208   5.095
  850SOL    HW1 3449   0.134   0.278   5.068
  850SOL    HW2 3450   7.011   0.252   5.137
  851SOL     OW 3451   6.498   2.962   6.796
  851SOL    HW1 3452   6.594   2.974   6.771
  851SOL    HW2 3453   6.492   2.906   6.878
  852SOL     OW 3454   0.401   4.552   0.773
  852SOL    HW1 3455   0.353   4.536   0.859
  852SOL    HW2 3456   0.345   4.518   0.697
  853SOL     OW 3457   1.751   4.339   6.423
  853SOL    HW1 3458   1.772   4.244   6.448
  853SOL    HW2 3459   1.680   4.375   6.484
  854SOL     OW 3460   5.307   6.386   0.041
  854SOL    HW1 3461   5.355   6.321   0.099
  854SOL    HW2 3462   5.223   6.416   0.087
  855SOL     OW 3463   6.317   0.386   0.966
  855SOL    HW1 3464   6.365   0.415   1.048
  855SOL    HW2 3465   6.308   0.287   0.966
  856SOL     OW 3466   1.456   0.699   5.904
  856SOL    HW1 3467   1.534   0.716   5.844
  856SOL    HW2 3468   1.489   0.675   5.995
  857SOL     OW 3469   6.589   5.667   1.988
  857SOL    HW1 3470   6.538   5.586   1.959
  857SOL    HW2 3471   6.671   5.677   1.932
  858SOL     OW 3472   3.407   4.285   0.911
  858SOL    HW1 3473   3.352   4.304   0.993
  858SOL    HW2 3474   3.388   4.193   0.879
  859SOL     OW 3475   5.748   6.119   5.333
  859SOL    HW1 3476   5.737   6.079   5.424
  859SOL    HW2 3477   5.715   6.055   5.264
  860SOL     OW 3478   5.898   2.725   6.684
  860SOL    HW1 3479   5.826   2.782   6.644
  860SOL    HW2 3480   5.906   2.744   6.781
  861SOL     OW 3481   2.683   5.624   3.082
  861SOL    HW1 3482   2.678   5.699   3.149
  861SOL    HW2 3483   2.610   5.558   3.102
  862SOL     OW 3484   2.222   4.775   3.342
  862SOL    HW1 3485   2.216   4.691   3.397
  862SOL    HW2 3486   2.163   4.845   3.382
  863SOL     OW 3487   5.726   1.335   6.022
  863SOL    HW1 3488   5.726   1.395   5.942
  863SOL    HW2 3489   5.813   1.286   6.027
  864SOL     OW 3490   3.863   6.763   5.159
  864SOL    HW1 3491   3.791   6.825   5.189
  864SOL    HW2 3492   3.903   6.717   5.238
  865SOL     OW 3493   2.077   0.388   5.724
  865SOL    HW1 3494   2.147   0.347   5.782
  865SOL    HW2 3495   2.091   0.359   5.629
  866SOL     OW 3496   3.756   6.961   0.575
  866SOL    HW1 3497   3.757   6.940   0.477
  866SOL    HW2 3498   3.714   6.886   0.625
  867SOL     OW 3499   5.129   3.265   0.605
  867SOL    HW1 3500   5.203   3.316   0.649
  867SOL    HW2 3501   5.120   3.295   0.510
  868SOL     OW 3502   0.128   1.456   2.281
  868SOL    HW1 3503   0.193   1.510   2.228
  868SOL    HW2 3504   0.164   1.441   2.373
  869SOL     OW 3505   6.601   4.227   3.343
  869SOL    HW1 3506   6.550   4.164   3.284
  869SOL    HW2 3507   6.614   4.185   3.433
  870SOL     OW 3508   4.476   4.566   1.050
  870SOL    HW1 3509   4.491   4.508   1.131
  870SOL    HW2 3510   4.459   4.660   1.079
  871SOL     OW 3511   5.239   2.717   3.639
  871SOL    HW1 3512   5.320   2.760   3.677
  871SOL    HW2 3513   5.252   2.700   3.541
  872SOL     OW 3514   6.949   2.187   4.406
  872SOL    HW1 3515   0.020   2.220   4.393
  872SOL    HW2 3516   6.950   2.087   4.414
  873SOL     OW 3517   4.267   5.978   5.356
  873SOL    HW1 3518   4.169   5.961   5.342
  873SOL    HW2 3519   4.287   6.075   5.342
  874SOL     OW 3520   6.387   4.155   0.470
  874SOL    HW1 3521   6.389   4.102   0.385
  874SOL    HW2 3522   6.297   4.198   0.479
  875SOL     OW 3523   4.774   5.160   0.955
  875SOL    HW1 3524   4.735   5.078   0.912
  875SOL    HW2 3525   4.747   5.163   1.052
  876SOL     OW 3526   0.855   5.700   1.778
  876SOL    HW1 3527   0.795   5.633   1.822
  876SOL    HW2 3528   0.806   5.787   1.771
  877SOL     OW 3529   3.328   4.479   5.757
  877SOL    HW1 3530   3.352   4.385   5.785
  877SOL    HW2 3531   3.229   4.491   5.765
  878SOL     OW 3532   4.611   6.796   3.687
  878SOL    HW1 3533   4.706   6.807   3.717
  878SOL    HW2 3534   4.550   6.822   3.762
  879SOL     OW 3535   3.628   0.468   1.817
  879SOL    HW1 3536   3.549   0.529   1.812
  879SOL    HW2 3537   3.624   0.402   1.741
  880SOL     OW 3538   3.489   3.622   3.779
  880SOL    HW1 3539   3.556   3.670   3.723
  880SOL    HW2 3540   3.407   3.678   3.788
  881SOL     OW 3541   5.394   3.032   4.864
  881SOL    HW1 3542   5.438   2.992   4.784
  881SOL    HW2 3543   5.327   2.967   4.901
  882SOL     OW 3544   0.741   3.247   4.039
  882SOL    HW1 3545   0.711   3.270   4.132
  882SOL    HW2 3546   0.797   3.322   4.003
  883SOL     OW 3547   3.040   0.760   1.446
  883SOL    HW1 3548   3.083   0.687   1.500
  883SOL    HW2 3549   2.990   0.821   1.507
  884SOL     OW 3550   6.029   3.782   5.455
  884SOL    HW1 3551   5.958   3.816   5.393
  884SOL    HW2 3552   5.988   3.725   5.526
  885SOL     OW 3553   3.259   0.873   5.011
  885SOL    HW1 3554   3.240   0.927   5.093
  885SOL    HW2 3555   3.175   0.829   4.979
  886SOL     OW 3556   3.357   6.934   0.031
  886SOL    HW1 3557   3.363   6.980   0.120
  886SOL    HW2 3558   3.386   6.839   0.041
  887SOL     OW 3559   3.735   6.474   3.458
  887SOL    HW1 3560   3.812   6.502   3.516
  887SOL    HW2 3561   3.726   6.374   3.461
  888SOL     OW 3562   0.011   5.893   3.803
  888SOL    HW1 3563   6.938   5.873   3.784
  888SOL    HW2 3564   0.024   5.901   3.902
  889SOL     OW 3565   6.900   2.372   0.623
  889SOL    HW1 3566   6.981   2.318   0.598
  889SOL    HW2 3567   6.825   2.351   0.560
  890SOL     OW 3568   1.489   5.147   2.582
  890SOL    HW1 3569   1.394   5.177   2.582
  890SOL    HW2 3570   1.494   5.052   2.613
  891SOL     OW 3571   5.936   4.248   1.597
  891SOL    HW1 3572   6.012   4.293   1.644
  891SOL    HW2 3573   5.931   4.281   1.503
  892SOL     OW 3574   2.754   3.875   5.279
  892SOL    HW1 3575   2.657   3.899   5.272
  892SOL    HW2 3576   2.780   3.872   5.376
  893SOL     OW 3577   2.046   6.307   3.454
  893SOL    HW1 3578   2.132   6.265   3.424
  893SOL    HW2 3579   1.991   6.330   3.374
  894SOL     OW 3580   0.745   3.088   1.870
  894SOL    HW1 3581   0.839   3.064   1.849
  894SOL    HW2 3582   0.692   3.093   1.785
  895SOL     OW 3583   1.233   4.901   3.960
  895SOL    HW1 3584   1.198   4.914   4.053
  895SOL    HW2 3585   1.318   4.953   3.949
  896SOL     OW 3586   5.241   4.727   1.274
  896SOL    HW1 3587   5.159   4.688   1.232
  896SOL    HW2 3588   5.313   4.736   1.205
  897SOL     OW 3589   4.185   1.480   6.762
  897SOL    HW1 3590   4.198   1.456   6.666
  897SOL    HW2 3591   4.267   1.455   6.814
  898SOL     OW 3592   3.686   6.562   3.058
  898SOL    HW1 3593   3.607   6.564   3.120
  898SOL    HW2 3594   3.666   6.501   2.981
  899SOL     OW 3595   0.358   6.708   0.288
  899SOL    HW1 3596   0.352   6.631   0.224
  899SOL    HW2 3597   0.274   6.761   0.285
  900SOL     OW 3598   6.020   0.063   0.408
  900SOL    HW1 3599   6.018   0.125   0.486
  900SOL    HW2 3600   6.101   0.079   0.353
  901SOL     OW 3601   2.301   6.869   3.764
  901SOL    HW1 3602   2.315   6.968   3.767
  901SOL    HW2 3603   2.202   6.849   3.767
  902SOL     OW 3604   1.031   1.996   0.937
  902SOL    HW1 3605   1.038   2.094   0.918
  902SOL    HW2 3606   1.097   1.971   1.008
  903SOL     OW 3607   0.370   2.685   6.478
  903SOL    HW1 3608   0.347   2.747   6.403
  903SOL    HW2 3609   0.468   2.691   6.497
  904SOL     OW 3610   1.838   1.795   2.155
  904SOL    HW1 3611   1.806   1.852   2.079
  904SOL    HW2 3612   1.759   1.758   2.204
  905SOL     OW 3613   4.941   2.188   6.486
  905SOL    HW1 3614   4.897   2.277   6.482
  905SOL    HW2 3615   5.039   2.200   6.500
  906SOL     OW 3616   6.926   2.078   6.621
  906SOL    HW1 3617   6.950   1.984   6.599
  906SOL    HW2 3618   7.008   2.130   6.645
  907SOL     OW 3619   5.450   3.120   0.832
  907SOL    HW1 3620   5.537   3.119   0.881
  907SOL    HW2 3621   5.398   3.037   0.855
  908SOL     OW 3622   2.833   4.769   3.047
  908SOL    HW1 3623   2.818   4.673   3.023
  908SOL    HW2 3624   2.842   4.776   3.147
  909SOL     OW 3625   4.335   6.159   1.548
  909SOL    HW1 3626   4.320   6.172   1.450
  909SOL    HW2 3627   4.325   6.246   1.595
  910SOL     OW 3628   3.476   1.970   0.739
  910SOL    HW1 3629   3.381   1.947   0.717
  910SOL    HW2 3630   3.483   1.994   0.836
  911SOL     OW 3631   1.029   6.576   6.143
  911SOL    HW1 3632   0.968   6.565   6.065
  911SOL    HW2 3633   0.991   6.527   6.222
  912SOL     OW 3634   6.390   2.622   3.178
  912SOL    HW1 3635   6.486   2.646   3.166
  912SOL    HW2 3636   6.370   2.537   3.129
  913SOL     OW 3637   3.841   0.124   3.104
  913SOL    HW1 3638   3.876   0.040   3.062
  913SOL    HW2 3639   3.916   0.177   3.141
  914SOL     OW 3640   2.218   0.397   6.295
  914SOL    HW1 3641   2.188   0.492   6.291
  914SOL    HW2 3642   2.314   0.390   6.267
  915SOL     OW 3643   6.187   4.165   6.851
  915SOL    HW1 3644   6.188   4.070   6.883
  915SOL    HW2 3645   6.115   4.215   6.900
  916SOL     OW 3646   1.468   2.894   1.928
  916SOL    HW1 3647   1.536   2.877   1.999
  916SOL    HW2 3648   1.452   2.992   1.920
  917SOL     OW 3649   0.292   6.754   1.432
  917SOL    HW1 3650   0.356   6.724   1.361
  917SOL    HW2 3651   0.236   6.829   1.397
  918SOL     OW 3652   3.244   0.630   1.065
  918SOL    HW1 3653   3.236   0.646   0.966
  918SOL    HW2 3654   3.322   0.681   1.100
  919SOL     OW 3655   6.156   1.489   2.490
  919SOL    HW1 3656   6.140   1.463   2.395
  919SOL    HW2 3657   6.143   1.587   2.501
  920SOL     OW 3658   2.271   4.189   2.094
  920SOL    HW1 3659   2.277   4.156   2.000
  920SOL    HW2 3660   2.245   4.114   2.155
  921SOL     OW 3661   4.127   5.856   4.362
  921SOL    HW1 3662   4.111   5.779   4.423
  921SOL    HW2 3663   4.210   5.904   4.392
  922SOL     OW 3664   3.503   3.308   4.170
  922SOL    HW1 3665   3.492   3.215   4.134
  922SOL    HW2 3666   3.533   3.369   4.097
  923SOL     OW 3667   2.268   3.311   6.702
  923SOL    HW1 3668   2.335   3.242   6.672
  923SOL    HW2 3669   2.236   3.363   6.623
  924SOL     OW 3670   6.718   3.465   1.526
  924SOL    HW1 3671   6.669   3.431   1.606
  924SOL    HW2 3672   6.652   3.481   1.452
  925SOL     OW 3673   0.158   2.421   0.409
  925SOL    HW1 3674   0.220   2.344   0.426
  925SOL    HW2 3675   0.179   2.495   0.474
  926SOL     OW 3676   6.462   1.178   1.060
  926SOL    HW1 3677   6.500   1.251   1.003
  926SOL    HW2 3678   6.388   1.215   1.116
  927SOL     OW 3679   5.454   3.516   3.425
  927SOL    HW1 3680   5.520   3.498   3.352
  927SOL    HW2 3681   5.471   3.454   3.501
  928SOL     OW 3682   2.271   5.863   0.462
  928SOL    HW1 3683   2.313   5.913   0.386
  928SOL    HW2 3684   2.176   5.892   0.473
  929SOL     OW 3685   0.407   0.827   0.100
  929SOL    HW1 3686   0.416   0.900   0.033
  929SOL    HW2 3687   0.320   0.780   0.087
  930SOL     OW 3688   5.430   6.853   6.292
  930SOL    HW1 3689   5.482   6.934   6.320
  930SOL    HW2 3690   5.441   6.839   6.194
  931SOL     OW 3691   6.746   1.332   4.576
  931SOL    HW1 3692   6.830   1.281   4.597
  931SOL    HW2 3693   6.713   1.376   4.659
  932SOL     OW 3694   2.570   0.953   2.898
  932SOL    HW1 3695   2.508   0.879   2.869
  932SOL    HW2 3696   2.538   0.990   2.986
  933SOL     OW 3697   1.408   4.904   3.141
  933SOL    HW1 3698   1.444   4.983   3.091
  933SOL    HW2 3699   1.335   4.862   3.087
  934SOL     OW 3700   2.509   5.796   6.434
  934SOL    HW1 3701   2.483   5.718   6.492
  934SOL    HW2 3702   2.604   5.822   6.452
  935SOL     OW 3703   5.102   4.216   4.456
  935SOL    HW1 3704   5.040   4.232   4.533
  935SOL    HW2 3705   5.189   4.263   4.472
  936SOL     OW 3706   0.794   6.992   6.062
  936SOL    HW1 3707   0.721   7.020   6.001
  936SOL    HW2 3708   0.822   6.898   6.040
  937SOL     OW 3709   5.896   1.418   6.553
  937SOL    HW1 3710   5.913   1.368   6.468
  937SOL    HW2 3711   5.947   1.504   6.552
  938SOL     OW 3712   6.204   5.342   5.214
  938SOL    HW1 3713   6.125   5.394   5.246
  938SOL    HW2 3714   6.274   5.340   5.286
  939SOL     OW 3715   0.123   6.894   3.736
  939SOL    HW1 3716   0.059   6.843   3.681
  939SOL    HW2 3717   0.167   6.964   3.680
  940SOL     OW 3718   0.619   3.371   0.486
  940SOL    HW1 3719   0.716   3.348   0.477
  940SOL    HW2 3720   0.592   3.432   0.412
  941SOL     OW 3721   5.716   0.561   0.582
  941SOL    HW1 3722   5.646   0.543   0.513
  941SOL    HW2 3723   5.672   0.587   0.668
  942SOL     OW 3724   5.698   0.190   2.341
  942SOL    HW1 3725   5.776   0.220   2.397
  942SOL    HW2 3726   5.675   0.095   2.363
  943SOL     OW 3727   1.385   4.858   2.624
  943SOL    HW1 3728   1.395   4.762   2.651
  943SOL    HW2 3729   1.319   4.865   2.550
  944SOL     OW 3730   0.338   5.881   5.283
  944SOL    HW1 3731   0.419   5.939   5.273
  944SOL    HW2 3732   0.343   5.805   5.218
  945SOL     OW 3733   0.473   5.151   6.049
  945SOL    HW1 3734   0.395   5.162   5.987
  945SOL    HW2 3735   0.443   5.160   6.144
  946SOL     OW 3736   4.983   4.024   5.129
  946SOL    HW1 3737   4.930   3.996   5.209
  946SOL    HW2 3738   4.969   3.957   5.055
  947SOL     OW 3739   3.386   3.204   3.595
  947SOL    HW1 3740   3.433   3.233   3.679
  947SOL    HW2 3741   3.364   3.107   3.601
  948SOL     OW 3742   4.637   1.025   2.949
  948SOL    HW1 3743   4.573   1.007   3.024
  948SOL    HW2 3744   4.623   1.119   2.916
  949SOL     OW 3745   2.995   5.620   0.341
  949SOL    HW1 3746   2.963   5.674   0.264
  949SOL    HW2 3747   2.943   5.534   0.345
  950SOL     OW 3748   6.277   5.489   2.485
  950SOL    HW1 3749   6.296   5.467   2.580
  950SOL    HW2 3750   6.358   5.529   2.443
  951SOL     OW 3751   1.156   6.963   3.770
  951SOL    HW1 3752   1.213   0.004   3.822
  951SOL    HW2 3753   1.162   6.986   3.673
  952SOL     OW 3754   4.532   2.540   2.767
  952SOL    HW1 3755   4.539   2.586   2.678
  952SOL    HW2 3756   4.596   2.584   2.831
  953SOL     OW 3757   5.914   5.072   4.268
  953SOL    HW1 3758   5.950   5.089   4.360
  953SOL    HW2 3759   5.877   5.157   4.230
  954SOL     OW 3760   3.607   6.044   2.309
  954SOL    HW1 3761   3.673   5.973   2.287
  954SOL    HW2 3762   3.614   6.118   2.242
  955SOL     OW 3763   1.871   4.515   0.431
  955SOL    HW1 3764   1.969   4.516   0.413
  955SOL    HW2 3765   1.842   4.604   0.465
  956SOL     OW 3766   6.563   0.709   1.894
  956SOL    HW1 3767   6.566   0.806   1.917
  956SOL    HW2 3768   6.656   0.675   1.878
  957SOL     OW 3769   5.641   2.215   1.793
  957SOL    HW1 3770   5.587   2.298   1.804
  957SOL    HW2 3771   5.734   2.239   1.764
  958SOL     OW 3772   4.093   6.773   1.409
  958SOL    HW1 3773   4.050   6.790   1.320
  958SOL    HW2 3774   4.086   6.856   1.465
  959SOL     OW 3775   3.176   7.011   5.166
  959SOL    HW1 3776   3.273   0.001   5.142
  959SOL    HW2 3777   3.140   0.074   5.204
  960SOL     OW 3778   1.433   0.097   1.068
  960SOL    HW1 3779   1.505   0.069   1.005
  960SOL    HW2 3780   1.424   0.029   1.141
  961SOL     OW 3781   4.411   6.234   3.213
  961SOL    HW1 3782   4.419   6.270   3.120
  961SOL    HW2 3783   4.332   6.173   3.219
  962SOL     OW 3784   6.672   0.993   4.337
  962SOL    HW1 3785   6.684   1.088   4.308
  962SOL    HW2 3786   6.581   0.961   4.310
  963SOL     OW 3787   4.535   0.971   0.555
  963SOL    HW1 3788   4.448   1.011   0.582
  963SOL    HW2 3789   4.541   0.968   0.455
  964SOL     OW 3790   4.984   4.858   5.679
  964SOL    HW1 3791   4.976   4.937   5.619
  964SOL    HW2 3792   5.057   4.874   5.746
  965SOL     OW 3793   6.428   1.599   2.770
  965SOL    HW1 3794   6.349   1.540   2.787
  965SOL    HW2 3795   6.398   1.684   2.727
  966SOL     OW 3796   5.878   2.943   3.349
  966SOL    HW1 3797   5.906   2.857   3.307
  966SOL    HW2 3798   5.958   3.002   3.360
  967SOL     OW 3799   3.004   4.800   0.346
  967SOL    HW1 3800   2.947   4.718   0.346
  967SOL    HW2 3801   3.043   4.814   0.255
  968SOL     OW 3802   3.869   6.636   1.542
  968SOL    HW1 3803   3.874   6.550   1.593
  968SOL    HW2 3804   3.955   6.650   1.493
  969SOL     OW 3805   2.381   4.882   6.016
  969SOL    HW1 3806   2.333   4.841   6.094
  969SOL    HW2 3807   2.409   4.809   5.953
  970SOL     OW 3808   5.341   0.445   6.368
  970SOL    HW1 3809   5.385   0.394   6.294
  970SOL    HW2 3810   5.301   0.382   6.434
  971SOL     OW 3811   6.859   3.564   2.750
  971SOL    HW1 3812   6.928   3.597   2.814
  971SOL    HW2 3813   6.904   3.526   2.669
  972SOL     OW 3814   6.289   2.107   1.911
  972SOL    HW1 3815   6.344   2.068   1.985
  972SOL    HW2 3816   6.296   2.207   1.915
  973SOL     OW 3817   1.092   5.869   6.640
  973SOL    HW1 3818   1.058   5.809   6.569
  973SOL    HW2 3819   1.035   5.862   6.722
  974SOL     OW 3820   0.359   5.746   2.033
  974SOL    HW1 3821   0.378   5.844   2.041
  974SOL    HW2 3822   0.412   5.696   2.101
  975SOL     OW 3823   2.308   6.987   6.967
  975SOL    HW1 3824   2.401   6.952   6.959
  975SOL    HW2 3825   2.262   6.981   6.878
  976SOL     OW 3826   6.921   3.660   1.226
  976SOL    HW1 3827   7.015   3.658   1.190
  976SOL    HW2 3828   6.908   3.744   1.278
  977SOL     OW 3829   0.618   0.464   2.343
  977SOL    HW1 3830   0.568   0.490   2.426
  977SOL    HW2 3831   0.597   0.529   2.270
  978SOL     OW 3832   5.084   1.620   1.138
  978SOL    HW1 3833   5.168   1.644   1.089
  978SOL    HW2 3834   5.027   1.701   1.147
  979SOL     OW 3835   0.671   3.206   0.102
  979SOL    HW1 3836   0.671   3.215   0.002
  979SOL    HW2 3837   0.639   3.115   0.127
  980SOL     OW 3838   4.512   1.531   4.525
  980SOL    HW1 3839   4.517   1.560   4.429
  980SOL    HW2 3840   4.604   1.530   4.564
  981SOL     OW 3841   0.394   0.961   4.725
  981SOL    HW1 3842   0.446   0.927   4.805
  981SOL    HW2 3843   0.345   0.885   4.683
  982SOL     OW 3844   1.151   1.677   5.399
  982SOL    HW1 3845   1.220   1.716   5.459
  982SOL    HW2 3846   1.194   1.645   5.315
  983SOL     OW 3847   7.017   3.568   2.978
  983SOL    HW1 3848   0.094   3.576   2.974
  983SOL    HW2 3849   6.990   3.541   3.070
  984SOL     OW 3850   1.817   2.472   3.100
  984SOL    HW1 3851   1.815   2.514   3.191
  984SOL    HW2 3852   1.912   2.467   3.069
  985SOL     OW 3853   6.639   3.976   4.163
  985SOL    HW1 3854   6.646   4.073   4.186
  985SOL    HW2 3855   6.731   3.937   4.154
  986SOL     OW 3856   4.443   5.110   1.578
  986SOL    HW1 3857   4.375   5.047   1.617
  986SOL    HW2 3858   4.408   5.203   1.583
  987SOL     OW 3859   4.867   6.114   2.280
  987SOL    HW1 3860   4.860   6.122   2.379
  987SOL    HW2 3861   4.960   6.136   2.251
  988SOL     OW 3862   3.344   4.046   1.771
  988SOL    HW1 3863   3.416   4.110   1.797
  988SOL    HW2 3864   3.255   4.092   1.771
  989SOL     OW 3865   6.431   1.512   0.193
  989SOL    HW1 3866   6.513   1.550   0.235
  989SOL    HW2 3867   6.456   1.436   0.133
  990SOL     OW 3868   3.281   1.037   2.235
  990SOL    HW1 3869   3.269   1.031   2.334
  990SOL    HW2 3870   3.219   0.974   2.189
  991SOL     OW 3871   0.294   4.172   3.861
  991SOL    HW1 3872   0.370   4.237   3.870
  991SOL    HW2 3873   0.255   4.179   3.770
  992SOL     OW 3874   0.141   3.062   0.910
  992SOL    HW1 3875   0.052   3.097   0.882
  992SOL    HW2 3876   0.133   3.021   1.001
  993SOL     OW 3877   0.186   3.998   0.280
  993SOL    HW1 3878   0.110   3.989   0.344
  993SOL    HW2 3879   0.153   3.977   0.187
  994SOL     OW 3880   3.930   5.261   2.049
  994SOL    HW1 3881   3.871   5.228   1.975
  994SOL    HW2 3882   3.892   5.344   2.088
  995SOL     OW 3883   4.315   2.810   6.262
  995SOL    HW1 3884   4.310   2.747   6.340
  995SOL    HW2 3885   4.254   2.888   6.279
  996SOL     OW 3886   3.265   5.013   4.867
  996SOL    HW1 3887   3.319   4.988   4.787
  996SOL    HW2 3888   3.240   4.931   4.919
  997SOL     OW 3889   0.785   6.771   3.366
  997SOL    HW1 3890   0.704   6.795   3.419
  997SOL    HW2 3891   0.758   6.723   3.283
  998SOL     OW 3892   6.451   0.219   5.976
  998SOL    HW1 3893   6.407   0.203   6.064
  998SOL    HW2 3894   6.387   0.197   5.902
  999SOL     OW 3895   4.873   3.678   1.693
  999SOL    HW1 3896   4.788   3.628   1.707
  999SOL    HW2 3897   4.923   3.639   1.616
 1000SOL     OW 3898   4.296   1.786   1.335
 1000SOL    HW1 3899   4.374   1.730   1.306
 1000SOL    HW2 3900   4.258   1.750   1.420
 1001SOL     OW 3901   3.886   5.845   1.631
 1001SOL    HW1 3902   3.807   5.903   1.649
 1001SOL    HW2 3903   3.922   5.865   1.540
 1002SOL     OW 3904   5.391   2.501   1.325
 1002SOL    HW1 3905   5.479   2.477   1.365
 1002SOL    HW2 3906   5.356   2.425   1.271
 1003SOL     OW 3907   2.066   6.120   3.136
 1003SOL    HW1 3908   2.061   6.174   3.052
 1003SOL    HW2 3909   2.157   6.078   3.143
 1004SOL     OW 3910   0.205   0.828   2.304
 1004SOL    HW1 3911   0.132   0.818   2.372
 1004SOL    HW2 3912   0.186   0.909   2.248
 1005SOL     OW 3913   1.590   3.865   3.700
 1005SOL    HW1 3914   1.607   3.919   3.617
 1005SOL    HW2 3915   1.579   3.769   3.675
 1006SOL     OW 3916   1.470   3.829   0.135
 1006SOL    HW1 3917   1.460   3.805   0.231
 1006SOL    HW2 3918   1.488   3.746   0.082
 1007SOL     OW 3919   4.904   0.791   5.829
 1007SOL    HW1 3920   4.978   0.846   5.789
 1007SOL    HW2 3921   4.944   0.723   5.892
 1008SOL     OW 3922   6.821   3.117   5.440
 1008SOL    HW1 3923   6.905   3.133   5.492
 1008SOL    HW2 3924   6.832   3.035   5.383
 1009SOL     OW 3925   6.307   4.393   5.610
 1009SOL    HW1 3926   6.395   4.397   5.563
 1009SOL    HW2 3927   6.268   4.301   5.599
 1010SOL     OW 3928   2.727   2.634   1.472
 1010SOL    HW1 3929   2.707   2.555   1.530
 1010SOL    HW2 3930   2.659   2.705   1.488
 1011SOL     OW 3931   0.702   5.419   3.382
 1011SOL    HW1 3932   0.734   5.339   3.431
 1011SOL    HW2 3933   0.639   5.471   3.440
 1012SOL     OW 3934   6.874   6.308   2.024
 1012SOL    HW1 3935   6.926   6.308   2.110
 1012SOL    HW2 3936   6.935   6.330   1.948
 1013SOL     OW 3937   6.961   1.205   6.450
 1013SOL    HW1 3938   6.953   1.304   6.446
 1013SOL    HW2 3939   6.980   1.177   6.544
 1014SOL     OW 3940   0.536   3.775   5.040
 1014SOL    HW1 3941   0.496   3.856   4.998
 1014SOL    HW2 3942   0.471   3.699   5.034
 1015SOL     OW 3943   2.499   0.691   6.064
 1015SOL    HW1 3944   2.446   0.613   6.032
 1015SOL    HW2 3945   2.530   0.675   6.158
 1016SOL     OW 3946   4.611   5.252   1.185
 1016SOL    HW1 3947   4.604   5.347   1.215
 1016SOL    HW2 3948   4.591   5.191   1.262
 1017SOL     OW 3949   3.183   1.958   1.152
 1017SOL    HW1 3950   3.255   2.020   1.184
 1017SOL    HW2 3951   3.111   2.010   1.106
 1018SOL     OW 3952   0.792   4.819   4.092
 1018SOL    HW1 3953   0.756   4.730   4.065
 1018SOL    HW2 3954   0.881   4.833   4.049
 1019SOL     OW 3955   0.133   5.293   0.755
 1019SOL    HW1 3956   0.117   5.327   0.848
 1019SOL    HW2 3957   0.227   5.260   0.748
 1020SOL     OW 3958   6.265   1.364   1.491
 1020SOL    HW1 3959   6.282   1.360   1.589
 1020SOL    HW2 3960   6.216   1.449   1.469
 1021SOL     OW 3961   5.990   6.463   1.928
 1021SOL    HW1 3962   5.943   6.545   1.958
 1021SOL    HW2 3963   6.078   6.456   1.975
 1022SOL     OW 3964   3.228   5.048   5.498
 1022SOL    HW1 3965   3.235   5.089   5.590
 1022SOL    HW2 3966   3.146   4.991   5.494
 1023SOL     OW 3967   0.210   0.650   3.088
 1023SOL    HW1 3968   0.250   0.643   3.179
 1023SOL    HW2 3969   0.120   0.607   3.087
 1024SOL     OW 3970   0.826   1.776   4.089
 1024SOL    HW1 3971   0.789   1.701   4.145
 1024SOL    HW2 3972   0.825   1.749   3.993
 1025SOL     OW 3973   4.269   3.223   0.501
 1025SOL    HW1 3974   4.257   3.246   0.405
 1025SOL    HW2 3975   4.289   3.125   0.510
 1026SOL     OW 3976   2.809   2.910   1.697
 1026SOL    HW1 3977   2.823   2.880   1.603
 1026SOL    HW2 3978   2.881   2.975   1.722
 1027SOL     OW 3979   2.191   0.023   1.806
 1027SOL    HW1 3980   2.290   0.007   1.813
 1027SOL    HW2 3981   2.145   6.960   1.783
 1028SOL     OW 3982   1.403   6.832   2.995
 1028SOL    HW1 3983   1.479   6.889   2.963
 1028SOL    HW2 3984   1.326   6.839   2.932
 1029SOL     OW 3985   1.184   2.128   6.055
 1029SOL    HW1 3986   1.185   2.170   6.145
 1029SOL    HW2 3987   1.245   2.048   6.055
 1030SOL     OW 3988   3.350   3.267   1.653
 1030SOL    HW1 3989   3.395   3.183   1.681
 1030SOL    HW2 3990   3.290   3.300   1.726
 1031SOL     OW 3991   4.726   3.403   1.098
 1031SOL    HW1 3992   4.802   3.466   1.110
 1031SOL    HW2 3993   4.684   3.418   1.008
 1032SOL     OW 3994   2.335   1.565   5.685
 1032SOL    HW1 3995   2.311   1.577   5.782
 1032SOL    HW2 3996   2.388   1.480   5.674
 1033SOL     OW 3997   1.323   5.815   2.066
 1033SOL    HW1 3998   1.360   5.786   1.978
 1033SOL    HW2 3999   1.359   5.906   2.089
 1034SOL     OW 4000   1.181   5.794   4.156
 1034SOL    HW1 4001   1.151   5.889   4.144
 1034SOL    HW2 4002   1.223   5.761   4.071
 1035SOL     OW 4003   0.134   2.208   6.695
 1035SOL    HW1 4004   0.166   2.126   6.741
 1035SOL    HW2 4005   0.197   2.283   6.712
 1036SOL     OW 4006   3.977   1.135   1.639
 1036SOL    HW1 4007   3.925   1.050   1.645
 1036SOL    HW2 4008   3.916   1.212   1.651
 1037SOL     OW 4009   1.447   1.643   3.251
 1037SOL    HW1 4010   1.440   1.731   3.206
 1037SOL    HW2 4011   1.424   1.570   3.187
 1038SOL     OW 4012   1.656   1.094   5.702
 1038SOL    HW1 4013   1.559   1.091   5.727
 1038SOL    HW2 4014   1.664   1.092   5.602
 1039SOL     OW 4015   3.221   3.355   4.222
 1039SOL    HW1 4016   3.316   3.333   4.199
 1039SOL    HW2 4017   3.202   3.327   4.316
 1040SOL     OW 4018   4.992   1.140   2.006
 1040SOL    HW1 4019   4.909   1.188   2.034
 1040SOL    HW2 4020   5.001   1.144   1.907
 1041SOL     OW 4021   0.126   6.391   3.462
 1041SOL    HW1 4022   0.172   6.309   3.496
 1041SOL    HW2 4023   0.109   6.454   3.537
 1042SOL     OW 4024   4.579   5.462   2.734
 1042SOL    HW1 4025   4.585   5.414   2.822
 1042SOL    HW2 4026   4.483   5.483   2.713
 1043SOL     OW 4027   3.890   2.089   3.747
 1043SOL    HW1 4028   3.924   2.001   3.715
 1043SOL    HW2 4029   3.956   2.161   3.722
 1044SOL     OW 4030   5.774   5.378   1.970
 1044SOL    HW1 4031   5.848   5.423   1.918
 1044SOL    HW2 4032   5.773   5.414   2.063
 1045SOL     OW 4033   3.844   0.841   2.915
 1045SOL    HW1 4034   3.914   0.904   2.948
 1045SOL    HW2 4035   3.785   0.890   2.850
 1046SOL     OW 4036   1.901   1.913   6.759
 1046SOL    HW1 4037   1.967   1.974   6.715
 1046SOL    HW2 4038   1.871   1.953   6.846
 1047SOL     OW 4039   3.372   0.518   3.638
 1047SOL    HW1 4040   3.343   0.451   3.707
 1047SOL    HW2 4041   3.402   0.470   3.556
 1048SOL     OW 4042   3.009   5.458   2.118
 1048SOL    HW1 4043   3.042   5.503   2.201
 1048SOL    HW2 4044   3.048   5.366   2.112
 1049SOL     OW 4045   5.524   6.904   3.887
 1049SOL    HW1 4046   5.428   6.914   3.914
 1049SOL    HW2 4047   5.557   6.991   3.850
 1050SOL     OW 4048   3.800   5.866   2.305
 1050SOL    HW1 4049   3.818   5.777   2.347
 1050SOL    HW2 4050   3.844   5.938   2.359
 1051SOL     OW 4051   0.283   5.937   0.315
 1051SOL    HW1 4052   0.238   5.945   0.226
 1051SOL    HW2 4053   0.372   5.982   0.311
 1052SOL     OW 4054   4.937   0.985   5.602
 1052SOL    HW1 4055   5.026   0.941   5.606
 1052SOL    HW2 4056   4.886   0.950   5.523
 1053SOL     OW 4057   5.877   4.050   2.674
 1053SOL    HW1 4058   5.783   4.017   2.686
 1053SOL    HW2 4059   5.937   3.971   2.660
 1054SOL     OW 4060   2.734   3.655   0.893
 1054SOL    HW1 4061   2.796   3.576   0.883
 1054SOL    HW2 4062   2.706   3.663   0.988
 1055SOL     OW 4063   4.980   6.163   5.666
 1055SOL    HW1 4064   4.906   6.212   5.620
 1055SOL    HW2 4065   4.950   6.132   5.756
 1056SOL     OW 4066   1.072   3.343   7.006
 1056SOL    HW1 4067   1.124   3.417   0.027
 1056SOL    HW2 4068   1.114   3.320   6.919
 1057SOL     OW 4069   3.550   2.607   1.453
 1057SOL    HW1 4070   3.527   2.511   1.436
 1057SOL    HW2 4071   3.495   2.642   1.528
 1058SOL     OW 4072   5.041   3.022   3.655
 1058SOL    HW1 4073   5.000   3.105   3.618
 1058SOL    HW2 4074   5.141   3.028   3.649
 1059SOL     OW 4075   2.411   6.677   1.940
 1059SOL    HW1 4076   2.347   6.719   2.004
 1059SOL    HW2 4077   2.367   6.664   1.851
 1060SOL     OW 4078   0.423   4.769   4.384
 1060SOL    HW1 4079   0.400   4.715   4.302
 1060SOL    HW2 4080   0.418   4.866   4.362
 1061SOL     OW 4081   6.523   3.826   6.145
 1061SOL    HW1 4082   6.479   3.805   6.057
 1061SOL    HW2 4083   6.606   3.878   6.129
 1062SOL     OW 4084   4.460   5.815   5.509
 1062SOL    HW1 4085   4.520   5.862   5.574
 1062SOL    HW2 4086   4.399   5.883   5.467
 1063SOL     OW 4087   6.969   6.588   0.358
 1063SOL    HW1 4088   6.912   6.511   0.329
 1063SOL    HW2 4089   7.010   6.566   0.447
 1064SOL     OW 4090   1.412   4.278   1.521
 1064SOL    HW1 4091   1.465   4.229   1.591
 1064SOL    HW2 4092   1.326   4.230   1.505
 1065SOL     OW 4093   4.022   0.294   3.207
 1065SOL    HW1 4094   4.110   0.259   3.175
 1065SOL    HW2 4095   4.031   0.325   3.301
 1066SOL     OW 4096   4.430   6.943   2.483
 1066SOL    HW1 4097   4.456   6.927   2.388
 1066SOL    HW2 4098   4.424   6.855   2.531
 1067SOL     OW 4099   1.947   1.255   6.844
 1067SOL    HW1 4100   1.907   1.244   6.934
 1067SOL    HW2 4101   1.993   1.170   6.817
 1068SOL     OW 4102   6.450   3.850   1.563
 1068SOL    HW1 4103   6.496   3.834   1.651
 1068SOL    HW2 4104   6.467   3.944   1.534
 1069SOL     OW 4105   5.371   5.507   0.781
 1069SOL    HW1 4106   5.403   5.423   0.824
 1069SOL    HW2 4107   5.405   5.512   0.687
 1070SOL     OW 4108   1.896   6.965   2.630
 1070SOL    HW1 4109   1.995   6.972   2.631
 1070SOL    HW2 4110   1.856   0.034   2.639
 1071SOL     OW 4111   2.095   2.058   4.022
 1071SOL    HW1 4112   2.192   2.080   4.034
 1071SOL    HW2 4113   2.077   2.039   3.926
 1072SOL     OW 4114   2.668   0.903   1.335
 1072SOL    HW1 4115   2.604   0.958   1.389
 1072SOL    HW2 4116   2.648   0.913   1.238
 1073SOL     OW 4117   5.039   1.608   3.513
 1073SOL    HW1 4118   5.034   1.518   3.470
 1073SOL    HW2 4119   5.052   1.678   3.442
 1074SOL     OW 4120   2.435   4.880   2.105
 1074SOL    HW1 4121   2.504   4.836   2.163
 1074SOL    HW2 4122   2.444   4.979   2.110
 1075SOL     OW 4123   6.081   1.100   3.508
 1075SOL    HW1 4124   6.099   1.009   3.471
 1075SOL    HW2 4125   5.982   1.113   3.518
 1076SOL     OW 4126   0.343   2.475   5.468
 1076SOL    HW1 4127   0.294   2.542   5.412
 1076SOL    HW2 4128   0.376   2.401   5.410
 1077SOL     OW 4129   6.895   6.292   0.730
 1077SOL    HW1 4130   6.865   6.223   0.665
 1077SOL    HW2 4131   6.892   6.255   0.823
 1078SOL     OW 4132   6.433   0.780   2.812
 1078SOL    HW1 4133   6.425   0.681   2.827
 1078SOL    HW2 4134   6.487   0.820   2.885
 1079SOL     OW 4135   0.988   4.947   1.890
 1079SOL    HW1 4136   1.060   4.883   1.916
 1079SOL    HW2 4137   0.922   4.956   1.964
 1080SOL     OW 4138   2.655   5.744   3.599
 1080SOL    HW1 4139   2.729   5.771   3.660
 1080SOL    HW2 4140   2.567   5.754   3.647
 1081SOL     OW 4141   6.610   5.109   5.479
 1081SOL    HW1 4142   6.593   5.028   5.535
 1081SOL    HW2 4143   6.625   5.188   5.539
 1082SOL     OW 4144   5.588   1.941   6.098
 1082SOL    HW1 4145   5.589   1.868   6.029
 1082SOL    HW2 4146   5.620   2.026   6.057
 1083SOL     OW 4147   4.570   2.899   6.879
 1083SOL    HW1 4148   4.491   2.934   6.929
 1083SOL    HW2 4149   4.539   2.831   6.812
 1084SOL     OW 4150   6.583   6.883   6.377
 1084SOL    HW1 4151   6.607   6.831   6.459
 1084SOL    HW2 4152   6.487   6.868   6.356
 1085SOL     OW 4153   2.149   3.270   3.946
 1085SOL    HW1 4154   2.095   3.191   3.976
 1085SOL    HW2 4155   2.145   3.341   4.016
 1086SOL     OW 4156   6.672   5.137   6.805
 1086SOL    HW1 4157   6.677   5.188   6.719
 1086SOL    HW2 4158   6.666   5.201   6.882
 1087SOL     OW 4159   0.981   2.052   5.226
 1087SOL    HW1 4160   0.940   1.962   5.211
 1087SOL    HW2 4161   1.073   2.041   5.264
 1088SOL     OW 4162   0.409   4.670   3.359
 1088SOL    HW1 4163   0.325   4.619   3.374
 1088SOL    HW2 4164   0.488   4.611   3.380
 1089SOL     OW 4165   0.725   5.764   4.509
 1089SOL    HW1 4166   0.629   5.784   4.526
 1089SOL    HW2 4167   0.779   5.788   4.590
 1090SOL     OW 4168   4.169   1.980   2.569
 1090SOL    HW1 4169   4.223   2.009   2.648
 1090SOL    HW2 4170   4.209   1.897   2.530
 1091SOL     OW 4171   1.911   3.400   3.552
 1091SOL    HW1 4172   1.885   3.486   3.596
 1091SOL    HW2 4173   1.986   3.357   3.602
 1092SOL     OW 4174   0.976   5.480   0.607
 1092SOL    HW1 4175   0.916   5.464   0.529
 1092SOL    HW2 4176   0.967   5.575   0.636
 1093SOL     OW 4177   2.655   6.815   1.555
 1093SOL    HW1 4178   2.593   6.890   1.534
 1093SOL    HW2 4179   2.614   6.756   1.625
 1094SOL     OW 4180   0.838   6.864   2.710
 1094SOL    HW1 4181   0.839   6.773   2.669
 1094SOL    HW2 4182   0.789   6.861   2.797
 1095SOL     OW 4183   0.290   2.794   6.732
 1095SOL    HW1 4184   0.224   2.738   6.782
 1095SOL    HW2 4185   0.312   2.750   6.645
 1096SOL     OW 4186   3.687   4.229   1.245
 1096SOL    HW1 4187   3.737   4.315   1.245
 1096SOL    HW2 4188   3.722   4.170   1.171
 1097SOL     OW 4189   1.688   4.866   2.891
 1097SOL    HW1 4190   1.779   4.876   2.930
 1097SOL    HW2 4191   1.638   4.794   2.939
 1098SOL     OW 4192   5.949   3.501   6.146
 1098SOL    HW1 4193   6.004   3.585   6.144
 1098SOL    HW2 4194   6.010   3.423   6.162
 1099SOL     OW 4195   4.486   0.549   6.555
 1099SOL    HW1 4196   4.507   0.500   6.640
 1099SOL    HW2 4197   4.388   0.563   6.547
 1100SOL     OW 4198   4.165   1.257   4.802
 1100SOL    HW1 4199   4.157   1.195   4.880
 1100SOL    HW2 4200   4.260   1.260   4.771
 1101SOL     OW 4201   5.122   3.701   5.464
 1101SOL    HW1 4202   5.091   3.654   5.546
 1101SOL    HW2 4203   5.088   3.795   5.464
 1102SOL     OW 4204   2.321   1.293   4.572
 1102SOL    HW1 4205   2.397   1.228   4.572
 1102SOL    HW2 4206   2.314   1.337   4.483
 1103SOL     OW 4207   2.581   1.999   0.114
 1103SOL    HW1 4208   2.674   1.995   0.076
 1103SOL    HW2 4209   2.568   2.087   0.160
 1104SOL     OW 4210   1.637   4.062   3.522
 1104SOL    HW1 4211   1.684   4.121   3.588
 1104SOL    HW2 4212   1.679   4.072   3.432
 1105SOL     OW 4213   5.195   2.851   4.207
 1105SOL    HW1 4214   5.184   2.950   4.204
 1105SOL    HW2 4215   5.242   2.820   4.124
 1106SOL     OW 4216   0.663   1.865   1.563
 1106SOL    HW1 4217   0.740   1.815   1.523
 1106SOL    HW2 4218   0.595   1.799   1.597
 1107SOL     OW 4219   1.188   0.364   6.934
 1107SOL    HW1 4220   1.196   0.279   6.883
 1107SOL    HW2 4221   1.165   0.344   0.006
 1108SOL     OW 4222   3.227   6.484   5.349
 1108SOL    HW1 4223   3.307   6.466   5.291
 1108SOL    HW2 4224   3.146   6.490   5.291
 1109SOL     OW 4225   5.768   1.150   3.970
 1109SOL    HW1 4226   5.761   1.073   4.033
 1109SOL    HW2 4227   5.860   1.190   3.975
 1110SOL     OW 4228   3.866   1.511   3.101
 1110SOL    HW1 4229   3.867   1.420   3.142
 1110SOL    HW2 4230   3.776   1.553   3.117
 1111SOL     OW 4231   5.612   4.758   6.367
 1111SOL    HW1 4232   5.636   4.678   6.313
 1111SOL    HW2 4233   5.513   4.763   6.377
 1112SOL     OW 4234   6.465   0.449   3.135
 1112SOL    HW1 4235   6.530   0.483   3.203
 1112SOL    HW2 4236   6.500   0.365   3.095
 1113SOL     OW 4237   6.229   4.282   1.310
 1113SOL    HW1 4238   6.214   4.192   1.270
 1113SOL    HW2 4239   6.178   4.288   1.396
 1114SOL     OW 4240   2.855   2.197   6.345
 1114SOL    HW1 4241   2.844   2.138   6.265
 1114SOL    HW2 4242   2.805   2.159   6.422
 1115SOL     OW 4243   4.147   3.564   5.361
 1115SOL    HW1 4244   4.049   3.580   5.371
 1115SOL    HW2 4245   4.196   3.651   5.363
 1116SOL     OW 4246   6.158   0.166   0.179
 1116SOL    HW1 4247   6.167   0.149   0.081
 1116SOL    HW2 4248   6.092   0.239   0.194
 1117SOL     OW 4249   1.028   1.837   1.916
 1117SOL    HW1 4250   0.989   1.768   1.978
 1117SOL    HW2 4251   1.107   1.798   1.869
 1118SOL     OW 4252   2.484   5.171   0.434
 1118SOL    HW1 4253   2.482   5.229   0.515
 1118SOL    HW2 4254   2.569   5.187   0.383
 1119SOL     OW 4255   4.271   4.227   1.399
 1119SOL    HW1 4256   4.366   4.202   1.414
 1119SOL    HW2 4257   4.266   4.295   1.325
 1120SOL     OW 4258   6.650   5.686   1.169
 1120SOL    HW1 4259   6.638   5.699   1.071
 1120SOL    HW2 4260   6.697   5.599   1.186
 1121SOL     OW 4261   6.922   4.868   4.703
 1121SOL    HW1 4262   6.867   4.840   4.781
 1121SOL    HW2 4263   6.981   4.792   4.675
 1122SOL     OW 4264   5.884   2.950   2.020
 1122SOL    HW1 4265   5.958   2.925   2.083
 1122SOL    HW2 4266   5.801   2.969   2.073
 1123SOL     OW 4267   5.101   2.539   3.781
 1123SOL    HW1 4268   5.153   2.607   3.730
 1123SOL    HW2 4269   5.094   2.455   3.727
 1124SOL     OW 4270   0.042   4.684   5.830
 1124SOL    HW1 4271   0.027   4.606   5.770
 1124SOL    HW2 4272   0.115   4.663   5.894
 1125SOL     OW 4273   1.908   2.343   3.597
 1125SOL    HW1 4274   1.863   2.428   3.624
 1125SOL    HW2 4275   1.878   2.317   3.505
 1126SOL     OW 4276   6.164   6.053   5.640
 1126SOL    HW1 4277   6.257   6.053   5.603
 1126SOL    HW2 4278   6.100   6.086   5.570
 1127SOL     OW 4279   5.593   6.080   4.539
 1127SOL    HW1 4280   5.574   6.027   4.622
 1127SOL    HW2 4281   5.530   6.157   4.534
 1128SOL     OW 4282   6.393   1.535   4.948
 1128SOL    HW1 4283   6.439   1.459   4.995
 1128SOL    HW2 4284   6.296   1.516   4.940
 1129SOL     OW 4285   2.087   6.609   0.539
 1129SOL    HW1 4286   2.014   6.597   0.471
 1129SOL    HW2 4287   2.061   6.564   0.624
 1130SOL     OW 4288   1.970   4.785   1.259
 1130SOL    HW1 4289   1.888   4.816   1.211
 1130SOL    HW2 4290   1.953   4.697   1.302
 1131SOL     OW 4291   1.943   0.518   5.303
 1131SOL    HW1 4292   2.018   0.573   5.342
 1131SOL    HW2 4293   1.978   0.428   5.277
 1132SOL     OW 4294   3.753   0.340   3.410
 1132SOL    HW1 4295   3.845   0.304   3.426
 1132SOL    HW2 4296   3.757   0.411   3.340
 1133SOL     OW 4297   0.932   0.778   6.868
 1133SOL    HW1 4298   0.897   0.704   6.926
 1133SOL    HW2 4299   0.968   0.739   6.783
 1134SOL     OW 4300   5.204   0.049   2.975
 1134SOL    HW1 4301   5.261   0.099   3.041
 1134SOL    HW2 4302   5.121   0.017   3.021
 1135SOL     OW 4303   2.457   6.488   3.717
 1135SOL    HW1 4304   2.471   6.567   3.657
 1135SOL    HW2 4305   2.413   6.415   3.665
 1136SOL     OW 4306   4.074   4.744   2.753
 1136SOL    HW1 4307   4.041   4.725   2.845
 1136SOL    HW2 4308   4.091   4.842   2.743
 1137SOL     OW 4309   1.071   6.302   0.244
 1137SOL    HW1 4310   0.995   6.352   0.202
 1137SOL    HW2 4311   1.144   6.367   0.267
 1138SOL     OW 4312   0.458   1.618   5.168
 1138SOL    HW1 4313   0.475   1.570   5.254
 1138SOL    HW2 4314   0.372   1.587   5.128
 1139SOL     OW 4315   2.354   4.895   3.836
 1139SOL    HW1 4316   2.406   4.925   3.756
 1139SOL    HW2 4317   2.397   4.813   3.874
 1140SOL     OW 4318   2.856   0.500   2.390
 1140SOL    HW1 4319   2.944   0.548   2.401
 1140SOL    HW2 4320   2.874   0.405   2.364
 1141SOL     OW 4321   0.023   6.230   6.866
 1141SOL    HW1 4322   6.997   6.209   6.781
 1141SOL    HW2 4323   6.981   6.263   6.935
 1142SOL     OW 4324   3.348   0.588   4.139
 1142SOL    HW1 4325   3.347   0.644   4.056
 1142SOL    HW2 4326   3.410   0.630   4.206
 1143SOL     OW 4327   1.794   3.187   2.444
 1143SOL    HW1 4328   1.885   3.228   2.433
 1143SOL    HW2 4329   1.732   3.225   2.376
 1144SOL     OW 4330   5.907   4.208   3.679
 1144SOL    HW1 4331   5.999   4.190   3.714
 1144SOL    HW2 4332   5.906   4.297   3.634
 1145SOL     OW 4333   1.024   3.036   0.931
 1145SOL    HW1 4334   1.020   3.037   1.031
 1145SOL    HW2 4335   1.103   2.982   0.902
 1146SOL     OW 4336   0.843   1.994   1.758
 1146SOL    HW1 4337   0.892   1.927   1.814
 1146SOL    HW2 4338   0.762   1.951   1.718
 1147SOL     OW 4339   2.880   5.846   0.838
 1147SOL    HW1 4340   2.821   5.821   0.761
 1147SOL    HW2 4341   2.967   5.796   0.830
 1148SOL     OW 4342   4.396   6.272   0.985
 1148SOL    HW1 4343   4.339   6.339   1.032
 1148SOL    HW2 4344   4.460   6.232   1.051
 1149SOL     OW 4345   5.374   2.715   2.376
 1149SOL    HW1 4346   5.329   2.625   2.373
 1149SOL    HW2 4347   5.310   2.783   2.409
 1150SOL     OW 4348   0.683   3.953   6.974
 1150SOL    HW1 4349   0.620   3.896   0.005
 1150SOL    HW2 4350   0.777   3.937   7.006
 1151SOL     OW 4351   5.801   5.068   4.767
 1151SOL    HW1 4352   5.823   4.997   4.701
 1151SOL    HW2 4353   5.702   5.080   4.771
 1152SOL     OW 4354   5.487   6.558   6.321
 1152SOL    HW1 4355   5.580   6.571   6.286
 1152SOL    HW2 4356   5.435   6.642   6.312
 1153SOL     OW 4357   6.310   0.083   1.479
 1153SOL    HW1 4358   6.315   7.006   1.472
 1153SOL    HW2 4359   6.381   0.124   1.422
 1154SOL     OW 4360   0.396   3.937   0.434
 1154SOL    HW1 4361   0.319   3.972   0.380
 1154SOL    HW2 4362   0.419   4.003   0.505
 1155SOL     OW 4363   3.256   5.128   5.739
 1155SOL    HW1 4364   3.259   5.029   5.756
 1155SOL    HW2 4365   3.349   5.164   5.740
 1156SOL     OW 4366   4.715   2.316   4.821
 1156SOL    HW1 4367   4.794   2.376   4.835
 1156SOL    HW2 4368   4.725   2.235   4.878
 1157SOL     OW 4369   5.117   1.103   5.898
 1157SOL    HW1 4370   5.034   1.140   5.857
 1157SOL    HW2 4371   5.099   1.081   5.994
 1158SOL     OW 4372   6.653   5.630   4.843
 1158SOL    HW1 4373   6.602   5.544   4.835
 1158SOL    HW2 4374   6.751   5.610   4.849
 1159SOL     OW 4375   6.242   6.877   3.261
 1159SOL    HW1 4376   6.340   6.897   3.261
 1159SOL    HW2 4377   6.222   6.803   3.197
 1160SOL     OW 4378   4.061   5.236   1.472
 1160SOL    HW1 4379   3.968   5.270   1.453
 1160SOL    HW2 4380   4.061   5.189   1.560
 1161SOL     OW 4381   0.482   6.043   6.521
 1161SOL    HW1 4382   0.522   5.979   6.587
 1161SOL    HW2 4383   0.502   6.011   6.428
 1162SOL     OW 4384   2.363   2.663   5.696
 1162SOL    HW1 4385   2.462   2.666   5.709
 1162SOL    HW2 4386   2.340   2.703   5.607
 1163SOL     OW 4387   5.740   4.625   2.141
 1163SOL    HW1 4388   5.774   4.684   2.068
 1163SOL    HW2 4389   5.683   4.553   2.101
 1164SOL     OW 4390   4.859   2.065   4.887
 1164SOL    HW1 4391   4.827   1.977   4.920
 1164SOL    HW2 4392   4.888   2.122   4.964
 1165SOL     OW 4393   4.035   5.858   3.208
 1165SOL    HW1 4394   3.936   5.862   3.193
 1165SOL    HW2 4395   4.072   5.777   3.162
 1166SOL     OW 4396   2.609   5.708   0.045
 1166SOL    HW1 4397   2.581   5.625   7.019
 1166SOL    HW2 4398   2.534   5.774   0.043
 1167SOL     OW 4399   5.028   5.402   0.698
 1167SOL    HW1 4400   5.038   5.323   0.757
 1167SOL    HW2 4401   5.006   5.483   0.753
 1168SOL     OW 4402   6.176   2.526   1.317
 1168SOL    HW1 4403   6.089   2.543   1.365
 1168SOL    HW2 4404   6.200   2.607   1.263
 1169SOL     OW 4405   4.306   1.618   5.664
 1169SOL    HW1 4406   4.365   1.698   5.652
 1169SOL    HW2 4407   4.211   1.648   5.670
 1170SOL     OW 4408   5.594   0.248   3.393
 1170SOL    HW1 4409   5.686   0.220   3.420
 1170SOL    HW2 4410   5.579   0.344   3.418
 1171SOL     OW 4411   3.055   6.630   0.086
 1171SOL    HW1 4412   3.028   6.667   0.175
 1171SOL    HW2 4413   3.040   6.699   0.015
 1172SOL     OW 4414   5.446   4.247   0.573
 1172SOL    HW1 4415   5.524   4.204   0.528
 1172SOL    HW2 4416   5.398   4.178   0.629
 1173SOL     OW 4417   3.180   1.415   1.081
 1173SOL    HW1 4418   3.171   1.387   0.986
 1173SOL    HW2 4419   3.272   1.394   1.114
 1174SOL     OW 4420   3.716   3.955   1.944
 1174SOL    HW1 4421   3.776   3.899   2.002
 1174SOL    HW2 4422   3.643   3.994   1.999
 1175SOL     OW 4423   5.018   3.501   6.561
 1175SOL    HW1 4424   4.983   3.412   6.530
 1175SOL    HW2 4425   5.000   3.569   6.490
 1176SOL     OW 4426   5.121   3.474   0.313
 1176SOL    HW1 4427   5.064   3.408   0.263
 1176SOL    HW2 4428   5.078   3.564   0.312
 1177SOL     OW 4429   6.761   3.829   4.860
 1177SOL    HW1 4430   6.859   3.807   4.861
 1177SOL    HW2 4431   6.720   3.791   4.776
 1178SOL     OW 4432   3.050   4.236   0.407
 1178SOL    HW1 4433   3.081   4.142   0.391
 1178SOL    HW2 4434   3.052   4.286   0.320
 1179SOL     OW 4435   2.049   5.897   0.643
 1179SOL    HW1 4436   1.988   5.818   0.632
 1179SOL    HW2 4437   2.143   5.865   0.649
 1180SOL     OW 4438   2.649   6.571   3.994
 1180SOL    HW1 4439   2.668   6.477   3.966
 1180SOL    HW2 4440   2.661   6.632   3.916
 1181SOL     OW 4441   0.456   5.334   5.251
 1181SOL    HW1 4442   0.360   5.314   5.271
 1181SOL    HW2 4443   0.468   5.344   5.152
 1182SOL     OW 4444   4.308   5.159   3.471
 1182SOL    HW1 4445   4.221   5.207   3.454
 1182SOL    HW2 4446   4.301   5.109   3.557
 1183SOL     OW 4447   2.245   3.830   0.110
 1183SOL    HW1 4448   2.277   3.794   0.197
 1183SOL    HW2 4449   2.324   3.860   0.055
 1184SOL     OW 4450   0.053   0.940   4.625
 1184SOL    HW1 4451   6.988   0.913   4.585
 1184SOL    HW2 4452   0.115   0.862   4.627
 1185SOL     OW 4453   0.664   0.561   1.148
 1185SOL    HW1 4454   0.602   0.511   1.086
 1185SOL    HW2 4455   0.639   0.541   1.242
 1186SOL     OW 4456   5.786   6.488   5.701
 1186SOL    HW1 4457   5.861   6.482   5.766
 1186SOL    HW2 4458   5.707   6.533   5.743
 1187SOL     OW 4459   5.779   0.060   6.922
 1187SOL    HW1 4460   5.725   6.998   6.929
 1187SOL    HW2 4461   5.726   0.129   6.874
 1188SOL     OW 4462   3.681   5.614   5.691
 1188SOL    HW1 4463   3.682   5.609   5.591
 1188SOL    HW2 4464   3.612   5.551   5.727
 1189SOL     OW 4465   6.329   2.361   1.496
 1189SOL    HW1 4466   6.355   2.264   1.498
 1189SOL    HW2 4467   6.268   2.377   1.418
 1190SOL     OW 4468   3.124   5.239   3.475
 1190SOL    HW1 4469   3.146   5.230   3.572
 1190SOL    HW2 4470   3.134   5.334   3.447
 1191SOL     OW 4471   4.579   5.366   4.277
 1191SOL    HW1 4472   4.565   5.332   4.184
 1191SOL    HW2 4473   4.506   5.430   4.301
 1192SOL     OW 4474   4.654   5.276   2.093
 1192SOL    HW1 4475   4.699   5.309   2.176
 1192SOL    HW2 4476   4.556   5.264   2.110
 1193SOL     OW 4477   6.323   2.699   5.201
 1193SOL    HW1 4478   6.325   2.782   5.145
 1193SOL    HW2 4479   6.238   2.697   5.254
 1194SOL     OW 4480   5.952   0.188   1.769
 1194SOL    HW1 4481   6.041   0.147   1.747
 1194SOL    HW2 4482   5.961   0.287   1.776
 1195SOL     OW 4483   6.593   4.169   0.643
 1195SOL    HW1 4484   6.583   4.247   0.705
 1195SOL    HW2 4485   6.512   4.162   0.585
 1196SOL     OW 4486   0.328   5.553   2.811
 1196SOL    HW1 4487   0.363   5.512   2.727
 1196SOL    HW2 4488   0.253   5.616   2.789
 1197SOL     OW 4489   4.522   0.248   5.068
 1197SOL    HW1 4490   4.589   0.247   4.995
 1197SOL    HW2 4491   4.431   0.227   5.031
 1198SOL     OW 4492   1.148   2.779   2.693
 1198SOL    HW1 4493   1.180   2.717   2.765
 1198SOL    HW2 4494   1.177   2.744   2.604
 1199SOL     OW 4495   4.013   3.615   1.416
 1199SOL    HW1 4496   4.096   3.661   1.446
 1199SOL    HW2 4497   3.975   3.562   1.492
 1200SOL     OW 4498   3.526   3.704   4.176
 1200SOL    HW1 4499   3.487   3.665   4.259
 1200SOL    HW2 4500   3.454   3.751   4.124
 1201SOL     OW 4501   1.262   0.704   4.353
 1201SOL    HW1 4502   1.257   0.804   4.363
 1201SOL    HW2 4503   1.212   0.661   4.428
 1202SOL     OW 4504   0.268   5.491   5.546
 1202SOL    HW1 4505   0.195   5.484   5.614
 1202SOL    HW2 4506   0.262   5.580   5.501
 1203SOL     OW 4507   6.768   6.410   6.754
 1203SOL    HW1 4508   6.826   6.352   6.697
 1203SOL    HW2 4509   6.813   6.426   6.842
 1204SOL     OW 4510   3.661   6.934   1.176
 1204SOL    HW1 4511   3.646   6.846   1.131
 1204SOL    HW2 4512   3.732   6.985   1.128
 1205SOL     OW 4513   4.902   3.580   0.828
 1205SOL    HW1 4514   4.975   3.603   0.763
 1205SOL    HW2 4515   4.881   3.482   0.821
 1206SOL     OW 4516   2.475   3.014   5.612
 1206SOL    HW1 4517   2.519   3.102   5.592
 1206SOL    HW2 4518   2.376   3.023   5.598
 1207SOL     OW 4519   2.268   6.337   0.797
 1207SOL    HW1 4520   2.274   6.349   0.896
 1207SOL    HW2 4521   2.347   6.380   0.753
 1208SOL     OW 4522   3.503   3.858   1.370
 1208SOL    HW1 4523   3.426   3.797   1.349
 1208SOL    HW2 4524   3.588   3.806   1.366
 1209SOL     OW 4525   4.592   1.008   4.845
 1209SOL    HW1 4526   4.529   0.940   4.883
 1209SOL    HW2 4527   4.564   1.099   4.873
 1210SOL     OW 4528   2.945   0.877   3.389
 1210SOL    HW1 4529   2.924   0.886   3.292
 1210SOL    HW2 4530   2.873   0.921   3.443
 1211SOL     OW 4531   0.563   3.898   2.023
 1211SOL    HW1 4532   0.591   3.807   2.054
 1211SOL    HW2 4533   0.465   3.899   2.006
 1212SOL     OW 4534   6.197   0.422   0.382
 1212SOL    HW1 4535   6.198   0.517   0.413
 1212SOL    HW2 4536   6.165   0.362   0.455
 1213SOL     OW 4537   6.543   2.317   0.660
 1213SOL    HW1 4538   6.577   2.340   0.751
 1213SOL    HW2 4539   6.469   2.250   0.667
 1214SOL     OW 4540   0.812   2.925   6.646
 1214SOL    HW1 4541   0.887   2.978   6.606
 1214SOL    HW2 4542   0.846   2.835   6.671
 1215SOL     OW 4543   0.593   4.820   3.233
 1215SOL    HW1 4544   0.518   4.761   3.262
 1215SOL    HW2 4545   0.671   4.765   3.207
 1216SOL     OW 4546   5.020   0.513   0.877
 1216SOL    HW1 4547   5.053   0.597   0.920
 1216SOL    HW2 4548   4.923   0.500   0.899
 1217SOL     OW 4549   2.145   4.727   0.255
 1217SOL    HW1 4550   2.166   4.825   0.252
 1217SOL    HW2 4551   2.149   4.695   0.350
 1218SOL     OW 4552   2.303   4.279   4.662
 1218SOL    HW1 4553   2.341   4.259   4.572
 1218SOL    HW2 4554   2.317   4.376   4.683
 1219SOL     OW 4555   5.467   6.417   1.508
 1219SOL    HW1 4556   5.450   6.513   1.532
 1219SOL    HW2 4557   5.507   6.370   1.586
 1220SOL     OW 4558   0.939   4.485   3.237
 1220SOL    HW1 4559   0.866   4.541   3.198
 1220SOL    HW2 4560   0.932   4.392   3.202
 1221SOL     OW 4561   5.785   3.623   6.328
 1221SOL    HW1 4562   5.852   3.581   6.267
 1221SOL    HW2 4563   5.694   3.591   6.304
 1222SOL     OW 4564   6.296   0.294   6.697
 1222SOL    HW1 4565   6.223   0.323   6.635
 1222SOL    HW2 4566   6.384   0.311   6.654
 1223SOL     OW 4567   4.022   1.158   0.569
 1223SOL    HW1 4568   4.036   1.219   0.491
 1223SOL    HW2 4569   4.103   1.102   0.582
 1224SOL     OW 4570   3.791   5.392   0.298
 1224SOL    HW1 4571   3.771   5.485   0.269
 1224SOL    HW2 4572   3.814   5.336   0.218
 1225SOL     OW 4573   3.385   3.499   6.479
 1225SOL    HW1 4574   3.315   3.470   6.544
 1225SOL    HW2 4575   3.428   3.419   6.438
 1226SOL     OW 4576   2.494   5.050   1.374
 1226SOL    HW1 4577   2.421   5.095   1.325
 1226SOL    HW2 4578   2.456   4.997   1.450
 1227SOL     OW 4579   6.774   3.658   6.894
 1227SOL    HW1 4580   6.793   3.709   6.810
 1227SOL    HW2 4581   6.707   3.587   6.874
 1228SOL     OW 4582   3.612   1.761   6.474
 1228SOL    HW1 4583   3.603   1.716   6.563
 1228SOL    HW2 4584   3.654   1.851   6.485
 1229SOL     OW 4585   4.053   4.958   5.874
 1229SOL    HW1 4586   4.034   4.905   5.792
 1229SOL    HW2 4587   4.132   4.919   5.921
 1230SOL     OW 4588   4.740   0.257   2.897
 1230SOL    HW1 4589   4.788   0.311   2.828
 1230SOL    HW2 4590   4.754   0.160   2.878
 1231SOL     OW 4591   1.844   3.302   4.497
 1231SOL    HW1 4592   1.753   3.308   4.456
 1231SOL    HW2 4593   1.844   3.349   4.585
 1232SOL     OW 4594   0.801   2.033   5.592
 1232SOL    HW1 4595   0.802   1.944   5.546
 1232SOL    HW2 4596   0.839   2.102   5.530
 1233SOL     OW 4597   1.068   3.794   4.486
 1233SOL    HW1 4598   0.986   3.768   4.435
 1233SOL    HW2 4599   1.144   3.735   4.459
 1234SOL     OW 4600   6.849   4.115   4.863
 1234SOL    HW1 4601   6.779   4.181   4.890
 1234SOL    HW2 4602   6.806   4.027   4.842
 1235SOL     OW 4603   6.823   6.115   2.416
 1235SOL    HW1 4604   6.912   6.160   2.421
 1235SOL    HW2 4605   6.834   6.021   2.382
 1236SOL     OW 4606   4.923   1.280   0.575
 1236SOL    HW1 4607   4.842   1.229   0.603
 1236SOL    HW2 4608   4.964   1.325   0.655
 1237SOL     OW 4609   1.726   4.764   5.709
 1237SOL    HW1 4610   1.811   4.800   5.672
 1237SOL    HW2 4611   1.697   4.685   5.656
 1238SOL     OW 4612   2.884   0.253   0.162
 1238SOL    HW1 4613   2.914   0.347   0.180
 1238SOL    HW2 4614   2.785   0.252   0.145
 1239SOL     OW 4615   6.841   6.819   6.098
 1239SOL    HW1 4616   6.880   6.870   6.175
 1239SOL    HW2 4617   6.910   6.756   6.061
 1240SOL     OW 4618   5.243   6.042   1.950
 1240SOL    HW1 4619   5.236   5.983   1.870
 1240SOL    HW2 4620   5.321   6.103   1.940
 1241SOL     OW 4621   6.414   4.101   3.935
 1241SOL    HW1 4622   6.513   4.115   3.925
 1241SOL    HW2 4623   6.396   4.006   3.958
 1242SOL     OW 4624   6.476   3.066   1.407
 1242SOL    HW1 4625   6.438   3.155   1.432
 1242SOL    HW2 4626   6.427   3.030   1.327
 1243SOL     OW 4627   7.013   6.857   5.451
 1243SOL    HW1 4628   0.048   6.788   5.493
 1243SOL    HW2 4629   0.046   6.934   5.420
 1244SOL     OW 4630   6.678   6.666   4.359
 1244SOL    HW1 4631   6.649   6.724   4.283
 1244SOL    HW2 4632   6.765   6.622   4.336
 1245SOL     OW 4633   4.674   4.372   6.372
 1245SOL    HW1 4634   4.736   4.450   6.363
 1245SOL    HW2 4635   4.580   4.404   6.376
 1246SOL     OW 4636   2.348   6.209   1.330
 1246SOL    HW1 4637   2.438   6.214   1.287
 1246SOL    HW2 4638   2.336   6.287   1.391
 1247SOL     OW 4639   2.017   0.922   6.498
 1247SOL    HW1 4640   1.920   0.936   6.477
 1247SOL    HW2 4641   2.052   0.846   6.444
 1248SOL     OW 4642   2.596   0.281   4.477
 1248SOL    HW1 4643   2.634   0.367   4.511
 1248SOL    HW2 4644   2.660   0.206   4.497
 1249SOL     OW 4645   5.488   2.620   2.110
 1249SOL    HW1 4646   5.418   2.559   2.147
 1249SOL    HW2 4647   5.495   2.702   2.166
 1250SOL     OW 4648   6.548   5.366   4.845
 1250SOL    HW1 4649   6.499   5.349   4.759
 1250SOL    HW2 4650   6.501   5.320   4.920
 1251SOL     OW 4651   2.899   0.190   4.277
 1251SOL    HW1 4652   2.971   0.257   4.296
 1251SOL    HW2 4653   2.817   0.238   4.245
 1252SOL     OW 4654   3.729   3.625   5.185
 1252SOL    HW1 4655   3.732   3.717   5.223
 1252SOL    HW2 4656   3.668   3.624   5.105
 1253SOL     OW 4657   3.262   4.851   1.847
 1253SOL    HW1 4658   3.356   4.855   1.881
 1253SOL    HW2 4659   3.198   4.849   1.924
 1254SOL     OW 4660   0.052   3.097   2.703
 1254SOL    HW1 4661   0.143   3.062   2.723
 1254SOL    HW2 4662   7.018   3.093   2.785
 1255SOL     OW 4663   6.621   2.097   4.685
 1255SOL    HW1 4664   6.650   2.023   4.625
 1255SOL    HW2 4665   6.699   2.155   4.708
 1256SOL     OW 4666   6.558   6.075   3.384
 1256SOL    HW1 4667   6.532   6.167   3.415
 1256SOL    HW2 4668   6.643   6.047   3.428
 1257SOL     OW 4669   0.132   6.718   4.403
 1257SOL    HW1 4670   0.224   6.716   4.363
 1257SOL    HW2 4671   0.068   6.672   4.341
 1258SOL     OW 4672   1.413   5.171   3.351
 1258SOL    HW1 4673   1.502   5.148   3.390
 1258SOL    HW2 4674   1.342   5.116   3.395
 1259SOL     OW 4675   3.553   1.159   4.044
 1259SOL    HW1 4676   3.593   1.237   4.093
 1259SOL    HW2 4677   3.592   1.074   4.078
 1260SOL     OW 4678   1.481   1.414   6.618
 1260SOL    HW1 4679   1.388   1.414   6.656
 1260SOL    HW2 4680   1.542   1.464   6.679
 1261SOL     OW 4681   0.160   5.591   6.484
 1261SOL    HW1 4682   0.194   5.520   6.546
 1261SOL    HW2 4683   0.092   5.551   6.423
 1262SOL     OW 4684   4.890   5.156   1.289
 1262SOL    HW1 4685   4.909   5.170   1.387
 1262SOL    HW2 4686   4.794   5.129   1.278
 1263SOL     OW 4687   0.577   1.132   2.601
 1263SOL    HW1 4688   0.500   1.099   2.545
 1263SOL    HW2 4689   0.602   1.224   2.572
 1264SOL     OW 4690   0.308   4.605   5.931
 1264SOL    HW1 4691   0.322   4.703   5.922
 1264SOL    HW2 4692   0.366   4.569   6.004
 1265SOL     OW 4693   6.072   5.471   4.394
 1265SOL    HW1 4694   6.113   5.533   4.328
 1265SOL    HW2 4695   6.082   5.510   4.486
 1266SOL     OW 4696   0.691   0.849   4.445
 1266SOL    HW1 4697   0.603   0.801   4.447
 1266SOL    HW2 4698   0.698   0.909   4.524
 1267SOL     OW 4699   5.011   1.399   1.302
 1267SOL    HW1 4700   5.042   1.476   1.246
 1267SOL    HW2 4701   4.920   1.419   1.338
 1268SOL     OW 4702   2.746   3.266   0.028
 1268SOL    HW1 4703   2.745   3.177   0.073
 1268SOL    HW2 4704   2.754   3.254   6.952
 1269SOL     OW 4705   5.867   3.096   3.681
 1269SOL    HW1 4706   5.880   3.091   3.780
 1269SOL    HW2 4707   5.926   3.167   3.643
 1270SOL     OW 4708   2.040   4.968   2.666
 1270SOL    HW1 4709   2.130   4.924   2.672
 1270SOL    HW2 4710   1.970   4.898   2.649
 1271SOL     OW 4711   3.345   1.419   1.882
 1271SOL    HW1 4712   3.260   1.384   1.841
 1271SOL    HW2 4713   3.416   1.349   1.875
 1272SOL     OW 4714   5.973   4.535   6.785
 1272SOL    HW1 4715   5.884   4.517   6.826
 1272SOL    HW2 4716   5.964   4.537   6.685
 1273SOL     OW 4717   1.543   4.031   5.648
 1273SOL    HW1 4718   1.528   3.933   5.632
 1273SOL    HW2 4719   1.508   4.084   5.571
 1274SOL     OW 4720   0.198   4.234   0.509
 1274SOL    HW1 4721   0.108   4.193   0.525
 1274SOL    HW2 4722   0.266   4.188   0.566
 1275SOL     OW 4723   3.695   1.117   3.359
 1275SOL    HW1 4724   3.744   1.030   3.367
 1275SOL    HW2 4725   3.611   1.104   3.306
 1276SOL     OW 4726   5.410   5.336   4.857
 1276SOL    HW1 4727   5.483   5.400   4.835
 1276SOL    HW2 4728   5.326   5.386   4.874
 1277SOL     OW 4729   1.729   5.470   6.373
 1277SOL    HW1 4730   1.656   5.446   6.308
 1277SOL    HW2 4731   1.817   5.468   6.326
 1278SOL     OW 4732   1.804   0.155   4.407
 1278SOL    HW1 4733   1.731   0.089   4.386
 1278SOL    HW2 4734   1.762   0.244   4.428
 1279SOL     OW 4735   2.415   4.659   6.357
 1279SOL    HW1 4736   2.463   4.580   6.395
 1279SOL    HW2 4737   2.392   4.642   6.262
 1280SOL     OW 4738   4.256   7.020   3.531
 1280SOL    HW1 4739   4.302   0.003   3.619
 1280SOL    HW2 4740   4.290   6.940   3.481
 1281SOL     OW 4741   2.644   6.111   3.446
 1281SOL    HW1 4742   2.576   6.083   3.514
 1281SOL    HW2 4743   2.625   6.205   3.418
 1282SOL     OW 4744   6.888   2.611   0.015
 1282SOL    HW1 4745   6.809   2.654   6.993
 1282SOL    HW2 4746   6.910   2.525   6.993
 1283SOL     OW 4747   6.393   3.498   5.584
 1283SOL    HW1 4748   6.490   3.508   5.563
 1283SOL    HW2 4749   6.338   3.531   5.507
 1284SOL     OW 4750   4.010   0.823   1.407
 1284SOL    HW1 4751   4.062   0.747   1.446
 1284SOL    HW2 4752   3.938   0.850   1.470
 1285SOL     OW 4753   4.593   1.121   5.502
 1285SOL    HW1 4754   4.569   1.190   5.570
 1285SOL    HW2 4755   4.651   1.163   5.432
 1286SOL     OW 4756   4.568   2.420   0.698
 1286SOL    HW1 4757   4.501   2.369   0.753
 1286SOL    HW2 4758   4.602   2.363   0.624
 1287SOL     OW 4759   5.434   4.501   5.562
 1287SOL    HW1 4760   5.425   4.408   5.526
 1287SOL    HW2 4761   5.352   4.524   5.615
 1288SOL     OW 4762   3.981   4.711   5.670
 1288SOL    HW1 4763   4.071   4.753   5.660
 1288SOL    HW2 4764   3.988   4.632   5.731
 1289SOL     OW 4765   0.539   0.492   1.787
 1289SOL    HW1 4766   0.607   0.464   1.719
 1289SOL    HW2 4767   0.459   0.530   1.741
 1290SOL     OW 4768   1.382   0.017   0.431
 1290SOL    HW1 4769   1.419   0.024   0.524
 1290SOL    HW2 4770   1.369   6.944   0.408
 1291SOL     OW 4771   7.014   4.441   4.346
 1291SOL    HW1 4772   0.016   4.486   4.260
 1291SOL    HW2 4773   0.074   4.409   4.392
 1292SOL     OW 4774   0.781   5.691   2.274
 1292SOL    HW1 4775   0.852   5.742   2.322
 1292SOL    HW2 4776   0.751   5.614   2.331
 1293SOL     OW 4777   2.688   2.292   0.030
 1293SOL    HW1 4778   2.742   2.353   6.994
 1293SOL    HW2 4779   2.746   2.218   0.064
 1294SOL     OW 4780   1.108   4.032   6.001
 1294SOL    HW1 4781   1.054   4.077   6.071
 1294SOL    HW2 4782   1.197   4.078   5.992
 1295SOL     OW 4783   0.326   2.901   0.826
 1295SOL    HW1 4784   0.318   2.916   0.727
 1295SOL    HW2 4785   0.264   2.963   0.874
 1296SOL     OW 4786   4.692   6.696   5.103
 1296SOL    HW1 4787   4.725   6.744   5.184
 1296SOL    HW2 4788   4.630   6.755   5.052
 1297SOL     OW 4789   1.327   6.308   1.846
 1297SOL    HW1 4790   1.371   6.367   1.914
 1297SOL    HW2 4791   1.348   6.343   1.754
 1298SOL     OW 4792   5.323   6.211   3.431
 1298SOL    HW1 4793   5.263   6.268   3.485
 1298SOL    HW2 4794   5.327   6.246   3.337
 1299SOL     OW 4795   2.209   2.433   3.611
 1299SOL    HW1 4796   2.207   2.472   3.519
 1299SOL    HW2 4797   2.175   2.339   3.609
 1300SOL     OW 4798   1.743   3.403   1.730
 1300SOL    HW1 4799   1.820   3.438   1.678
 1300SOL    HW2 4800   1.744   3.303   1.727
 1301SOL     OW 4801   0.855   6.679   1.955
 1301SOL    HW1 4802   0.833   6.741   2.030
 1301SOL    HW2 4803   0.826   6.720   1.869
 1302SOL     OW 4804   5.613   0.252   5.262
 1302SOL    HW1 4805   5.657   0.321   5.320
 1302SOL    HW2 4806   5.515   0.268   5.260
 1303SOL     OW 4807   3.830   0.899   1.602
 1303SOL    HW1 4808   3.806   0.850   1.686
 1303SOL    HW2 4809   3.746   0.926   1.555
 1304SOL     OW 4810   1.887   0.426   1.151
 1304SOL    HW1 4811   1.974   0.475   1.146
 1304SOL    HW2 4812   1.821   0.468   1.090
 1305SOL     OW 4813   5.406   4.271   6.933
 1305SOL    HW1 4814   5.437   4.308   7.021
 1305SOL    HW2 4815   5.321   4.219   6.947
 1306SOL     OW 4816   1.874   5.995   4.394
 1306SOL    HW1 4817   1.788   5.966   4.353
 1306SOL    HW2 4818   1.894   5.938   4.473
 1307SOL     OW 4819   2.132   3.443   4.160
 1307SOL    HW1 4820   2.125   3.414   4.256
 1307SOL    HW2 4821   2.110   3.540   4.153
 1308SOL     OW 4822   0.147   6.966   6.155
 1308SOL    HW1 4823   0.138   0.042   6.143
 1308SOL    HW2 4824   0.139   6.921   6.066
 1309SOL     OW 4825   5.420   4.257   5.059
 1309SOL    HW1 4826   5.390   4.179   5.115
 1309SOL    HW2 4827   5.420   4.340   5.115
 1310SOL     OW 4828   0.305   4.258   2.950
 1310SOL    HW1 4829   0.280   4.326   2.881
 1310SOL    HW2 4830   0.255   4.173   2.931
 1311SOL     OW 4831   6.639   6.027   6.431
 1311SOL    HW1 4832   6.582   5.985   6.360
 1311SOL    HW2 4833   6.728   6.052   6.391
 1312SOL     OW 4834   1.716   6.945   6.790
 1312SOL    HW1 4835   1.762   6.877   6.733
 1312SOL    HW2 4836   1.634   6.978   6.744
 1313SOL     OW 4837   6.982   4.771   2.364
 1313SOL    HW1 4838   0.013   4.854   2.372
 1313SOL    HW2 4839   6.912   4.782   2.293
 1314SOL     OW 4840   3.428   2.089   4.547
 1314SOL    HW1 4841   3.429   2.187   4.529
 1314SOL    HW2 4842   3.518   2.051   4.524
 1315SOL     OW 4843   0.017   0.862   3.199
 1315SOL    HW1 4844   0.058   0.844   3.289
 1315SOL    HW2 4845   0.003   0.960   3.188
 1316SOL     OW 4846   3.077   0.331   5.658
 1316SOL    HW1 4847   3.100   0.267   5.585
 1316SOL    HW2 4848   3.161   0.359   5.705
 1317SOL     OW 4849   1.442   4.188   4.953
 1317SOL    HW1 4850   1.504   4.125   5.001
 1317SOL    HW2 4851   1.359   4.139   4.927
 1318SOL     OW 4852   1.537   2.841   0.077
 1318SOL    HW1 4853   1.468   2.876   0.014
 1318SOL    HW2 4854   1.598   2.915   0.105
 1319SOL     OW 4855   0.409   5.254   0.500
 1319SOL    HW1 4856   0.315   5.221   0.485
 1319SOL    HW2 4857   0.465   5.230   0.421
 1320SOL     OW 4858   3.236   3.191   0.017
 1320SOL    HW1 4859   3.316   3.245   7.014
 1320SOL    HW2 4860   3.236   3.105   6.990
 1321SOL     OW 4861   4.785   2.401   6.794
 1321SOL    HW1 4862   4.825   2.322   6.842
 1321SOL    HW2 4863   4.789   2.481   6.854
 1322SOL     OW 4864   4.149   1.773   4.585
 1322SOL    HW1 4865   4.136   1.675   4.596
 1322SOL    HW2 4866   4.090   1.822   4.649
 1323SOL     OW 4867   3.394   6.418   0.131
 1323SOL    HW1 4868   3.304   6.399   0.093
 1323SOL    HW2 4869   3.393   6.401   0.229
 1324SOL     OW 4870   0.622   3.470   0.225
 1324SOL    HW1 4871   0.591   3.544   0.166
 1324SOL    HW2 4872   0.641   3.389   0.171
 1325SOL     OW 4873   4.028   6.206   5.250
 1325SOL    HW1 4874   4.006   6.216   5.347
 1325SOL    HW2 4875   3.961   6.145   5.207
 1326SOL     OW 4876   4.782   3.819   5.246
 1326SOL    HW1 4877   4.797   3.757   5.323
 1326SOL    HW2 4878   4.799   3.771   5.160
 1327SOL     OW 4879   1.183   6.134   0.848
 1327SOL    HW1 4880   1.108   6.069   0.843
 1327SOL    HW2 4881   1.177   6.187   0.933
 1328SOL     OW 4882   2.116   3.272   0.069
 1328SOL    HW1 4883   2.072   3.361   0.057
 1328SOL    HW2 4884   2.096   3.214   7.013
 1329SOL     OW 4885   0.190   2.323   2.196
 1329SOL    HW1 4886   0.141   2.400   2.239
 1329SOL    HW2 4887   0.239   2.272   2.267
 1330SOL     OW 4888   1.173   1.931   1.157
 1330SOL    HW1 4889   1.251   1.871   1.143
 1330SOL    HW2 4890   1.113   1.893   1.228
 1331SOL     OW 4891   4.615   2.642   3.170
 1331SOL    HW1 4892   4.582   2.666   3.261
 1331SOL    HW2 4893   4.567   2.560   3.138
 1332SOL     OW 4894   3.130   6.907   0.706
 1332SOL    HW1 4895   3.180   6.918   0.620
 1332SOL    HW2 4896   3.194   6.894   0.781
 1333SOL     OW 4897   2.870   3.365   3.363
 1333SOL    HW1 4898   2.956   3.392   3.319
 1333SOL    HW2 4899   2.795   3.377   3.299
 1334SOL     OW 4900   6.615   1.672   4.328
 1334SOL    HW1 4901   6.569   1.747   4.279
 1334SOL    HW2 4902   6.610   1.589   4.273
 1335SOL     OW 4903   2.054   2.133   2.266
 1335SOL    HW1 4904   2.007   2.111   2.351
 1335SOL    HW2 4905   2.145   2.091   2.266
 1336SOL     OW 4906   3.573   1.552   5.400
 1336SOL    HW1 4907   3.624   1.468   5.417
 1336SOL    HW2 4908   3.584   1.579   5.305
 1337SOL     OW 4909   0.054   1.367   3.104
 1337SOL    HW1 4910   0.105   1.317   3.034
 1337SOL    HW2 4911   0.119   1.421   3.159
 1338SOL     OW 4912   0.303   3.265   3.950
 1338SOL    HW1 4913   0.251   3.190   3.990
 1338SOL    HW2 4914   0.305   3.342   4.014
 1339SOL     OW 4915   5.958   1.441   0.014
 1339SOL    HW1 4916   5.885   1.381   0.048
 1339SOL    HW2 4917   5.995   1.495   0.089
 1340SOL     OW 4918   5.521   1.119   2.665
 1340SOL    HW1 4919   5.461   1.042   2.643
 1340SOL    HW2 4920   5.610   1.083   2.696
 1341SOL     OW 4921   4.564   6.545   0.169
 1341SOL    HW1 4922   4.549   6.449   0.146
 1341SOL    HW2 4923   4.533   6.603   0.093
 1342SOL     OW 4924   2.705   5.507   6.472
 1342SOL    HW1 4925   2.606   5.513   6.482
 1342SOL    HW2 4926   2.728   5.457   6.389
 1343SOL     OW 4927   5.309   5.434   2.707
 1343SOL    HW1 4928   5.340   5.464   2.797
 1343SOL    HW2 4929   5.360   5.353   2.679
 1344SOL     OW 4930   0.901   6.631   4.183
 1344SOL    HW1 4931   0.846   6.563   4.134
 1344SOL    HW2 4932   0.956   6.683   4.118
 1345SOL     OW 4933   0.696   5.059   2.036
 1345SOL    HW1 4934   0.600   5.062   2.062
 1345SOL    HW2 4935   0.730   5.153   2.023
 1346SOL     OW 4936   2.359   5.527   5.602
 1346SOL    HW1 4937   2.272   5.565   5.570
 1346SOL    HW2 4938   2.346   5.432   5.628
 1347SOL     OW 4939   0.386   6.789   6.865
 1347SOL    HW1 4940   0.292   6.821   6.880
 1347SOL    HW2 4941   0.435   6.790   6.953
 1348SOL     OW 4942   0.129   6.554   5.346
 1348SOL    HW1 4943   0.196   6.572   5.274
 1348SOL    HW2 4944   0.144   6.616   5.422
 1349SOL     OW 4945   5.237   2.494   4.547
 1349SOL    HW1 4946   5.308   2.498   4.618
 1349SOL    HW2 4947   5.234   2.580   4.497
 1350SOL     OW 4948   5.185   5.234   5.304
 1350SOL    HW1 4949   5.200   5.318   5.355
 1350SOL    HW2 4950   5.268   5.209   5.254
 1351SOL     OW 4951   5.293   2.667   3.955
 1351SOL    HW1 4952   5.245   2.644   3.871
 1351SOL    HW2 4953   5.314   2.765   3.955
 1352SOL     OW 4954   6.505   6.227   4.336
 1352SOL    HW1 4955   6.566   6.301   4.309
 1352SOL    HW2 4956   6.515   6.210   4.434
 1353SOL     OW 4957   0.798   2.375   0.522
 1353SOL    HW1 4958   0.772   2.469   0.501
 1353SOL    HW2 4959   0.763   2.350   0.612
 1354SOL     OW 4960   7.013   4.660   2.024
 1354SOL    HW1 4961   6.972   4.571   2.007
 1354SOL    HW2 4962   6.949   4.717   2.076
 1355SOL     OW 4963   6.376   4.276   4.145
 1355SOL    HW1 4964   6.410   4.236   4.060
 1355SOL    HW2 4965   6.307   4.215   4.185
 1356SOL     OW 4966   3.524   2.770   2.060
 1356SOL    HW1 4967   3.557   2.677   2.044
 1356SOL    HW2 4968   3.601   2.833   2.064
 1357SOL     OW 4969   6.831   4.534   6.502
 1357SOL    HW1 4970   6.854   4.451   6.551
 1357SOL    HW2 4971   6.825   4.611   6.566
 1358SOL     OW 4972   6.353   6.573   0.022
 1358SOL    HW1 4973   6.390   6.635   6.977
 1358SOL    HW2 4974   6.336   6.484   7.003
 1359SOL     OW 4975   5.974   4.647   2.469
 1359SOL    HW1 4976   5.898   4.680   2.413
 1359SOL    HW2 4977   6.004   4.557   2.436
 1360SOL     OW 4978   2.231   3.360   0.368
 1360SOL    HW1 4979   2.325   3.380   0.343
 1360SOL    HW2 4980   2.229   3.306   0.452
 1361SOL     OW 4981   6.546   4.257   4.870
 1361SOL    HW1 4982   6.617   4.286   4.934
 1361SOL    HW2 4983   6.469   4.320   4.875
 1362SOL     OW 4984   3.974   3.904   2.847
 1362SOL    HW1 4985   4.014   3.879   2.935
 1362SOL    HW2 4986   4.020   3.852   2.775
 1363SOL     OW 4987   0.651   5.110   4.495
 1363SOL    HW1 4988   0.741   5.083   4.530
 1363SOL    HW2 4989   0.585   5.114   4.570
 1364SOL     OW 4990   5.305   4.378   0.349
 1364SOL    HW1 4991   5.329   4.313   0.422
 1364SOL    HW2 4992   5.304   4.471   0.385
 1365SOL     OW 4993   1.001   4.535   6.285
 1365SOL    HW1 4994   0.945   4.613   6.258
 1365SOL    HW2 4995   1.008   4.531   6.384
 1366SOL     OW 4996   1.719   6.491   6.308
 1366SOL    HW1 4997   1.743   6.460   6.400
 1366SOL    HW2 4998   1.673   6.417   6.259
 1367SOL     OW 4999   2.473   0.187   2.485
 1367SOL    HW1 5000   2.436   0.239   2.408
 1367SOL    HW2 5001   2.430   0.218   2.570
 1368SOL     OW 5002   5.131   6.832   4.670
 1368SOL    HW1 5003   5.143   6.763   4.598
 1368SOL    HW2 5004   5.181   6.803   4.752
 1369SOL     OW 5005   1.509   6.466   3.193
 1369SOL    HW1 5006   1.564   6.400   3.142
 1369SOL    HW2 5007   1.564   6.503   3.268
 1370SOL     OW 5008   3.395   1.036   1.838
 1370SOL    HW1 5009   3.364   0.987   1.756
 1370SOL    HW2 5010   3.391   1.134   1.820
 1371SOL     OW 5011   4.742   1.302   4.291
 1371SOL    HW1 5012   4.747   1.320   4.389
 1371SOL    HW2 5013   4.834   1.291   4.254
 1372SOL     OW 5014   1.952   3.274   1.036
 1372SOL    HW1 5015   1.879   3.253   0.971
 1372SOL    HW2 5016   1.911   3.288   1.127
 1373SOL     OW 5017   6.450   4.437   0.462
 1373SOL    HW1 5018   6.448   4.489   0.547
 1373SOL    HW2 5019   6.387   4.359   0.469
 1374SOL     OW 5020   4.255   2.193   0.714
 1374SOL    HW1 5021   4.200   2.269   0.681
 1374SOL    HW2 5022   4.306   2.153   0.638
 1375SOL     OW 5023   0.003   4.929   6.234
 1375SOL    HW1 5024   0.002   4.831   6.252
 1375SOL    HW2 5025   0.087   4.954   6.186
 1376SOL     OW 5026   4.774   2.964   3.412
 1376SOL    HW1 5027   4.812   2.964   3.319
 1376SOL    HW2 5028   4.806   3.046   3.460
 1377SOL     OW 5029   6.816   4.108   5.907
 1377SOL    HW1 5030   6.817   4.208   5.902
 1377SOL    HW2 5031   6.907   4.073   5.884
 1378SOL     OW 5032   6.906   2.173   4.968
 1378SOL    HW1 5033   6.933   2.078   4.954
 1378SOL    HW2 5034   6.894   2.217   4.878
 1379SOL     OW 5035   3.219   6.677   2.505
 1379SOL    HW1 5036   3.281   6.668   2.582
 1379SOL    HW2 5037   3.234   6.765   2.460
 1380SOL     OW 5038   6.847   6.656   2.288
 1380SOL    HW1 5039   6.808   6.738   2.246
 1380SOL    HW2 5040   6.823   6.653   2.385
 1381SOL     OW 5041   5.258   2.582   0.065
 1381SOL    HW1 5042   5.340   2.592   0.009
 1381SOL    HW2 5043   5.278   2.524   0.144
 1382SOL     OW 5044   6.013   4.803   6.298
 1382SOL    HW1 5045   5.995   4.840   6.208
 1382SOL    HW2 5046   6.035   4.877   6.361
 1383SOL     OW 5047   0.648   1.176   0.072
 1383SOL    HW1 5048   0.721   1.107   0.072
 1383SOL    HW2 5049   0.661   1.238   7.018
 1384SOL     OW 5050   3.353   1.333   3.369
 1384SOL    HW1 5051   3.432   1.388   3.394
 1384SOL    HW2 5052   3.286   1.336   3.443
 1385SOL     OW 5053   7.004   3.081   2.974
 1385SOL    HW1 5054   0.002   2.991   3.013
 1385SOL    HW2 5055   0.050   3.147   3.005
 1386SOL     OW 5056   2.203   2.873   4.054
 1386SOL    HW1 5057   2.247   2.920   3.978
 1386SOL    HW2 5058   2.268   2.808   4.095
 1387SOL     OW 5059   3.288   1.091   4.060
 1387SOL    HW1 5060   3.383   1.120   4.044
 1387SOL    HW2 5061   3.277   1.065   4.156
 1388SOL     OW 5062   6.517   6.877   3.850
 1388SOL    HW1 5063   6.479   6.786   3.863
 1388SOL    HW2 5064   6.609   6.870   3.811
 1389SOL     OW 5065   0.182   0.868   4.189
 1389SOL    HW1 5066   0.197   0.922   4.272
 1389SOL    HW2 5067   0.129   0.786   4.212
 1390SOL     OW 5068   3.670   1.665   7.002
 1390SOL    HW1 5069   3.626   1.742   0.026
 1390SOL    HW2 5070   3.770   1.675   7.008
 1391SOL     OW 5071   6.221   1.538   5.297
 1391SOL    HW1 5072   6.128   1.565   5.273
 1391SOL    HW2 5073   6.246   1.575   5.386
 1392SOL     OW 5074   4.983   5.803   5.717
 1392SOL    HW1 5075   5.002   5.865   5.642
 1392SOL    HW2 5076   4.919   5.845   5.781
 1393SOL     OW 5077   6.095   1.890   6.522
 1393SOL    HW1 5078   6.067   1.893   6.426
 1393SOL    HW2 5079   6.069   1.975   6.568
 1394SOL     OW 5080   3.953   6.265   3.399
 1394SOL    HW1 5081   3.989   6.189   3.453
 1394SOL    HW2 5082   4.003   6.348   3.422
 1395SOL     OW 5083   0.166   3.904   2.618
 1395SOL    HW1 5084   0.127   3.917   2.527
 1395SOL    HW2 5085   0.131   3.819   2.658
 1396SOL     OW 5086   1.643   0.906   4.278
 1396SOL    HW1 5087   1.576   0.940   4.344
 1396SOL    HW2 5088   1.673   0.981   4.219
 1397SOL     OW 5089   0.408   5.816   4.981
 1397SOL    HW1 5090   0.346   5.894   4.978
 1397SOL    HW2 5091   0.362   5.738   5.023
 1398SOL     OW 5092   1.892   1.453   0.387
 1398SOL    HW1 5093   1.915   1.547   0.361
 1398SOL    HW2 5094   1.904   1.441   0.485
 1399SOL     OW 5095   4.361   6.962   0.644
 1399SOL    HW1 5096   4.403   0.026   0.616
 1399SOL    HW2 5097   4.262   6.967   0.632
 1400SOL     OW 5098   6.509   0.614   4.266
 1400SOL    HW1 5099   6.576   0.614   4.341
 1400SOL    HW2 5100   6.541   0.671   4.192
 1401SOL     OW 5101   5.561   6.605   4.495
 1401SOL    HW1 5102   5.578   6.658   4.411
 1401SOL    HW2 5103   5.538   6.511   4.471
 1402SOL     OW 5104   5.482   3.896   0.619
 1402SOL    HW1 5105   5.579   3.890   0.641
 1402SOL    HW2 5106   5.438   3.959   0.683
 1403SOL     OW 5107   3.281   3.488   0.773
 1403SOL    HW1 5108   3.251   3.442   0.857
 1403SOL    HW2 5109   3.355   3.437   0.731
 1404SOL     OW 5110   4.826   0.384   1.434
 1404SOL    HW1 5111   4.804   0.304   1.378
 1404SOL    HW2 5112   4.924   0.400   1.432
 1405SOL     OW 5113   1.710   3.609   0.944
 1405SOL    HW1 5114   1.785   3.543   0.945
 1405SOL    HW2 5115   1.623   3.562   0.958
 1406SOL     OW 5116   2.310   3.501   1.507
 1406SOL    HW1 5117   2.366   3.509   1.589
 1406SOL    HW2 5118   2.238   3.570   1.509
 1407SOL     OW 5119   0.408   3.684   1.574
 1407SOL    HW1 5120   0.488   3.683   1.633
 1407SOL    HW2 5121   0.387   3.779   1.549
 1408SOL     OW 5122   6.017   5.626   6.531
 1408SOL    HW1 5123   5.927   5.646   6.493
 1408SOL    HW2 5124   6.046   5.703   6.588
 1409SOL     OW 5125   0.106   1.583   5.844
 1409SOL    HW1 5126   0.025   1.561   5.790
 1409SOL    HW2 5127   0.092   1.670   5.892
 1410SOL     OW 5128   2.630   3.010   6.337
 1410SOL    HW1 5129   2.552   2.950   6.316
 1410SOL    HW2 5130   2.597   3.102   6.357
 1411SOL     OW 5131   3.852   6.004   0.014
 1411SOL    HW1 5132   3.935   5.973   0.061
 1411SOL    HW2 5133   3.811   5.927   6.988
 1412SOL     OW 5134   0.724   3.037   0.691
 1412SOL    HW1 5135   0.653   3.080   0.635
 1412SOL    HW2 5136   0.772   2.968   0.636
 1413SOL     OW 5137   2.072   2.025   5.449
 1413SOL    HW1 5138   2.144   2.093   5.432
 1413SOL    HW2 5139   2.066   2.008   5.547
 1414SOL     OW 5140   0.823   3.393   2.449
 1414SOL    HW1 5141   0.829   3.320   2.381
 1414SOL    HW2 5142   0.914   3.411   2.487
 1415SOL     OW 5143   2.687   2.316   4.510
 1415SOL    HW1 5144   2.775   2.281   4.542
 1415SOL    HW2 5145   2.614   2.256   4.543
 1416SOL     OW 5146   4.578   0.150   5.452
 1416SOL    HW1 5147   4.559   0.235   5.402
 1416SOL    HW2 5148   4.518   0.078   5.418
 1417SOL     OW 5149   2.764   3.149   6.062
 1417SOL    HW1 5150   2.697   3.082   6.092
 1417SOL    HW2 5151   2.848   3.139   6.116
 1418SOL     OW 5152   3.524   3.744   0.413
 1418SOL    HW1 5153   3.429   3.715   0.425
 1418SOL    HW2 5154   3.551   3.804   0.489
 1419SOL     OW 5155   1.812   4.646   3.989
 1419SOL    HW1 5156   1.743   4.718   3.988
 1419SOL    HW2 5157   1.903   4.688   3.992
 1420SOL     OW 5158   3.866   4.843   2.591
 1420SOL    HW1 5159   3.939   4.791   2.636
 1420SOL    HW2 5160   3.857   4.932   2.636
 1421SOL     OW 5161   1.253   4.681   4.889
 1421SOL    HW1 5162   1.259   4.728   4.977
 1421SOL    HW2 5163   1.195   4.600   4.898
 1422SOL     OW 5164   2.380   4.171   5.635
 1422SOL    HW1 5165   2.424   4.228   5.565
 1422SOL    HW2 5166   2.291   4.140   5.601
 1423SOL     OW 5167   4.224   1.818   4.907
 1423SOL    HW1 5168   4.143   1.838   4.851
 1423SOL    HW2 5169   4.196   1.794   5.000
 1424SOL     OW 5170   6.349   2.855   6.585
 1424SOL    HW1 5171   6.403   2.795   6.526
 1424SOL    HW2 5172   6.400   2.876   6.668
 1425SOL     OW 5173   3.797   6.236   4.709
 1425SOL    HW1 5174   3.732   6.311   4.722
 1425SOL    HW2 5175   3.752   6.149   4.728
 1426SOL     OW 5176   2.422   1.919   6.432
 1426SOL    HW1 5177   2.426   1.869   6.519
 1426SOL    HW2 5178   2.354   1.992   6.439
 1427SOL     OW 5179   1.202   0.792   3.217
 1427SOL    HW1 5180   1.232   0.697   3.221
 1427SOL    HW2 5181   1.168   0.813   3.125
 1428SOL     OW 5182   0.248   2.653   2.483
 1428SOL    HW1 5183   0.316   2.581   2.473
 1428SOL    HW2 5184   0.162   2.624   2.441
 1429SOL     OW 5185   6.175   1.940   0.321
 1429SOL    HW1 5186   6.087   1.917   0.362
 1429SOL    HW2 5187   6.248   1.891   0.368
 1430SOL     OW 5188   2.405   4.419   4.192
 1430SOL    HW1 5189   2.471   4.380   4.128
 1430SOL    HW2 5190   2.360   4.498   4.149
 1431SOL     OW 5191   2.762   1.878   5.805
 1431SOL    HW1 5192   2.845   1.822   5.808
 1431SOL    HW2 5193   2.725   1.887   5.898
 1432SOL     OW 5194   2.543   0.930   1.098
 1432SOL    HW1 5195   2.484   0.964   1.024
 1432SOL    HW2 5196   2.526   0.832   1.111
 1433SOL     OW 5197   3.202   0.778   3.461
 1433SOL    HW1 5198   3.248   0.840   3.524
 1433SOL    HW2 5199   3.113   0.817   3.435
 1434SOL     OW 5200   0.049   2.408   6.315
 1434SOL    HW1 5201   0.134   2.386   6.362
 1434SOL    HW2 5202   0.057   2.497   6.271
 1435SOL     OW 5203   0.626   0.364   3.509
 1435SOL    HW1 5204   0.683   0.295   3.554
 1435SOL    HW2 5205   0.562   0.404   3.574
 1436SOL     OW 5206   6.002   2.643   0.541
 1436SOL    HW1 5207   5.905   2.640   0.564
 1436SOL    HW2 5208   6.013   2.663   0.444
 1437SOL     OW 5209   4.745   1.114   6.027
 1437SOL    HW1 5210   4.832   1.092   6.069
 1437SOL    HW2 5211   4.760   1.152   5.935
 1438SOL     OW 5212   2.717   1.125   1.693
 1438SOL    HW1 5213   2.685   1.132   1.599
 1438SOL    HW2 5214   2.771   1.041   1.704
 1439SOL     OW 5215   0.276   5.537   0.021
 1439SOL    HW1 5216   0.328   5.599   6.985
 1439SOL    HW2 5217   0.184   5.525   7.006
 1440SOL     OW 5218   3.166   2.956   3.895
 1440SOL    HW1 5219   3.080   2.918   3.862
 1440SOL    HW2 5220   3.155   3.055   3.908
 1441SOL     OW 5221   6.309   3.018   4.229
 1441SOL    HW1 5222   6.242   3.084   4.262
 1441SOL    HW2 5223   6.401   3.057   4.237
 1442SOL     OW 5224   5.907   4.451   0.253
 1442SOL    HW1 5225   5.840   4.378   0.240
 1442SOL    HW2 5226   5.999   4.412   0.252
 1443SOL     OW 5227   0.969   0.700   3.619
 1443SOL    HW1 5228   1.044   0.637   3.599
 1443SOL    HW2 5229   0.885   0.666   3.576
 1444SOL     OW 5230   4.492   6.969   3.181
 1444SOL    HW1 5231   4.533   0.037   3.176
 1444SOL    HW2 5232   4.394   6.976   3.161
 1445SOL     OW 5233   0.310   2.312   1.510
 1445SOL    HW1 5234   0.271   2.226   1.543
 1445SOL    HW2 5235   0.263   2.389   1.553
 1446SOL     OW 5236   3.787   2.118   1.096
 1446SOL    HW1 5237   3.792   2.086   1.191
 1446SOL    HW2 5238   3.871   2.093   1.047
 1447SOL     OW 5239   6.739   0.721   5.196
 1447SOL    HW1 5240   6.672   0.790   5.167
 1447SOL    HW2 5241   6.762   0.663   5.118
 1448SOL     OW 5242   5.902   1.852   0.404
 1448SOL    HW1 5243   5.942   1.881   0.491
 1448SOL    HW2 5244   5.837   1.921   0.373
 1449SOL     OW 5245   5.869   6.471   0.608
 1449SOL    HW1 5246   5.862   6.372   0.598
 1449SOL    HW2 5247   5.806   6.515   0.543
 1450SOL     OW 5248   5.851   3.408   2.855
 1450SOL    HW1 5249   5.911   3.353   2.797
 1450SOL    HW2 5250   5.906   3.466   2.915
 1451SOL     OW 5251   2.215   6.741   2.929
 1451SOL    HW1 5252   2.215   6.812   3.000
 1451SOL    HW2 5253   2.155   6.770   2.854
 1452SOL     OW 5254   5.060   0.576   4.894
 1452SOL    HW1 5255   5.007   0.558   4.977
 1452SOL    HW2 5256   5.083   0.490   4.849
 1453SOL     OW 5257   5.214   4.085   4.735
 1453SOL    HW1 5258   5.180   4.055   4.646
 1453SOL    HW2 5259   5.269   4.011   4.776
 1454SOL     OW 5260   5.668   3.010   2.156
 1454SOL    HW1 5261   5.609   2.999   2.076
 1454SOL    HW2 5262   5.641   2.945   2.226
 1455SOL     OW 5263   1.223   0.938   1.849
 1455SOL    HW1 5264   1.255   0.845   1.830
 1455SOL    HW2 5265   1.273   1.003   1.791
 1456SOL     OW 5266   6.823   6.979   4.631
 1456SOL    HW1 5267   6.739   0.009   4.642
 1456SOL    HW2 5268   6.801   6.881   4.634
 1457SOL     OW 5269   1.304   0.029   3.469
 1457SOL    HW1 5270   1.312   7.000   3.384
 1457SOL    HW2 5271   1.387   0.018   3.523
 1458SOL     OW 5272   5.101   6.943   5.584
 1458SOL    HW1 5273   5.026   6.880   5.563
 1458SOL    HW2 5274   5.121   6.938   5.682
 1459SOL     OW 5275   2.934   6.275   6.706
 1459SOL    HW1 5276   2.850   6.326   6.691
 1459SOL    HW2 5277   3.003   6.337   6.744
 1460SOL     OW 5278   0.704   6.405   0.350
 1460SOL    HW1 5279   0.622   6.405   0.292
 1460SOL    HW2 5280   0.701   6.327   0.413
 1461SOL     OW 5281   6.259   4.493   3.276
 1461SOL    HW1 5282   6.259   4.580   3.326
 1461SOL    HW2 5283   6.173   4.484   3.225
 1462SOL     OW 5284   6.373   1.445   0.856
 1462SOL    HW1 5285   6.453   1.395   0.889
 1462SOL    HW2 5286   6.380   1.458   0.757
 1463SOL     OW 5287   0.729   0.325   5.300
 1463SOL    HW1 5288   0.710   0.231   5.271
 1463SOL    HW2 5289   0.685   0.389   5.237
 1464SOL     OW 5290   0.215   7.003   0.319
 1464SOL    HW1 5291   0.123   6.968   0.300
 1464SOL    HW2 5292   0.229   0.067   0.270
 1465SOL     OW 5293   0.477   0.769   3.671
 1465SOL    HW1 5294   0.478   0.843   3.604
 1465SOL    HW2 5295   0.541   0.792   3.745
 1466SOL     OW 5296   6.745   5.581   2.476
 1466SOL    HW1 5297   6.700   5.550   2.393
 1466SOL    HW2 5298   6.706   5.533   2.555
 1467SOL     OW 5299   1.730   0.895   3.021
 1467SOL    HW1 5300   1.692   0.927   3.108
 1467SOL    HW2 5301   1.684   0.942   2.945
 1468SOL     OW 5302   5.721   5.294   3.696
 1468SOL    HW1 5303   5.690   5.228   3.765
 1468SOL    HW2 5304   5.817   5.276   3.675
 1469SOL     OW 5305   0.380   0.496   2.956
 1469SOL    HW1 5306   0.476   0.508   2.981
 1469SOL    HW2 5307   0.323   0.549   3.018
 1470SOL     OW 5308   1.471   1.008   2.859
 1470SOL    HW1 5309   1.393   0.946   2.864
 1470SOL    HW2 5310   1.492   1.027   2.764
 1471SOL     OW 5311   6.660   0.489   6.822
 1471SOL    HW1 5312   6.618   0.425   6.886
 1471SOL    HW2 5313   6.647   0.582   6.855
 1472SOL     OW 5314   4.577   0.057   4.777
 1472SOL    HW1 5315   4.620   0.144   4.756
 1472SOL    HW2 5316   4.609   7.010   4.713
 1473SOL     OW 5317   6.040   5.820   2.796
 1473SOL    HW1 5318   6.002   5.741   2.748
 1473SOL    HW2 5319   6.128   5.795   2.836
 1474SOL     OW 5320   6.541   5.336   3.803
 1474SOL    HW1 5321   6.562   5.367   3.710
 1474SOL    HW2 5322   6.626   5.326   3.854
 1475SOL     OW 5323   0.229   0.054   2.201
 1475SOL    HW1 5324   0.272   0.040   2.112
 1475SOL    HW2 5325   0.134   0.082   2.188
 1476SOL     OW 5326   1.730   0.697   1.920
 1476SOL    HW1 5327   1.783   0.698   1.836
 1476SOL    HW2 5328   1.638   0.662   1.901
 1477SOL     OW 5329   3.314   0.318   5.819
 1477SOL    HW1 5330   3.387   0.253   5.797
 1477SOL    HW2 5331   3.293   0.314   5.916
 1478SOL     OW 5332   6.213   5.116   0.824
 1478SOL    HW1 5333   6.171   5.046   0.766
 1478SOL    HW2 5334   6.292   5.155   0.777
 1479SOL     OW 5335   1.569   4.635   0.260
 1479SOL    HW1 5336   1.666   4.655   0.250
 1479SOL    HW2 5337   1.539   4.576   0.185
 1480SOL     OW 5338   2.118   1.184   6.450
 1480SOL    HW1 5339   2.081   1.091   6.447
 1480SOL    HW2 5340   2.217   1.181   6.433
 1481SOL     OW 5341   5.890   2.042   5.629
 1481SOL    HW1 5342   5.865   2.003   5.541
 1481SOL    HW2 5343   5.844   2.130   5.641
 1482SOL     OW 5344   5.802   1.134   1.388
 1482SOL    HW1 5345   5.787   1.200   1.462
 1482SOL    HW2 5346   5.794   1.180   1.300
 1483SOL     OW 5347   6.472   2.764   6.972
 1483SOL    HW1 5348   6.380   2.737   6.944
 1483SOL    HW2 5349   6.482   2.751   0.048
 1484SOL     OW 5350   6.468   4.651   2.634
 1484SOL    HW1 5351   6.437   4.629   2.542
 1484SOL    HW2 5352   6.562   4.618   2.647
 1485SOL     OW 5353   5.504   2.941   2.852
 1485SOL    HW1 5354   5.516   3.026   2.799
 1485SOL    HW2 5355   5.516   2.863   2.791
 1486SOL     OW 5356   4.441   2.403   3.176
 1486SOL    HW1 5357   4.422   2.404   3.078
 1486SOL    HW2 5358   4.361   2.368   3.225
 1487SOL     OW 5359   6.195   1.349   6.221
 1487SOL    HW1 5360   6.228   1.382   6.133
 1487SOL    HW2 5361   6.161   1.426   6.275
 1488SOL     OW 5362   4.750   1.296   3.015
 1488SOL    HW1 5363   4.749   1.325   3.111
 1488SOL    HW2 5364   4.657   1.299   2.978
 1489SOL     OW 5365   3.480   5.015   4.678
 1489SOL    HW1 5366   3.565   4.977   4.715
 1489SOL    HW2 5367   3.499   5.061   4.591
 1490SOL     OW 5368   1.065   1.523   0.501
 1490SOL    HW1 5369   0.986   1.479   0.459
 1490SOL    HW2 5370   1.116   1.574   0.432
 1491SOL     OW 5371   6.657   3.849   3.158
 1491SOL    HW1 5372   6.707   3.932   3.133
 1491SOL    HW2 5373   6.662   3.783   3.083
 1492SOL     OW 5374   5.270   1.873   1.985
 1492SOL    HW1 5375   5.318   1.960   1.985
 1492SOL    HW2 5376   5.332   1.800   1.954
 1493SOL     OW 5377   4.612   0.348   4.737
 1493SOL    HW1 5378   4.626   0.350   4.638
 1493SOL    HW2 5379   4.593   0.440   4.769
 1494SOL     OW 5380   3.713   2.682   5.614
 1494SOL    HW1 5381   3.665   2.725   5.538
 1494SOL    HW2 5382   3.647   2.658   5.686
 1495SOL     OW 5383   0.454   3.767   3.376
 1495SOL    HW1 5384   0.485   3.758   3.471
 1495SOL    HW2 5385   0.533   3.784   3.317
 1496SOL     OW 5386   6.591   0.343   1.932
 1496SOL    HW1 5387   6.540   0.356   1.847
 1496SOL    HW2 5388   6.635   0.429   1.958
 1497SOL     OW 5389   0.242   5.455   4.069
 1497SOL    HW1 5390   0.188   5.506   4.002
 1497SOL    HW2 5391   0.281   5.520   4.135
 1498SOL     OW 5392   2.726   4.448   6.060
 1498SOL    HW1 5393   2.660   4.389   6.011
 1498SOL    HW2 5394   2.681   4.534   6.085
 1499SOL     OW 5395   1.053   4.032   5.178
 1499SOL    HW1 5396   1.078   3.938   5.204
 1499SOL    HW2 5397   0.954   4.039   5.173
 1500SOL     OW 5398   5.576   0.042   0.980
 1500SOL    HW1 5399   5.651   0.029   1.044
 1500SOL    HW2 5400   5.557   0.139   0.968
 1501SOL     OW 5401   4.233   0.369   6.700
 1501SOL    HW1 5402   4.307   0.376   6.767
 1501SOL    HW2 5403   4.266   0.323   6.618
 1502SOL     OW 5404   6.732   6.776   6.836
 1502SOL    HW1 5405   6.821   6.812   6.809
 1502SOL    HW2 5406   6.730   6.764   6.935
 1503SOL     OW 5407   1.911   2.767   0.625
 1503SOL    HW1 5408   2.004   2.782   0.659
 1503SOL    HW2 5409   1.878   2.677   0.656
 1504SOL     OW 5410   2.959   0.166   4.893
 1504SOL    HW1 5411   3.017   0.179   4.812
 1504SOL    HW2 5412   2.981   0.078   4.935
 1505SOL     OW 5413   5.702   0.409   5.497
 1505SOL    HW1 5414   5.785   0.416   5.442
 1505SOL    HW2 5415   5.651   0.495   5.492
 1506SOL     OW 5416   1.081   4.944   3.658
 1506SOL    HW1 5417   1.077   5.018   3.726
 1506SOL    HW2 5418   1.162   4.889   3.674
 1507SOL     OW 5419   2.095   1.946   4.410
 1507SOL    HW1 5420   2.030   1.993   4.351
 1507SOL    HW2 5421   2.102   1.850   4.383
 1508SOL     OW 5422   4.748   0.277   0.704
 1508SOL    HW1 5423   4.843   0.292   0.730
 1508SOL    HW2 5424   4.713   0.195   0.750
 1509SOL     OW 5425   4.628   2.904   6.170
 1509SOL    HW1 5426   4.642   2.992   6.125
 1509SOL    HW2 5427   4.550   2.911   6.232
 1510SOL     OW 5428   6.831   2.273   4.700
 1510SOL    HW1 5429   6.789   2.363   4.702
 1510SOL    HW2 5430   6.885   2.262   4.617
 1511SOL     OW 5431   2.648   1.518   6.631
 1511SOL    HW1 5432   2.630   1.420   6.642
 1511SOL    HW2 5433   2.677   1.557   6.718
 1512SOL     OW 5434   0.174   0.117   1.742
 1512SOL    HW1 5435   0.226   0.088   1.823
 1512SOL    HW2 5436   0.111   0.192   1.768
 1513SOL     OW 5437   3.641   6.899   3.941
 1513SOL    HW1 5438   3.670   6.877   4.034
 1513SOL    HW2 5439   3.715   6.878   3.877
 1514SOL     OW 5440   5.351   1.597   5.079
 1514SOL    HW1 5441   5.394   1.510   5.102
 1514SOL    HW2 5442   5.295   1.585   4.997
 1515SOL     OW 5443   6.915   4.217   5.422
 1515SOL    HW1 5444   6.941   4.304   5.380
 1515SOL    HW2 5445   6.838   4.178   5.371
 1516SOL     OW 5446   0.677   0.916   1.130
 1516SOL    HW1 5447   0.697   0.825   1.165
 1516SOL    HW2 5448   0.635   0.909   1.039
 1517SOL     OW 5449   4.430   5.373   3.898
 1517SOL    HW1 5450   4.518   5.417   3.916
 1517SOL    HW2 5451   4.377   5.432   3.837
 1518SOL     OW 5452   6.444   3.743   0.030
 1518SOL    HW1 5453   6.477   3.670   0.090
 1518SOL    HW2 5454   6.518   3.808   0.012
 1519SOL     OW 5455   6.865   4.375   1.139
 1519SOL    HW1 5456   6.819   4.307   1.081
 1519SOL    HW2 5457   6.858   4.465   1.096
 1520SOL     OW 5458   2.074   3.637   2.228
 1520SOL    HW1 5459   2.126   3.593   2.154
 1520SOL    HW2 5460   2.097   3.593   2.315
 1521SOL     OW 5461   1.600   3.439   0.268
 1521SOL    HW1 5462   1.696   3.462   0.283
 1521SOL    HW2 5463   1.574   3.363   0.328
 1522SOL     OW 5464   6.766   1.727   6.434
 1522SOL    HW1 5465   6.716   1.656   6.385
 1522SOL    HW2 5466   6.715   1.754   6.515
 1523SOL     OW 5467   5.546   3.370   6.754
 1523SOL    HW1 5468   5.447   3.365   6.737
 1523SOL    HW2 5469   5.595   3.355   6.668
 1524SOL     OW 5470   0.793   1.567   1.638
 1524SOL    HW1 5471   0.698   1.551   1.664
 1524SOL    HW2 5472   0.848   1.486   1.661
 1525SOL     OW 5473   4.418   1.376   5.956
 1525SOL    HW1 5474   4.484   1.450   5.971
 1525SOL    HW2 5475   4.330   1.415   5.929
 1526SOL     OW 5476   0.088   1.746   1.326
 1526SOL    HW1 5477   0.184   1.764   1.346
 1526SOL    HW2 5478   0.069   1.765   1.230
 1527SOL     OW 5479   3.357   1.784   5.078
 1527SOL    HW1 5480   3.312   1.872   5.089
 1527SOL    HW2 5481   3.360   1.736   5.166
 1528SOL     OW 5482   4.823   6.137   2.553
 1528SOL    HW1 5483   4.792   6.058   2.607
 1528SOL    HW2 5484   4.774   6.219   2.584
 1529SOL     OW 5485   5.023   1.060   6.126
 1529SOL    HW1 5486   4.986   0.967   6.124
 1529SOL    HW2 5487   5.017   1.097   6.219
 1530SOL     OW 5488   3.078   6.544   1.944
 1530SOL    HW1 5489   3.108   6.475   1.879
 1530SOL    HW2 5490   3.022   6.613   1.897
 1531SOL     OW 5491   5.911   0.742   5.137
 1531SOL    HW1 5492   5.829   0.685   5.141
 1531SOL    HW2 5493   5.946   0.743   5.044
 1532SOL     OW 5494   3.396   2.127   5.257
 1532SOL    HW1 5495   3.329   2.083   5.197
 1532SOL    HW2 5496   3.357   2.211   5.295
 1533SOL     OW 5497   6.889   3.079   6.460
 1533SOL    HW1 5498   6.961   3.142   6.488
 1533SOL    HW2 5499   6.915   2.986   6.486
 1534SOL     OW 5500   2.037   5.476   0.418
 1534SOL    HW1 5501   1.993   5.472   0.328
 1534SOL    HW2 5502   2.004   5.400   0.474
 1535SOL     OW 5503   5.289   5.103   4.350
 1535SOL    HW1 5504   5.372   5.127   4.401
 1535SOL    HW2 5505   5.234   5.039   4.403
 1536SOL     OW 5506   2.268   5.278   4.547
 1536SOL    HW1 5507   2.230   5.195   4.506
 1536SOL    HW2 5508   2.264   5.353   4.481
 1537SOL     OW 5509   3.348   5.221   3.692
 1537SOL    HW1 5510   3.337   5.125   3.719
 1537SOL    HW2 5511   3.416   5.265   3.752
 1538SOL     OW 5512   3.092   4.050   6.483
 1538SOL    HW1 5513   3.128   4.097   6.403
 1538SOL    HW2 5514   3.168   4.021   6.542
 1539SOL     OW 5515   3.492   4.214   1.915
 1539SOL    HW1 5516   3.566   4.247   1.857
 1539SOL    HW2 5517   3.411   4.271   1.900
 1540SOL     OW 5518   0.951   0.559   4.612
 1540SOL    HW1 5519   0.958   0.630   4.542
 1540SOL    HW2 5520   1.010   0.482   4.586
 1541SOL     OW 5521   3.718   3.036   1.268
 1541SOL    HW1 5522   3.752   2.991   1.186
 1541SOL    HW2 5523   3.700   2.967   1.339
 1542SOL     OW 5524   0.617   5.836   1.371
 1542SOL    HW1 5525   0.643   5.932   1.368
 1542SOL    HW2 5526   0.623   5.802   1.465
 1543SOL     OW 5527   3.389   3.505   3.526
 1543SOL    HW1 5528   3.425   3.539   3.613
 1543SOL    HW2 5529   3.372   3.407   3.533
 1544SOL     OW 5530   2.985   3.838   2.404
 1544SOL    HW1 5531   2.891   3.857   2.376
 1544SOL    HW2 5532   3.045   3.841   2.324
 1545SOL     OW 5533   5.823   0.823   5.464
 1545SOL    HW1 5534   5.861   0.814   5.556
 1545SOL    HW2 5535   5.856   0.909   5.423
 1546SOL     OW 5536   6.132   0.637   6.360
 1546SOL    HW1 5537   6.099   0.671   6.273
 1546SOL    HW2 5538   6.229   0.660   6.371
 1547SOL     OW 5539   2.596   4.639   2.727
 1547SOL    HW1 5540   2.632   4.649   2.634
 1547SOL    HW2 5541   2.641   4.704   2.787
 1548SOL     OW 5542   3.786   4.510   5.577
 1548SOL    HW1 5543   3.696   4.545   5.603
 1548SOL    HW2 5544   3.858   4.566   5.618
 1549SOL     OW 5545   6.535   1.636   2.017
 1549SOL    HW1 5546   6.605   1.702   1.992
 1549SOL    HW2 5547   6.577   1.556   2.060
 1550SOL     OW 5548   2.645   6.644   5.472
 1550SOL    HW1 5549   2.627   6.575   5.542
 1550SOL    HW2 5550   2.738   6.680   5.484
 1551SOL     OW 5551   2.027   2.928   1.126
 1551SOL    HW1 5552   1.975   2.962   1.048
 1551SOL    HW2 5553   1.979   2.948   1.211
 1552SOL     OW 5554   1.390   6.797   0.842
 1552SOL    HW1 5555   1.349   6.886   0.824
 1552SOL    HW2 5556   1.325   6.725   0.817
 1553SOL     OW 5557   6.145   1.504   6.851
 1553SOL    HW1 5558   6.228   1.468   6.893
 1553SOL    HW2 5559   6.067   1.485   6.911
 1554SOL     OW 5560   4.177   2.262   2.784
 1554SOL    HW1 5561   4.206   2.167   2.797
 1554SOL    HW2 5562   4.244   2.323   2.823
 1555SOL     OW 5563   4.796   1.677   5.251
 1555SOL    HW1 5564   4.755   1.586   5.259
 1555SOL    HW2 5565   4.739   1.744   5.299
 1556SOL     OW 5566   3.975   0.008   0.859
 1556SOL    HW1 5567   4.069   0.038   0.875
 1556SOL    HW2 5568   3.916   0.044   0.930
 1557SOL     OW 5569   2.267   2.470   0.982
 1557SOL    HW1 5570   2.173   2.439   0.968
 1557SOL    HW2 5571   2.274   2.512   1.073
 1558SOL     OW 5572   6.538   2.509   4.958
 1558SOL    HW1 5573   6.457   2.569   4.965
 1558SOL    HW2 5574   6.517   2.420   4.998
 1559SOL     OW 5575   0.615   4.103   2.199
 1559SOL    HW1 5576   0.593   4.025   2.140
 1559SOL    HW2 5577   0.702   4.085   2.246
 1560SOL     OW 5578   3.913   1.554   0.258
 1560SOL    HW1 5579   3.859   1.495   0.318
 1560SOL    HW2 5580   3.876   1.647   0.259
 1561SOL     OW 5581   5.617   6.370   2.108
 1561SOL    HW1 5582   5.674   6.382   2.027
 1561SOL    HW2 5583   5.646   6.436   2.179
 1562SOL     OW 5584   2.759   6.316   2.288
 1562SOL    HW1 5585   2.723   6.257   2.216
 1562SOL    HW2 5586   2.726   6.410   2.274
 1563SOL     OW 5587   3.008   2.171   4.733
 1563SOL    HW1 5588   3.031   2.216   4.819
 1563SOL    HW2 5589   3.074   2.098   4.715
 1564SOL     OW 5590   1.065   1.854   2.615
 1564SOL    HW1 5591   1.070   1.788   2.690
 1564SOL    HW2 5592   1.145   1.913   2.618
 1565SOL     OW 5593   3.958   5.811   4.145
 1565SOL    HW1 5594   3.898   5.731   4.153
 1565SOL    HW2 5595   4.018   5.816   4.225
 1566SOL     OW 5596   5.018   4.784   3.839
 1566SOL    HW1 5597   5.011   4.862   3.777
 1566SOL    HW2 5598   5.110   4.782   3.878
 1567SOL     OW 5599   5.970   5.222   6.379
 1567SOL    HW1 5600   6.015   5.198   6.293
 1567SOL    HW2 5601   5.887   5.168   6.389
 1568SOL     OW 5602   2.007   6.190   3.941
 1568SOL    HW1 5603   2.044   6.281   3.960
 1568SOL    HW2 5604   2.054   6.123   3.998
 1569SOL     OW 5605   3.379   0.601   2.917
 1569SOL    HW1 5606   3.368   0.549   3.002
 1569SOL    HW2 5607   3.359   0.541   2.839
 1570SOL     OW 5608   2.971   6.683   6.813
 1570SOL    HW1 5609   2.959   6.714   6.718
 1570SOL    HW2 5610   3.024   6.751   6.864
 1571SOL     OW 5611   1.227   2.302   3.440
 1571SOL    HW1 5612   1.175   2.385   3.461
 1571SOL    HW2 5613   1.166   2.223   3.448
 1572SOL     OW 5614   1.606   5.200   1.674
 1572SOL    HW1 5615   1.548   5.131   1.717
 1572SOL    HW2 5616   1.637   5.265   1.742
 1573SOL     OW 5617   5.358   5.353   1.658
 1573SOL    HW1 5618   5.277   5.340   1.601
 1573SOL    HW2 5619   5.348   5.435   1.714
 1574SOL     OW 5620   6.162   3.204   2.169
 1574SOL    HW1 5621   6.243   3.209   2.228
 1574SOL    HW2 5622   6.080   3.213   2.226
 1575SOL     OW 5623   1.549   0.693   1.616
 1575SOL    HW1 5624   1.476   0.638   1.577
 1575SOL    HW2 5625   1.637   0.663   1.579
 1576SOL     OW 5626   0.383   6.020   2.458
 1576SOL    HW1 5627   0.395   6.024   2.557
 1576SOL    HW2 5628   0.356   6.110   2.423
 1577SOL     OW 5629   3.211   0.460   6.544
 1577SOL    HW1 5630   3.285   0.395   6.523
 1577SOL    HW2 5631   3.136   0.412   6.588
 1578SOL     OW 5632   4.071   0.793   0.455
 1578SOL    HW1 5633   4.123   0.862   0.406
 1578SOL    HW2 5634   4.043   0.720   0.392
 1579SOL     OW 5635   0.702   3.067   1.576
 1579SOL    HW1 5636   0.673   2.996   1.512
 1579SOL    HW2 5637   0.671   3.156   1.545
 1580SOL     OW 5638   3.154   3.579   3.664
 1580SOL    HW1 5639   3.227   3.547   3.603
 1580SOL    HW2 5640   3.077   3.515   3.660
 1581SOL     OW 5641   6.985   4.903   5.359
 1581SOL    HW1 5642   6.891   4.869   5.357
 1581SOL    HW2 5643   7.016   4.909   5.455
 1582SOL     OW 5644   4.506   5.776   5.072
 1582SOL    HW1 5645   4.409   5.801   5.061
 1582SOL    HW2 5646   4.551   5.781   4.983
 1583SOL     OW 5647   0.917   6.459   5.065
 1583SOL    HW1 5648   0.947   6.384   5.006
 1583SOL    HW2 5649   0.918   6.428   5.160
 1584SOL     OW 5650   1.392   5.110   6.465
 1584SOL    HW1 5651   1.397   5.023   6.417
 1584SOL    HW2 5652   1.301   5.121   6.505
 1585SOL     OW 5653   3.588   1.480   3.463
 1585SOL    HW1 5654   3.642   1.564   3.449
 1585SOL    HW2 5655   3.508   1.501   3.520
 1586SOL     OW 5656   3.248   5.013   3.342
 1586SOL    HW1 5657   3.347   5.012   3.326
 1586SOL    HW2 5658   3.219   5.106   3.364
 1587SOL     OW 5659   1.975   5.773   5.783
 1587SOL    HW1 5660   2.073   5.790   5.785
 1587SOL    HW2 5661   1.954   5.689   5.833
 1588SOL     OW 5662   4.782   0.295   2.441
 1588SOL    HW1 5663   4.785   0.342   2.528
 1588SOL    HW2 5664   4.854   0.226   2.437
 1589SOL     OW 5665   6.445   3.993   2.744
 1589SOL    HW1 5666   6.349   4.017   2.760
 1589SOL    HW2 5667   6.498   4.076   2.725
 1590SOL     OW 5668   5.122   1.785   3.313
 1590SOL    HW1 5669   5.141   1.726   3.234
 1590SOL    HW2 5670   5.198   1.849   3.325
 1591SOL     OW 5671   6.408   5.623   1.308
 1591SOL    HW1 5672   6.466   5.643   1.228
 1591SOL    HW2 5673   6.312   5.638   1.284
 1592SOL     OW 5674   1.161   4.724   6.542
 1592SOL    HW1 5675   1.231   4.746   6.475
 1592SOL    HW2 5676   1.113   4.807   6.569
 1593SOL     OW 5677   1.200   0.075   6.292
 1593SOL    HW1 5678   1.170   7.003   6.287
 1593SOL    HW2 5679   1.277   0.088   6.229
 1594SOL     OW 5680   6.921   6.852   1.983
 1594SOL    HW1 5681   6.901   6.757   2.006
 1594SOL    HW2 5682   7.018   6.861   1.959
 1595SOL     OW 5683   1.595   4.035   6.894
 1595SOL    HW1 5684   1.620   4.051   6.990
 1595SOL    HW2 5685   1.506   3.989   6.890
 1596SOL     OW 5686   5.903   3.541   3.294
 1596SOL    HW1 5687   5.884   3.529   3.391
 1596SOL    HW2 5688   5.816   3.544   3.244
 1597SOL     OW 5689   2.895   5.456   0.929
 1597SOL    HW1 5690   2.931   5.366   0.903
 1597SOL    HW2 5691   2.910   5.520   0.855
 1598SOL     OW 5692   1.467   5.537   6.727
 1598SOL    HW1 5693   1.398   5.518   6.658
 1598SOL    HW2 5694   1.424   5.536   6.818
 1599SOL     OW 5695   3.598   5.166   4.467
 1599SOL    HW1 5696   3.553   5.106   4.400
 1599SOL    HW2 5697   3.692   5.136   4.479
 1600SOL     OW 5698   3.119   0.608   2.304
 1600SOL    HW1 5699   3.147   0.616   2.400
 1600SOL    HW2 5700   3.179   0.543   2.257
 1601SOL     OW 5701   6.548   6.394   4.059
 1601SOL    HW1 5702   6.646   6.385   4.077
 1601SOL    HW2 5703   6.517   6.316   4.004
 1602SOL     OW 5704   4.554   5.163   4.073
 1602SOL    HW1 5705   4.626   5.096   4.057
 1602SOL    HW2 5706   4.541   5.219   3.991
 1603SOL     OW 5707   2.824   5.112   4.431
 1603SOL    HW1 5708   2.813   5.150   4.339
 1603SOL    HW2 5709   2.866   5.021   4.424
 1604SOL     OW 5710   4.086   5.121   1.712
 1604SOL    HW1 5711   4.146   5.134   1.791
 1604SOL    HW2 5712   4.038   5.033   1.721
 1605SOL     OW 5713   5.580   5.440   1.443
 1605SOL    HW1 5714   5.576   5.472   1.537
 1605SOL    HW2 5715   5.570   5.341   1.441
 1606SOL     OW 5716   3.726   5.296   5.114
 1606SOL    HW1 5717   3.708   5.260   5.022
 1606SOL    HW2 5718   3.787   5.234   5.162
 1607SOL     OW 5719   4.117   0.269   1.964
 1607SOL    HW1 5720   4.038   0.246   2.020
 1607SOL    HW2 5721   4.122   0.369   1.953
 1608SOL     OW 5722   7.012   0.509   3.244
 1608SOL    HW1 5723   6.942   0.519   3.174
 1608SOL    HW2 5724   0.014   0.413   3.253
 1609SOL     OW 5725   3.210   6.620   0.832
 1609SOL    HW1 5726   3.248   6.701   0.876
 1609SOL    HW2 5727   3.204   6.545   0.899
 1610SOL     OW 5728   5.309   6.422   0.427
 1610SOL    HW1 5729   5.250   6.489   0.381
 1610SOL    HW2 5730   5.264   6.389   0.509
 1611SOL     OW 5731   1.540   3.679   1.256
 1611SOL    HW1 5732   1.539   3.722   1.346
 1611SOL    HW2 5733   1.559   3.748   1.186
 1612SOL     OW 5734   2.917   6.080   1.521
 1612SOL    HW1 5735   2.922   5.994   1.470
 1612SOL    HW2 5736   2.983   6.145   1.484
 1613SOL     OW 5737   0.701   5.925   2.146
 1613SOL    HW1 5738   0.778   5.988   2.137
 1613SOL    HW2 5739   0.728   5.846   2.201
 1614SOL     OW 5740   5.328   1.965   6.272
 1614SOL    HW1 5741   5.361   1.926   6.359
 1614SOL    HW2 5742   5.404   1.969   6.207
 1615SOL     OW 5743   6.990   4.970   6.595
 1615SOL    HW1 5744   7.011   5.022   6.678
 1615SOL    HW2 5745   6.979   5.033   6.518
 1616SOL     OW 5746   3.720   0.731   5.007
 1616SOL    HW1 5747   3.739   0.765   4.915
 1616SOL    HW2 5748   3.778   0.779   5.073
 1617SOL     OW 5749   4.744   0.145   3.287
 1617SOL    HW1 5750   4.688   0.225   3.310
 1617SOL    HW2 5751   4.795   0.164   3.203
 1618SOL     OW 5752   1.504   5.825   2.596
 1618SOL    HW1 5753   1.573   5.809   2.527
 1618SOL    HW2 5754   1.547   5.862   2.679
 1619SOL     OW 5755   1.004   4.952   6.616
 1619SOL    HW1 5756   1.019   4.999   6.703
 1619SOL    HW2 5757   0.925   4.892   6.624
 1620SOL     OW 5758   3.099   5.184   1.102
 1620SOL    HW1 5759   3.104   5.225   1.194
 1620SOL    HW2 5760   3.081   5.086   1.111
 1621SOL     OW 5761   6.226   6.805   1.362
 1621SOL    HW1 5762   6.165   6.836   1.436
 1621SOL    HW2 5763   6.318   6.794   1.397
 1622SOL     OW 5764   0.440   4.099   5.918
 1622SOL    HW1 5765   0.538   4.099   5.899
 1622SOL    HW2 5766   0.420   4.167   5.988
 1623SOL     OW 5767   0.391   2.498   4.584
 1623SOL    HW1 5768   0.461   2.442   4.539
 1623SOL    HW2 5769   0.300   2.463   4.562
 1624SOL     OW 5770   3.966   1.152   0.116
 1624SOL    HW1 5771   3.925   1.243   0.102
 1624SOL    HW2 5772   3.903   1.095   0.169
 1625SOL     OW 5773   1.327   4.926   6.906
 1625SOL    HW1 5774   1.326   4.838   6.860
 1625SOL    HW2 5775   1.342   4.913   7.004
 1626SOL     OW 5776   2.715   1.765   2.401
 1626SOL    HW1 5777   2.802   1.772   2.352
 1626SOL    HW2 5778   2.731   1.727   2.492
 1627SOL     OW 5779   5.354   2.933   3.985
 1627SOL    HW1 5780   5.296   3.013   4.001
 1627SOL    HW2 5781   5.437   2.940   4.041
 1628SOL     OW 5782   5.165   6.301   6.789
 1628SOL    HW1 5783   5.245   6.346   6.829
 1628SOL    HW2 5784   5.187   6.268   6.697
 1629SOL     OW 5785   2.706   1.829   2.971
 1629SOL    HW1 5786   2.619   1.878   2.972
 1629SOL    HW2 5787   2.760   1.854   3.051
 1630SOL     OW 5788   6.861   4.021   6.313
 1630SOL    HW1 5789   6.814   4.044   6.399
 1630SOL    HW2 5790   6.796   4.026   6.237
 1631SOL     OW 5791   6.380   3.279   1.172
 1631SOL    HW1 5792   6.402   3.187   1.139
 1631SOL    HW2 5793   6.332   3.329   1.100
 1632SOL     OW 5794   4.932   4.278   3.069
 1632SOL    HW1 5795   5.013   4.296   3.125
 1632SOL    HW2 5796   4.922   4.352   3.002
 1633SOL     OW 5797   4.792   4.243   4.379
 1633SOL    HW1 5798   4.757   4.198   4.461
 1633SOL    HW2 5799   4.891   4.258   4.388
 1634SOL     OW 5800   3.913   0.624   4.276
 1634SOL    HW1 5801   3.993   0.619   4.335
 1634SOL    HW2 5802   3.830   0.613   4.330
 1635SOL     OW 5803   2.555   5.235   6.325
 1635SOL    HW1 5804   2.480   5.174   6.300
 1635SOL    HW2 5805   2.581   5.218   6.420
 1636SOL     OW 5806   3.537   5.810   0.705
 1636SOL    HW1 5807   3.493   5.895   0.677
 1636SOL    HW2 5808   3.636   5.819   0.699
 1637SOL     OW 5809   6.774   6.328   3.648
 1637SOL    HW1 5810   6.791   6.405   3.587
 1637SOL    HW2 5811   6.675   6.320   3.664
 1638SOL     OW 5812   0.332   3.093   1.350
 1638SOL    HW1 5813   0.347   3.085   1.252
 1638SOL    HW2 5814   0.307   3.004   1.388
 1639SOL     OW 5815   6.715   4.058   1.819
 1639SOL    HW1 5816   6.645   3.986   1.812
 1639SOL    HW2 5817   6.680   4.142   1.778
 1640SOL     OW 5818   6.547   0.074   0.747
 1640SOL    HW1 5819   6.485   0.151   0.731
 1640SOL    HW2 5820   6.551   0.054   0.845
 1641SOL     OW 5821   0.202   2.377   3.647
 1641SOL    HW1 5822   0.257   2.293   3.640
 1641SOL    HW2 5823   0.190   2.417   3.556
 1642SOL     OW 5824   6.754   2.292   6.499
 1642SOL    HW1 5825   6.814   2.222   6.538
 1642SOL    HW2 5826   6.659   2.262   6.507
 1643SOL     OW 5827   3.303   4.917   3.056
 1643SOL    HW1 5828   3.208   4.889   3.040
 1643SOL    HW2 5829   3.309   4.963   3.145
 1644SOL     OW 5830   5.894   2.747   6.950
 1644SOL    HW1 5831   5.940   2.689   7.017
 1644SOL    HW2 5832   5.947   2.831   6.937
 1645SOL     OW 5833   2.929   6.989   6.280
 1645SOL    HW1 5834   2.891   6.907   6.237
 1645SOL    HW2 5835   2.903   6.992   6.376
 1646SOL     OW 5836   1.951   6.578   0.051
 1646SOL    HW1 5837   1.990   6.598   6.984
 1646SOL    HW2 5838   2.023   6.544   0.112
 1647SOL     OW 5839   5.546   2.592   4.085
 1647SOL    HW1 5840   5.449   2.599   4.061
 1647SOL    HW2 5841   5.558   2.520   4.153
 1648SOL     OW 5842   5.604   6.480   6.936
 1648SOL    HW1 5843   5.656   6.539   6.998
 1648SOL    HW2 5844   5.512   6.467   6.972
 1649SOL     OW 5845   3.437   0.835   3.197
 1649SOL    HW1 5846   3.347   0.823   3.155
 1649SOL    HW2 5847   3.444   0.928   3.235
 1650SOL     OW 5848   1.154   5.491   6.215
 1650SOL    HW1 5849   1.055   5.477   6.215
 1650SOL    HW2 5850   1.200   5.403   6.204
 1651SOL     OW 5851   0.257   2.444   3.067
 1651SOL    HW1 5852   0.220   2.353   3.089
 1651SOL    HW2 5853   0.357   2.440   3.067
 1652SOL     OW 5854   1.050   3.251   1.805
 1652SOL    HW1 5855   1.108   3.197   1.744
 1652SOL    HW2 5856   1.048   3.209   1.896
 1653SOL     OW 5857   0.138   5.714   2.219
 1653SOL    HW1 5858   0.049   5.706   2.175
 1653SOL    HW2 5859   0.208   5.731   2.150
 1654SOL     OW 5860   0.482   3.494   1.404
 1654SOL    HW1 5861   0.422   3.558   1.452
 1654SOL    HW2 5862   0.506   3.419   1.466
 1655SOL     OW 5863   6.966   1.186   4.625
 1655SOL    HW1 5864   7.020   1.103   4.613
 1655SOL    HW2 5865   0.002   1.259   4.662
 1656SOL     OW 5866   2.933   5.481   4.081
 1656SOL    HW1 5867   2.874   5.442   4.011
 1656SOL    HW2 5868   3.029   5.473   4.052
 1657SOL     OW 5869   6.283   1.181   5.112
 1657SOL    HW1 5870   6.201   1.223   5.074
 1657SOL    HW2 5871   6.354   1.250   5.123
 1658SOL     OW 5872   6.851   0.171   0.453
 1658SOL    HW1 5873   6.824   0.227   0.375
 1658SOL    HW2 5874   6.784   0.099   0.468
 1659SOL     OW 5875   4.008   6.801   0.166
 1659SOL    HW1 5876   3.951   6.719   0.164
 1659SOL    HW2 5877   4.105   6.775   0.163
 1660SOL     OW 5878   1.253   0.210   2.230
 1660SOL    HW1 5879   1.256   0.296   2.281
 1660SOL    HW2 5880   1.268   0.134   2.294
 1661SOL     OW 5881   2.585   5.149   2.141
 1661SOL    HW1 5882   2.534   5.136   2.227
 1661SOL    HW2 5883   2.674   5.105   2.148
 1662SOL     OW 5884   6.551   0.929   5.348
 1662SOL    HW1 5885   6.485   0.917   5.274
 1662SOL    HW2 5886   6.505   0.965   5.429
 1663SOL     OW 5887   5.064   5.366   2.533
 1663SOL    HW1 5888   5.156   5.401   2.545
 1663SOL    HW2 5889   5.054   5.281   2.584
 1664SOL     OW 5890   1.717   0.638   5.233
 1664SOL    HW1 5891   1.731   0.689   5.148
 1664SOL    HW2 5892   1.800   0.587   5.255
 1665SOL     OW 5893   0.612   3.740   1.763
 1665SOL    HW1 5894   0.652   3.818   1.715
 1665SOL    HW2 5895   0.556   3.772   1.838
 1666SOL     OW 5896   5.766   6.723   6.864
 1666SOL    HW1 5897   5.761   6.682   6.955
 1666SOL    HW2 5898   5.829   6.672   6.807
 1667SOL     OW 5899   6.912   6.460   1.053
 1667SOL    HW1 5900   6.921   6.542   1.109
 1667SOL    HW2 5901   7.002   6.419   1.039
 1668SOL     OW 5902   4.984   5.046   3.338
 1668SOL    HW1 5903   5.074   5.002   3.339
 1668SOL    HW2 5904   4.974   5.103   3.419
 1669SOL     OW 5905   6.784   4.400   5.637
 1669SOL    HW1 5906   6.762   4.304   5.620
 1669SOL    HW2 5907   6.879   4.408   5.666
 1670SOL     OW 5908   1.078   4.665   5.536
 1670SOL    HW1 5909   1.059   4.628   5.627
 1670SOL    HW2 5910   1.025   4.748   5.521
 1671SOL     OW 5911   5.550   1.584   2.892
 1671SOL    HW1 5912   5.563   1.565   2.989
 1671SOL    HW2 5913   5.624   1.541   2.839
 1672SOL     OW 5914   1.542   4.045   6.467
 1672SOL    HW1 5915   1.471   4.015   6.531
 1672SOL    HW2 5916   1.631   4.011   6.498
 1673SOL     OW 5917   2.277   1.712   4.939
 1673SOL    HW1 5918   2.191   1.689   4.985
 1673SOL    HW2 5919   2.339   1.756   5.004
 1674SOL     OW 5920   6.121   2.852   2.421
 1674SOL    HW1 5921   6.067   2.771   2.442
 1674SOL    HW2 5922   6.094   2.889   2.332
 1675SOL     OW 5923   4.778   0.114   1.344
 1675SOL    HW1 5924   4.813   0.021   1.332
 1675SOL    HW2 5925   4.679   0.113   1.337
 1676SOL     OW 5926   2.148   2.583   2.404
 1676SOL    HW1 5927   2.230   2.580   2.347
 1676SOL    HW2 5928   2.083   2.649   2.366
 1677SOL     OW 5929   3.879   3.994   3.228
 1677SOL    HW1 5930   3.901   3.931   3.302
 1677SOL    HW2 5931   3.816   4.065   3.260
 1678SOL     OW 5932   0.772   6.095   1.393
 1678SOL    HW1 5933   0.787   6.122   1.489
 1678SOL    HW2 5934   0.684   6.131   1.362
 1679SOL     OW 5935   1.628   1.275   5.067
 1679SOL    HW1 5936   1.530   1.293   5.071
 1679SOL    HW2 5937   1.659   1.280   4.972
 1680SOL     OW 5938   5.552   3.289   5.205
 1680SOL    HW1 5939   5.455   3.277   5.185
 1680SOL    HW2 5940   5.584   3.214   5.263
 1681SOL     OW 5941   1.843   5.604   4.882
 1681SOL    HW1 5942   1.933   5.575   4.914
 1681SOL    HW2 5943   1.839   5.704   4.878
 1682SOL     OW 5944   2.183   0.569   5.987
 1682SOL    HW1 5945   2.136   0.582   6.075
 1682SOL    HW2 5946   2.191   0.471   5.968
 1683SOL     OW 5947   5.666   6.534   2.842
 1683SOL    HW1 5948   5.594   6.529   2.773
 1683SOL    HW2 5949   5.726   6.455   2.834
 1684SOL     OW 5950   0.778   4.667   1.610
 1684SOL    HW1 5951   0.754   4.719   1.528
 1684SOL    HW2 5952   0.757   4.570   1.595
 1685SOL     OW 5953   1.662   1.917   5.607
 1685SOL    HW1 5954   1.631   1.924   5.702
 1685SOL    HW2 5955   1.724   1.839   5.599
 1686SOL     OW 5956   3.691   5.852   3.623
 1686SOL    HW1 5957   3.699   5.916   3.546
 1686SOL    HW2 5958   3.598   5.814   3.625
 1687SOL     OW 5959   0.684   4.132   1.919
 1687SOL    HW1 5960   0.646   4.039   1.922
 1687SOL    HW2 5961   0.614   4.195   1.886
 1688SOL     OW 5962   1.509   2.599   3.633
 1688SOL    HW1 5963   1.481   2.532   3.564
 1688SOL    HW2 5964   1.608   2.589   3.649
 1689SOL     OW 5965   6.624   1.128   2.727
 1689SOL    HW1 5966   6.548   1.150   2.788
 1689SOL    HW2 5967   6.597   1.054   2.665
 1690SOL     OW 5968   0.903   3.165   4.377
 1690SOL    HW1 5969   0.949   3.194   4.461
 1690SOL    HW2 5970   0.971   3.140   4.308
 1691SOL     OW 5971   5.268   3.500   4.256
 1691SOL    HW1 5972   5.327   3.578   4.231
 1691SOL    HW2 5973   5.286   3.475   4.351
 1692SOL     OW 5974   5.204   5.302   1.135
 1692SOL    HW1 5975   5.246   5.223   1.178
 1692SOL    HW2 5976   5.263   5.382   1.145
 1693SOL     OW 5977   0.270   1.599   4.756
 1693SOL    HW1 5978   0.230   1.678   4.802
 1693SOL    HW2 5979   0.367   1.593   4.779
 1694SOL     OW 5980   6.069   0.932   4.560
 1694SOL    HW1 5981   6.010   0.876   4.502
 1694SOL    HW2 5982   6.014   1.003   4.604
 1695SOL     OW 5983   3.546   0.654   0.119
 1695SOL    HW1 5984   3.626   0.680   0.174
 1695SOL    HW2 5985   3.572   0.650   0.023
 1696SOL     OW 5986   4.021   6.014   1.023
 1696SOL    HW1 5987   4.053   5.981   1.112
 1696SOL    HW2 5988   4.100   6.043   0.968
 1697SOL     OW 5989   5.713   2.452   0.803
 1697SOL    HW1 5990   5.802   2.444   0.848
 1697SOL    HW2 5991   5.710   2.391   0.724
 1698SOL     OW 5992   3.510   0.733   1.740
 1698SOL    HW1 5993   3.433   0.762   1.798
 1698SOL    HW2 5994   3.485   0.745   1.644
 1699SOL     OW 5995   2.644   1.924   6.063
 1699SOL    HW1 5996   2.730   1.975   6.066
 1699SOL    HW2 5997   2.636   1.867   6.144
 1700SOL     OW 5998   5.581   3.300   3.569
 1700SOL    HW1 5999   5.497   3.252   3.593
 1700SOL    HW2 6000   5.628   3.251   3.495
 1701SOL     OW 6001   6.149   5.279   4.828
 1701SOL    HW1 6002   6.117   5.368   4.798
 1701SOL    HW2 6003   6.208   5.239   4.758
 1702SOL     OW 6004   1.201   1.244   6.425
 1702SOL    HW1 6005   1.289   1.199   6.437
 1702SOL    HW2 6006   1.215   1.339   6.397
 1703SOL     OW 6007   4.236   1.269   6.198
 1703SOL    HW1 6008   4.193   1.320   6.124
 1703SOL    HW2 6009   4.331   1.250   6.175
 1704SOL     OW 6010   1.106   2.036   6.953
 1704SOL    HW1 6011   1.169   1.988   6.891
 1704SOL    HW2 6012   1.149   2.121   6.984
 1705SOL     OW 6013   3.931   1.865   1.876
 1705SOL    HW1 6014   3.863   1.925   1.834
 1705SOL    HW2 6015   3.913   1.771   1.849
 1706SOL     OW 6016   4.577   1.718   1.270
 1706SOL    HW1 6017   4.600   1.741   1.364
 1706SOL    HW2 6018   4.616   1.786   1.208
 1707SOL     OW 6019   5.203   1.834   2.914
 1707SOL    HW1 6020   5.291   1.882   2.914
 1707SOL    HW2 6021   5.130   1.898   2.939
 1708SOL     OW 6022   4.144   5.505   1.869
 1708SOL    HW1 6023   4.214   5.561   1.827
 1708SOL    HW2 6024   4.075   5.563   1.913
 1709SOL     OW 6025   4.490   6.544   0.590
 1709SOL    HW1 6026   4.491   6.485   0.671
 1709SOL    HW2 6027   4.559   6.616   0.600
 1710SOL     OW 6028   4.115   4.722   3.388
 1710SOL    HW1 6029   4.197   4.684   3.346
 1710SOL    HW2 6030   4.034   4.687   3.341
 1711SOL     OW 6031   2.618   4.971   5.632
 1711SOL    HW1 6032   2.700   5.028   5.635
 1711SOL    HW2 6033   2.617   4.918   5.547
 1712SOL     OW 6034   0.235   2.160   4.753
 1712SOL    HW1 6035   0.160   2.094   4.745
 1712SOL    HW2 6036   0.298   2.148   4.677
 1713SOL     OW 6037   3.663   1.108   3.024
 1713SOL    HW1 6038   3.668   1.189   2.966
 1713SOL    HW2 6039   3.591   1.047   2.990
 1714SOL     OW 6040   3.159   2.118   0.194
 1714SOL    HW1 6041   3.213   2.080   0.119
 1714SOL    HW2 6042   3.187   2.076   0.280
 1715SOL     OW 6043   2.141   5.659   2.409
 1715SOL    HW1 6044   2.111   5.565   2.429
 1715SOL    HW2 6045   2.135   5.714   2.493
 1716SOL     OW 6046   4.870   0.381   4.148
 1716SOL    HW1 6047   4.925   0.463   4.135
 1716SOL    HW2 6048   4.878   0.351   4.243
 1717SOL     OW 6049   3.889   5.192   5.348
 1717SOL    HW1 6050   3.967   5.131   5.334
 1717SOL    HW2 6051   3.900   5.241   5.434
 1718SOL     OW 6052   2.478   2.153   2.482
 1718SOL    HW1 6053   2.492   2.054   2.487
 1718SOL    HW2 6054   2.550   2.195   2.426
 1719SOL     OW 6055   1.760   4.889   1.134
 1719SOL    HW1 6056   1.745   4.985   1.111
 1719SOL    HW2 6057   1.706   4.831   1.072
 1720SOL     OW 6058   6.995   3.096   5.978
 1720SOL    HW1 6059   6.987   3.067   6.074
 1720SOL    HW2 6060   6.905   3.118   5.942
 1721SOL     OW 6061   0.989   0.579   2.178
 1721SOL    HW1 6062   0.949   0.664   2.143
 1721SOL    HW2 6063   1.083   0.598   2.210
 1722SOL     OW 6064   3.181   1.654   3.347
 1722SOL    HW1 6065   3.180   1.657   3.247
 1722SOL    HW2 6066   3.164   1.560   3.378
 1723SOL     OW 6067   4.548   2.006   6.942
 1723SOL    HW1 6068   4.647   2.012   6.950
 1723SOL    HW2 6069   4.523   1.918   6.901
 1724SOL     OW 6070   6.388   1.661   1.521
 1724SOL    HW1 6071   6.407   1.676   1.424
 1724SOL    HW2 6072   6.409   1.745   1.572
 1725SOL     OW 6073   1.595   4.558   6.638
 1725SOL    HW1 6074   1.556   4.545   6.729
 1725SOL    HW2 6075   1.695   4.558   6.644
 1726SOL     OW 6076   5.595   3.922   4.030
 1726SOL    HW1 6077   5.509   3.906   4.079
 1726SOL    HW2 6078   5.588   4.006   3.977
 1727SOL     OW 6079   3.862   3.604   2.936
 1727SOL    HW1 6080   3.768   3.589   2.904
 1727SOL    HW2 6081   3.921   3.626   2.859
 1728SOL     OW 6082   4.506   4.170   5.612
 1728SOL    HW1 6083   4.573   4.166   5.538
 1728SOL    HW2 6084   4.540   4.119   5.690
 1729SOL     OW 6085   1.160   3.934   2.728
 1729SOL    HW1 6086   1.164   3.887   2.640
 1729SOL    HW2 6087   1.067   3.965   2.745
 1730SOL     OW 6088   3.126   6.100   5.558
 1730SOL    HW1 6089   3.133   6.192   5.520
 1730SOL    HW2 6090   3.090   6.105   5.651
 1731SOL     OW 6091   5.487   4.948   3.677
 1731SOL    HW1 6092   5.477   4.857   3.718
 1731SOL    HW2 6093   5.538   5.007   3.739
 1732SOL     OW 6094   2.078   4.302   6.623
 1732SOL    HW1 6095   2.081   4.329   6.719
 1732SOL    HW2 6096   2.078   4.384   6.566
 1733SOL     OW 6097   2.378   4.557   0.679
 1733SOL    HW1 6098   2.397   4.479   0.739
 1733SOL    HW2 6099   2.324   4.625   0.729
 1734SOL     OW 6100   6.029   2.959   1.197
 1734SOL    HW1 6101   6.007   2.935   1.292
 1734SOL    HW2 6102   5.946   2.980   1.147
 1735SOL     OW 6103   4.674   5.520   6.335
 1735SOL    HW1 6104   4.670   5.503   6.237
 1735SOL    HW2 6105   4.674   5.619   6.352
 1736SOL     OW 6106   4.503   3.841   1.332
 1736SOL    HW1 6107   4.495   3.922   1.390
 1736SOL    HW2 6108   4.583   3.788   1.360
 1737SOL     OW 6109   5.542   0.456   4.155
 1737SOL    HW1 6110   5.538   0.490   4.061
 1737SOL    HW2 6111   5.454   0.474   4.200
 1738SOL     OW 6112   2.144   3.686   4.525
 1738SOL    HW1 6113   2.158   3.590   4.500
 1738SOL    HW2 6114   2.186   3.703   4.615
 1739SOL     OW 6115   6.111   0.395   4.213
 1739SOL    HW1 6116   6.042   0.383   4.142
 1739SOL    HW2 6117   6.116   0.492   4.238
 1740SOL     OW 6118   0.332   1.914   4.968
 1740SOL    HW1 6119   0.290   1.980   4.905
 1740SOL    HW2 6120   0.345   1.957   5.057
 1741SOL     OW 6121   1.916   1.578   3.523
 1741SOL    HW1 6122   1.836   1.597   3.466
 1741SOL    HW2 6123   1.995   1.562   3.464
 1742SOL     OW 6124   5.856   1.013   6.528
 1742SOL    HW1 6125   5.948   1.050   6.538
 1742SOL    HW2 6126   5.857   0.941   6.458
 1743SOL     OW 6127   1.399   1.459   3.034
 1743SOL    HW1 6128   1.304   1.482   3.008
 1743SOL    HW2 6129   1.457   1.463   2.952
 1744SOL     OW 6130   5.164   2.384   3.269
 1744SOL    HW1 6131   5.175   2.298   3.318
 1744SOL    HW2 6132   5.084   2.379   3.209
 1745SOL     OW 6133   6.215   6.026   1.332
 1745SOL    HW1 6134   6.147   6.097   1.315
 1745SOL    HW2 6135   6.205   5.992   1.426
 1746SOL     OW 6136   2.098   3.605   3.802
 1746SOL    HW1 6137   2.144   3.516   3.797
 1746SOL    HW2 6138   2.112   3.654   3.716
 1747SOL     OW 6139   3.524   1.690   2.216
 1747SOL    HW1 6140   3.607   1.649   2.180
 1747SOL    HW2 6141   3.447   1.627   2.205
 1748SOL     OW 6142   6.362   1.407   4.445
 1748SOL    HW1 6143   6.289   1.341   4.424
 1748SOL    HW2 6144   6.449   1.372   4.412
 1749SOL     OW 6145   2.997   6.204   0.672
 1749SOL    HW1 6146   3.041   6.255   0.598
 1749SOL    HW2 6147   2.961   6.118   0.637
 1750SOL     OW 6148   3.887   0.469   4.948
 1750SOL    HW1 6149   3.952   0.533   4.905
 1750SOL    HW2 6150   3.897   0.473   5.047
 1751SOL     OW 6151   6.157   2.595   4.611
 1751SOL    HW1 6152   6.233   2.657   4.633
 1751SOL    HW2 6153   6.093   2.642   4.550
 1752SOL     OW 6154   6.648   1.179   1.549
 1752SOL    HW1 6155   6.612   1.108   1.488
 1752SOL    HW2 6156   6.580   1.200   1.620
 1753SOL     OW 6157   6.947   1.543   2.070
 1753SOL    HW1 6158   6.951   1.496   2.158
 1753SOL    HW2 6159   6.918   1.479   1.999
 1754SOL     OW 6160   2.706   5.741   5.867
 1754SOL    HW1 6161   2.671   5.652   5.895
 1754SOL    HW2 6162   2.713   5.744   5.767
 1755SOL     OW 6163   6.289   6.380   5.348
 1755SOL    HW1 6164   6.206   6.432   5.369
 1755SOL    HW2 6165   6.270   6.282   5.355
 1756SOL     OW 6166   4.951   0.186   5.959
 1756SOL    HW1 6167   5.009   0.187   6.040
 1756SOL    HW2 6168   4.859   0.155   5.984
 1757SOL     OW 6169   2.236   5.183   3.933
 1757SOL    HW1 6170   2.204   5.092   3.906
 1757SOL    HW2 6171   2.250   5.185   4.032
 1758SOL     OW 6172   1.604   6.699   5.227
 1758SOL    HW1 6173   1.648   6.697   5.317
 1758SOL    HW2 6174   1.509   6.669   5.237
 1759SOL     OW 6175   1.406   6.139   6.073
 1759SOL    HW1 6176   1.357   6.177   5.995
 1759SOL    HW2 6177   1.346   6.136   6.152
 1760SOL     OW 6178   5.935   0.996   5.188
 1760SOL    HW1 6179   5.917   0.899   5.174
 1760SOL    HW2 6180   5.848   1.045   5.196
 1761SOL     OW 6181   0.004   1.026   0.978
 1761SOL    HW1 6182   0.026   1.023   1.075
 1761SOL    HW2 6183   0.040   1.110   0.938
 1762SOL     OW 6184   0.652   1.296   4.865
 1762SOL    HW1 6185   0.653   1.226   4.936
 1762SOL    HW2 6186   0.683   1.383   4.902
 1763SOL     OW 6187   1.160   4.433   4.953
 1763SOL    HW1 6188   1.112   4.367   4.896
 1763SOL    HW2 6189   1.100   4.463   5.027
 1764SOL     OW 6190   0.884   4.031   2.273
 1764SOL    HW1 6191   0.950   4.010   2.202
 1764SOL    HW2 6192   0.848   3.946   2.312
 1765SOL     OW 6193   4.666   2.677   1.767
 1765SOL    HW1 6194   4.716   2.607   1.716
 1765SOL    HW2 6195   4.664   2.652   1.864
 1766SOL     OW 6196   4.698   4.402   3.894
 1766SOL    HW1 6197   4.771   4.442   3.950
 1766SOL    HW2 6198   4.611   4.446   3.916
 1767SOL     OW 6199   0.520   4.958   2.423
 1767SOL    HW1 6200   0.506   5.010   2.339
 1767SOL    HW2 6201   0.460   4.995   2.495
 1768SOL     OW 6202   4.254   6.927   1.067
 1768SOL    HW1 6203   4.285   6.869   0.991
 1768SOL    HW2 6204   4.318   6.920   1.143
 1769SOL     OW 6205   6.170   0.780   6.800
 1769SOL    HW1 6206   6.148   0.862   6.852
 1769SOL    HW2 6207   6.130   0.786   6.709
 1770SOL     OW 6208   0.790   4.301   5.571
 1770SOL    HW1 6209   0.844   4.384   5.558
 1770SOL    HW2 6210   0.833   4.225   5.523
 1771SOL     OW 6211   0.882   4.459   7.016
 1771SOL    HW1 6212   0.892   4.486   0.089
 1771SOL    HW2 6213   0.957   4.499   6.963
 1772SOL     OW 6214   3.770   5.573   3.821
 1772SOL    HW1 6215   3.741   5.490   3.869
 1772SOL    HW2 6216   3.691   5.613   3.774
 1773SOL     OW 6217   1.077   0.898   5.101
 1773SOL    HW1 6218   1.173   0.885   5.126
 1773SOL    HW2 6219   1.029   0.810   5.105
 1774SOL     OW 6220   5.916   6.708   2.047
 1774SOL    HW1 6221   5.897   6.781   2.112
 1774SOL    HW2 6222   5.833   6.687   1.996
 1775SOL     OW 6223   1.945   5.485   6.227
 1775SOL    HW1 6224   2.009   5.554   6.194
 1775SOL    HW2 6225   1.939   5.410   6.160
 1776SOL     OW 6226   5.056   0.904   5.306
 1776SOL    HW1 6227   5.068   0.987   5.252
 1776SOL    HW2 6228   5.062   0.926   5.403
 1777SOL     OW 6229   4.428   6.899   6.246
 1777SOL    HW1 6230   4.371   6.818   6.230
 1777SOL    HW2 6231   4.382   6.979   6.208
 1778SOL     OW 6232   5.368   1.106   4.290
 1778SOL    HW1 6233   5.306   1.176   4.325
 1778SOL    HW2 6234   5.379   1.118   4.191
 1779SOL     OW 6235   4.871   0.019   4.997
 1779SOL    HW1 6236   4.862   6.979   4.919
 1779SOL    HW2 6237   4.830   0.107   4.974
 1780SOL     OW 6238   1.495   5.407   4.475
 1780SOL    HW1 6239   1.460   5.488   4.428
 1780SOL    HW2 6240   1.483   5.419   4.574
 1781SOL     OW 6241   4.756   0.258   4.496
 1781SOL    HW1 6242   4.852   0.286   4.504
 1781SOL    HW2 6243   4.747   0.161   4.516
 1782SOL     OW 6244   1.721   1.352   2.636
 1782SOL    HW1 6245   1.708   1.423   2.705
 1782SOL    HW2 6246   1.729   1.393   2.546
 1783SOL     OW 6247   2.262   3.722   6.181
 1783SOL    HW1 6248   2.210   3.644   6.145
 1783SOL    HW2 6249   2.225   3.807   6.143
 1784SOL     OW 6250   2.406   0.506   1.364
 1784SOL    HW1 6251   2.428   0.415   1.401
 1784SOL    HW2 6252   2.320   0.502   1.314
 1785SOL     OW 6253   0.317   6.502   4.182
 1785SOL    HW1 6254   0.318   6.589   4.231
 1785SOL    HW2 6255   0.410   6.471   4.167
 1786SOL     OW 6256   1.866   5.380   1.036
 1786SOL    HW1 6257   1.869   5.383   1.136
 1786SOL    HW2 6258   1.781   5.424   1.004
 1787SOL     OW 6259   1.237   2.214   5.572
 1787SOL    HW1 6260   1.317   2.179   5.620
 1787SOL    HW2 6261   1.154   2.184   5.619
 1788SOL     OW 6262   4.548   3.999   0.343
 1788SOL    HW1 6263   4.638   3.957   0.352
 1788SOL    HW2 6264   4.543   4.048   0.256
 1789SOL     OW 6265   6.443   3.414   1.701
 1789SOL    HW1 6266   6.475   3.344   1.764
 1789SOL    HW2 6267   6.429   3.374   1.610
 1790SOL     OW 6268   3.015   1.751   4.942
 1790SOL    HW1 6269   2.954   1.671   4.935
 1790SOL    HW2 6270   3.102   1.730   4.899
 1791SOL     OW 6271   6.278   0.886   3.693
 1791SOL    HW1 6272   6.191   0.915   3.653
 1791SOL    HW2 6273   6.323   0.965   3.735
 1792SOL     OW 6274   6.883   1.910   5.649
 1792SOL    HW1 6275   6.797   1.961   5.650
 1792SOL    HW2 6276   6.934   1.933   5.566
 1793SOL     OW 6277   6.963   1.337   5.189
 1793SOL    HW1 6278   6.965   1.361   5.092
 1793SOL    HW2 6279   6.907   1.256   5.202
 1794SOL     OW 6280   6.406   0.379   6.941
 1794SOL    HW1 6281   6.355   0.380   0.003
 1794SOL    HW2 6282   6.357   0.325   6.873
 1795SOL     OW 6283   5.645   4.700   7.010
 1795SOL    HW1 6284   5.548   4.720   6.998
 1795SOL    HW2 6285   5.699   4.765   6.957
 1796SOL     OW 6286   1.643   0.589   5.635
 1796SOL    HW1 6287   1.716   0.566   5.699
 1796SOL    HW2 6288   1.671   0.666   5.578
 1797SOL     OW 6289   1.746   6.783   5.023
 1797SOL    HW1 6290   1.703   6.814   4.939
 1797SOL    HW2 6291   1.675   6.758   5.089
 1798SOL     OW 6292   3.730   3.062   4.217
 1798SOL    HW1 6293   3.645   3.088   4.171
 1798SOL    HW2 6294   3.710   3.005   4.296
 1799SOL     OW 6295   3.566   0.636   6.872
 1799SOL    HW1 6296   3.532   0.593   6.788
 1799SOL    HW2 6297   3.639   0.701   6.849
 1800SOL     OW 6298   5.115   4.327   4.077
 1800SOL    HW1 6299   5.024   4.367   4.078
 1800SOL    HW2 6300   5.115   4.240   4.126
 1801SOL     OW 6301   1.494   1.391   1.593
 1801SOL    HW1 6302   1.585   1.392   1.634
 1801SOL    HW2 6303   1.496   1.443   1.508
 1802SOL     OW 6304   6.347   5.200   3.603
 1802SOL    HW1 6305   6.290   5.135   3.652
 1802SOL    HW2 6306   6.353   5.285   3.655
 1803SOL     OW 6307   6.608   6.278   2.345
 1803SOL    HW1 6308   6.679   6.214   2.376
 1803SOL    HW2 6309   6.526   6.227   2.319
 1804SOL     OW 6310   3.189   3.528   6.142
 1804SOL    HW1 6311   3.182   3.515   6.043
 1804SOL    HW2 6312   3.100   3.507   6.184
 1805SOL     OW 6313   1.031   6.818   5.945
 1805SOL    HW1 6314   1.049   6.763   5.864
 1805SOL    HW2 6315   1.024   6.758   6.025
 1806SOL     OW 6316   6.653   2.667   2.217
 1806SOL    HW1 6317   6.618   2.689   2.307
 1806SOL    HW2 6318   6.579   2.630   2.160
 1807SOL     OW 6319   6.554   3.949   0.814
 1807SOL    HW1 6320   6.637   3.923   0.864
 1807SOL    HW2 6321   6.578   3.999   0.731
 1808SOL     OW 6322   5.093   2.276   5.322
 1808SOL    HW1 6323   5.097   2.376   5.332
 1808SOL    HW2 6324   5.062   2.235   5.408
 1809SOL     OW 6325   3.808   2.433   5.515
 1809SOL    HW1 6326   3.770   2.458   5.426
 1809SOL    HW2 6327   3.790   2.506   5.581
 1810SOL     OW 6328   0.425   0.499   3.667
 1810SOL    HW1 6329   0.426   0.598   3.680
 1810SOL    HW2 6330   0.333   0.464   3.685
 1811SOL     OW 6331   4.001   5.125   2.290
 1811SOL    HW1 6332   4.002   5.164   2.198
 1811SOL    HW2 6333   3.936   5.049   2.293
 1812SOL     OW 6334   4.268   0.129   6.079
 1812SOL    HW1 6335   4.303   0.207   6.130
 1812SOL    HW2 6336   4.338   0.096   6.016
 1813SOL     OW 6337   4.984   4.678   2.687
 1813SOL    HW1 6338   5.083   4.693   2.683
 1813SOL    HW2 6339   4.953   4.638   2.601
 1814SOL     OW 6340   0.036   0.055   0.605
 1814SOL    HW1 6341   6.988   0.096   0.547
 1814SOL    HW2 6342   0.125   0.095   0.582
 1815SOL     OW 6343   5.645   5.979   2.103
 1815SOL    HW1 6344   5.574   6.042   2.134
 1815SOL    HW2 6345   5.602   5.891   2.080
 1816SOL     OW 6346   4.543   6.265   5.423
 1816SOL    HW1 6347   4.507   6.259   5.516
 1816SOL    HW2 6348   4.471   6.297   5.362
 1817SOL     OW 6349   2.811   1.570   2.991
 1817SOL    HW1 6350   2.760   1.655   2.982
 1817SOL    HW2 6351   2.752   1.499   3.029
 1818SOL     OW 6352   1.691   6.680   0.086
 1818SOL    HW1 6353   1.789   6.670   0.074
 1818SOL    HW2 6354   1.668   6.776   0.098
 1819SOL     OW 6355   0.749   4.454   2.629
 1819SOL    HW1 6356   0.708   4.369   2.597
 1819SOL    HW2 6357   0.680   4.510   2.675
 1820SOL     OW 6358   3.509   0.050   3.350
 1820SOL    HW1 6359   3.590   7.017   3.371
 1820SOL    HW2 6360   3.496   0.117   3.423
 1821SOL     OW 6361   3.479   1.133   2.083
 1821SOL    HW1 6362   3.478   1.069   2.006
 1821SOL    HW2 6363   3.406   1.109   2.146
 1822SOL     OW 6364   1.010   2.873   2.305
 1822SOL    HW1 6365   0.962   2.960   2.313
 1822SOL    HW2 6366   0.993   2.834   2.214
 1823SOL     OW 6367   3.636   6.813   2.884
 1823SOL    HW1 6368   3.633   6.861   2.971
 1823SOL    HW2 6369   3.645   6.715   2.901
 1824SOL     OW 6370   4.495   4.151   1.102
 1824SOL    HW1 6371   4.487   4.096   1.185
 1824SOL    HW2 6372   4.405   4.184   1.075
 1825SOL     OW 6373   1.411   2.444   5.138
 1825SOL    HW1 6374   1.382   2.470   5.045
 1825SOL    HW2 6375   1.331   2.415   5.190
 1826SOL     OW 6376   3.602   1.930   1.553
 1826SOL    HW1 6377   3.609   1.857   1.621
 1826SOL    HW2 6378   3.506   1.945   1.531
 1827SOL     OW 6379   5.043   5.204   0.878
 1827SOL    HW1 6380   4.954   5.165   0.900
 1827SOL    HW2 6381   5.087   5.239   0.961
 1828SOL     OW 6382   1.484   3.160   5.968
 1828SOL    HW1 6383   1.474   3.258   5.981
 1828SOL    HW2 6384   1.401   3.113   5.999
 1829SOL     OW 6385   3.949   0.209   3.914
 1829SOL    HW1 6386   3.987   0.272   3.982
 1829SOL    HW2 6387   3.854   0.189   3.938
 1830SOL     OW 6388   5.947   6.984   5.104
 1830SOL    HW1 6389   5.921   6.895   5.142
 1830SOL    HW2 6390   6.028   7.018   5.153
 1831SOL     OW 6391   5.080   5.459   2.868
 1831SOL    HW1 6392   5.169   5.454   2.824
 1831SOL    HW2 6393   5.016   5.397   2.822
 1832SOL     OW 6394   2.203   4.062   0.459
 1832SOL    HW1 6395   2.127   4.074   0.396
 1832SOL    HW2 6396   2.239   3.969   0.450
 1833SOL     OW 6397   4.831   0.335   2.071
 1833SOL    HW1 6398   4.810   0.389   2.152
 1833SOL    HW2 6399   4.747   0.295   2.035
 1834SOL     OW 6400   2.951   2.454   0.218
 1834SOL    HW1 6401   2.947   2.537   0.163
 1834SOL    HW2 6402   2.860   2.412   0.223
 1835SOL     OW 6403   0.625   5.049   1.115
 1835SOL    HW1 6404   0.594   5.142   1.135
 1835SOL    HW2 6405   0.724   5.044   1.123
 1836SOL     OW 6406   5.057   1.500   2.242
 1836SOL    HW1 6407   5.016   1.462   2.160
 1836SOL    HW2 6408   5.127   1.437   2.276
 1837SOL     OW 6409   2.585   0.884   5.888
 1837SOL    HW1 6410   2.531   0.830   5.953
 1837SOL    HW2 6411   2.671   0.911   5.931
 1838SOL     OW 6412   6.657   0.688   0.657
 1838SOL    HW1 6413   6.754   0.666   0.650
 1838SOL    HW2 6414   6.633   0.703   0.752
 1839SOL     OW 6415   5.745   2.050   0.267
 1839SOL    HW1 6416   5.776   2.013   0.179
 1839SOL    HW2 6417   5.791   2.137   0.285
 1840SOL     OW 6418   3.489   0.343   3.429
 1840SOL    HW1 6419   3.589   0.345   3.426
 1840SOL    HW2 6420   3.452   0.418   3.374
 1841SOL     OW 6421   2.273   0.111   2.103
 1841SOL    HW1 6422   2.323   0.186   2.146
 1841SOL    HW2 6423   2.316   0.087   2.016
 1842SOL     OW 6424   1.807   4.819   0.390
 1842SOL    HW1 6425   1.838   4.861   0.305
 1842SOL    HW2 6426   1.841   4.873   0.467
 1843SOL     OW 6427   3.778   1.211   4.712
 1843SOL    HW1 6428   3.712   1.239   4.642
 1843SOL    HW2 6429   3.852   1.160   4.669
 1844SOL     OW 6430   4.915   1.436   5.986
 1844SOL    HW1 6431   4.854   1.444   6.065
 1844SOL    HW2 6432   4.977   1.359   6.000
 1845SOL     OW 6433   2.518   0.551   3.415
 1845SOL    HW1 6434   2.459   0.623   3.451
 1845SOL    HW2 6435   2.611   0.563   3.451
 1846SOL     OW 6436   4.599   0.749   3.328
 1846SOL    HW1 6437   4.694   0.741   3.357
 1846SOL    HW2 6438   4.551   0.663   3.346
 1847SOL     OW 6439   2.272   0.468   4.433
 1847SOL    HW1 6440   2.297   0.502   4.342
 1847SOL    HW2 6441   2.230   0.542   4.486
 1848SOL     OW 6442   1.995   5.692   4.127
 1848SOL    HW1 6443   1.946   5.624   4.183
 1848SOL    HW2 6444   2.013   5.654   4.037
 1849SOL     OW 6445   4.757   2.896   2.574
 1849SOL    HW1 6446   4.786   2.967   2.510
 1849SOL    HW2 6447   4.743   2.936   2.665
 1850SOL     OW 6448   5.315   2.151   2.064
 1850SOL    HW1 6449   5.222   2.128   2.092
 1850SOL    HW2 6450   5.314   2.181   1.968
 1851SOL     OW 6451   0.224   2.873   6.343
 1851SOL    HW1 6452   0.273   2.906   6.262
 1851SOL    HW2 6453   0.156   2.940   6.371
 1852SOL     OW 6454   1.024   3.983   2.042
 1852SOL    HW1 6455   1.002   4.075   2.012
 1852SOL    HW2 6456   0.969   3.917   1.991
 1853SOL     OW 6457   6.911   3.120   4.721
 1853SOL    HW1 6458   6.889   3.176   4.641
 1853SOL    HW2 6459   6.880   3.166   4.804
 1854SOL     OW 6460   0.639   5.689   3.277
 1854SOL    HW1 6461   0.620   5.738   3.363
 1854SOL    HW2 6462   0.678   5.599   3.298
 1855SOL     OW 6463   5.049   3.574   4.610
 1855SOL    HW1 6464   5.147   3.594   4.602
 1855SOL    HW2 6465   5.012   3.553   4.519
 1856SOL     OW 6466   3.515   3.294   6.908
 1856SOL    HW1 6467   3.607   3.305   6.943
 1856SOL    HW2 6468   3.507   3.206   6.862
 1857SOL     OW 6469   5.417   1.058   0.313
 1857SOL    HW1 6470   5.502   1.018   0.348
 1857SOL    HW2 6471   5.359   1.084   0.390
 1858SOL     OW 6472   4.352   1.932   4.512
 1858SOL    HW1 6473   4.292   1.864   4.554
 1858SOL    HW2 6474   4.389   1.992   4.584
 1859SOL     OW 6475   5.499   1.852   5.091
 1859SOL    HW1 6476   5.446   1.769   5.110
 1859SOL    HW2 6477   5.587   1.827   5.050
 1860SOL     OW 6478   0.901   1.756   5.002
 1860SOL    HW1 6479   0.853   1.840   4.979
 1860SOL    HW2 6480   0.999   1.768   4.987
 1861SOL     OW 6481   5.752   0.705   2.840
 1861SOL    HW1 6482   5.759   0.742   2.932
 1861SOL    HW2 6483   5.838   0.659   2.816
 1862SOL     OW 6484   2.261   6.584   6.878
 1862SOL    HW1 6485   2.229   6.489   6.885
 1862SOL    HW2 6486   2.184   6.643   6.854
 1863SOL     OW 6487   0.376   3.167   1.072
 1863SOL    HW1 6488   0.423   3.219   1.000
 1863SOL    HW2 6489   0.278   3.162   1.052
 1864SOL     OW 6490   2.738   5.914   4.214
 1864SOL    HW1 6491   2.716   5.830   4.165
 1864SOL    HW2 6492   2.825   5.903   4.262
 1865SOL     OW 6493   5.078   1.341   0.370
 1865SOL    HW1 6494   5.030   1.328   0.284
 1865SOL    HW2 6495   5.015   1.328   0.447
 1866SOL     OW 6496   0.428   3.870   4.272
 1866SOL    HW1 6497   0.493   3.940   4.301
 1866SOL    HW2 6498   0.424   3.869   4.172
 1867SOL     OW 6499   2.462   2.382   1.322
 1867SOL    HW1 6500   2.390   2.446   1.294
 1867SOL    HW2 6501   2.454   2.365   1.421
 1868SOL     OW 6502   5.287   4.314   4.822
 1868SOL    HW1 6503   5.357   4.292   4.890
 1868SOL    HW2 6504   5.257   4.229   4.777
 1869SOL     OW 6505   4.721   2.078   3.935
 1869SOL    HW1 6506   4.767   2.156   3.978
 1869SOL    HW2 6507   4.732   1.997   3.993
 1870SOL     OW 6508   1.294   4.185   4.152
 1870SOL    HW1 6509   1.343   4.272   4.155
 1870SOL    HW2 6510   1.256   4.172   4.060
 1871SOL     OW 6511   0.941   6.816   0.463
 1871SOL    HW1 6512   0.922   6.869   0.546
 1871SOL    HW2 6513   0.855   6.784   0.424
 1872SOL     OW 6514   3.302   2.024   0.418
 1872SOL    HW1 6515   3.384   2.077   0.397
 1872SOL    HW2 6516   3.320   1.964   0.496
 1873SOL     OW 6517   6.474   0.887   0.016
 1873SOL    HW1 6518   6.416   0.881   0.097
 1873SOL    HW2 6519   6.454   0.811   6.977
 1874SOL     OW 6520   0.751   6.649   6.622
 1874SOL    HW1 6521   0.843   6.690   6.623
 1874SOL    HW2 6522   0.687   6.712   6.667
 1875SOL     OW 6523   6.282   5.773   6.804
 1875SOL    HW1 6524   6.219   5.701   6.834
 1875SOL    HW2 6525   6.359   5.779   6.867
 1876SOL     OW 6526   5.549   6.567   5.803
 1876SOL    HW1 6527   5.505   6.540   5.888
 1876SOL    HW2 6528   5.490   6.631   5.753
 1877SOL     OW 6529   0.263   0.577   2.235
 1877SOL    HW1 6530   0.234   0.671   2.255
 1877SOL    HW2 6531   0.323   0.577   2.155
 1878SOL     OW 6532   0.579   4.466   3.258
 1878SOL    HW1 6533   0.599   4.493   3.164
 1878SOL    HW2 6534   0.615   4.374   3.275
 1879SOL     OW 6535   2.888   5.451   5.040
 1879SOL    HW1 6536   2.810   5.513   5.048
 1879SOL    HW2 6537   2.899   5.424   4.944
 1880SOL     OW 6538   0.112   2.895   3.140
 1880SOL    HW1 6539   0.210   2.880   3.136
 1880SOL    HW2 6540   0.082   2.890   3.236
 1881SOL     OW 6541   0.955   2.317   3.728
 1881SOL    HW1 6542   1.012   2.238   3.748
 1881SOL    HW2 6543   0.930   2.363   3.813
 1882SOL     OW 6544   1.350   5.762   0.202
 1882SOL    HW1 6545   1.354   5.797   0.108
 1882SOL    HW2 6546   1.382   5.833   0.265
 1883SOL     OW 6547   1.121   3.843   2.457
 1883SOL    HW1 6548   1.054   3.917   2.455
 1883SOL    HW2 6549   1.183   3.853   2.379
 1884SOL     OW 6550   3.825   0.994   0.293
 1884SOL    HW1 6551   3.815   0.895   0.296
 1884SOL    HW2 6552   3.736   1.036   0.275
 1885SOL     OW 6553   6.799   2.588   0.763
 1885SOL    HW1 6554   6.823   2.570   0.858
 1885SOL    HW2 6555   6.827   2.510   0.706
 1886SOL     OW 6556   2.494   1.752   6.645
 1886SOL    HW1 6557   2.533   1.663   6.624
 1886SOL    HW2 6558   2.397   1.740   6.670
 1887SOL     OW 6559   0.475   5.286   5.630
 1887SOL    HW1 6560   0.553   5.332   5.672
 1887SOL    HW2 6561   0.401   5.352   5.615
 1888SOL     OW 6562   1.793   1.668   5.601
 1888SOL    HW1 6563   1.797   1.648   5.699
 1888SOL    HW2 6564   1.880   1.707   5.572
 1889SOL     OW 6565   4.593   2.995   0.622
 1889SOL    HW1 6566   4.619   2.907   0.663
 1889SOL    HW2 6567   4.603   3.067   0.690
 1890SOL     OW 6568   0.983   6.032   6.175
 1890SOL    HW1 6569   1.074   6.066   6.199
 1890SOL    HW2 6570   0.983   5.998   6.081
 1891SOL     OW 6571   6.099   3.047   5.452
 1891SOL    HW1 6572   6.121   2.979   5.520
 1891SOL    HW2 6573   6.148   3.132   5.472
 1892SOL     OW 6574   3.956   5.907   1.381
 1892SOL    HW1 6575   4.026   5.886   1.314
 1892SOL    HW2 6576   3.867   5.879   1.346
 1893SOL     OW 6577   3.691   1.990   4.465
 1893SOL    HW1 6578   3.733   1.901   4.447
 1893SOL    HW2 6579   3.753   2.062   4.436
 1894SOL     OW 6580   4.536   4.005   1.695
 1894SOL    HW1 6581   4.462   3.938   1.698
 1894SOL    HW2 6582   4.515   4.080   1.758
 1895SOL     OW 6583   6.328   1.299   2.596
 1895SOL    HW1 6584   6.348   1.285   2.693
 1895SOL    HW2 6585   6.258   1.370   2.586
 1896SOL     OW 6586   6.059   1.483   4.399
 1896SOL    HW1 6587   6.108   1.543   4.463
 1896SOL    HW2 6588   6.113   1.400   4.383
 1897SOL     OW 6589   6.306   5.495   3.437
 1897SOL    HW1 6590   6.303   5.398   3.412
 1897SOL    HW2 6591   6.250   5.546   3.372
 1898SOL     OW 6592   5.201   5.697   0.854
 1898SOL    HW1 6593   5.109   5.658   0.861
 1898SOL    HW2 6594   5.263   5.630   0.812
 1899SOL     OW 6595   0.180   3.259   3.095
 1899SOL    HW1 6596   0.189   3.254   3.195
 1899SOL    HW2 6597   0.155   3.352   3.069
 1900SOL     OW 6598   1.604   6.565   6.670
 1900SOL    HW1 6599   1.683   6.623   6.649
 1900SOL    HW2 6600   1.580   6.574   6.767
 1901SOL     OW 6601   1.920   0.616   0.013
 1901SOL    HW1 6602   1.907   0.635   6.939
 1901SOL    HW2 6603   1.958   0.524   0.024
 1902SOL     OW 6604   0.864   3.016   4.006
 1902SOL    HW1 6605   0.911   2.999   4.093
 1902SOL    HW2 6606   0.825   3.108   4.007
 1903SOL     OW 6607   6.306   4.690   3.475
 1903SOL    HW1 6608   6.293   4.605   3.526
 1903SOL    HW2 6609   6.401   4.721   3.485
 1904SOL     OW 6610   0.339   0.212   4.537
 1904SOL    HW1 6611   0.434   0.180   4.540
 1904SOL    HW2 6612   0.312   0.227   4.442
 1905SOL     OW 6613   6.702   2.272   4.056
 1905SOL    HW1 6614   6.720   2.296   4.152
 1905SOL    HW2 6615   6.705   2.355   4.000
 1906SOL     OW 6616   2.269   6.772   6.035
 1906SOL    HW1 6617   2.296   6.753   5.941
 1906SOL    HW2 6618   2.213   6.855   6.037
 1907SOL     OW 6619   2.997   0.183   3.408
 1907SOL    HW1 6620   2.965   0.278   3.412
 1907SOL    HW2 6621   3.092   0.179   3.439
 1908SOL     OW 6622   4.666   0.858   5.956
 1908SOL    HW1 6623   4.719   0.836   5.874
 1908SOL    HW2 6624   4.707   0.937   6.002
 1909SOL     OW 6625   2.548   4.610   4.694
 1909SOL    HW1 6626   2.480   4.601   4.767
 1909SOL    HW2 6627   2.616   4.679   4.720
 1910SOL     OW 6628   5.137   2.280   6.878
 1910SOL    HW1 6629   5.039   2.267   6.889
 1910SOL    HW2 6630   5.178   2.303   6.967
 1911SOL     OW 6631   6.862   2.409   5.306
 1911SOL    HW1 6632   6.840   2.485   5.367
 1911SOL    HW2 6633   6.778   2.360   5.282
 1912SOL     OW 6634   2.943   6.642   2.336
 1912SOL    HW1 6635   2.946   6.739   2.360
 1912SOL    HW2 6636   2.977   6.588   2.413
 1913SOL     OW 6637   2.306   6.298   4.969
 1913SOL    HW1 6638   2.312   6.387   5.015
 1913SOL    HW2 6639   2.358   6.230   5.022
 1914SOL     OW 6640   2.414   2.700   6.422
 1914SOL    HW1 6641   2.358   2.731   6.500
 1914SOL    HW2 6642   2.433   2.603   6.432
 1915SOL     OW 6643   4.202   0.563   6.467
 1915SOL    HW1 6644   4.181   0.491   6.533
 1915SOL    HW2 6645   4.130   0.632   6.469
 1916SOL     OW 6646   4.149   5.828   1.217
 1916SOL    HW1 6647   4.247   5.840   1.204
 1916SOL    HW2 6648   4.124   5.734   1.193
 1917SOL     OW 6649   3.518   3.998   4.299
 1917SOL    HW1 6650   3.549   3.917   4.249
 1917SOL    HW2 6651   3.492   3.973   4.392
 1918SOL     OW 6652   6.118   6.306   6.133
 1918SOL    HW1 6653   6.018   6.297   6.131
 1918SOL    HW2 6654   6.158   6.221   6.166
 1919SOL     OW 6655   0.693   5.985   2.489
 1919SOL    HW1 6656   0.708   5.978   2.588
 1919SOL    HW2 6657   0.598   5.962   2.468
 1920SOL     OW 6658   0.630   4.535   3.538
 1920SOL    HW1 6659   0.626   4.462   3.469
 1920SOL    HW2 6660   0.721   4.574   3.541
 1921SOL     OW 6661   1.140   5.586   0.198
 1921SOL    HW1 6662   1.158   5.506   0.254
 1921SOL    HW2 6663   1.219   5.648   0.201
 1922SOL     OW 6664   4.368   3.467   1.351
 1922SOL    HW1 6665   4.370   3.497   1.255
 1922SOL    HW2 6666   4.365   3.367   1.354
 1923SOL     OW 6667   2.434   1.384   0.727
 1923SOL    HW1 6668   2.512   1.440   0.700
 1923SOL    HW2 6669   2.446   1.355   0.822
 1924SOL     OW 6670   6.440   4.474   1.992
 1924SOL    HW1 6671   6.381   4.405   2.035
 1924SOL    HW2 6672   6.523   4.485   2.046
 1925SOL     OW 6673   3.480   3.816   1.857
 1925SOL    HW1 6674   3.554   3.843   1.918
 1925SOL    HW2 6675   3.433   3.897   1.823
 1926SOL     OW 6676   1.825   0.934   4.646
 1926SOL    HW1 6677   1.783   0.990   4.574
 1926SOL    HW2 6678   1.753   0.882   4.693
 1927SOL     OW 6679   4.330   3.285   6.922
 1927SOL    HW1 6680   4.276   3.211   6.884
 1927SOL    HW2 6681   4.391   3.249   6.992
 1928SOL     OW 6682   6.782   3.680   6.113
 1928SOL    HW1 6683   6.688   3.686   6.080
 1928SOL    HW2 6684   6.843   3.725   6.049
 1929SOL     OW 6685   1.604   5.941   2.102
 1929SOL    HW1 6686   1.696   5.979   2.109
 1929SOL    HW2 6687   1.544   6.007   2.057
 1930SOL     OW 6688   6.200   4.670   6.602
 1930SOL    HW1 6689   6.113   4.622   6.593
 1930SOL    HW2 6690   6.268   4.628   6.543
 1931SOL     OW 6691   0.589   3.994   3.113
 1931SOL    HW1 6692   0.540   3.968   3.029
 1931SOL    HW2 6693   0.656   3.924   3.135
 1932SOL     OW 6694   5.044   3.957   2.388
 1932SOL    HW1 6695   4.953   3.993   2.366
 1932SOL    HW2 6696   5.079   3.906   2.310
 1933SOL     OW 6697   2.989   4.607   0.885
 1933SOL    HW1 6698   2.975   4.519   0.840
 1933SOL    HW2 6699   3.078   4.609   0.930
 1934SOL     OW 6700   1.310   0.092   5.627
 1934SOL    HW1 6701   1.324   7.019   5.651
 1934SOL    HW2 6702   1.315   0.148   5.710
 1935SOL     OW 6703   2.364   6.997   4.835
 1935SOL    HW1 6704   2.385   6.909   4.878
 1935SOL    HW2 6705   2.427   7.013   4.759
 1936SOL     OW 6706   5.375   5.852   4.519
 1936SOL    HW1 6707   5.320   5.778   4.558
 1936SOL    HW2 6708   5.434   5.890   4.590
 1937SOL     OW 6709   3.694   6.590   1.904
 1937SOL    HW1 6710   3.689   6.537   1.820
 1937SOL    HW2 6711   3.604   6.589   1.949
 1938SOL     OW 6712   3.674   1.758   3.440
 1938SOL    HW1 6713   3.575   1.763   3.433
 1938SOL    HW2 6714   3.712   1.850   3.430
 1939SOL     OW 6715   1.320   0.977   3.639
 1939SOL    HW1 6716   1.330   0.880   3.617
 1939SOL    HW2 6717   1.238   0.989   3.696
 1940SOL     OW 6718   5.268   5.519   6.747
 1940SOL    HW1 6719   5.192   5.458   6.772
 1940SOL    HW2 6720   5.257   5.549   6.653
 1941SOL     OW 6721   6.616   4.613   3.307
 1941SOL    HW1 6722   6.602   4.569   3.396
 1941SOL    HW2 6723   6.641   4.709   3.321
 1942SOL     OW 6724   5.508   5.609   1.988
 1942SOL    HW1 6725   5.503   5.672   1.911
 1942SOL    HW2 6726   5.591   5.554   1.981
 1943SOL     OW 6727   3.194   5.304   2.832
 1943SOL    HW1 6728   3.259   5.254   2.774
 1943SOL    HW2 6729   3.245   5.363   2.895
 1944SOL     OW 6730   5.286   1.710   6.653
 1944SOL    HW1 6731   5.220   1.688   6.724
 1944SOL    HW2 6732   5.293   1.809   6.643
 1945SOL     OW 6733   4.961   5.612   3.048
 1945SOL    HW1 6734   5.012   5.569   2.973
 1945SOL    HW2 6735   5.008   5.695   3.078
 1946SOL     OW 6736   1.085   0.978   0.934
 1946SOL    HW1 6737   1.014   0.964   0.864
 1946SOL    HW2 6738   1.124   0.890   0.960
 1947SOL     OW 6739   5.291   6.806   4.905
 1947SOL    HW1 6740   5.365   6.809   4.838
 1947SOL    HW2 6741   5.309   6.870   4.979
 1948SOL     OW 6742   0.077   5.877   4.767
 1948SOL    HW1 6743   0.059   5.874   4.669
 1948SOL    HW2 6744   0.046   5.792   4.809
 1949SOL     OW 6745   4.057   4.061   5.685
 1949SOL    HW1 6746   4.058   4.158   5.709
 1949SOL    HW2 6747   3.979   4.017   5.729
 1950SOL     OW 6748   3.900   3.296   6.861
 1950SOL    HW1 6749   3.885   3.354   6.781
 1950SOL    HW2 6750   3.875   3.345   6.944
 1951SOL     OW 6751   6.159   2.531   0.272
 1951SOL    HW1 6752   6.195   2.520   0.179
 1951SOL    HW2 6753   6.234   2.550   0.335
 1952SOL     OW 6754   3.430   2.341   0.580
 1952SOL    HW1 6755   3.488   2.305   0.653
 1952SOL    HW2 6756   3.457   2.435   0.558
 1953SOL     OW 6757   6.701   2.181   6.817
 1953SOL    HW1 6758   6.789   2.173   6.770
 1953SOL    HW2 6759   6.708   2.251   6.888
 1954SOL     OW 6760   5.385   2.013   4.061
 1954SOL    HW1 6761   5.322   2.056   4.125
 1954SOL    HW2 6762   5.374   2.053   3.970
 1955SOL     OW 6763   1.614   7.013   2.032
 1955SOL    HW1 6764   1.628   0.085   2.059
 1955SOL    HW2 6765   1.517   6.992   2.030
 1956SOL     OW 6766   5.347   6.156   2.726
 1956SOL    HW1 6767   5.351   6.233   2.789
 1956SOL    HW2 6768   5.257   6.152   2.684
 1957SOL     OW 6769   6.735   5.791   5.146
 1957SOL    HW1 6770   6.748   5.827   5.238
 1957SOL    HW2 6771   6.660   5.725   5.147
 1958SOL     OW 6772   6.007   3.393   4.387
 1958SOL    HW1 6773   6.018   3.429   4.294
 1958SOL    HW2 6774   5.914   3.358   4.398
 1959SOL     OW 6775   0.624   2.847   5.656
 1959SOL    HW1 6776   0.583   2.757   5.667
 1959SOL    HW2 6777   0.666   2.853   5.565
 1960SOL     OW 6778   6.405   4.816   0.928
 1960SOL    HW1 6779   6.459   4.733   0.942
 1960SOL    HW2 6780   6.309   4.796   0.944
 1961SOL     OW 6781   5.823   4.713   4.947
 1961SOL    HW1 6782   5.750   4.652   4.915
 1961SOL    HW2 6783   5.900   4.658   4.980
 1962SOL     OW 6784   1.490   6.145   4.278
 1962SOL    HW1 6785   1.497   6.107   4.370
 1962SOL    HW2 6786   1.429   6.224   4.279
 1963SOL     OW 6787   0.916   0.764   1.834
 1963SOL    HW1 6788   1.011   0.732   1.828
 1963SOL    HW2 6789   0.901   0.809   1.922
 1964SOL     OW 6790   4.447   2.596   1.636
 1964SOL    HW1 6791   4.358   2.633   1.663
 1964SOL    HW2 6792   4.519   2.656   1.670
 1965SOL     OW 6793   0.506   2.796   2.875
 1965SOL    HW1 6794   0.590   2.798   2.928
 1965SOL    HW2 6795   0.482   2.889   2.846
 1966SOL     OW 6796   0.715   5.281   5.044
 1966SOL    HW1 6797   0.714   5.365   5.098
 1966SOL    HW2 6798   0.626   5.270   4.998
 1967SOL     OW 6799   4.571   1.979   5.979
 1967SOL    HW1 6800   4.535   1.933   6.060
 1967SOL    HW2 6801   4.564   2.078   5.990
 1968SOL     OW 6802   3.263   6.042   6.713
 1968SOL    HW1 6803   3.209   6.025   6.796
 1968SOL    HW2 6804   3.207   6.022   6.632
 1969SOL     OW 6805   6.758   1.797   2.001
 1969SOL    HW1 6806   6.794   1.712   2.039
 1969SOL    HW2 6807   6.813   1.874   2.034
 1970SOL     OW 6808   2.268   0.808   5.856
 1970SOL    HW1 6809   2.237   0.733   5.914
 1970SOL    HW2 6810   2.229   0.894   5.888
 1971SOL     OW 6811   6.734   0.053   6.275
 1971SOL    HW1 6812   6.833   0.048   6.291
 1971SOL    HW2 6813   6.693   6.988   6.298
 1972SOL     OW 6814   0.449   3.302   3.080
 1972SOL    HW1 6815   0.374   3.242   3.110
 1972SOL    HW2 6816   0.463   3.373   3.149
 1973SOL     OW 6817   3.457   3.047   1.792
 1973SOL    HW1 6818   3.385   2.990   1.831
 1973SOL    HW2 6819   3.521   3.074   1.864
 1974SOL     OW 6820   6.414   6.195   3.935
 1974SOL    HW1 6821   6.416   6.121   4.003
 1974SOL    HW2 6822   6.331   6.186   3.880
 1975SOL     OW 6823   2.501   0.953   3.647
 1975SOL    HW1 6824   2.482   0.858   3.669
 1975SOL    HW2 6825   2.440   0.984   3.574
 1976SOL     OW 6826   0.512   6.062   0.374
 1976SOL    HW1 6827   0.600   6.071   0.421
 1976SOL    HW2 6828   0.507   6.127   0.298
 1977SOL     OW 6829   1.136   3.039   3.673
 1977SOL    HW1 6830   1.079   3.075   3.600
 1977SOL    HW2 6831   1.078   3.002   3.746
 1978SOL     OW 6832   1.665   1.337   4.282
 1978SOL    HW1 6833   1.672   1.253   4.228
 1978SOL    HW2 6834   1.750   1.389   4.275
 1979SOL     OW 6835   6.970   4.495   4.881
 1979SOL    HW1 6836   6.871   4.505   4.880
 1979SOL    HW2 6837   6.999   4.443   4.800
 1980SOL     OW 6838   3.449   6.795   0.350
 1980SOL    HW1 6839   3.510   6.765   0.276
 1980SOL    HW2 6840   3.355   6.768   0.328
 1981SOL     OW 6841   5.324   2.383   2.426
 1981SOL    HW1 6842   5.301   2.405   2.331
 1981SOL    HW2 6843   5.324   2.284   2.438
 1982SOL     OW 6844   6.105   4.636   4.713
 1982SOL    HW1 6845   6.136   4.541   4.708
 1982SOL    HW2 6846   6.152   4.682   4.788
 1983SOL     OW 6847   0.827   2.249   3.061
 1983SOL    HW1 6848   0.793   2.287   2.975
 1983SOL    HW2 6849   0.852   2.324   3.123
 1984SOL     OW 6850   4.662   1.377   5.680
 1984SOL    HW1 6851   4.652   1.434   5.761
 1984SOL    HW2 6852   4.573   1.367   5.635
 1985SOL     OW 6853   1.369   1.329   2.319
 1985SOL    HW1 6854   1.306   1.380   2.260
 1985SOL    HW2 6855   1.334   1.236   2.332
 1986SOL     OW 6856   1.201   1.733   6.908
 1986SOL    HW1 6857   1.252   1.789   6.843
 1986SOL    HW2 6858   1.264   1.685   6.969
 1987SOL     OW 6859   2.578   3.047   1.709
 1987SOL    HW1 6860   2.657   2.992   1.735
 1987SOL    HW2 6861   2.582   3.136   1.755
 1988SOL     OW 6862   4.896   4.302   0.738
 1988SOL    HW1 6863   4.991   4.312   0.706
 1988SOL    HW2 6864   4.869   4.206   0.731
 1989SOL     OW 6865   2.164   0.675   4.956
 1989SOL    HW1 6866   2.229   0.602   4.976
 1989SOL    HW2 6867   2.107   0.648   4.878
 1990SOL     OW 6868   3.010   0.208   2.123
 1990SOL    HW1 6869   2.938   0.245   2.181
 1990SOL    HW2 6870   2.994   0.110   2.109
 1991SOL     OW 6871   3.466   5.511   5.839
 1991SOL    HW1 6872   3.471   5.536   5.936
 1991SOL    HW2 6873   3.376   5.473   5.819
 1992SOL     OW 6874   2.837   6.789   6.107
 1992SOL    HW1 6875   2.757   6.803   6.165
 1992SOL    HW2 6876   2.886   6.707   6.137
 1993SOL     OW 6877   3.873   3.564   5.416
 1993SOL    HW1 6878   3.809   3.550   5.341
 1993SOL    HW2 6879   3.871   3.660   5.444
 1994SOL     OW 6880   0.993   2.028   2.100
 1994SOL    HW1 6881   1.022   1.951   2.043
 1994SOL    HW2 6882   1.016   2.009   2.195
 1995SOL     OW 6883   6.308   2.239   2.285
 1995SOL    HW1 6884   6.405   2.222   2.272
 1995SOL    HW2 6885   6.296   2.320   2.343
 1996SOL     OW 6886   3.017   3.220   1.386
 1996SOL    HW1 6887   3.084   3.295   1.384
 1996SOL    HW2 6888   3.061   3.136   1.355
 1997SOL     OW 6889   5.200   0.870   5.619
 1997SOL    HW1 6890   5.258   0.930   5.674
 1997SOL    HW2 6891   5.202   0.778   5.656
 1998SOL     OW 6892   3.205   3.874   6.146
 1998SOL    HW1 6893   3.238   3.815   6.220
 1998SOL    HW2 6894   3.132   3.828   6.097
 1999SOL     OW 6895   2.887   0.249   1.868
 1999SOL    HW1 6896   2.965   0.220   1.923
 1999SOL    HW2 6897   2.912   0.247   1.771
 2000SOL     OW 6898   4.066   1.738   5.155
 2000SOL    HW1 6899   4.026   1.746   5.246
 2000SOL    HW2 6900   4.006   1.683   5.097
 2001SOL     OW 6901   3.510   2.467   1.687
 2001SOL    HW1 6902   3.592   2.438   1.738
 2001SOL    HW2 6903   3.487   2.397   1.620
 2002SOL     OW 6904   1.205   6.145   6.283
 2002SOL    HW1 6905   1.165   6.211   6.347
 2002SOL    HW2 6906   1.246   6.070   6.334
 2003SOL     OW 6907   4.333   6.992   3.789
 2003SOL    HW1 6908   4.410   0.011   3.836
 2003SOL    HW2 6909   4.324   6.897   3.819
 2004SOL     OW 6910   5.182   0.912   4.362
 2004SOL    HW1 6911   5.148   0.916   4.456
 2004SOL    HW2 6912   5.236   0.994   4.343
 2005SOL     OW 6913   1.909   5.841   0.113
 2005SOL    HW1 6914   1.813   5.818   0.094
 2005SOL    HW2 6915   1.966   5.807   0.039
 2006SOL     OW 6916   4.997   4.298   3.681
 2006SOL    HW1 6917   5.020   4.323   3.587
 2006SOL    HW2 6918   4.921   4.233   3.680
 2007SOL     OW 6919   4.464   5.814   0.753
 2007SOL    HW1 6920   4.400   5.755   0.803
 2007SOL    HW2 6921   4.416   5.896   0.723
 2008SOL     OW 6922   0.377   5.646   3.711
 2008SOL    HW1 6923   0.316   5.568   3.730
 2008SOL    HW2 6924   0.339   5.729   3.751
 2009SOL     OW 6925   6.838   0.282   1.714
 2009SOL    HW1 6926   6.927   0.294   1.759
 2009SOL    HW2 6927   6.791   0.203   1.753
 2010SOL     OW 6928   1.842   0.964   0.866
 2010SOL    HW1 6929   1.747   0.949   0.839
 2010SOL    HW2 6930   1.866   0.900   0.939
 2011SOL     OW 6931   6.402   2.256   5.032
 2011SOL    HW1 6932   6.353   2.340   5.057
 2011SOL    HW2 6933   6.341   2.196   4.980
 2012SOL     OW 6934   0.642   3.730   1.371
 2012SOL    HW1 6935   0.589   3.646   1.368
 2012SOL    HW2 6936   0.700   3.736   1.289
 2013SOL     OW 6937   5.795   0.934   3.430
 2013SOL    HW1 6938   5.709   0.982   3.446
 2013SOL    HW2 6939   5.866   0.970   3.490
 2014SOL     OW 6940   1.116   5.634   3.415
 2014SOL    HW1 6941   1.175   5.714   3.425
 2014SOL    HW2 6942   1.172   5.551   3.411
 2015SOL     OW 6943   2.934   1.367   6.757
 2015SOL    HW1 6944   2.914   1.421   6.839
 2015SOL    HW2 6945   2.848   1.337   6.715
 2016SOL     OW 6946   0.581   6.204   5.071
 2016SOL    HW1 6947   0.557   6.277   5.135
 2016SOL    HW2 6948   0.630   6.132   5.120
 2017SOL     OW 6949   3.277   6.914   3.457
 2017SOL    HW1 6950   3.259   6.817   3.473
 2017SOL    HW2 6951   3.365   6.925   3.410
 2018SOL     OW 6952   6.851   5.684   5.648
 2018SOL    HW1 6953   6.832   5.781   5.660
 2018SOL    HW2 6954   6.851   5.662   5.550
 2019SOL     OW 6955   5.142   3.056   1.908
 2019SOL    HW1 6956   5.144   3.004   1.994
 2019SOL    HW2 6957   5.153   3.153   1.928
 2020SOL     OW 6958   1.336   5.443   5.161
 2020SOL    HW1 6959   1.407   5.379   5.189
 2020SOL    HW2 6960   1.287   5.406   5.081
 2021SOL     OW 6961   2.344   6.884   3.278
 2021SOL    HW1 6962   2.280   6.918   3.208
 2021SOL    HW2 6963   2.373   6.960   3.336
 2022SOL     OW 6964   1.821   3.841   1.919
 2022SOL    HW1 6965   1.823   3.769   1.988
 2022SOL    HW2 6966   1.734   3.837   1.870
 2023SOL     OW 6967   6.952   2.159   0.305
 2023SOL    HW1 6968   6.979   2.254   0.288
 2023SOL    HW2 6969   6.892   2.128   0.232
 2024SOL     OW 6970   6.771   0.702   2.773
 2024SOL    HW1 6971   6.866   0.714   2.802
 2024SOL    HW2 6972   6.768   0.689   2.673
 2025SOL     OW 6973   1.594   2.626   1.568
 2025SOL    HW1 6974   1.637   2.543   1.604
 2025SOL    HW2 6975   1.537   2.603   1.490
 2026SOL     OW 6976   1.488   2.328   6.180
 2026SOL    HW1 6977   1.526   2.304   6.269
 2026SOL    HW2 6978   1.415   2.396   6.193
 2027SOL     OW 6979   0.948   1.234   1.143
 2027SOL    HW1 6980   1.030   1.291   1.129
 2027SOL    HW2 6981   0.874   1.268   1.086
 2028SOL     OW 6982   3.444   1.467   0.077
 2028SOL    HW1 6983   3.499   1.530   0.023
 2028SOL    HW2 6984   3.420   1.388   0.022
 2029SOL     OW 6985   0.268   0.416   6.740
 2029SOL    HW1 6986   0.254   0.350   6.666
 2029SOL    HW2 6987   0.204   0.396   6.814
 2030SOL     OW 6988   1.871   1.923   3.496
 2030SOL    HW1 6989   1.831   2.012   3.474
 2030SOL    HW2 6990   1.823   1.852   3.444
 2031SOL     OW 6991   5.125   6.182   2.191
 2031SOL    HW1 6992   5.112   6.182   2.092
 2031SOL    HW2 6993   5.148   6.274   2.222
 2032SOL     OW 6994   5.591   5.784   0.937
 2032SOL    HW1 6995   5.609   5.729   1.019
 2032SOL    HW2 6996   5.495   5.810   0.935
 2033SOL     OW 6997   3.747   4.131   6.975
 2033SOL    HW1 6998   3.718   4.046   6.930
 2033SOL    HW2 6999   3.726   4.126   0.049
 2034SOL     OW 7000   2.144   6.497   3.652
 2034SOL    HW1 7001   2.089   6.430   3.603
 2034SOL    HW2 7002   2.197   6.551   3.587
 2035SOL     OW 7003   0.035   1.261   2.737
 2035SOL    HW1 7004   0.055   1.339   2.678
 2035SOL    HW2 7005   0.103   1.256   2.810
 2036SOL     OW 7006   0.003   6.050   2.130
 2036SOL    HW1 7007   6.995   5.957   2.150
 2036SOL    HW2 7008   0.071   6.048   2.057
 2037SOL     OW 7009   6.236   2.142   5.955
 2037SOL    HW1 7010   6.251   2.066   6.018
 2037SOL    HW2 7011   6.299   2.134   5.878
 2038SOL     OW 7012   0.689   2.000   0.001
 2038SOL    HW1 7013   0.748   1.933   6.979
 2038SOL    HW2 7014   0.649   1.960   0.083
 2039SOL     OW 7015   0.127   5.765   3.371
 2039SOL    HW1 7016   0.105   5.827   3.296
 2039SOL    HW2 7017   0.152   5.818   3.452
 2040SOL     OW 7018   3.239   2.841   5.081
 2040SOL    HW1 7019   3.183   2.768   5.120
 2040SOL    HW2 7020   3.184   2.923   5.067
 2041SOL     OW 7021   6.922   6.191   6.608
 2041SOL    HW1 7022   7.006   6.136   6.612
 2041SOL    HW2 7023   6.918   6.238   6.520
 2042SOL     OW 7024   5.734   5.289   6.905
 2042SOL    HW1 7025   5.667   5.332   6.844
 2042SOL    HW2 7026   5.758   5.353   6.978
 2043SOL     OW 7027   6.482   4.814   2.314
 2043SOL    HW1 7028   6.401   4.771   2.354
 2043SOL    HW2 7029   6.454   4.878   2.242
 2044SOL     OW 7030   4.938   0.683   2.306
 2044SOL    HW1 7031   4.870   0.611   2.292
 2044SOL    HW2 7032   4.907   0.766   2.259
 2045SOL     OW 7033   1.956   4.278   5.157
 2045SOL    HW1 7034   1.916   4.266   5.066
 2045SOL    HW2 7035   2.052   4.306   5.147
 2046SOL     OW 7036   0.018   0.221   4.139
 2046SOL    HW1 7037   6.952   0.267   4.140
 2046SOL    HW2 7038   0.053   0.219   4.045
 2047SOL     OW 7039   4.059   2.098   0.464
 2047SOL    HW1 7040   4.156   2.119   0.463
 2047SOL    HW2 7041   4.010   2.161   0.404
 2048SOL     OW 7042   4.350   6.219   0.007
 2048SOL    HW1 7043   4.340   6.138   6.972
 2048SOL    HW2 7044   4.302   6.296   6.987
 2049SOL     OW 7045   4.367   1.867   6.549
 2049SOL    HW1 7046   4.336   1.913   6.466
 2049SOL    HW2 7047   4.289   1.849   6.609
 2050SOL     OW 7048   6.108   2.801   3.673
 2050SOL    HW1 7049   6.084   2.789   3.770
 2050SOL    HW2 7050   6.024   2.810   3.619
 2051SOL     OW 7051   6.465   4.709   6.791
 2051SOL    HW1 7052   6.374   4.668   6.784
 2051SOL    HW2 7053   6.482   4.767   6.711
 2052SOL     OW 7054   0.310   3.362   0.054
 2052SOL    HW1 7055   0.354   3.390   6.991
 2052SOL    HW2 7056   0.211   3.366   0.043
 2053SOL     OW 7057   6.461   0.562   1.164
 2053SOL    HW1 7058   6.406   0.618   1.102
 2053SOL    HW2 7059   6.415   0.552   1.251
 2054SOL     OW 7060   5.449   2.701   1.551
 2054SOL    HW1 7061   5.394   2.772   1.595
 2054SOL    HW2 7062   5.416   2.685   1.458
 2055SOL     OW 7063   6.063   3.292   2.683
 2055SOL    HW1 7064   6.124   3.248   2.749
 2055SOL    HW2 7065   6.095   3.385   2.664
 2056SOL     OW 7066   1.922   1.566   2.461
 2056SOL    HW1 7067   1.899   1.494   2.395
 2056SOL    HW2 7068   1.905   1.655   2.421
 2057SOL     OW 7069   5.274   2.333   3.594
 2057SOL    HW1 7070   5.350   2.385   3.557
 2057SOL    HW2 7071   5.264   2.247   3.543
 2058SOL     OW 7072   1.152   1.596   3.480
 2058SOL    HW1 7073   1.241   1.553   3.464
 2058SOL    HW2 7074   1.080   1.526   3.481
 2059SOL     OW 7075   2.735   6.381   6.160
 2059SOL    HW1 7076   2.688   6.440   6.094
 2059SOL    HW2 7077   2.750   6.291   6.119
 2060SOL     OW 7078   6.589   4.339   0.883
 2060SOL    HW1 7079   6.646   4.268   0.924
 2060SOL    HW2 7080   6.493   4.310   0.883
 2061SOL     OW 7081   0.822   1.769   3.282
 2061SOL    HW1 7082   0.878   1.827   3.224
 2061SOL    HW2 7083   0.849   1.673   3.269
 2062SOL     OW 7084   5.495   0.785   3.468
 2062SOL    HW1 7085   5.585   0.763   3.431
 2062SOL    HW2 7086   5.461   0.868   3.425
 2063SOL     OW 7087   0.627   1.423   6.351
 2063SOL    HW1 7088   0.635   1.479   6.433
 2063SOL    HW2 7089   0.713   1.375   6.335
 2064SOL     OW 7090   0.798   1.520   5.533
 2064SOL    HW1 7091   0.856   1.476   5.464
 2064SOL    HW2 7092   0.843   1.603   5.566
 2065SOL     OW 7093   6.422   4.082   2.205
 2065SOL    HW1 7094   6.502   4.119   2.158
 2065SOL    HW2 7095   6.420   3.982   2.192
 2066SOL     OW 7096   0.784   5.991   4.347
 2066SOL    HW1 7097   0.771   5.906   4.398
 2066SOL    HW2 7098   0.860   6.042   4.386
 2067SOL     OW 7099   0.539   6.613   0.788
 2067SOL    HW1 7100   0.569   6.519   0.772
 2067SOL    HW2 7101   0.441   6.620   0.769
 2068SOL     OW 7102   1.047   1.563   5.711
 2068SOL    HW1 7103   1.086   1.471   5.699
 2068SOL    HW2 7104   1.117   1.631   5.687
 2069SOL     OW 7105   0.808   2.717   3.628
 2069SOL    HW1 7106   0.743   2.642   3.617
 2069SOL    HW2 7107   0.760   2.804   3.617
 2070SOL     OW 7108   1.974   6.844   2.094
 2070SOL    HW1 7109   1.999   6.918   2.158
 2070SOL    HW2 7110   2.008   6.866   2.003
 2071SOL     OW 7111   6.948   6.265   4.815
 2071SOL    HW1 7112   6.989   6.182   4.853
 2071SOL    HW2 7113   7.012   6.341   4.821
 2072SOL     OW 7114   4.527   6.533   2.135
 2072SOL    HW1 7115   4.479   6.446   2.125
 2072SOL    HW2 7116   4.626   6.517   2.136
 2073SOL     OW 7117   3.709   0.085   4.794
 2073SOL    HW1 7118   3.613   0.094   4.765
 2073SOL    HW2 7119   3.720   0.129   4.884
 2074SOL     OW 7120   0.620   2.865   6.811
 2074SOL    HW1 7121   0.686   2.905   6.748
 2074SOL    HW2 7122   0.532   2.856   6.766
 2075SOL     OW 7123   5.023   2.274   1.473
 2075SOL    HW1 7124   5.023   2.332   1.554
 2075SOL    HW2 7125   4.965   2.315   1.402
 2076SOL     OW 7126   5.104   6.505   0.203
 2076SOL    HW1 7127   5.046   6.574   0.161
 2076SOL    HW2 7128   5.064   6.475   0.290
 2077SOL     OW 7129   4.774   2.797   2.218
 2077SOL    HW1 7130   4.719   2.834   2.293
 2077SOL    HW2 7131   4.808   2.871   2.161
 2078SOL     OW 7132   1.959   6.221   6.644
 2078SOL    HW1 7133   2.016   6.166   6.583
 2078SOL    HW2 7134   1.883   6.166   6.678
 2079SOL     OW 7135   6.133   1.297   3.705
 2079SOL    HW1 7136   6.133   1.391   3.673
 2079SOL    HW2 7137   6.110   1.236   3.629
 2080SOL     OW 7138   2.014   1.381   4.841
 2080SOL    HW1 7139   2.020   1.465   4.787
 2080SOL    HW2 7140   2.048   1.304   4.787
 2081SOL     OW 7141   1.908   5.880   5.217
 2081SOL    HW1 7142   1.995   5.839   5.244
 2081SOL    HW2 7143   1.833   5.838   5.268
 2082SOL     OW 7144   6.625   0.268   2.475
 2082SOL    HW1 7145   6.563   0.254   2.398
 2082SOL    HW2 7146   6.698   0.200   2.472
 2083SOL     OW 7147   4.173   4.123   6.000
 2083SOL    HW1 7148   4.122   4.183   5.938
 2083SOL    HW2 7149   4.140   4.029   5.990
 2084SOL     OW 7150   6.927   4.477   4.044
 2084SOL    HW1 7151   6.927   4.470   3.944
 2084SOL    HW2 7152   6.982   4.556   4.072
 2085SOL     OW 7153   5.417   1.049   0.020
 2085SOL    HW1 7154   5.505   1.090   7.020
 2085SOL    HW2 7155   5.388   1.079   0.111
 2086SOL     OW 7156   3.013   5.993   5.858
 2086SOL    HW1 7157   2.999   6.090   5.880
 2086SOL    HW2 7158   2.970   5.936   5.928
 2087SOL     OW 7159   4.310   0.121   1.857
 2087SOL    HW1 7160   4.379   0.083   1.920
 2087SOL    HW2 7161   4.257   0.192   1.904
 2088SOL     OW 7162   2.590   5.252   0.765
 2088SOL    HW1 7163   2.522   5.201   0.818
 2088SOL    HW2 7164   2.672   5.265   0.821
 2089SOL     OW 7165   4.359   1.285   6.941
 2089SOL    HW1 7166   4.349   1.352   7.015
 2089SOL    HW2 7167   4.438   1.310   6.884
 2090SOL     OW 7168   4.077   3.688   4.680
 2090SOL    HW1 7169   4.140   3.740   4.622
 2090SOL    HW2 7170   4.105   3.694   4.775
 2091SOL     OW 7171   0.045   5.904   7.007
 2091SOL    HW1 7172   0.022   5.808   6.994
 2091SOL    HW2 7173   0.112   5.932   6.938
 2092SOL     OW 7174   5.034   5.782   0.475
 2092SOL    HW1 7175   5.105   5.811   0.538
 2092SOL    HW2 7176   5.034   5.841   0.394
 2093SOL     OW 7177   1.666   2.364   1.733
 2093SOL    HW1 7178   1.672   2.266   1.756
 2093SOL    HW2 7179   1.709   2.418   1.805
 2094SOL     OW 7180   5.518   1.727   1.935
 2094SOL    HW1 7181   5.503   1.665   2.012
 2094SOL    HW2 7182   5.526   1.821   1.970
 2095SOL     OW 7183   5.531   0.367   4.416
 2095SOL    HW1 7184   5.572   0.289   4.463
 2095SOL    HW2 7185   5.575   0.381   4.328
 2096SOL     OW 7186   4.725   4.116   3.000
 2096SOL    HW1 7187   4.686   4.158   2.917
 2096SOL    HW2 7188   4.810   4.163   3.023
 2097SOL     OW 7189   1.334   2.824   0.348
 2097SOL    HW1 7190   1.262   2.832   0.278
 2097SOL    HW2 7191   1.386   2.741   0.333
 2098SOL     OW 7192   4.104   5.577   3.102
 2098SOL    HW1 7193   4.173   5.512   3.071
 2098SOL    HW2 7194   4.066   5.547   3.189
 2099SOL     OW 7195   2.572   2.546   5.204
 2099SOL    HW1 7196   2.508   2.487   5.254
 2099SOL    HW2 7197   2.563   2.640   5.236
 2100SOL     OW 7198   3.719   3.340   5.639
 2100SOL    HW1 7199   3.805   3.339   5.587
 2100SOL    HW2 7200   3.735   3.383   5.728
 2101SOL     OW 7201   1.644   6.283   2.420
 2101SOL    HW1 7202   1.621   6.345   2.346
 2101SOL    HW2 7203   1.567   6.223   2.440
 2102SOL     OW 7204   0.299   5.510   1.870
 2102SOL    HW1 7205   0.343   5.535   1.784
 2102SOL    HW2 7206   0.314   5.582   1.938
 2103SOL     OW 7207   2.975   3.707   6.375
 2103SOL    HW1 7208   2.916   3.657   6.311
 2103SOL    HW2 7209   3.066   3.717   6.336
 2104SOL     OW 7210   1.093   3.570   6.426
 2104SOL    HW1 7211   1.178   3.615   6.396
 2104SOL    HW2 7212   1.037   3.548   6.347
 2105SOL     OW 7213   4.874   5.123   4.167
 2105SOL    HW1 7214   4.956   5.148   4.116
 2105SOL    HW2 7215   4.830   5.045   4.122
 2106SOL     OW 7216   4.536   4.751   0.166
 2106SOL    HW1 7217   4.600   4.746   0.089
 2106SOL    HW2 7218   4.541   4.841   0.208
 2107SOL     OW 7219   4.569   2.842   5.515
 2107SOL    HW1 7220   4.533   2.890   5.595
 2107SOL    HW2 7221   4.669   2.843   5.517
 2108SOL     OW 7222   0.122   6.179   5.590
 2108SOL    HW1 7223   0.051   6.195   5.522
 2108SOL    HW2 7224   0.110   6.088   5.630
 2109SOL     OW 7225   4.675   6.806   3.346
 2109SOL    HW1 7226   4.714   6.733   3.291
 2109SOL    HW2 7227   4.622   6.868   3.288
 2110SOL     OW 7228   2.822   3.035   5.824
 2110SOL    HW1 7229   2.800   3.078   5.912
 2110SOL    HW2 7230   2.781   3.089   5.751
 2111SOL     OW 7231   0.759   2.129   6.546
 2111SOL    HW1 7232   0.716   2.057   6.490
 2111SOL    HW2 7233   0.831   2.089   6.602
 2112SOL     OW 7234   4.614   2.399   1.277
 2112SOL    HW1 7235   4.553   2.399   1.356
 2112SOL    HW2 7236   4.598   2.482   1.222
 2113SOL     OW 7237   1.673   0.382   4.523
 2113SOL    HW1 7238   1.642   0.346   4.612
 2113SOL    HW2 7239   1.651   0.479   4.517
 2114SOL     OW 7240   1.582   3.000   0.715
 2114SOL    HW1 7241   1.529   3.066   0.768
 2114SOL    HW2 7242   1.604   2.921   0.773
 2115SOL     OW 7243   2.256   4.063   2.698
 2115SOL    HW1 7244   2.296   3.988   2.646
 2115SOL    HW2 7245   2.189   4.112   2.642
 2116SOL     OW 7246   6.917   4.792   3.437
 2116SOL    HW1 7247   6.975   4.779   3.357
 2116SOL    HW2 7248   6.827   4.824   3.409
 2117SOL     OW 7249   0.023   4.259   0.946
 2117SOL    HW1 7250   6.995   4.304   0.873
 2117SOL    HW2 7251   7.008   4.286   1.035
 2118SOL     OW 7252   6.871   3.854   1.997
 2118SOL    HW1 7253   6.799   3.806   2.048
 2118SOL    HW2 7254   6.831   3.931   1.947
 2119SOL     OW 7255   2.461   5.190   1.052
 2119SOL    HW1 7256   2.372   5.230   1.027
 2119SOL    HW2 7257   2.501   5.242   1.127
 2120SOL     OW 7258   0.346   5.227   4.137
 2120SOL    HW1 7259   0.390   5.201   4.051
 2120SOL    HW2 7260   0.307   5.319   4.128
 2121SOL     OW 7261   0.623   4.619   5.875
 2121SOL    HW1 7262   0.712   4.661   5.891
 2121SOL    HW2 7263   0.568   4.623   5.959
 2122SOL     OW 7264   6.055   4.473   5.438
 2122SOL    HW1 7265   6.147   4.469   5.477
 2122SOL    HW2 7266   5.993   4.417   5.493
 2123SOL     OW 7267   0.172   4.923   2.018
 2123SOL    HW1 7268   0.089   4.973   1.995
 2123SOL    HW2 7269   0.148   4.837   2.062
 2124SOL     OW 7270   2.221   1.598   1.750
 2124SOL    HW1 7271   2.318   1.620   1.741
 2124SOL    HW2 7272   2.179   1.594   1.659
 2125SOL     OW 7273   1.750   0.116   0.269
 2125SOL    HW1 7274   1.700   0.099   0.184
 2125SOL    HW2 7275   1.840   0.073   0.263
 2126SOL     OW 7276   3.043   1.055   1.258
 2126SOL    HW1 7277   2.949   1.071   1.287
 2126SOL    HW2 7278   3.050   1.064   1.159
 2127SOL     OW 7279   6.404   3.350   4.050
 2127SOL    HW1 7280   6.459   3.283   4.101
 2127SOL    HW2 7281   6.309   3.344   4.080
 2128SOL     OW 7282   6.428   3.820   4.054
 2128SOL    HW1 7283   6.412   3.738   4.108
 2128SOL    HW2 7284   6.506   3.871   4.092
 2129SOL     OW 7285   4.593   2.829   5.113
 2129SOL    HW1 7286   4.516   2.775   5.148
 2129SOL    HW2 7287   4.600   2.814   5.014
 2130SOL     OW 7288   4.076   0.253   2.667
 2130SOL    HW1 7289   4.120   0.168   2.698
 2130SOL    HW2 7290   4.011   0.284   2.736
 2131SOL     OW 7291   6.888   0.887   1.484
 2131SOL    HW1 7292   6.841   0.826   1.548
 2131SOL    HW2 7293   6.845   0.880   1.394
 2132SOL     OW 7294   4.225   2.254   1.557
 2132SOL    HW1 7295   4.188   2.179   1.611
 2132SOL    HW2 7296   4.177   2.258   1.469
 2133SOL     OW 7297   2.379   3.039   5.886
 2133SOL    HW1 7298   2.404   3.021   5.791
 2133SOL    HW2 7299   2.286   3.076   5.890
 2134SOL     OW 7300   0.419   2.675   0.845
 2134SOL    HW1 7301   0.387   2.769   0.846
 2134SOL    HW2 7302   0.508   2.669   0.891
 2135SOL     OW 7303   1.057   3.883   4.764
 2135SOL    HW1 7304   1.051   3.855   4.668
 2135SOL    HW2 7305   1.143   3.848   4.804
 2136SOL     OW 7306   1.941   4.570   2.664
 2136SOL    HW1 7307   2.000   4.538   2.590
 2136SOL    HW2 7308   1.935   4.500   2.735
 2137SOL     OW 7309   2.590   5.260   5.403
 2137SOL    HW1 7310   2.618   5.291   5.313
 2137SOL    HW2 7311   2.660   5.200   5.442
 2138SOL     OW 7312   6.331   6.959   2.938
 2138SOL    HW1 7313   6.342   6.895   2.861
 2138SOL    HW2 7314   6.405   6.944   3.004
 2139SOL     OW 7315   4.371   0.841   4.239
 2139SOL    HW1 7316   4.455   0.869   4.192
 2139SOL    HW2 7317   4.385   0.751   4.281
 2140SOL     OW 7318   2.730   6.649   4.253
 2140SOL    HW1 7319   2.775   6.567   4.288
 2140SOL    HW2 7320   2.699   6.633   4.160
 2141SOL     OW 7321   6.490   2.727   2.447
 2141SOL    HW1 7322   6.449   2.816   2.465
 2141SOL    HW2 7323   6.575   2.718   2.501
 2142SOL     OW 7324   0.912   1.472   3.516
 2142SOL    HW1 7325   0.899   1.376   3.541
 2142SOL    HW2 7326   0.833   1.525   3.545
 2143SOL     OW 7327   2.872   4.964   1.432
 2143SOL    HW1 7328   2.971   4.966   1.446
 2143SOL    HW2 7329   2.825   4.975   1.519
 2144SOL     OW 7330   0.711   5.555   4.958
 2144SOL    HW1 7331   0.806   5.584   4.947
 2144SOL    HW2 7332   0.682   5.505   4.877
 2145SOL     OW 7333   3.918   6.606   4.483
 2145SOL    HW1 7334   3.938   6.615   4.581
 2145SOL    HW2 7335   3.872   6.689   4.451
 2146SOL     OW 7336   2.471   2.385   0.843
 2146SOL    HW1 7337   2.407   2.380   0.919
 2146SOL    HW2 7338   2.564   2.374   0.876
 2147SOL     OW 7339   5.976   1.211   6.732
 2147SOL    HW1 7340   5.898   1.149   6.719
 2147SOL    HW2 7341   5.966   1.290   6.671
 2148SOL     OW 7342   6.148   3.725   6.105
 2148SOL    HW1 7343   6.214   3.658   6.141
 2148SOL    HW2 7344   6.109   3.691   6.020
 2149SOL     OW 7345   2.119   1.552   1.181
 2149SOL    HW1 7346   2.077   1.642   1.192
 2149SOL    HW2 7347   2.115   1.525   1.084
 2150SOL     OW 7348   2.122   2.487   1.959
 2150SOL    HW1 7349   2.203   2.436   1.931
 2150SOL    HW2 7350   2.148   2.578   1.991
 2151SOL     OW 7351   1.351   6.469   6.599
 2151SOL    HW1 7352   1.435   6.489   6.648
 2151SOL    HW2 7353   1.357   6.504   6.505
 2152SOL     OW 7354   4.498   4.472   2.696
 2152SOL    HW1 7355   4.550   4.485   2.611
 2152SOL    HW2 7356   4.444   4.555   2.715
 2153SOL     OW 7357   4.511   1.904   2.009
 2153SOL    HW1 7358   4.589   1.845   1.987
 2153SOL    HW2 7359   4.533   1.960   2.089
 2154SOL     OW 7360   3.546   0.244   4.255
 2154SOL    HW1 7361   3.533   0.205   4.164
 2154SOL    HW2 7362   3.622   0.197   4.300
 2155SOL     OW 7363   4.003   0.305   1.152
 2155SOL    HW1 7364   4.079   0.243   1.133
 2155SOL    HW2 7365   4.025   0.396   1.119
 2156SOL     OW 7366   0.237   0.406   5.008
 2156SOL    HW1 7367   0.201   0.471   5.075
 2156SOL    HW2 7368   0.263   0.455   4.925
 2157SOL     OW 7369   5.286   5.944   3.515
 2157SOL    HW1 7370   5.295   5.942   3.614
 2157SOL    HW2 7371   5.306   6.037   3.481
 2158SOL     OW 7372   3.806   5.887   0.360
 2158SOL    HW1 7373   3.871   5.955   0.324
 2158SOL    HW2 7374   3.848   5.797   0.355
 2159SOL     OW 7375   1.580   0.628   4.886
 2159SOL    HW1 7376   1.660   0.575   4.916
 2159SOL    HW2 7377   1.501   0.602   4.942
 2160SOL     OW 7378   4.737   4.599   6.794
 2160SOL    HW1 7379   4.814   4.544   6.825
 2160SOL    HW2 7380   4.676   4.543   6.738
 2161SOL     OW 7381   6.384   4.539   1.719
 2161SOL    HW1 7382   6.398   4.479   1.798
 2161SOL    HW2 7383   6.462   4.601   1.710
 2162SOL     OW 7384   2.881   0.238   2.702
 2162SOL    HW1 7385   2.818   0.192   2.640
 2162SOL    HW2 7386   2.972   0.197   2.695
 2163SOL     OW 7387   1.347   4.993   0.807
 2163SOL    HW1 7388   1.374   4.997   0.904
 2163SOL    HW2 7389   1.344   4.898   0.777
 2164SOL     OW 7390   2.156   2.325   6.437
 2164SOL    HW1 7391   2.152   2.227   6.419
 2164SOL    HW2 7392   2.069   2.356   6.476
 2165SOL     OW 7393   0.576   2.301   3.764
 2165SOL    HW1 7394   0.612   2.217   3.723
 2165SOL    HW2 7395   0.490   2.281   3.811
 2166SOL     OW 7396   0.540   3.638   4.428
 2166SOL    HW1 7397   0.494   3.549   4.435
 2166SOL    HW2 7398   0.479   3.702   4.382
 2167SOL     OW 7399   0.329   3.217   3.687
 2167SOL    HW1 7400   0.309   3.214   3.785
 2167SOL    HW2 7401   0.421   3.180   3.671
 2168SOL     OW 7402   1.078   1.563   3.013
 2168SOL    HW1 7403   1.041   1.532   3.101
 2168SOL    HW2 7404   1.014   1.542   2.940
 2169SOL     OW 7405   6.231   0.739   1.509
 2169SOL    HW1 7406   6.192   0.815   1.456
 2169SOL    HW2 7407   6.309   0.772   1.562
 2170SOL     OW 7408   7.000   4.358   5.110
 2170SOL    HW1 7409   7.016   4.266   5.076
 2170SOL    HW2 7410   6.978   4.419   5.034
 2171SOL     OW 7411   0.950   5.584   1.243
 2171SOL    HW1 7412   0.918   5.592   1.337
 2171SOL    HW2 7413   0.943   5.672   1.197
 2172SOL     OW 7414   2.395   2.371   5.793
 2172SOL    HW1 7415   2.384   2.468   5.775
 2172SOL    HW2 7416   2.466   2.333   5.735
 2173SOL     OW 7417   4.807   0.477   5.287
 2173SOL    HW1 7418   4.884   0.435   5.238
 2173SOL    HW2 7419   4.814   0.576   5.280
 2174SOL     OW 7420   6.781   6.042   4.666
 2174SOL    HW1 7421   6.786   5.980   4.745
 2174SOL    HW2 7422   6.848   6.114   4.677
 2175SOL     OW 7423   1.660   3.596   4.353
 2175SOL    HW1 7424   1.579   3.654   4.355
 2175SOL    HW2 7425   1.738   3.646   4.392
 2176SOL     OW 7426   5.214   1.877   1.601
 2176SOL    HW1 7427   5.162   1.806   1.554
 2176SOL    HW2 7428   5.303   1.841   1.629
 2177SOL     OW 7429   6.917   0.347   2.260
 2177SOL    HW1 7430   6.922   0.362   2.358
 2177SOL    HW2 7431   6.835   0.391   2.223
 2178SOL     OW 7432   1.655   1.113   1.754
 2178SOL    HW1 7433   1.740   1.081   1.794
 2178SOL    HW2 7434   1.639   1.208   1.780
 2179SOL     OW 7435   2.040   3.959   6.292
 2179SOL    HW1 7436   1.993   4.025   6.351
 2179SOL    HW2 7437   1.974   3.900   6.248
 2180SOL     OW 7438   1.202   2.718   2.403
 2180SOL    HW1 7439   1.133   2.774   2.358
 2180SOL    HW2 7440   1.199   2.625   2.367
 2181SOL     OW 7441   4.262   5.157   3.913
 2181SOL    HW1 7442   4.328   5.231   3.923
 2181SOL    HW2 7443   4.294   5.092   3.844
 2182SOL     OW 7444   1.295   4.791   3.708
 2182SOL    HW1 7445   1.298   4.808   3.806
 2182SOL    HW2 7446   1.234   4.714   3.689
 2183SOL     OW 7447   2.088   4.298   0.084
 2183SOL    HW1 7448   2.124   4.235   0.152
 2183SOL    HW2 7449   2.158   4.365   0.060
 2184SOL     OW 7450   4.004   6.831   5.868
 2184SOL    HW1 7451   3.943   6.849   5.791
 2184SOL    HW2 7452   4.072   6.762   5.843
 2185SOL     OW 7453   0.669   1.256   6.852
 2185SOL    HW1 7454   0.675   1.175   6.793
 2185SOL    HW2 7455   0.675   1.339   6.797
 2186SOL     OW 7456   6.898   6.040   0.146
 2186SOL    HW1 7457   6.859   5.987   0.221
 2186SOL    HW2 7458   6.949   5.978   0.085
 2187SOL     OW 7459   0.475   5.498   2.224
 2187SOL    HW1 7460   0.537   5.518   2.300
 2187SOL    HW2 7461   0.412   5.425   2.251
 2188SOL     OW 7462   1.595   5.566   5.516
 2188SOL    HW1 7463   1.653   5.496   5.475
 2188SOL    HW2 7464   1.613   5.571   5.614
 2189SOL     OW 7465   1.299   6.851   1.623
 2189SOL    HW1 7466   1.326   6.832   1.717
 2189SOL    HW2 7467   1.361   6.918   1.583
 2190SOL     OW 7468   6.723   2.941   1.355
 2190SOL    HW1 7469   6.735   2.866   1.420
 2190SOL    HW2 7470   6.630   2.977   1.362
 2191SOL     OW 7471   2.096   1.728   5.600
 2191SOL    HW1 7472   2.187   1.685   5.599
 2191SOL    HW2 7473   2.098   1.808   5.660
 2192SOL     OW 7474   5.392   0.846   2.892
 2192SOL    HW1 7475   5.323   0.918   2.885
 2192SOL    HW2 7476   5.354   0.759   2.861
 2193SOL     OW 7477   6.450   0.199   6.305
 2193SOL    HW1 7478   6.389   0.126   6.276
 2193SOL    HW2 7479   6.540   0.186   6.264
 2194SOL     OW 7480   1.831   4.122   6.758
 2194SOL    HW1 7481   1.768   4.061   6.805
 2194SOL    HW2 7482   1.814   4.217   6.786
 2195SOL     OW 7483   6.815   6.655   5.479
 2195SOL    HW1 7484   6.736   6.673   5.421
 2195SOL    HW2 7485   6.892   6.712   5.450
 2196SOL     OW 7486   2.997   6.724   4.428
 2196SOL    HW1 7487   2.971   6.804   4.374
 2196SOL    HW2 7488   2.940   6.718   4.510
 2197SOL     OW 7489   2.937   3.457   6.227
 2197SOL    HW1 7490   2.874   3.463   6.150
 2197SOL    HW2 7491   2.942   3.362   6.259
 2198SOL     OW 7492   5.973   0.457   1.877
 2198SOL    HW1 7493   5.991   0.551   1.848
 2198SOL    HW2 7494   6.029   0.434   1.956
 2199SOL     OW 7495   5.162   6.902   4.089
 2199SOL    HW1 7496   5.198   6.902   3.995
 2199SOL    HW2 7497   5.150   6.997   4.120
 2200SOL     OW 7498   2.152   1.659   4.386
 2200SOL    HW1 7499   2.088   1.621   4.318
 2200SOL    HW2 7500   2.245   1.657   4.349
 2201SOL     OW 7501   6.633   2.975   2.885
 2201SOL    HW1 7502   6.573   2.896   2.871
 2201SOL    HW2 7503   6.716   2.964   2.831
 2202SOL     OW 7504   3.626   5.930   1.633
 2202SOL    HW1 7505   3.623   5.952   1.536
 2202SOL    HW2 7506   3.556   5.862   1.654
 2203SOL     OW 7507   2.547   3.449   1.380
 2203SOL    HW1 7508   2.574   3.361   1.421
 2203SOL    HW2 7509   2.457   3.476   1.415
 2204SOL     OW 7510   4.249   2.448   1.191
 2204SOL    HW1 7511   4.211   2.358   1.210
 2204SOL    HW2 7512   4.182   2.504   1.142
 2205SOL     OW 7513   1.439   0.302   6.662
 2205SOL    HW1 7514   1.417   0.295   6.760
 2205SOL    HW2 7515   1.409   0.390   6.627
 2206SOL     OW 7516   3.146   4.216   5.820
 2206SOL    HW1 7517   3.112   4.310   5.820
 2206SOL    HW2 7518   3.245   4.216   5.804
 2207SOL     OW 7519   3.387   4.096   6.809
 2207SOL    HW1 7520   3.385   4.188   6.770
 2207SOL    HW2 7521   3.324   4.037   6.759
 2208SOL     OW 7522   1.192   5.017   3.289
 2208SOL    HW1 7523   1.276   4.967   3.266
 2208SOL    HW2 7524   1.168   5.078   3.214
 2209SOL     OW 7525   2.785   6.836   5.258
 2209SOL    HW1 7526   2.722   6.759   5.263
 2209SOL    HW2 7527   2.853   6.820   5.187
 2210SOL     OW 7528   0.555   4.586   3.796
 2210SOL    HW1 7529   0.575   4.568   3.700
 2210SOL    HW2 7530   0.459   4.614   3.805
 2211SOL     OW 7531   6.891   0.671   1.068
 2211SOL    HW1 7532   6.938   0.714   0.991
 2211SOL    HW2 7533   6.913   0.574   1.071
 2212SOL     OW 7534   2.260   5.609   0.519
 2212SOL    HW1 7535   2.264   5.707   0.499
 2212SOL    HW2 7536   2.206   5.563   0.448
 2213SOL     OW 7537   3.641   1.970   5.425
 2213SOL    HW1 7538   3.667   2.050   5.478
 2213SOL    HW2 7539   3.564   1.993   5.365
 2214SOL     OW 7540   2.993   3.686   4.955
 2214SOL    HW1 7541   2.961   3.769   5.000
 2214SOL    HW2 7542   2.977   3.607   5.014
 2215SOL     OW 7543   5.615   0.485   0.166
 2215SOL    HW1 7544   5.551   0.425   0.215
 2215SOL    HW2 7545   5.608   0.577   0.202
 2216SOL     OW 7546   0.873   0.975   6.129
 2216SOL    HW1 7547   0.969   0.959   6.107
 2216SOL    HW2 7548   0.816   0.919   6.069
 2217SOL     OW 7549   3.917   0.004   2.298
 2217SOL    HW1 7550   3.857   0.070   2.252
 2217SOL    HW2 7551   3.994   7.005   2.238
 2218SOL     OW 7552   0.082   5.185   0.060
 2218SOL    HW1 7553   0.177   5.194   0.090
 2218SOL    HW2 7554   0.078   5.126   7.002
 2219SOL     OW 7555   6.011   1.907   0.656
 2219SOL    HW1 7556   5.978   1.924   0.749
 2219SOL    HW2 7557   6.106   1.878   0.659
 2220SOL     OW 7558   2.281   6.053   5.523
 2220SOL    HW1 7559   2.297   6.020   5.430
 2220SOL    HW2 7560   2.236   6.142   5.519
 2221SOL     OW 7561   5.876   1.642   5.471
 2221SOL    HW1 7562   5.956   1.600   5.514
 2221SOL    HW2 7563   5.891   1.651   5.373
 2222SOL     OW 7564   6.285   0.503   1.385
 2222SOL    HW1 7565   6.211   0.435   1.387
 2222SOL    HW2 7566   6.257   0.585   1.434
 2223SOL     OW 7567   5.983   1.210   6.043
 2223SOL    HW1 7568   6.006   1.307   6.043
 2223SOL    HW2 7569   6.053   1.159   5.994
 2224SOL     OW 7570   6.171   3.736   0.713
 2224SOL    HW1 7571   6.250   3.735   0.774
 2224SOL    HW2 7572   6.201   3.721   0.619
 2225SOL     OW 7573   6.115   6.822   3.953
 2225SOL    HW1 7574   6.170   6.838   3.871
 2225SOL    HW2 7575   6.162   6.757   4.012
 2226SOL     OW 7576   3.770   5.152   1.053
 2226SOL    HW1 7577   3.672   5.147   1.035
 2226SOL    HW2 7578   3.812   5.063   1.034
 2227SOL     OW 7579   5.714   2.680   0.413
 2227SOL    HW1 7580   5.767   2.668   0.329
 2227SOL    HW2 7581   5.654   2.760   0.403
 2228SOL     OW 7582   4.221   5.178   0.811
 2228SOL    HW1 7583   4.177   5.266   0.827
 2228SOL    HW2 7584   4.310   5.176   0.856
 2229SOL     OW 7585   3.862   2.904   5.198
 2229SOL    HW1 7586   3.833   2.914   5.102
 2229SOL    HW2 7587   3.911   2.818   5.208
 2230SOL     OW 7588   6.280   6.185   0.885
 2230SOL    HW1 7589   6.321   6.239   0.958
 2230SOL    HW2 7590   6.269   6.243   0.804
 2231SOL     OW 7591   0.130   1.015   1.248
 2231SOL    HW1 7592   0.071   1.069   1.307
 2231SOL    HW2 7593   0.224   1.049   1.254
 2232SOL     OW 7594   1.154   1.782   4.663
 2232SOL    HW1 7595   1.202   1.810   4.746
 2232SOL    HW2 7596   1.218   1.774   4.587
 2233SOL     OW 7597   2.451   2.826   0.661
 2233SOL    HW1 7598   2.434   2.876   0.576
 2233SOL    HW2 7599   2.365   2.812   0.709
 2234SOL     OW 7600   3.451   1.351   1.041
 2234SOL    HW1 7601   3.513   1.304   1.104
 2234SOL    HW2 7602   3.499   1.424   0.994
 2235SOL     OW 7603   2.669   0.196   2.086
 2235SOL    HW1 7604   2.644   0.285   2.125
 2235SOL    HW2 7605   2.733   0.209   2.010
 2236SOL     OW 7606   2.065   3.988   5.817
 2236SOL    HW1 7607   1.977   3.942   5.821
 2236SOL    HW2 7608   2.051   4.086   5.800
 2237SOL     OW 7609   5.276   4.797   3.931
 2237SOL    HW1 7610   5.363   4.750   3.914
 2237SOL    HW2 7611   5.272   4.825   4.027
 2238SOL     OW 7612   4.593   5.623   1.818
 2238SOL    HW1 7613   4.500   5.640   1.788
 2238SOL    HW2 7614   4.594   5.608   1.917
 2239SOL     OW 7615   3.808   5.591   4.192
 2239SOL    HW1 7616   3.738   5.621   4.128
 2239SOL    HW2 7617   3.784   5.500   4.227
 2240SOL     OW 7618   3.588   5.213   2.559
 2240SOL    HW1 7619   3.597   5.140   2.491
 2240SOL    HW2 7620   3.663   5.206   2.626
 2241SOL     OW 7621   6.937   5.987   2.902
 2241SOL    HW1 7622   6.963   5.967   2.808
 2241SOL    HW2 7623   6.883   6.071   2.904
 2242SOL     OW 7624   5.197   2.901   2.473
 2242SOL    HW1 7625   5.225   2.982   2.525
 2242SOL    HW2 7626   5.152   2.836   2.534
 2243SOL     OW 7627   1.659   6.943   6.145
 2243SOL    HW1 7628   1.572   6.987   6.124
 2243SOL    HW2 7629   1.647   6.844   6.147
 2244SOL     OW 7630   2.919   6.621   0.682
 2244SOL    HW1 7631   2.862   6.682   0.738
 2244SOL    HW2 7632   3.003   6.600   0.731
 2245SOL     OW 7633   0.965   1.342   1.669
 2245SOL    HW1 7634   0.972   1.258   1.723
 2245SOL    HW2 7635   0.986   1.321   1.573
 2246SOL     OW 7636   2.322   1.062   4.274
 2246SOL    HW1 7637   2.345   1.016   4.188
 2246SOL    HW2 7638   2.393   1.129   4.296
 2247SOL     OW 7639   3.685   2.857   3.139
 2247SOL    HW1 7640   3.706   2.781   3.078
 2247SOL    HW2 7641   3.660   2.937   3.086
 2248SOL     OW 7642   6.711   3.883   5.122
 2248SOL    HW1 7643   6.744   3.809   5.179
 2248SOL    HW2 7644   6.725   3.860   5.025
 2249SOL     OW 7645   5.497   0.012   3.116
 2249SOL    HW1 7646   5.518   7.004   3.023
 2249SOL    HW2 7647   5.457   6.959   3.167
 2250SOL     OW 7648   3.369   4.075   4.927
 2250SOL    HW1 7649   3.328   3.986   4.908
 2250SOL    HW2 7650   3.423   4.105   4.849
 2251SOL     OW 7651   5.443   0.160   6.651
 2251SOL    HW1 7652   5.428   0.071   6.694
 2251SOL    HW2 7653   5.530   0.198   6.682
 2252SOL     OW 7654   4.683   1.488   3.209
 2252SOL    HW1 7655   4.637   1.522   3.291
 2252SOL    HW2 7656   4.782   1.482   3.227
 2253SOL     OW 7657   6.980   3.173   0.164
 2253SOL    HW1 7658   7.006   3.245   0.100
 2253SOL    HW2 7659   6.980   3.085   0.117
 2254SOL     OW 7660   3.288   3.211   4.454
 2254SOL    HW1 7661   3.221   3.240   4.522
 2254SOL    HW2 7662   3.379   3.206   4.495
 2255SOL     OW 7663   4.031   2.957   6.267
 2255SOL    HW1 7664   3.988   2.927   6.182
 2255SOL    HW2 7665   3.964   2.957   6.341
 2256SOL     OW 7666   4.969   6.288   1.909
 2256SOL    HW1 7667   5.058   6.327   1.935
 2256SOL    HW2 7668   4.984   6.211   1.847
 2257SOL     OW 7669   0.902   2.122   4.849
 2257SOL    HW1 7670   0.828   2.055   4.856
 2257SOL    HW2 7671   0.921   2.142   4.753
 2258SOL     OW 7672   1.731   5.357   4.379
 2258SOL    HW1 7673   1.711   5.364   4.281
 2258SOL    HW2 7674   1.649   5.381   4.431
 2259SOL     OW 7675   5.378   2.473   5.541
 2259SOL    HW1 7676   5.408   2.391   5.590
 2259SOL    HW2 7677   5.293   2.507   5.580
 2260SOL     OW 7678   6.995   4.568   1.329
 2260SOL    HW1 7679   6.946   4.509   1.265
 2260SOL    HW2 7680   0.049   4.518   1.369
 2261SOL     OW 7681   6.098   5.032   0.373
 2261SOL    HW1 7682   6.076   5.070   0.284
 2261SOL    HW2 7683   6.131   5.105   0.433
 2262SOL     OW 7684   6.098   0.157   3.463
 2262SOL    HW1 7685   6.130   0.124   3.552
 2262SOL    HW2 7686   6.171   0.209   3.419
 2263SOL     OW 7687   3.255   5.652   0.433
 2263SOL    HW1 7688   3.262   5.751   0.451
 2263SOL    HW2 7689   3.164   5.632   0.396
 2264SOL     OW 7690   2.838   5.106   6.553
 2264SOL    HW1 7691   2.745   5.141   6.568
 2264SOL    HW2 7692   2.894   5.124   6.633
 2265SOL     OW 7693   2.543   0.701   4.002
 2265SOL    HW1 7694   2.484   0.781   4.017
 2265SOL    HW2 7695   2.579   0.670   4.090
 2266SOL     OW 7696   5.385   1.392   0.462
 2266SOL    HW1 7697   5.461   1.456   0.456
 2266SOL    HW2 7698   5.306   1.429   0.412
 2267SOL     OW 7699   5.024   3.147   4.911
 2267SOL    HW1 7700   5.057   3.212   4.843
 2267SOL    HW2 7701   5.071   3.059   4.899
 2268SOL     OW 7702   5.584   3.951   6.475
 2268SOL    HW1 7703   5.682   3.965   6.486
 2268SOL    HW2 7704   5.568   3.869   6.420
 2269SOL     OW 7705   0.020   4.472   5.651
 2269SOL    HW1 7706   0.037   4.486   5.553
 2269SOL    HW2 7707   0.100   4.428   5.692
 2270SOL     OW 7708   3.775   2.431   5.848
 2270SOL    HW1 7709   3.776   2.335   5.876
 2270SOL    HW2 7710   3.868   2.467   5.850
 2271SOL     OW 7711   5.696   4.648   0.265
 2271SOL    HW1 7712   5.783   4.600   0.270
 2271SOL    HW2 7713   5.664   4.649   0.170
 2272SOL     OW 7714   5.887   1.944   0.043
 2272SOL    HW1 7715   5.940   1.864   0.072
 2272SOL    HW2 7716   5.848   1.927   6.975
 2273SOL     OW 7717   1.753   1.415   1.691
 2273SOL    HW1 7718   1.783   1.473   1.766
 2273SOL    HW2 7719   1.831   1.392   1.633
 2274SOL     OW 7720   0.997   1.939   6.296
 2274SOL    HW1 7721   0.978   1.852   6.341
 2274SOL    HW2 7722   1.095   1.960   6.302
 2275SOL     OW 7723   6.272   6.462   4.212
 2275SOL    HW1 7724   6.345   6.414   4.164
 2275SOL    HW2 7725   6.231   6.401   4.280
 2276SOL     OW 7726   2.302   5.484   1.898
 2276SOL    HW1 7727   2.322   5.582   1.895
 2276SOL    HW2 7728   2.384   5.433   1.922
 2277SOL     OW 7729   3.609   4.163   3.914
 2277SOL    HW1 7730   3.624   4.081   3.858
 2277SOL    HW2 7731   3.696   4.212   3.926
 2278SOL     OW 7732   6.190   3.769   4.460
 2278SOL    HW1 7733   6.158   3.683   4.500
 2278SOL    HW2 7734   6.131   3.793   4.382
 2279SOL     OW 7735   5.923   6.819   5.801
 2279SOL    HW1 7736   5.890   6.734   5.842
 2279SOL    HW2 7737   6.019   6.832   5.823
 2280SOL     OW 7738   6.935   0.579   4.719
 2280SOL    HW1 7739   6.985   0.649   4.669
 2280SOL    HW2 7740   6.937   0.493   4.668
 2281SOL     OW 7741   3.316   0.804   1.951
 2281SOL    HW1 7742   3.373   0.884   1.931
 2281SOL    HW2 7743   3.228   0.835   1.987
 2282SOL     OW 7744   5.600   7.008   5.427
 2282SOL    HW1 7745   5.677   6.980   5.484
 2282SOL    HW2 7746   5.631   0.052   5.360
 2283SOL     OW 7747   1.425   6.477   2.064
 2283SOL    HW1 7748   1.394   6.521   2.149
 2283SOL    HW2 7749   1.451   6.547   1.998
 2284SOL     OW 7750   1.486   3.152   6.971
 2284SOL    HW1 7751   1.424   3.176   0.022
 2284SOL    HW2 7752   1.580   3.151   7.005
 2285SOL     OW 7753   1.822   2.611   1.330
 2285SOL    HW1 7754   1.903   2.631   1.386
 2285SOL    HW2 7755   1.794   2.516   1.345
 2286SOL     OW 7756   5.646   6.818   3.634
 2286SOL    HW1 7757   5.675   6.889   3.570
 2286SOL    HW2 7758   5.575   6.854   3.695
 2287SOL     OW 7759   2.398   0.134   3.660
 2287SOL    HW1 7760   2.309   0.127   3.704
 2287SOL    HW2 7761   2.467   0.164   3.726
 2288SOL     OW 7762   5.763   4.669   3.681
 2288SOL    HW1 7763   5.736   4.702   3.591
 2288SOL    HW2 7764   5.810   4.741   3.731
 2289SOL     OW 7765   0.584   5.019   0.675
 2289SOL    HW1 7766   0.595   4.942   0.738
 2289SOL    HW2 7767   0.502   5.005   0.620
 2290SOL     OW 7768   0.094   3.401   0.853
 2290SOL    HW1 7769   0.166   3.365   0.794
 2290SOL    HW2 7770   0.118   3.387   0.949
 2291SOL     OW 7771   1.797   2.255   5.173
 2291SOL    HW1 7772   1.730   2.302   5.230
 2291SOL    HW2 7773   1.812   2.163   5.209
 2292SOL     OW 7774   0.906   1.838   4.551
 2292SOL    HW1 7775   0.924   1.872   4.458
 2292SOL    HW2 7776   0.992   1.808   4.592
 2293SOL     OW 7777   5.183   6.288   1.204
 2293SOL    HW1 7778   5.109   6.221   1.199
 2293SOL    HW2 7779   5.165   6.353   1.278
 2294SOL     OW 7780   3.255   0.210   6.844
 2294SOL    HW1 7781   3.211   0.121   6.856
 2294SOL    HW2 7782   3.186   0.281   6.830
 2295SOL     OW 7783   0.755   1.651   2.961
 2295SOL    HW1 7784   0.798   1.606   2.883
 2295SOL    HW2 7785   0.727   1.583   3.028
 2296SOL     OW 7786   4.408   5.094   0.545
 2296SOL    HW1 7787   4.422   5.190   0.571
 2296SOL    HW2 7788   4.335   5.088   0.477
 2297SOL     OW 7789   4.277   3.811   5.380
 2297SOL    HW1 7790   4.370   3.800   5.346
 2297SOL    HW2 7791   4.268   3.899   5.427
 2298SOL     OW 7792   4.153   3.113   1.782
 2298SOL    HW1 7793   4.102   3.095   1.698
 2298SOL    HW2 7794   4.250   3.126   1.760
 2299SOL     OW 7795   4.833   6.310   5.501
 2299SOL    HW1 7796   4.870   6.360   5.422
 2299SOL    HW2 7797   4.739   6.282   5.481
 2300SOL     OW 7798   2.569   5.238   2.534
 2300SOL    HW1 7799   2.651   5.208   2.584
 2300SOL    HW2 7800   2.528   5.159   2.487
 2301SOL     OW 7801   3.153   3.091   2.799
 2301SOL    HW1 7802   3.191   3.167   2.745
 2301SOL    HW2 7803   3.087   3.127   2.865
 2302SOL     OW 7804   3.732   0.260   0.667
 2302SOL    HW1 7805   3.740   0.162   0.648
 2302SOL    HW2 7806   3.820   0.304   0.653
 2303SOL     OW 7807   2.009   3.114   6.348
 2303SOL    HW1 7808   2.015   3.038   6.283
 2303SOL    HW2 7809   2.022   3.200   6.299
 2304SOL     OW 7810   4.089   6.994   3.908
 2304SOL    HW1 7811   4.170   6.999   3.850
 2304SOL    HW2 7812   4.037   0.056   3.901
 2305SOL     OW 7813   2.457   6.659   2.845
 2305SOL    HW1 7814   2.493   6.610   2.925
 2305SOL    HW2 7815   2.358   6.669   2.855
 2306SOL     OW 7816   2.839   5.047   2.179
 2306SOL    HW1 7817   2.840   4.948   2.163
 2306SOL    HW2 7818   2.926   5.086   2.150
 2307SOL     OW 7819   0.363   4.138   2.336
 2307SOL    HW1 7820   0.442   4.137   2.275
 2307SOL    HW2 7821   0.394   4.119   2.430
 2308SOL     OW 7822   1.475   6.579   0.259
 2308SOL    HW1 7823   1.546   6.611   0.196
 2308SOL    HW2 7824   1.507   6.498   0.307
 2309SOL     OW 7825   2.680   6.386   6.688
 2309SOL    HW1 7826   2.582   6.376   6.669
 2309SOL    HW2 7827   2.694   6.453   6.760
 2310SOL     OW 7828   5.899   6.504   1.078
 2310SOL    HW1 7829   5.867   6.585   1.028
 2310SOL    HW2 7830   5.831   6.431   1.071
 2311SOL     OW 7831   2.360   5.752   2.239
 2311SOL    HW1 7832   2.331   5.721   2.148
 2311SOL    HW2 7833   2.289   5.731   2.306
 2312SOL     OW 7834   3.415   6.462   4.093
 2312SOL    HW1 7835   3.460   6.471   4.182
 2312SOL    HW2 7836   3.316   6.472   4.104
 2313SOL     OW 7837   5.230   5.632   1.485
 2313SOL    HW1 7838   5.146   5.674   1.521
 2313SOL    HW2 7839   5.207   5.544   1.444
 2314SOL     OW 7840   5.675   0.588   5.093
 2314SOL    HW1 7841   5.603   0.604   5.027
 2314SOL    HW2 7842   5.714   0.497   5.078
 2315SOL     OW 7843   5.029   3.490   5.282
 2315SOL    HW1 7844   4.955   3.554   5.264
 2315SOL    HW2 7845   5.087   3.525   5.355
 2316SOL     OW 7846   3.199   0.720   4.411
 2316SOL    HW1 7847   3.160   0.628   4.414
 2316SOL    HW2 7848   3.298   0.715   4.425
 2317SOL     OW 7849   6.551   6.018   3.113
 2317SOL    HW1 7850   6.504   6.097   3.073
 2317SOL    HW2 7851   6.567   6.035   3.211
 2318SOL     OW 7852   1.989   3.099   4.082
 2318SOL    HW1 7853   2.026   3.007   4.092
 2318SOL    HW2 7854   1.976   3.140   4.173
 2319SOL     OW 7855   2.981   5.618   4.608
 2319SOL    HW1 7856   3.055   5.557   4.580
 2319SOL    HW2 7857   2.975   5.694   4.543
 2320SOL     OW 7858   0.639   3.212   4.327
 2320SOL    HW1 7859   0.611   3.306   4.348
 2320SOL    HW2 7860   0.736   3.201   4.345
 2321SOL     OW 7861   2.010   5.581   6.862
 2321SOL    HW1 7862   2.012   5.536   6.951
 2321SOL    HW2 7863   1.924   5.561   6.817
 2322SOL     OW 7864   1.721   4.235   3.171
 2322SOL    HW1 7865   1.817   4.244   3.145
 2322SOL    HW2 7866   1.684   4.325   3.195
 2323SOL     OW 7867   3.368   4.677   1.667
 2323SOL    HW1 7868   3.446   4.646   1.720
 2323SOL    HW2 7869   3.320   4.750   1.716
 2324SOL     OW 7870   6.809   6.094   0.557
 2324SOL    HW1 7871   6.763   6.181   0.538
 2324SOL    HW2 7872   6.744   6.019   0.546
 2325SOL     OW 7873   1.086   4.324   1.144
 2325SOL    HW1 7874   1.048   4.406   1.100
 2325SOL    HW2 7875   1.086   4.337   1.243
 2326SOL     OW 7876   3.394   5.798   6.679
 2326SOL    HW1 7877   3.368   5.894   6.683
 2326SOL    HW2 7878   3.346   5.753   6.604
 2327SOL     OW 7879   6.476   1.470   4.105
 2327SOL    HW1 7880   6.402   1.403   4.104
 2327SOL    HW2 7881   6.549   1.440   4.044
 2328SOL     OW 7882   1.476   1.856   3.083
 2328SOL    HW1 7883   1.429   1.830   2.998
 2328SOL    HW2 7884   1.478   1.955   3.091
 2329SOL     OW 7885   1.650   4.515   4.628
 2329SOL    HW1 7886   1.604   4.549   4.710
 2329SOL    HW2 7887   1.667   4.417   4.637
 2330SOL     OW 7888   0.124   3.564   1.405
 2330SOL    HW1 7889   0.045   3.593   1.460
 2330SOL    HW2 7890   0.141   3.631   1.333
 2331SOL     OW 7891   4.214   5.749   6.693
 2331SOL    HW1 7892   4.133   5.752   6.750
 2331SOL    HW2 7893   4.258   5.660   6.701
 2332SOL     OW 7894   5.507   1.415   5.758
 2332SOL    HW1 7895   5.421   1.394   5.804
 2332SOL    HW2 7896   5.521   1.514   5.757
 2333SOL     OW 7897   0.260   4.468   2.728
 2333SOL    HW1 7898   0.222   4.560   2.719
 2333SOL    HW2 7899   0.220   4.408   2.659
 2334SOL     OW 7900   2.276   0.503   6.958
 2334SOL    HW1 7901   2.342   0.543   7.022
 2334SOL    HW2 7902   2.197   0.470   7.009
 2335SOL     OW 7903   6.617   1.095   3.672
 2335SOL    HW1 7904   6.525   1.132   3.686
 2335SOL    HW2 7905   6.647   1.049   3.756
 2336SOL     OW 7906   4.270   2.244   4.700
 2336SOL    HW1 7907   4.259   2.232   4.798
 2336SOL    HW2 7908   4.364   2.220   4.674
 2337SOL     OW 7909   4.423   0.923   1.748
 2337SOL    HW1 7910   4.475   1.008   1.749
 2337SOL    HW2 7911   4.472   0.854   1.695
 2338SOL     OW 7912   1.156   2.997   5.352
 2338SOL    HW1 7913   1.168   3.003   5.451
 2338SOL    HW2 7914   1.160   2.902   5.323
 2339SOL     OW 7915   3.133   3.208   3.920
 2339SOL    HW1 7916   3.093   3.220   4.011
 2339SOL    HW2 7917   3.151   3.297   3.879
 2340SOL     OW 7918   6.229   4.503   6.919
 2340SOL    HW1 7919   6.204   4.542   7.008
 2340SOL    HW2 7920   6.153   4.514   6.856
 2341SOL     OW 7921   3.742   4.952   2.020
 2341SOL    HW1 7922   3.779   4.883   2.082
 2341SOL    HW2 7923   3.655   4.920   1.982
 2342SOL     OW 7924   0.577   6.735   5.246
 2342SOL    HW1 7925   0.550   6.829   5.225
 2342SOL    HW2 7926   0.580   6.722   5.345
 2343SOL     OW 7927   1.767   5.827   3.431
 2343SOL    HW1 7928   1.856   5.791   3.405
 2343SOL    HW2 7929   1.778   5.900   3.498
 2344SOL     OW 7930   1.648   5.833   6.982
 2344SOL    HW1 7931   1.665   5.927   6.951
 2344SOL    HW2 7932   1.663   5.770   6.907
 2345SOL     OW 7933   3.398   5.541   4.794
 2345SOL    HW1 7934   3.362   5.585   4.876
 2345SOL    HW2 7935   3.395   5.441   4.805
 2346SOL     OW 7936   4.035   3.168   5.183
 2346SOL    HW1 7937   3.987   3.080   5.177
 2346SOL    HW2 7938   4.020   3.220   5.099
 2347SOL     OW 7939   2.887   2.845   1.442
 2347SOL    HW1 7940   2.971   2.830   1.389
 2347SOL    HW2 7941   2.841   2.757   1.456
 2348SOL     OW 7942   2.507   0.111   3.408
 2348SOL    HW1 7943   2.463   0.112   3.498
 2348SOL    HW2 7944   2.449   0.160   3.343
 2349SOL     OW 7945   1.064   4.479   6.560
 2349SOL    HW1 7946   1.111   4.567   6.559
 2349SOL    HW2 7947   1.118   4.413   6.613
 2350SOL     OW 7948   5.275   0.177   6.385
 2350SOL    HW1 7949   5.260   0.170   6.483
 2350SOL    HW2 7950   5.368   0.150   6.363
 2351SOL     OW 7951   3.130   4.994   3.942
 2351SOL    HW1 7952   3.057   4.971   3.878
 2351SOL    HW2 7953   3.093   5.047   4.019
 2352SOL     OW 7954   0.574   4.368   2.270
 2352SOL    HW1 7955   0.644   4.434   2.242
 2352SOL    HW2 7956   0.595   4.279   2.231
 2353SOL     OW 7957   3.160   4.866   5.758
 2353SOL    HW1 7958   3.080   4.843   5.813
 2353SOL    HW2 7959   3.237   4.809   5.786
 2354SOL     OW 7960   3.332   1.234   5.665
 2354SOL    HW1 7961   3.371   1.325   5.677
 2354SOL    HW2 7962   3.232   1.240   5.661
 2355SOL     OW 7963   2.362   5.974   0.237
 2355SOL    HW1 7964   2.423   6.046   0.268
 2355SOL    HW2 7965   2.370   5.964   0.137
 2356SOL     OW 7966   1.505   3.156   6.381
 2356SOL    HW1 7967   1.571   3.203   6.322
 2356SOL    HW2 7968   1.554   3.098   6.446
 2357SOL     OW 7969   4.046   6.887   2.755
 2357SOL    HW1 7970   4.132   6.929   2.726
 2357SOL    HW2 7971   3.972   6.914   2.693
 2358SOL     OW 7972   4.032   5.003   4.800
 2358SOL    HW1 7973   4.048   4.964   4.890
 2358SOL    HW2 7974   4.071   5.095   4.796
 2359SOL     OW 7975   6.239   0.828   5.793
 2359SOL    HW1 7976   6.201   0.738   5.813
 2359SOL    HW2 7977   6.252   0.837   5.694
 2360SOL     OW 7978   5.232   4.534   6.828
 2360SOL    HW1 7979   5.202   4.491   6.743
 2360SOL    HW2 7980   5.285   4.469   6.882
 2361SOL     OW 7981   2.256   1.249   5.310
 2361SOL    HW1 7982   2.302   1.318   5.255
 2361SOL    HW2 7983   2.256   1.162   5.261
 2362SOL     OW 7984   2.068   6.943   4.892
 2362SOL    HW1 7985   2.159   6.962   4.856
 2362SOL    HW2 7986   2.001   7.004   4.848
 2363SOL     OW 7987   4.506   2.368   5.259
 2363SOL    HW1 7988   4.507   2.410   5.168
 2363SOL    HW2 7989   4.537   2.274   5.253
 2364SOL     OW 7990   1.334   1.841   2.858
 2364SOL    HW1 7991   1.242   1.817   2.891
 2364SOL    HW2 7992   1.334   1.936   2.827
 2365SOL     OW 7993   6.462   2.679   6.416
 2365SOL    HW1 7994   6.400   2.631   6.353
 2365SOL    HW2 7995   6.556   2.661   6.390
 2366SOL     OW 7996   2.032   5.869   6.578
 2366SOL    HW1 7997   2.013   5.943   6.513
 2366SOL    HW2 7998   2.111   5.816   6.546
 2367SOL     OW 7999   2.606   4.561   0.459
 2367SOL    HW1 8000   2.535   4.527   0.521
 2367SOL    HW2 8001   2.629   4.490   0.392
 2368SOL     OW 8002   4.273   0.241   3.395
 2368SOL    HW1 8003   4.314   0.230   3.304
 2368SOL    HW2 8004   4.267   0.152   3.440
 2369SOL     OW 8005   1.010   2.215   5.730
 2369SOL    HW1 8006   0.912   2.196   5.734
 2369SOL    HW2 8007   1.029   2.305   5.770
 2370SOL     OW 8008   4.932   3.705   0.024
 2370SOL    HW1 8009   4.935   3.794   7.002
 2370SOL    HW2 8010   4.985   3.639   6.993
 2371SOL     OW 8011   0.776   0.036   2.555
 2371SOL    HW1 8012   0.785   6.990   2.628
 2371SOL    HW2 8013   0.865   0.078   2.537
 2372SOL     OW 8014   0.034   2.546   2.273
 2372SOL    HW1 8015   6.957   2.538   2.267
 2372SOL    HW2 8016   0.069   2.594   2.192
 2373SOL     OW 8017   0.563   1.892   0.203
 2373SOL    HW1 8018   0.553   1.815   0.266
 2373SOL    HW2 8019   0.529   1.975   0.248
 2374SOL     OW 8020   6.079   0.858   3.379
 2374SOL    HW1 8021   6.090   0.766   3.418
 2374SOL    HW2 8022   5.999   0.860   3.319
 2375SOL     OW 8023   2.791   6.743   4.622
 2375SOL    HW1 8024   2.730   6.812   4.660
 2375SOL    HW2 8025   2.763   6.653   4.654
 2376SOL     OW 8026   6.425   2.779   4.393
 2376SOL    HW1 8027   6.407   2.839   4.315
 2376SOL    HW2 8028   6.360   2.703   4.393
 2377SOL     OW 8029   3.154   4.054   3.198
 2377SOL    HW1 8030   3.112   4.134   3.155
 2377SOL    HW2 8031   3.100   4.025   3.276
 2378SOL     OW 8032   4.728   1.842   0.415
 2378SOL    HW1 8033   4.672   1.801   0.344
 2378SOL    HW2 8034   4.801   1.778   0.441
 2379SOL     OW 8035   5.808   2.162   6.487
 2379SOL    HW1 8036   5.795   2.096   6.561
 2379SOL    HW2 8037   5.718   2.189   6.451
 2380SOL     OW 8038   0.657   0.686   6.532
 2380SOL    HW1 8039   0.650   0.730   6.622
 2380SOL    HW2 8040   0.732   0.727   6.480
 2381SOL     OW 8041   2.184   3.936   4.450
 2381SOL    HW1 8042   2.130   3.992   4.513
 2381SOL    HW2 8043   2.178   3.840   4.477
 2382SOL     OW 8044   2.417   4.396   3.502
 2382SOL    HW1 8045   2.426   4.301   3.531
 2382SOL    HW2 8046   2.446   4.405   3.407
 2383SOL     OW 8047   5.615   6.679   1.349
 2383SOL    HW1 8048   5.609   6.769   1.393
 2383SOL    HW2 8049   5.607   6.691   1.250
 2384SOL     OW 8050   6.049   0.372   2.814
 2384SOL    HW1 8051   6.029   0.394   2.909
 2384SOL    HW2 8052   6.069   0.274   2.806
 2385SOL     OW 8053   0.957   6.619   1.358
 2385SOL    HW1 8054   1.028   6.644   1.424
 2385SOL    HW2 8055   0.893   6.555   1.401
 2386SOL     OW 8056   5.556   5.099   4.051
 2386SOL    HW1 8057   5.557   5.181   4.108
 2386SOL    HW2 8058   5.537   5.019   4.107
 2387SOL     OW 8059   1.282   1.465   4.053
 2387SOL    HW1 8060   1.240   1.378   4.080
 2387SOL    HW2 8061   1.217   1.517   3.998
 2388SOL     OW 8062   0.823   2.386   3.973
 2388SOL    HW1 8063   0.810   2.457   4.043
 2388SOL    HW2 8064   0.758   2.400   3.898
 2389SOL     OW 8065   4.856   3.866   3.016
 2389SOL    HW1 8066   4.931   3.932   3.024
 2389SOL    HW2 8067   4.769   3.915   3.015
 2390SOL     OW 8068   3.994   3.616   2.659
 2390SOL    HW1 8069   4.069   3.563   2.698
 2390SOL    HW2 8070   3.945   3.561   2.592
 2391SOL     OW 8071   4.758   4.527   5.840
 2391SOL    HW1 8072   4.722   4.478   5.919
 2391SOL    HW2 8073   4.705   4.503   5.758
 2392SOL     OW 8074   3.578   6.716   5.337
 2392SOL    HW1 8075   3.663   6.670   5.365
 2392SOL    HW2 8076   3.503   6.685   5.395
 2393SOL     OW 8077   5.091   3.710   6.126
 2393SOL    HW1 8078   5.062   3.695   6.032
 2393SOL    HW2 8079   5.156   3.640   6.154
 2394SOL     OW 8080   1.585   3.322   4.400
 2394SOL    HW1 8081   1.596   3.416   4.368
 2394SOL    HW2 8082   1.531   3.271   4.334
 2395SOL     OW 8083   5.834   2.469   6.741
 2395SOL    HW1 8084   5.863   2.557   6.704
 2395SOL    HW2 8085   5.900   2.399   6.715
 2396SOL     OW 8086   3.780   5.137   1.845
 2396SOL    HW1 8087   3.756   5.057   1.900
 2396SOL    HW2 8088   3.803   5.109   1.752
 2397SOL     OW 8089   0.081   3.921   6.704
 2397SOL    HW1 8090   0.101   3.829   6.738
 2397SOL    HW2 8091   7.017   3.920   6.654
 2398SOL     OW 8092   2.498   3.528   6.603
 2398SOL    HW1 8093   2.467   3.586   6.527
 2398SOL    HW2 8094   2.598   3.524   6.602
 2399SOL     OW 8095   4.337   1.771   2.182
 2399SOL    HW1 8096   4.398   1.805   2.111
 2399SOL    HW2 8097   4.265   1.715   2.141
 2400SOL     OW 8098   3.218   4.517   0.305
 2400SOL    HW1 8099   3.130   4.501   0.349
 2400SOL    HW2 8100   3.205   4.532   0.207
 2401SOL     OW 8101   3.626   6.181   6.000
 2401SOL    HW1 8102   3.656   6.217   6.088
 2401SOL    HW2 8103   3.705   6.153   5.947
 2402SOL     OW 8104   6.997   1.568   3.863
 2402SOL    HW1 8105   6.970   1.484   3.817
 2402SOL    HW2 8106   0.059   1.603   3.823
 2403SOL     OW 8107   1.871   2.638   0.176
 2403SOL    HW1 8108   1.826   2.708   0.231
 2403SOL    HW2 8109   1.930   2.582   0.234
 2404SOL     OW 8110   3.824   1.045   1.230
 2404SOL    HW1 8111   3.907   1.062   1.177
 2404SOL    HW2 8112   3.768   0.975   1.184
 2405SOL     OW 8113   3.889   3.370   2.751
 2405SOL    HW1 8114   3.975   3.411   2.781
 2405SOL    HW2 8115   3.827   3.361   2.829
 2406SOL     OW 8116   2.777   6.639   2.947
 2406SOL    HW1 8117   2.767   6.706   2.874
 2406SOL    HW2 8118   2.861   6.658   2.999
 2407SOL     OW 8119   4.822   1.920   2.194
 2407SOL    HW1 8120   4.896   1.882   2.138
 2407SOL    HW2 8121   4.831   1.887   2.288
 2408SOL     OW 8122   3.805   5.155   3.276
 2408SOL    HW1 8123   3.801   5.069   3.225
 2408SOL    HW2 8124   3.879   5.151   3.343
 2409SOL     OW 8125   1.243   3.873   2.178
 2409SOL    HW1 8126   1.185   3.920   2.111
 2409SOL    HW2 8127   1.269   3.783   2.142
 2410SOL     OW 8128   4.442   2.452   5.875
 2410SOL    HW1 8129   4.478   2.482   5.787
 2410SOL    HW2 8130   4.457   2.523   5.944
 2411SOL     OW 8131   4.114   5.290   4.850
 2411SOL    HW1 8132   4.052   5.360   4.816
 2411SOL    HW2 8133   4.184   5.332   4.908
 2412SOL     OW 8134   4.326   5.349   1.567
 2412SOL    HW1 8135   4.384   5.411   1.514
 2412SOL    HW2 8136   4.238   5.338   1.519
 2413SOL     OW 8137   6.076   2.001   1.164
 2413SOL    HW1 8138   6.129   2.085   1.173
 2413SOL    HW2 8139   6.014   1.991   1.242
 2414SOL     OW 8140   4.657   4.516   2.460
 2414SOL    HW1 8141   4.751   4.507   2.493
 2414SOL    HW2 8142   4.631   4.433   2.411
 2415SOL     OW 8143   0.183   6.565   2.108
 2415SOL    HW1 8144   0.131   6.538   2.188
 2415SOL    HW2 8145   0.158   6.507   2.030
 2416SOL     OW 8146   4.218   2.258   5.363
 2416SOL    HW1 8147   4.156   2.201   5.310
 2416SOL    HW2 8148   4.272   2.200   5.424
 2417SOL     OW 8149   3.981   3.079   5.727
 2417SOL    HW1 8150   4.056   3.022   5.691
 2417SOL    HW2 8151   3.958   3.149   5.660
 2418SOL     OW 8152   3.088   3.833   4.369
 2418SOL    HW1 8153   3.121   3.924   4.342
 2418SOL    HW2 8154   3.007   3.810   4.315
 2419SOL     OW 8155   0.921   6.501   4.757
 2419SOL    HW1 8156   0.952   6.414   4.796
 2419SOL    HW2 8157   0.997   6.566   4.757
 2420SOL     OW 8158   2.641   1.573   2.113
 2420SOL    HW1 8159   2.715   1.522   2.156
 2420SOL    HW2 8160   2.558   1.565   2.169
 2421SOL     OW 8161   2.717   1.708   5.211
 2421SOL    HW1 8162   2.672   1.783   5.162
 2421SOL    HW2 8163   2.816   1.717   5.203
 2422SOL     OW 8164   5.372   1.106   1.628
 2422SOL    HW1 8165   5.457   1.056   1.641
 2422SOL    HW2 8166   5.294   1.045   1.645
 2423SOL     OW 8167   0.501   6.460   2.991
 2423SOL    HW1 8168   0.517   6.523   3.067
 2423SOL    HW2 8169   0.460   6.509   2.915
 2424SOL     OW 8170   5.960   6.718   6.179
 2424SOL    HW1 8171   6.035   6.778   6.207
 2424SOL    HW2 8172   5.935   6.659   6.255
 2425SOL     OW 8173   5.736   0.204   4.056
 2425SOL    HW1 8174   5.823   0.155   4.056
 2425SOL    HW2 8175   5.680   0.173   3.979
 2426SOL     OW 8176   0.979   5.662   4.994
 2426SOL    HW1 8177   1.015   5.591   4.934
 2426SOL    HW2 8178   0.984   5.750   4.948
 2427SOL     OW 8179   6.117   5.660   5.135
 2427SOL    HW1 8180   6.114   5.616   5.225
 2427SOL    HW2 8181   6.207   5.646   5.094
 2428SOL     OW 8182   6.237   0.105   3.128
 2428SOL    HW1 8183   6.212   0.016   3.167
 2428SOL    HW2 8184   6.259   0.094   3.032
 2429SOL     OW 8185   5.428   5.463   3.395
 2429SOL    HW1 8186   5.392   5.468   3.488
 2429SOL    HW2 8187   5.375   5.398   3.341
 2430SOL     OW 8188   6.106   1.608   1.558
 2430SOL    HW1 8189   6.084   1.592   1.654
 2430SOL    HW2 8190   6.202   1.635   1.550
 2431SOL     OW 8191   4.449   1.000   2.382
 2431SOL    HW1 8192   4.404   0.913   2.361
 2431SOL    HW2 8193   4.483   0.998   2.476
 2432SOL     OW 8194   3.000   6.755   3.103
 2432SOL    HW1 8195   2.977   6.819   3.176
 2432SOL    HW2 8196   3.086   6.783   3.061
 2433SOL     OW 8197   3.536   0.830   1.429
 2433SOL    HW1 8198   3.487   0.778   1.359
 2433SOL    HW2 8199   3.633   0.806   1.427
 2434SOL     OW 8200   4.594   0.610   4.774
 2434SOL    HW1 8201   4.534   0.670   4.721
 2434SOL    HW2 8202   4.689   0.639   4.762
 2435SOL     OW 8203   4.527   4.492   6.654
 2435SOL    HW1 8204   4.528   4.452   6.562
 2435SOL    HW2 8205   4.433   4.501   6.686
 2436SOL     OW 8206   1.557   5.735   1.179
 2436SOL    HW1 8207   1.538   5.766   1.086
 2436SOL    HW2 8208   1.655   5.739   1.197
 2437SOL     OW 8209   5.059   6.594   6.804
 2437SOL    HW1 8210   4.966   6.593   6.840
 2437SOL    HW2 8211   5.106   6.509   6.829
 2438SOL     OW 8212   3.299   1.001   6.638
 2438SOL    HW1 8213   3.256   0.916   6.607
 2438SOL    HW2 8214   3.349   0.984   6.724
 2439SOL     OW 8215   1.099   4.248   6.299
 2439SOL    HW1 8216   1.196   4.268   6.288
 2439SOL    HW2 8217   1.046   4.332   6.293
 2440SOL     OW 8218   4.517   5.991   5.750
 2440SOL    HW1 8219   4.527   6.085   5.716
 2440SOL    HW2 8220   4.597   5.966   5.804
 2441SOL     OW 8221   0.949   0.919   0.676
 2441SOL    HW1 8222   0.854   0.902   0.648
 2441SOL    HW2 8223   0.975   1.012   0.653
 2442SOL     OW 8224   0.354   4.431   5.546
 2442SOL    HW1 8225   0.291   4.437   5.469
 2442SOL    HW2 8226   0.389   4.338   5.553
 2443SOL     OW 8227   4.147   5.203   5.901
 2443SOL    HW1 8228   4.109   5.115   5.872
 2443SOL    HW2 8229   4.242   5.210   5.871
 2444SOL     OW 8230   3.552   4.087   5.962
 2444SOL    HW1 8231   3.649   4.084   5.987
 2444SOL    HW2 8232   3.496   4.067   6.042
 2445SOL     OW 8233   0.347   0.643   1.714
 2445SOL    HW1 8234   0.356   0.731   1.760
 2445SOL    HW2 8235   0.256   0.605   1.733
 2446SOL     OW 8236   6.628   5.140   4.056
 2446SOL    HW1 8237   6.707   5.122   3.998
 2446SOL    HW2 8238   6.657   5.191   4.137
 2447SOL     OW 8239   2.194   2.816   0.926
 2447SOL    HW1 8240   2.161   2.817   1.021
 2447SOL    HW2 8241   2.228   2.906   0.902
 2448SOL     OW 8242   0.581   0.615   4.137
 2448SOL    HW1 8243   0.488   0.591   4.162
 2448SOL    HW2 8244   0.602   0.707   4.169
 2449SOL     OW 8245   0.126   4.782   0.659
 2449SOL    HW1 8246   0.107   4.736   0.746
 2449SOL    HW2 8247   0.158   4.715   0.592
 2450SOL     OW 8248   2.856   4.839   3.332
 2450SOL    HW1 8249   2.931   4.816   3.395
 2450SOL    HW2 8250   2.840   4.937   3.335
 2451SOL     OW 8251   0.932   0.631   3.214
 2451SOL    HW1 8252   0.922   0.534   3.237
 2451SOL    HW2 8253   0.979   0.679   3.288
 2452SOL     OW 8254   1.790   3.759   2.948
 2452SOL    HW1 8255   1.785   3.823   3.024
 2452SOL    HW2 8256   1.844   3.800   2.874
 2453SOL     OW 8257   6.387   4.502   1.224
 2453SOL    HW1 8258   6.397   4.565   1.301
 2453SOL    HW2 8259   6.345   4.417   1.256
 2454SOL     OW 8260   2.930   0.411   1.213
 2454SOL    HW1 8261   2.951   0.364   1.299
 2454SOL    HW2 8262   2.962   0.506   1.219
 2455SOL     OW 8263   5.697   6.024   0.413
 2455SOL    HW1 8264   5.607   6.003   0.374
 2455SOL    HW2 8265   5.750   5.940   0.422
 2456SOL     OW 8266   4.958   6.679   1.791
 2456SOL    HW1 8267   5.046   6.727   1.787
 2456SOL    HW2 8268   4.919   6.689   1.882
 2457SOL     OW 8269   6.282   6.248   0.542
 2457SOL    HW1 8270   6.224   6.300   0.605
 2457SOL    HW2 8271   6.359   6.305   0.512
 2458SOL     OW 8272   1.935   5.544   3.070
 2458SOL    HW1 8273   1.952   5.606   3.147
 2458SOL    HW2 8274   1.870   5.587   3.007
 2459SOL     OW 8275   2.564   6.614   0.537
 2459SOL    HW1 8276   2.630   6.648   0.604
 2459SOL    HW2 8277   2.516   6.535   0.575
 2460SOL     OW 8278   1.852   0.750   1.055
 2460SOL    HW1 8279   1.924   0.742   1.124
 2460SOL    HW2 8280   1.770   0.703   1.087
 2461SOL     OW 8281   5.603   1.001   3.016
 2461SOL    HW1 8282   5.678   1.040   2.962
 2461SOL    HW2 8283   5.561   0.926   2.965
 2462SOL     OW 8284   2.827   5.378   0.328
 2462SOL    HW1 8285   2.795   5.284   0.319
 2462SOL    HW2 8286   2.751   5.436   0.357
 2463SOL     OW 8287   5.618   2.875   4.113
 2463SOL    HW1 8288   5.594   2.783   4.144
 2463SOL    HW2 8289   5.706   2.873   4.067
 2464SOL     OW 8290   0.736   4.841   1.329
 2464SOL    HW1 8291   0.788   4.924   1.307
 2464SOL    HW2 8292   0.652   4.840   1.275
 2465SOL     OW 8293   0.264   5.312   1.188
 2465SOL    HW1 8294   0.171   5.342   1.170
 2465SOL    HW2 8295   0.279   5.306   1.287
 2466SOL     OW 8296   3.240   1.039   2.514
 2466SOL    HW1 8297   3.219   0.973   2.586
 2466SOL    HW2 8298   3.255   1.129   2.554
 2467SOL     OW 8299   5.831   1.095   5.708
 2467SOL    HW1 8300   5.842   1.005   5.749
 2467SOL    HW2 8301   5.742   1.132   5.733
 2468SOL     OW 8302   6.743   6.073   2.002
 2468SOL    HW1 8303   6.780   6.165   2.013
 2468SOL    HW2 8304   6.806   6.017   1.949
 2469SOL     OW 8305   3.410   4.232   5.801
 2469SOL    HW1 8306   3.439   4.190   5.715
 2469SOL    HW2 8307   3.458   4.190   5.877
 2470SOL     OW 8308   2.769   3.918   5.950
 2470SOL    HW1 8309   2.739   3.972   6.029
 2470SOL    HW2 8310   2.693   3.908   5.886
 2471SOL     OW 8311   1.159   6.824   1.088
 2471SOL    HW1 8312   1.100   6.874   1.152
 2471SOL    HW2 8313   1.252   6.822   1.124
 2472SOL     OW 8314   5.383   1.508   4.670
 2472SOL    HW1 8315   5.443   1.561   4.730
 2472SOL    HW2 8316   5.438   1.446   4.613
 2473SOL     OW 8317   2.086   4.873   5.055
 2473SOL    HW1 8318   2.124   4.892   4.965
 2473SOL    HW2 8319   2.132   4.930   5.124
 2474SOL     OW 8320   7.016   4.735   6.893
 2474SOL    HW1 8321   6.962   4.777   6.967
 2474SOL    HW2 8322   6.956   4.716   6.815
 2475SOL     OW 8323   4.063   2.504   0.982
 2475SOL    HW1 8324   4.042   2.599   0.958
 2475SOL    HW2 8325   3.978   2.454   1.000
 2476SOL     OW 8326   1.110   2.502   3.588
 2476SOL    HW1 8327   1.121   2.584   3.644
 2476SOL    HW2 8328   1.026   2.454   3.615
 2477SOL     OW 8329   6.584   6.164   1.657
 2477SOL    HW1 8330   6.680   6.188   1.670
 2477SOL    HW2 8331   6.572   6.065   1.665
 2478SOL     OW 8332   5.420   6.443   2.571
 2478SOL    HW1 8333   5.360   6.380   2.521
 2478SOL    HW2 8334   5.495   6.472   2.511
 2479SOL     OW 8335   0.150   3.755   1.195
 2479SOL    HW1 8336   0.126   3.847   1.226
 2479SOL    HW2 8337   0.248   3.750   1.179
 2480SOL     OW 8338   6.953   2.619   1.403
 2480SOL    HW1 8339   7.014   2.682   1.355
 2480SOL    HW2 8340   6.895   2.671   1.466
 2481SOL     OW 8341   3.552   5.976   0.329
 2481SOL    HW1 8342   3.558   6.061   0.381
 2481SOL    HW2 8343   3.639   5.928   0.333
 2482SOL     OW 8344   4.576   3.426   5.793
 2482SOL    HW1 8345   4.491   3.378   5.769
 2482SOL    HW2 8346   4.568   3.465   5.884
 2483SOL     OW 8347   1.979   0.932   0.592
 2483SOL    HW1 8348   1.962   0.851   0.648
 2483SOL    HW2 8349   1.911   1.002   0.614
 2484SOL     OW 8350   2.267   0.655   0.682
 2484SOL    HW1 8351   2.178   0.702   0.681
 2484SOL    HW2 8352   2.326   0.697   0.751
 2485SOL     OW 8353   5.823   5.006   2.113
 2485SOL    HW1 8354   5.759   5.038   2.044
 2485SOL    HW2 8355   5.851   4.912   2.093
 2486SOL     OW 8356   1.480   5.667   3.712
 2486SOL    HW1 8357   1.433   5.640   3.796
 2486SOL    HW2 8358   1.551   5.734   3.733
 2487SOL     OW 8359   4.453   6.410   6.829
 2487SOL    HW1 8360   4.385   6.462   6.880
 2487SOL    HW2 8361   4.524   6.378   6.891
 2488SOL     OW 8362   2.702   4.131   1.703
 2488SOL    HW1 8363   2.620   4.187   1.692
 2488SOL    HW2 8364   2.695   4.050   1.645
 2489SOL     OW 8365   2.485   5.677   4.611
 2489SOL    HW1 8366   2.479   5.660   4.710
 2489SOL    HW2 8367   2.394   5.671   4.571
 2490SOL     OW 8368   6.906   4.965   0.862
 2490SOL    HW1 8369   6.810   4.941   0.873
 2490SOL    HW2 8370   6.918   5.014   0.775
 2491SOL     OW 8371   2.731   5.988   2.975
 2491SOL    HW1 8372   2.782   5.993   3.060
 2491SOL    HW2 8373   2.772   5.919   2.915
 2492SOL     OW 8374   4.908   3.274   6.387
 2492SOL    HW1 8375   4.874   3.185   6.358
 2492SOL    HW2 8376   4.840   3.344   6.367
 2493SOL     OW 8377   5.522   0.570   2.803
 2493SOL    HW1 8378   5.609   0.610   2.829
 2493SOL    HW2 8379   5.475   0.535   2.884
 2494SOL     OW 8380   4.826   3.003   2.832
 2494SOL    HW1 8381   4.791   2.911   2.852
 2494SOL    HW2 8382   4.803   3.064   2.908
 2495SOL     OW 8383   4.822   1.281   5.006
 2495SOL    HW1 8384   4.884   1.202   5.004
 2495SOL    HW2 8385   4.851   1.348   4.937
 2496SOL     OW 8386   1.199   5.326   0.330
 2496SOL    HW1 8387   1.143   5.244   0.334
 2496SOL    HW2 8388   1.288   5.304   0.291
 2497SOL     OW 8389   6.866   1.517   0.508
 2497SOL    HW1 8390   6.872   1.610   0.543
 2497SOL    HW2 8391   6.896   1.515   0.413
 2498SOL     OW 8392   1.836   3.385   3.294
 2498SOL    HW1 8393   1.856   3.408   3.389
 2498SOL    HW2 8394   1.786   3.460   3.252
 2499SOL     OW 8395   5.665   0.898   4.921
 2499SOL    HW1 8396   5.697   0.813   4.880
 2499SOL    HW2 8397   5.579   0.881   4.970
 2500SOL     OW 8398   4.710   3.544   6.033
 2500SOL    HW1 8399   4.716   3.528   6.132
 2500SOL    HW2 8400   4.736   3.460   5.985
 2501SOL     OW 8401   5.506   3.835   6.711
 2501SOL    HW1 8402   5.568   3.787   6.773
 2501SOL    HW2 8403   5.557   3.874   6.635
 2502SOL     OW 8404   2.271   6.599   3.456
 2502SOL    HW1 8405   2.347   6.664   3.465
 2502SOL    HW2 8406   2.260   6.575   3.360
 2503SOL     OW 8407   4.072   5.560   5.417
 2503SOL    HW1 8408   4.024   5.646   5.434
 2503SOL    HW2 8409   4.012   5.483   5.441
 2504SOL     OW 8410   2.485   4.890   4.673
 2504SOL    HW1 8411   2.505   4.986   4.651
 2504SOL    HW2 8412   2.559   4.853   4.729
 2505SOL     OW 8413   3.651   5.681   4.763
 2505SOL    HW1 8414   3.568   5.625   4.756
 2505SOL    HW2 8415   3.704   5.673   4.679
 2506SOL     OW 8416   6.594   3.092   6.023
 2506SOL    HW1 8417   6.585   3.190   6.042
 2506SOL    HW2 8418   6.516   3.061   5.969
 2507SOL     OW 8419   6.511   5.423   0.234
 2507SOL    HW1 8420   6.442   5.353   0.252
 2507SOL    HW2 8421   6.532   5.472   0.319
 2508SOL     OW 8422   3.116   2.162   1.882
 2508SOL    HW1 8423   3.104   2.116   1.794
 2508SOL    HW2 8424   3.032   2.212   1.905
 2509SOL     OW 8425   5.895   2.082   2.396
 2509SOL    HW1 8426   5.830   2.037   2.457
 2509SOL    HW2 8427   5.853   2.098   2.307
 2510SOL     OW 8428   3.511   4.939   0.713
 2510SOL    HW1 8429   3.500   4.849   0.671
 2510SOL    HW2 8430   3.429   4.963   0.765
 2511SOL     OW 8431   1.344   1.053   4.722
 2511SOL    HW1 8432   1.280   1.011   4.657
 2511SOL    HW2 8433   1.382   1.136   4.683
 2512SOL     OW 8434   5.127   4.077   4.209
 2512SOL    HW1 8435   5.133   4.125   4.296
 2512SOL    HW2 8436   5.063   4.001   4.217
 2513SOL     OW 8437   0.982   2.320   6.772
 2513SOL    HW1 8438   0.955   2.270   6.854
 2513SOL    HW2 8439   0.947   2.413   6.777
 2514SOL     OW 8440   0.711   1.520   4.528
 2514SOL    HW1 8441   0.808   1.494   4.530
 2514SOL    HW2 8442   0.699   1.606   4.576
 2515SOL     OW 8443   1.365   6.791   0.412
 2515SOL    HW1 8444   1.290   6.746   0.459
 2515SOL    HW2 8445   1.396   6.735   0.336
 2516SOL     OW 8446   5.888   5.908   3.479
 2516SOL    HW1 8447   5.802   5.934   3.523
 2516SOL    HW2 8448   5.941   5.851   3.542
 2517SOL     OW 8449   2.511   4.271   5.953
 2517SOL    HW1 8450   2.453   4.325   5.892
 2517SOL    HW2 8451   2.546   4.191   5.904
 2518SOL     OW 8452   2.297   2.829   6.621
 2518SOL    HW1 8453   2.293   2.790   6.713
 2518SOL    HW2 8454   2.204   2.844   6.587
 2519SOL     OW 8455   4.946   5.361   4.817
 2519SOL    HW1 8456   4.940   5.329   4.723
 2519SOL    HW2 8457   4.945   5.283   4.880
 2520SOL     OW 8458   2.330   3.553   1.107
 2520SOL    HW1 8459   2.295   3.642   1.134
 2520SOL    HW2 8460   2.372   3.559   1.016
 2521SOL     OW 8461   0.725   0.535   5.473
 2521SOL    HW1 8462   0.762   0.554   5.563
 2521SOL    HW2 8463   0.737   0.437   5.452
 2522SOL     OW 8464   1.641   3.579   4.644
 2522SOL    HW1 8465   1.662   3.574   4.547
 2522SOL    HW2 8466   1.707   3.525   4.696
 2523SOL     OW 8467   6.576   3.282   0.838
 2523SOL    HW1 8468   6.644   3.355   0.846
 2523SOL    HW2 8469   6.582   3.241   0.747
 2524SOL     OW 8470   1.004   6.484   4.431
 2524SOL    HW1 8471   0.992   6.544   4.510
 2524SOL    HW2 8472   0.982   6.534   4.348
 2525SOL     OW 8473   0.853   4.109   4.339
 2525SOL    HW1 8474   0.829   4.178   4.408
 2525SOL    HW2 8475   0.950   4.087   4.346
 2526SOL     OW 8476   0.421   2.599   3.988
 2526SOL    HW1 8477   0.372   2.604   3.901
 2526SOL    HW2 8478   0.407   2.508   4.029
 2527SOL     OW 8479   5.777   6.632   5.142
 2527SOL    HW1 8480   5.727   6.680   5.214
 2527SOL    HW2 8481   5.779   6.534   5.162
 2528SOL     OW 8482   6.085   5.206   0.147
 2528SOL    HW1 8483   6.058   5.137   0.080
 2528SOL    HW2 8484   6.024   5.285   0.141
 2529SOL     OW 8485   4.791   5.636   5.201
 2529SOL    HW1 8486   4.692   5.619   5.194
 2529SOL    HW2 8487   4.839   5.580   5.134
 2530SOL     OW 8488   1.108   6.046   4.126
 2530SOL    HW1 8489   1.183   6.090   4.077
 2530SOL    HW2 8490   1.032   6.029   4.064
 2531SOL     OW 8491   5.062   0.318   4.784
 2531SOL    HW1 8492   4.978   0.317   4.838
 2531SOL    HW2 8493   5.094   0.225   4.769
 2532SOL     OW 8494   1.303   5.732   0.557
 2532SOL    HW1 8495   1.328   5.829   0.561
 2532SOL    HW2 8496   1.386   5.677   0.545
 2533SOL     OW 8497   5.166   0.082   4.756
 2533SOL    HW1 8498   5.145   7.009   4.737
 2533SOL    HW2 8499   5.257   0.088   4.797
 2534SOL     OW 8500   2.093   0.258   3.492
 2534SOL    HW1 8501   2.170   0.279   3.432
 2534SOL    HW2 8502   2.051   0.342   3.524
 2535SOL     OW 8503   1.636   2.050   4.121
 2535SOL    HW1 8504   1.547   2.075   4.160
 2535SOL    HW2 8505   1.622   1.997   4.037
 2536SOL     OW 8506   6.112   1.074   4.117
 2536SOL    HW1 8507   6.048   1.132   4.067
 2536SOL    HW2 8508   6.092   0.978   4.099
 2537SOL     OW 8509   4.820   6.412   0.945
 2537SOL    HW1 8510   4.878   6.331   0.957
 2537SOL    HW2 8511   4.863   6.474   0.880
 2538SOL     OW 8512   1.827   4.791   4.980
 2538SOL    HW1 8513   1.830   4.691   4.989
 2538SOL    HW2 8514   1.920   4.828   4.981
 2539SOL     OW 8515   4.454   6.972   5.263
 2539SOL    HW1 8516   4.551   6.967   5.239
 2539SOL    HW2 8517   4.400   6.931   5.190
 2540SOL     OW 8518   5.174   0.545   1.839
 2540SOL    HW1 8519   5.260   0.594   1.853
 2540SOL    HW2 8520   5.124   0.541   1.926
 2541SOL     OW 8521   1.644   0.333   4.971
 2541SOL    HW1 8522   1.593   0.320   4.886
 2541SOL    HW2 8523   1.716   0.402   4.956
 2542SOL     OW 8524   4.108   1.960   4.342
 2542SOL    HW1 8525   4.185   1.930   4.287
 2542SOL    HW2 8526   4.115   1.920   4.434
 2543SOL     OW 8527   1.133   0.531   3.488
 2543SOL    HW1 8528   1.137   0.434   3.509
 2543SOL    HW2 8529   1.158   0.545   3.392
 2544SOL     OW 8530   6.977   4.963   1.474
 2544SOL    HW1 8531   7.014   4.939   1.564
 2544SOL    HW2 8532   0.030   4.987   1.413
 2545SOL     OW 8533   2.139   2.129   0.950
 2545SOL    HW1 8534   2.087   2.214   0.956
 2545SOL    HW2 8535   2.217   2.142   0.888
 2546SOL     OW 8536   6.611   3.589   1.832
 2546SOL    HW1 8537   6.548   3.532   1.779
 2546SOL    HW2 8538   6.699   3.543   1.841
 2547SOL     OW 8539   5.810   5.302   0.546
 2547SOL    HW1 8540   5.861   5.346   0.472
 2547SOL    HW2 8541   5.817   5.203   0.536
 2548SOL     OW 8542   1.671   6.913   4.335
 2548SOL    HW1 8543   1.574   6.910   4.358
 2548SOL    HW2 8544   1.722   6.852   4.396
 2549SOL     OW 8545   1.916   2.738   1.978
 2549SOL    HW1 8546   1.899   2.820   2.033
 2549SOL    HW2 8547   1.986   2.758   1.910
 2550SOL     OW 8548   5.820   6.901   0.382
 2550SOL    HW1 8549   5.869   6.989   0.381
 2550SOL    HW2 8550   5.886   6.827   0.370
 2551SOL     OW 8551   3.583   4.579   6.735
 2551SOL    HW1 8552   3.579   4.610   6.830
 2551SOL    HW2 8553   3.626   4.650   6.679
 2552SOL     OW 8554   1.979   4.880   6.561
 2552SOL    HW1 8555   2.024   4.869   6.650
 2552SOL    HW2 8556   1.895   4.933   6.574
 2553SOL     OW 8557   3.480   1.852   5.900
 2553SOL    HW1 8558   3.537   1.917   5.849
 2553SOL    HW2 8559   3.389   1.849   5.860
 2554SOL     OW 8560   1.977   5.459   0.080
 2554SOL    HW1 8561   2.056   5.399   0.090
 2554SOL    HW2 8562   1.901   5.422   0.133
 2555SOL     OW 8563   6.460   5.907   6.269
 2555SOL    HW1 8564   6.416   5.854   6.343
 2555SOL    HW2 8565   6.393   5.970   6.229
 2556SOL     OW 8566   3.667   6.649   1.156
 2556SOL    HW1 8567   3.767   6.651   1.161
 2556SOL    HW2 8568   3.629   6.640   1.248
 2557SOL     OW 8569   3.411   0.161   0.179
 2557SOL    HW1 8570   3.442   0.112   0.097
 2557SOL    HW2 8571   3.342   0.228   0.153
 2558SOL     OW 8572   5.946   4.282   5.610
 2558SOL    HW1 8573   5.873   4.238   5.558
 2558SOL    HW2 8574   6.000   4.213   5.657
 2559SOL     OW 8575   6.919   3.486   3.233
 2559SOL    HW1 8576   6.926   3.432   3.317
 2559SOL    HW2 8577   6.831   3.469   3.189
 2560SOL     OW 8578   5.325   3.193   3.607
 2560SOL    HW1 8579   5.275   3.158   3.528
 2560SOL    HW2 8580   5.268   3.261   3.654
 2561SOL     OW 8581   3.393   1.391   3.824
 2561SOL    HW1 8582   3.459   1.321   3.801
 2561SOL    HW2 8583   3.312   1.349   3.866
 2562SOL     OW 8584   3.399   6.520   3.118
 2562SOL    HW1 8585   3.399   6.561   3.026
 2562SOL    HW2 8586   3.324   6.559   3.171
 2563SOL     OW 8587   3.223   1.353   6.843
 2563SOL    HW1 8588   3.177   1.265   6.832
 2563SOL    HW2 8589   3.213   1.384   6.938
 2564SOL     OW 8590   2.471   0.515   0.414
 2564SOL    HW1 8591   2.548   0.561   0.369
 2564SOL    HW2 8592   2.389   0.570   0.404
 2565SOL     OW 8593   0.088   1.479   6.819
 2565SOL    HW1 8594   0.011   1.481   6.756
 2565SOL    HW2 8595   0.060   1.436   6.905
 2566SOL     OW 8596   2.869   6.974   1.338
 2566SOL    HW1 8597   2.841   6.887   1.379
 2566SOL    HW2 8598   2.967   6.972   1.320
 2567SOL     OW 8599   1.195   1.241   0.311
 2567SOL    HW1 8600   1.171   1.156   0.357
 2567SOL    HW2 8601   1.291   1.263   0.329
 2568SOL     OW 8602   2.957   6.809   0.926
 2568SOL    HW1 8603   3.012   6.839   0.848
 2568SOL    HW2 8604   3.009   6.821   1.010
 2569SOL     OW 8605   2.296   1.195   0.608
 2569SOL    HW1 8606   2.298   1.237   0.518
 2569SOL    HW2 8607   2.371   1.230   0.664
 2570SOL     OW 8608   5.336   5.937   6.580
 2570SOL    HW1 8609   5.242   5.953   6.551
 2570SOL    HW2 8610   5.349   5.840   6.600
 2571SOL     OW 8611   3.710   2.896   4.435
 2571SOL    HW1 8612   3.624   2.929   4.475
 2571SOL    HW2 8613   3.690   2.825   4.367
 2572SOL     OW 8614   2.728   5.597   1.524
 2572SOL    HW1 8615   2.774   5.576   1.610
 2572SOL    HW2 8616   2.634   5.564   1.527
 2573SOL     OW 8617   6.290   2.508   3.515
 2573SOL    HW1 8618   6.217   2.506   3.583
 2573SOL    HW2 8619   6.360   2.574   3.542
 2574SOL     OW 8620   6.019   2.891   0.932
 2574SOL    HW1 8621   6.095   2.916   0.871
 2574SOL    HW2 8622   6.052   2.889   1.026
 2575SOL     OW 8623   4.878   4.125   0.327
 2575SOL    HW1 8624   4.933   4.121   0.243
 2575SOL    HW2 8625   4.939   4.125   0.406
 2576SOL     OW 8626   2.934   0.049   3.649
 2576SOL    HW1 8627   2.938   0.107   3.568
 2576SOL    HW2 8628   2.927   0.106   3.731
 2577SOL     OW 8629   3.559   0.224   3.714
 2577SOL    HW1 8630   3.523   0.306   3.668
 2577SOL    HW2 8631   3.490   0.152   3.711
 2578SOL     OW 8632   4.965   2.718   4.558
 2578SOL    HW1 8633   5.048   2.712   4.504
 2578SOL    HW2 8634   4.888   2.682   4.505
 2579SOL     OW 8635   0.751   1.627   6.138
 2579SOL    HW1 8636   0.653   1.605   6.130
 2579SOL    HW2 8637   0.781   1.675   6.056
 2580SOL     OW 8638   1.563   2.451   5.891
 2580SOL    HW1 8639   1.498   2.451   5.816
 2580SOL    HW2 8640   1.517   2.422   5.975
 2581SOL     OW 8641   5.263   5.574   1.815
 2581SOL    HW1 8642   5.327   5.585   1.892
 2581SOL    HW2 8643   5.251   5.662   1.769
 2582SOL     OW 8644   1.799   5.443   2.735
 2582SOL    HW1 8645   1.894   5.475   2.737
 2582SOL    HW2 8646   1.739   5.515   2.769
 2583SOL     OW 8647   1.166   1.002   1.229
 2583SOL    HW1 8648   1.120   0.993   1.141
 2583SOL    HW2 8649   1.120   0.942   1.296
 2584SOL     OW 8650   3.379   6.107   0.920
 2584SOL    HW1 8651   3.321   6.026   0.930
 2584SOL    HW2 8652   3.454   6.102   0.985
 2585SOL     OW 8653   3.297   0.106   1.090
 2585SOL    HW1 8654   3.204   0.138   1.073
 2585SOL    HW2 8655   3.293   0.026   1.151
 2586SOL     OW 8656   5.982   1.742   5.204
 2586SOL    HW1 8657   5.908   1.745   5.137
 2586SOL    HW2 8658   6.064   1.785   5.164
 2587SOL     OW 8659   6.911   0.459   4.341
 2587SOL    HW1 8660   6.950   0.434   4.429
 2587SOL    HW2 8661   6.831   0.402   4.322
 2588SOL     OW 8662   5.416   0.011   1.418
 2588SOL    HW1 8663   5.464   0.098   1.429
 2588SOL    HW2 8664   5.431   6.999   1.325
 2589SOL     OW 8665   6.599   0.243   5.561
 2589SOL    HW1 8666   6.679   0.293   5.528
 2589SOL    HW2 8667   6.540   0.220   5.483
 2590SOL     OW 8668   3.370   0.006   2.553
 2590SOL    HW1 8669   3.444   0.074   2.551
 2590SOL    HW2 8670   3.392   6.957   2.619
 2591SOL     OW 8671   5.344   6.103   0.873
 2591SOL    HW1 8672   5.374   6.066   0.785
 2591SOL    HW2 8673   5.351   6.032   0.943
 2592SOL     OW 8674   3.047   5.786   1.771
 2592SOL    HW1 8675   3.046   5.695   1.729
 2592SOL    HW2 8676   3.105   5.847   1.717
 2593SOL     OW 8677   3.115   0.121   2.702
 2593SOL    HW1 8678   3.161   0.114   2.613
 2593SOL    HW2 8679   3.180   0.099   2.774
 2594SOL     OW 8680   0.511   0.210   6.055
 2594SOL    HW1 8681   0.482   0.300   6.088
 2594SOL    HW2 8682   0.554   0.220   5.966
 2595SOL     OW 8683   6.875   2.887   5.278
 2595SOL    HW1 8684   6.942   2.916   5.210
 2595SOL    HW2 8685   6.786   2.877   5.235
 2596SOL     OW 8686   3.896   2.352   1.640
 2596SOL    HW1 8687   3.853   2.336   1.729
 2596SOL    HW2 8688   3.906   2.265   1.592
 2597SOL     OW 8689   2.502   3.330   0.717
 2597SOL    HW1 8690   2.546   3.240   0.713
 2597SOL    HW2 8691   2.546   3.391   0.651
 2598SOL     OW 8692   6.659   2.718   4.536
 2598SOL    HW1 8693   6.697   2.807   4.563
 2598SOL    HW2 8694   6.596   2.730   4.460
 2599SOL     OW 8695   3.516   5.570   6.100
 2599SOL    HW1 8696   3.488   5.583   6.195
 2599SOL    HW2 8697   3.596   5.626   6.080
 2600SOL     OW 8698   4.894   3.569   3.874
 2600SOL    HW1 8699   4.927   3.541   3.964
 2600SOL    HW2 8700   4.887   3.669   3.871
 2601SOL     OW 8701   3.129   2.221   6.410
 2601SOL    HW1 8702   3.166   2.309   6.383
 2601SOL    HW2 8703   3.029   2.222   6.400
 2602SOL     OW 8704   6.927   4.737   4.346
 2602SOL    HW1 8705   6.920   4.639   4.363
 2602SOL    HW2 8706   6.839   4.771   4.312
 2603SOL     OW 8707   2.480   2.630   1.751
 2603SOL    HW1 8708   2.438   2.541   1.770
 2603SOL    HW2 8709   2.580   2.621   1.753
 2604SOL     OW 8710   5.368   0.513   1.141
 2604SOL    HW1 8711   5.343   0.450   1.067
 2604SOL    HW2 8712   5.399   0.600   1.103
 2605SOL     OW 8713   4.833   4.915   3.006
 2605SOL    HW1 8714   4.771   4.836   3.004
 2605SOL    HW2 8715   4.815   4.970   3.087
 2606SOL     OW 8716   6.692   3.874   0.033
 2606SOL    HW1 8717   6.755   3.898   0.107
 2606SOL    HW2 8718   6.744   3.838   6.979
 2607SOL     OW 8719   1.781   1.804   4.384
 2607SOL    HW1 8720   1.834   1.888   4.385
 2607SOL    HW2 8721   1.683   1.826   4.375
 2608SOL     OW 8722   4.887   0.466   2.653
 2608SOL    HW1 8723   4.956   0.499   2.589
 2608SOL    HW2 8724   4.929   0.405   2.720
 2609SOL     OW 8725   0.752   2.086   2.008
 2609SOL    HW1 8726   0.836   2.071   2.059
 2609SOL    HW2 8727   0.771   2.077   1.910
 2610SOL     OW 8728   6.844   5.419   4.402
 2610SOL    HW1 8729   6.925   5.385   4.448
 2610SOL    HW2 8730   6.831   5.516   4.424
 2611SOL     OW 8731   6.384   6.315   1.092
 2611SOL    HW1 8732   6.385   6.384   1.165
 2611SOL    HW2 8733   6.428   6.232   1.124
 2612SOL     OW 8734   5.927   6.438   4.524
 2612SOL    HW1 8735   5.900   6.380   4.448
 2612SOL    HW2 8736   5.893   6.399   4.610
 2613SOL     OW 8737   3.220   6.552   2.232
 2613SOL    HW1 8738   3.124   6.539   2.209
 2613SOL    HW2 8739   3.227   6.608   2.315
 2614SOL     OW 8740   6.224   6.390   5.640
 2614SOL    HW1 8741   6.315   6.431   5.629
 2614SOL    HW2 8742   6.162   6.427   5.571
 2615SOL     OW 8743   5.511   5.701   3.497
 2615SOL    HW1 8744   5.510   5.634   3.572
 2615SOL    HW2 8745   5.453   5.668   3.423
 2616SOL     OW 8746   4.088   3.495   3.948
 2616SOL    HW1 8747   4.088   3.591   3.976
 2616SOL    HW2 8748   4.108   3.437   4.027
 2617SOL     OW 8749   3.277   4.942   0.889
 2617SOL    HW1 8750   3.219   4.987   0.821
 2617SOL    HW2 8751   3.221   4.918   0.968
 2618SOL     OW 8752   7.022   6.319   3.194
 2618SOL    HW1 8753   0.024   6.347   3.287
 2618SOL    HW2 8754   0.041   6.231   3.173
 2619SOL     OW 8755   4.513   1.533   2.251
 2619SOL    HW1 8756   4.601   1.575   2.231
 2619SOL    HW2 8757   4.440   1.586   2.208
 2620SOL     OW 8758   1.687   5.369   3.384
 2620SOL    HW1 8759   1.632   5.356   3.301
 2620SOL    HW2 8760   1.668   5.460   3.422
 2621SOL     OW 8761   1.042   5.530   3.737
 2621SOL    HW1 8762   1.121   5.477   3.708
 2621SOL    HW2 8763   0.958   5.483   3.710
 2622SOL     OW 8764   1.823   3.147   5.980
 2622SOL    HW1 8765   1.797   3.058   6.018
 2622SOL    HW2 8766   1.914   3.141   5.940
 2623SOL     OW 8767   4.025   1.059   4.951
 2623SOL    HW1 8768   3.937   1.094   4.984
 2623SOL    HW2 8769   4.050   0.977   5.003
 2624SOL     OW 8770   6.433   3.095   3.242
 2624SOL    HW1 8771   6.366   3.026   3.214
 2624SOL    HW2 8772   6.409   3.183   3.201
 2625SOL     OW 8773   1.580   3.082   4.575
 2625SOL    HW1 8774   1.659   3.043   4.623
 2625SOL    HW2 8775   1.601   3.176   4.547
 2626SOL     OW 8776   0.486   6.169   4.013
 2626SOL    HW1 8777   0.469   6.071   4.018
 2626SOL    HW2 8778   0.435   6.208   3.937
 2627SOL     OW 8779   0.314   1.030   5.254
 2627SOL    HW1 8780   0.412   1.020   5.269
 2627SOL    HW2 8781   0.298   1.092   5.176
 2628SOL     OW 8782   3.875   6.264   6.491
 2628SOL    HW1 8783   3.781   6.237   6.469
 2628SOL    HW2 8784   3.910   6.206   6.564
 2629SOL     OW 8785   3.872   3.710   1.801
 2629SOL    HW1 8786   3.917   3.631   1.760
 2629SOL    HW2 8787   3.941   3.774   1.835
 2630SOL     OW 8788   3.331   2.095   2.298
 2630SOL    HW1 8789   3.421   2.066   2.263
 2630SOL    HW2 8790   3.340   2.185   2.340
 2631SOL     OW 8791   4.052   6.905   4.172
 2631SOL    HW1 8792   4.074   6.917   4.075
 2631SOL    HW2 8793   4.082   6.814   4.202
 2632SOL     OW 8794   3.499   2.130   6.382
 2632SOL    HW1 8795   3.504   2.227   6.407
 2632SOL    HW2 8796   3.457   2.121   6.291
 2633SOL     OW 8797   5.841   2.536   6.281
 2633SOL    HW1 8798   5.853   2.437   6.273
 2633SOL    HW2 8799   5.767   2.555   6.346
 2634SOL     OW 8800   1.890   3.869   2.416
 2634SOL    HW1 8801   1.812   3.824   2.373
 2634SOL    HW2 8802   1.885   3.968   2.399
 2635SOL     OW 8803   5.248   5.945   4.139
 2635SOL    HW1 8804   5.235   5.992   4.226
 2635SOL    HW2 8805   5.225   6.007   4.064
 2636SOL     OW 8806   5.976   0.288   6.897
 2636SOL    HW1 8807   5.999   0.316   6.804
 2636SOL    HW2 8808   5.907   0.215   6.895
 2637SOL     OW 8809   6.560   0.855   3.562
 2637SOL    HW1 8810   6.460   0.849   3.562
 2637SOL    HW2 8811   6.589   0.942   3.603
 2638SOL     OW 8812   5.872   0.102   2.009
 2638SOL    HW1 8813   5.813   0.170   2.052
 2638SOL    HW2 8814   5.903   0.136   1.920
 2639SOL     OW 8815   6.314   6.981   2.380
 2639SOL    HW1 8816   6.399   6.931   2.397
 2639SOL    HW2 8817   6.324   0.014   2.297
 2640SOL     OW 8818   6.742   6.413   5.608
 2640SOL    HW1 8819   6.727   6.340   5.541
 2640SOL    HW2 8820   6.786   6.490   5.563
 2641SOL     OW 8821   5.788   3.313   0.945
 2641SOL    HW1 8822   5.853   3.267   1.005
 2641SOL    HW2 8823   5.800   3.279   0.851
 2642SOL     OW 8824   5.934   0.623   4.867
 2642SOL    HW1 8825   5.855   0.656   4.816
 2642SOL    HW2 8826   5.922   0.526   4.887
 2643SOL     OW 8827   0.029   5.480   3.311
 2643SOL    HW1 8828   0.076   5.400   3.348
 2643SOL    HW2 8829   7.016   5.535   3.386
 2644SOL     OW 8830   0.678   4.341   5.820
 2644SOL    HW1 8831   0.702   4.438   5.823
 2644SOL    HW2 8832   0.703   4.303   5.730
 2645SOL     OW 8833   4.390   6.517   5.104
 2645SOL    HW1 8834   4.490   6.514   5.106
 2645SOL    HW2 8835   4.359   6.523   5.009
 2646SOL     OW 8836   6.283   0.050   6.163
 2646SOL    HW1 8837   6.185   0.040   6.145
 2646SOL    HW2 8838   6.322   6.982   6.182
 2647SOL     OW 8839   5.182   0.779   0.987
 2647SOL    HW1 8840   5.156   0.779   1.084
 2647SOL    HW2 8841   5.275   0.813   0.978
 2648SOL     OW 8842   6.404   6.994   3.526
 2648SOL    HW1 8843   6.436   0.000   3.616
 2648SOL    HW2 8844   6.405   0.049   3.464
 2649SOL     OW 8845   4.110   1.272   5.767
 2649SOL    HW1 8846   4.178   1.204   5.794
 2649SOL    HW2 8847   4.131   1.303   5.674
 2650SOL     OW 8848   0.992   4.826   3.910
 2650SOL    HW1 8849   0.963   4.833   3.814
 2650SOL    HW2 8850   1.085   4.862   3.919
 2651SOL     OW 8851   0.935   1.607   0.730
 2651SOL    HW1 8852   0.976   1.560   0.652
 2651SOL    HW2 8853   0.930   1.705   0.711
 2652SOL     OW 8854   3.355   2.938   3.531
 2652SOL    HW1 8855   3.282   2.877   3.499
 2652SOL    HW2 8856   3.439   2.919   3.480
 2653SOL     OW 8857   4.919   6.743   5.389
 2653SOL    HW1 8858   4.885   6.652   5.366
 2653SOL    HW2 8859   4.875   6.811   5.329
 2654SOL     OW 8860   4.987   3.177   6.970
 2654SOL    HW1 8861   5.003   3.086   6.934
 2654SOL    HW2 8862   5.072   3.230   6.967
 2655SOL     OW 8863   4.334   4.696   4.234
 2655SOL    HW1 8864   4.414   4.750   4.260
 2655SOL    HW2 8865   4.289   4.662   4.316
 2656SOL     OW 8866   4.652   4.693   4.025
 2656SOL    HW1 8867   4.746   4.663   4.036
 2656SOL    HW2 8868   4.590   4.622   4.058
 2657SOL     OW 8869   2.627   4.099   6.158
 2657SOL    HW1 8870   2.632   4.198   6.140
 2657SOL    HW2 8871   2.536   4.077   6.194
 2658SOL     OW 8872   5.691   4.908   6.695
 2658SOL    HW1 8873   5.772   4.860   6.727
 2658SOL    HW2 8874   5.677   4.890   6.598
 2659SOL     OW 8875   6.715   1.981   4.239
 2659SOL    HW1 8876   6.727   2.078   4.219
 2659SOL    HW2 8877   6.636   1.946   4.188
 2660SOL     OW 8878   0.459   2.017   1.151
 2660SOL    HW1 8879   0.416   2.019   1.241
 2660SOL    HW2 8880   0.507   1.930   1.139
 2661SOL     OW 8881   2.231   6.595   1.713
 2661SOL    HW1 8882   2.162   6.667   1.711
 2661SOL    HW2 8883   2.186   6.506   1.720
 2662SOL     OW 8884   4.275   6.841   5.050
 2662SOL    HW1 8885   4.264   6.746   5.023
 2662SOL    HW2 8886   4.186   6.887   5.052
 2663SOL     OW 8887   2.122   4.256   1.660
 2663SOL    HW1 8888   2.077   4.263   1.571
 2663SOL    HW2 8889   2.216   4.223   1.648
 2664SOL     OW 8890   3.498   4.046   3.240
 2664SOL    HW1 8891   3.577   4.073   3.295
 2664SOL    HW2 8892   3.512   4.073   3.145
 2665SOL     OW 8893   3.826   1.980   5.210
 2665SOL    HW1 8894   3.784   1.943   5.293
 2665SOL    HW2 8895   3.768   2.051   5.172
 2666SOL     OW 8896   4.845   4.168   1.129
 2666SOL    HW1 8897   4.793   4.188   1.045
 2666SOL    HW2 8898   4.826   4.074   1.157
 2667SOL     OW 8899   1.833   6.116   4.737
 2667SOL    HW1 8900   1.750   6.074   4.776
 2667SOL    HW2 8901   1.880   6.048   4.680
 2668SOL     OW 8902   6.641   3.642   3.982
 2668SOL    HW1 8903   6.573   3.708   4.012
 2668SOL    HW2 8904   6.632   3.558   4.035
 2669SOL     OW 8905   3.415   4.850   5.475
 2669SOL    HW1 8906   3.492   4.905   5.441
 2669SOL    HW2 8907   3.336   4.909   5.489
 2670SOL     OW 8908   6.070   1.617   6.592
 2670SOL    HW1 8909   6.097   1.713   6.587
 2670SOL    HW2 8910   6.095   1.579   6.681
 2671SOL     OW 8911   2.524   4.026   0.243
 2671SOL    HW1 8912   2.485   4.016   0.151
 2671SOL    HW2 8913   2.461   3.988   0.310
 2672SOL     OW 8914   1.194   5.323   0.016
 2672SOL    HW1 8915   1.233   5.414   0.006
 2672SOL    HW2 8916   1.235   5.277   0.095
 2673SOL     OW 8917   5.483   2.485   3.526
 2673SOL    HW1 8918   5.462   2.553   3.596
 2673SOL    HW2 8919   5.536   2.527   3.453
 2674SOL     OW 8920   1.685   4.280   4.179
 2674SOL    HW1 8921   1.741   4.197   4.169
 2674SOL    HW2 8922   1.632   4.295   4.096
 2675SOL     OW 8923   1.232   4.455   5.280
 2675SOL    HW1 8924   1.136   4.459   5.251
 2675SOL    HW2 8925   1.240   4.392   5.357
 2676SOL     OW 8926   4.559   0.912   2.628
 2676SOL    HW1 8927   4.638   0.915   2.690
 2676SOL    HW2 8928   4.475   0.909   2.682
 2677SOL     OW 8929   3.384   5.060   1.608
 2677SOL    HW1 8930   3.444   4.987   1.641
 2677SOL    HW2 8931   3.342   5.107   1.685
 2678SOL     OW 8932   0.551   4.547   0.350
 2678SOL    HW1 8933   0.559   4.605   0.269
 2678SOL    HW2 8934   0.477   4.482   0.336
 2679SOL     OW 8935   3.773   5.607   1.531
 2679SOL    HW1 8936   3.820   5.521   1.510
 2679SOL    HW2 8937   3.832   5.664   1.588
 2680SOL     OW 8938   1.744   1.736   0.443
 2680SOL    HW1 8939   1.713   1.828   0.467
 2680SOL    HW2 8940   1.682   1.668   0.483
 2681SOL     OW 8941   1.495   2.973   4.337
 2681SOL    HW1 8942   1.533   2.999   4.426
 2681SOL    HW2 8943   1.428   3.041   4.309
 2682SOL     OW 8944   5.512   3.184   2.714
 2682SOL    HW1 8945   5.565   3.180   2.630
 2682SOL    HW2 8946   5.574   3.174   2.792
 2683SOL     OW 8947   1.289   4.001   1.211
 2683SOL    HW1 8948   1.254   4.036   1.124
 2683SOL    HW2 8949   1.260   3.906   1.223
 2684SOL     OW 8950   3.762   5.607   2.406
 2684SOL    HW1 8951   3.695   5.573   2.471
 2684SOL    HW2 8952   3.748   5.564   2.317
 2685SOL     OW 8953   6.092   6.934   4.883
 2685SOL    HW1 8954   6.091   6.836   4.904
 2685SOL    HW2 8955   6.018   6.980   4.932
 2686SOL     OW 8956   1.745   2.326   4.013
 2686SOL    HW1 8957   1.700   2.345   4.100
 2686SOL    HW2 8958   1.816   2.395   3.997
 2687SOL     OW 8959   4.376   4.729   2.721
 2687SOL    HW1 8960   4.409   4.777   2.640
 2687SOL    HW2 8961   4.279   4.706   2.708
 2688SOL     OW 8962   4.325   5.842   6.175
 2688SOL    HW1 8963   4.274   5.921   6.142
 2688SOL    HW2 8964   4.275   5.758   6.153
 2689SOL     OW 8965   2.098   1.871   3.770
 2689SOL    HW1 8966   2.021   1.811   3.751
 2689SOL    HW2 8967   2.170   1.855   3.702
 2690SOL     OW 8968   3.798   2.952   3.743
 2690SOL    HW1 8969   3.771   2.858   3.765
 2690SOL    HW2 8970   3.812   3.003   3.828
 2691SOL     OW 8971   1.569   5.309   2.201
 2691SOL    HW1 8972   1.527   5.400   2.201
 2691SOL    HW2 8973   1.510   5.244   2.248
 2692SOL     OW 8974   5.810   6.037   4.132
 2692SOL    HW1 8975   5.757   6.012   4.213
 2692SOL    HW2 8976   5.906   6.045   4.157
 2693SOL     OW 8977   2.207   4.543   2.921
 2693SOL    HW1 8978   2.227   4.453   2.882
 2693SOL    HW2 8979   2.243   4.615   2.860
 2694SOL     OW 8980   3.121   0.941   2.822
 2694SOL    HW1 8981   3.198   1.004   2.836
 2694SOL    HW2 8982   3.153   0.860   2.773
 2695SOL     OW 8983   5.345   1.660   2.719
 2695SOL    HW1 8984   5.428   1.630   2.767
 2695SOL    HW2 8985   5.294   1.723   2.779
 2696SOL     OW 8986   3.383   2.631   5.455
 2696SOL    HW1 8987   3.445   2.680   5.394
 2696SOL    HW2 8988   3.328   2.697   5.506
 2697SOL     OW 8989   4.180   2.179   4.172
 2697SOL    HW1 8990   4.128   2.098   4.201
 2697SOL    HW2 8991   4.272   2.175   4.212
 2698SOL     OW 8992   1.610   4.895   0.103
 2698SOL    HW1 8993   1.545   4.863   0.171
 2698SOL    HW2 8994   1.676   4.822   0.084
 2699SOL     OW 8995   3.938   5.519   6.494
 2699SOL    HW1 8996   3.951   5.461   6.413
 2699SOL    HW2 8997   3.909   5.610   6.465
 2700SOL     OW 8998   1.820   3.637   2.097
 2700SOL    HW1 8999   1.822   3.541   2.068
 2700SOL    HW2 9000   1.898   3.657   2.156
 2701SOL     OW 9001   3.811   6.661   6.877
 2701SOL    HW1 9002   3.888   6.621   6.828
 2701SOL    HW2 9003   3.726   6.626   6.840
 2702SOL     OW 9004   6.919   1.511   2.892
 2702SOL    HW1 9005   6.988   1.459   2.943
 2702SOL    HW2 9006   6.828   1.485   2.923
 2703SOL     OW 9007   2.399   0.760   3.188
 2703SOL    HW1 9008   2.484   0.715   3.162
 2703SOL    HW2 9009   2.335   0.757   3.112
 2704SOL     OW 9010   1.370   5.439   1.453
 2704SOL    HW1 9011   1.432   5.372   1.495
 2704SOL    HW2 9012   1.276   5.420   1.482
 2705SOL     OW 9013   0.747   5.324   4.337
 2705SOL    HW1 9014   0.753   5.269   4.253
 2705SOL    HW2 9015   0.693   5.274   4.405
 2706SOL     OW 9016   0.341   0.938   1.854
 2706SOL    HW1 9017   0.437   0.932   1.881
 2706SOL    HW2 9018   0.291   0.994   1.921
 2707SOL     OW 9019   2.370   0.512   5.658
 2707SOL    HW1 9020   2.467   0.526   5.677
 2707SOL    HW2 9021   2.316   0.553   5.732
 2708SOL     OW 9022   2.231   2.822   1.498
 2708SOL    HW1 9023   2.328   2.804   1.485
 2708SOL    HW2 9024   2.218   2.913   1.535
 2709SOL     OW 9025   5.078   6.729   1.006
 2709SOL    HW1 9026   5.101   6.825   0.988
 2709SOL    HW2 9027   5.122   6.700   1.091
 2710SOL     OW 9028   6.482   4.346   2.323
 2710SOL    HW1 9029   6.445   4.257   2.299
 2710SOL    HW2 9030   6.503   4.397   2.240
 2711SOL     OW 9031   1.972   0.392   2.792
 2711SOL    HW1 9032   1.953   0.396   2.694
 2711SOL    HW2 9033   1.990   0.485   2.826
 2712SOL     OW 9034   4.082   5.356   6.668
 2712SOL    HW1 9035   4.082   5.412   6.751
 2712SOL    HW2 9036   4.021   5.398   6.600
 2713SOL     OW 9037   1.547   2.657   4.570
 2713SOL    HW1 9038   1.625   2.658   4.509
 2713SOL    HW2 9039   1.543   2.569   4.618
 2714SOL     OW 9040   5.085   1.650   6.833
 2714SOL    HW1 9041   5.086   1.550   6.828
 2714SOL    HW2 9042   4.990   1.681   6.845
 2715SOL     OW 9043   6.534   0.498   0.273
 2715SOL    HW1 9044   6.452   0.495   0.216
 2715SOL    HW2 9045   6.591   0.575   0.245
 2716SOL     OW 9046   6.438   5.440   1.888
 2716SOL    HW1 9047   6.492   5.390   1.820
 2716SOL    HW2 9048   6.354   5.390   1.907
 2717SOL     OW 9049   1.154   5.450   1.866
 2717SOL    HW1 9050   1.078   5.470   1.929
 2717SOL    HW2 9051   1.204   5.535   1.848
 2718SOL     OW 9052   1.720   4.014   3.899
 2718SOL    HW1 9053   1.709   3.965   3.813
 2718SOL    HW2 9054   1.734   4.112   3.880
 2719SOL     OW 9055   4.628   4.894   1.781
 2719SOL    HW1 9056   4.531   4.871   1.767
 2719SOL    HW2 9057   4.678   4.879   1.697
 2720SOL     OW 9058   1.959   5.947   3.753
 2720SOL    HW1 9059   1.992   6.019   3.814
 2720SOL    HW2 9060   1.979   5.973   3.658
 2721SOL     OW 9061   2.677   0.546   5.449
 2721SOL    HW1 9062   2.612   0.573   5.378
 2721SOL    HW2 9063   2.690   0.621   5.513
 2722SOL     OW 9064   6.668   5.412   2.722
 2722SOL    HW1 9065   6.640   5.327   2.767
 2722SOL    HW2 9066   6.743   5.453   2.773
 2723SOL     OW 9067   1.698   1.191   6.121
 2723SOL    HW1 9068   1.633   1.146   6.182
 2723SOL    HW2 9069   1.652   1.218   6.036
 2724SOL     OW 9070   2.889   6.009   5.313
 2724SOL    HW1 9071   2.944   5.926   5.300
 2724SOL    HW2 9072   2.803   5.985   5.358
 2725SOL     OW 9073   6.328   5.249   3.309
 2725SOL    HW1 9074   6.398   5.294   3.254
 2725SOL    HW2 9075   6.370   5.206   3.389
 2726SOL     OW 9076   5.170   4.751   1.834
 2726SOL    HW1 9077   5.250   4.793   1.790
 2726SOL    HW2 9078   5.197   4.717   1.924
 2727SOL     OW 9079   0.806   4.690   3.088
 2727SOL    HW1 9080   0.786   4.620   3.019
 2727SOL    HW2 9081   0.822   4.778   3.044
 2728SOL     OW 9082   2.915   0.653   4.791
 2728SOL    HW1 9083   2.971   0.735   4.799
 2728SOL    HW2 9084   2.826   0.670   4.833
 2729SOL     OW 9085   6.633   5.824   2.210
 2729SOL    HW1 9086   6.605   5.909   2.165
 2729SOL    HW2 9087   6.609   5.746   2.153
 2730SOL     OW 9088   1.767   6.863   0.703
 2730SOL    HW1 9089   1.838   6.810   0.749
 2730SOL    HW2 9090   1.708   6.801   0.651
 2731SOL     OW 9091   3.049   3.604   1.358
 2731SOL    HW1 9092   3.001   3.520   1.383
 2731SOL    HW2 9093   3.010   3.681   1.409
 2732SOL     OW 9094   5.992   3.120   2.411
 2732SOL    HW1 9095   5.986   3.026   2.444
 2732SOL    HW2 9096   6.034   3.177   2.481
 2733SOL     OW 9097   0.807   6.787   5.693
 2733SOL    HW1 9098   0.793   6.766   5.790
 2733SOL    HW2 9099   0.902   6.765   5.668
 2734SOL     OW 9100   1.728   5.668   2.930
 2734SOL    HW1 9101   1.675   5.741   2.974
 2734SOL    HW2 9102   1.794   5.709   2.868
 2735SOL     OW 9103   7.014   3.265   2.147
 2735SOL    HW1 9104   0.034   3.184   2.107
 2735SOL    HW2 9105   0.021   3.346   2.097
 2736SOL     OW 9106   4.791   0.591   5.004
 2736SOL    HW1 9107   4.816   0.650   5.080
 2736SOL    HW2 9108   4.816   0.634   4.917
 2737SOL     OW 9109   3.438   3.165   6.327
 2737SOL    HW1 9110   3.446   3.203   6.235
 2737SOL    HW2 9111   3.425   3.066   6.322
 2738SOL     OW 9112   4.990   5.885   4.640
 2738SOL    HW1 9113   4.978   5.895   4.541
 2738SOL    HW2 9114   4.998   5.976   4.682
 2739SOL     OW 9115   5.611   4.082   0.437
 2739SOL    HW1 9116   5.551   4.013   0.477
 2739SOL    HW2 9117   5.704   4.045   0.429
 2740SOL     OW 9118   5.085   2.111   2.185
 2740SOL    HW1 9119   5.128   2.069   2.264
 2740SOL    HW2 9120   4.991   2.137   2.207
 2741SOL     OW 9121   0.192   2.085   6.154
 2741SOL    HW1 9122   0.127   2.148   6.111
 2741SOL    HW2 9123   0.146   2.033   6.225
 2742SOL     OW 9124   1.573   6.223   6.327
 2742SOL    HW1 9125   1.538   6.225   6.421
 2742SOL    HW2 9126   1.497   6.215   6.263
 2743SOL     OW 9127   6.450   5.415   1.480
 2743SOL    HW1 9128   6.438   5.472   1.399
 2743SOL    HW2 9129   6.449   5.319   1.454
 2744SOL     OW 9130   3.969   1.969   0.085
 2744SOL    HW1 9131   4.065   1.983   0.060
 2744SOL    HW2 9132   3.964   1.934   0.179
 2745SOL     OW 9133   2.135   6.445   0.194
 2745SOL    HW1 9134   2.185   6.493   0.265
 2745SOL    HW2 9135   2.199   6.400   0.132
 2746SOL     OW 9136   2.186   3.118   4.559
 2746SOL    HW1 9137   2.231   3.069   4.483
 2746SOL    HW2 9138   2.201   3.068   4.644
 2747SOL     OW 9139   5.408   4.487   5.259
 2747SOL    HW1 9140   5.504   4.468   5.241
 2747SOL    HW2 9141   5.396   4.511   5.355
 2748SOL     OW 9142   3.358   1.269   2.626
 2748SOL    HW1 9143   3.301   1.349   2.648
 2748SOL    HW2 9144   3.441   1.300   2.579
 2749SOL     OW 9145   4.921   5.089   4.431
 2749SOL    HW1 9146   4.897   5.098   4.334
 2749SOL    HW2 9147   4.911   4.994   4.459
 2750SOL     OW 9148   1.226   5.153   1.521
 2750SOL    HW1 9149   1.193   5.158   1.615
 2750SOL    HW2 9150   1.165   5.205   1.461
 2751SOL     OW 9151   1.675   0.064   0.012
 2751SOL    HW1 9152   1.740   0.138   7.018
 2751SOL    HW2 9153   1.661   0.012   6.950
 2752SOL     OW 9154   5.229   5.815   5.388
 2752SOL    HW1 9155   5.157   5.877   5.418
 2752SOL    HW2 9156   5.190   5.742   5.332
 2753SOL     OW 9157   2.864   5.654   6.247
 2753SOL    HW1 9158   2.849   5.555   6.246
 2753SOL    HW2 9159   2.809   5.695   6.320
 2754SOL     OW 9160   6.668   0.278   4.403
 2754SOL    HW1 9161   6.582   0.328   4.401
 2754SOL    HW2 9162   6.667   0.207   4.333
 2755SOL     OW 9163   2.853   6.734   3.412
 2755SOL    HW1 9164   2.909   6.805   3.370
 2755SOL    HW2 9165   2.763   6.732   3.369
 2756SOL     OW 9166   6.406   4.565   4.016
 2756SOL    HW1 9167   6.389   4.482   4.069
 2756SOL    HW2 9168   6.470   4.546   3.942
 2757SOL     OW 9169   3.015   1.513   6.542
 2757SOL    HW1 9170   3.033   1.602   6.585
 2757SOL    HW2 9171   3.021   1.441   6.611
 2758SOL     OW 9172   5.320   5.787   3.305
 2758SOL    HW1 9173   5.324   5.833   3.393
 2758SOL    HW2 9174   5.405   5.805   3.254
 2759SOL     OW 9175   3.537   4.626   5.631
 2759SOL    HW1 9176   3.477   4.551   5.661
 2759SOL    HW2 9177   3.487   4.686   5.570
 2760SOL     OW 9178   6.485   5.611   2.677
 2760SOL    HW1 9179   6.418   5.647   2.742
 2760SOL    HW2 9180   6.544   5.545   2.723
 2761SOL     OW 9181   1.392   4.089   3.030
 2761SOL    HW1 9182   1.430   4.115   3.119
 2761SOL    HW2 9183   1.431   4.148   2.959
 2762SOL     OW 9184   1.486   2.105   6.784
 2762SOL    HW1 9185   1.580   2.141   6.787
 2762SOL    HW2 9186   1.427   2.163   6.840
 2763SOL     OW 9187   4.887   1.728   6.037
 2763SOL    HW1 9188   4.890   1.639   5.992
 2763SOL    HW2 9189   4.975   1.747   6.081
 2764SOL     OW 9190   0.532   4.585   2.740
 2764SOL    HW1 9191   0.526   4.680   2.770
 2764SOL    HW2 9192   0.444   4.540   2.756
 2765SOL     OW 9193   6.826   0.058   1.021
 2765SOL    HW1 9194   6.827   0.156   1.000
 2765SOL    HW2 9195   6.854   0.044   1.115
 2766SOL     OW 9196   4.114   0.800   6.832
 2766SOL    HW1 9197   4.138   0.796   6.734
 2766SOL    HW2 9198   4.130   0.892   6.866
 2767SOL     OW 9199   6.140   5.846   6.323
 2767SOL    HW1 9200   6.181   5.763   6.287
 2767SOL    HW2 9201   6.149   5.847   6.423
 2768SOL     OW 9202   3.721   0.700   0.860
 2768SOL    HW1 9203   3.740   0.709   0.762
 2768SOL    HW2 9204   3.759   0.614   0.893
 2769SOL     OW 9205   1.371   4.115   5.960
 2769SOL    HW1 9206   1.401   4.022   5.942
 2769SOL    HW2 9207   1.404   4.175   5.887
 2770SOL     OW 9208   3.895   6.082   5.896
 2770SOL    HW1 9209   3.964   6.154   5.905
 2770SOL    HW2 9210   3.888   6.054   5.800
 2771SOL     OW 9211   5.757   6.672   3.915
 2771SOL    HW1 9212   5.804   6.743   3.968
 2771SOL    HW2 9213   5.711   6.715   3.837
 2772SOL     OW 9214   3.450   0.870   2.481
 2772SOL    HW1 9215   3.526   0.886   2.418
 2772SOL    HW2 9216   3.400   0.956   2.495
 2773SOL     OW 9217   0.466   2.847   3.763
 2773SOL    HW1 9218   0.473   2.917   3.833
 2773SOL    HW2 9219   0.376   2.805   3.767
 2774SOL     OW 9220   5.209   2.455   2.847
 2774SOL    HW1 9221   5.161   2.381   2.893
 2774SOL    HW2 9222   5.308   2.444   2.860
 2775SOL     OW 9223   6.700   3.920   3.435
 2775SOL    HW1 9224   6.620   3.894   3.489
 2775SOL    HW2 9225   6.691   3.882   3.343
 2776SOL     OW 9226   5.375   5.661   6.945
 2776SOL    HW1 9227   5.323   5.636   0.004
 2776SOL    HW2 9228   5.341   5.609   6.866
 2777SOL     OW 9229   2.491   1.952   5.694
 2777SOL    HW1 9230   2.588   1.943   5.714
 2777SOL    HW2 9231   2.463   1.880   5.631
 2778SOL     OW 9232   2.377   6.031   6.436
 2778SOL    HW1 9233   2.413   6.068   6.351
 2778SOL    HW2 9234   2.415   5.940   6.451
 2779SOL     OW 9235   5.771   6.383   1.836
 2779SOL    HW1 9236   5.861   6.399   1.877
 2779SOL    HW2 9237   5.782   6.353   1.742
 2780SOL     OW 9238   0.483   0.464   6.473
 2780SOL    HW1 9239   0.547   0.389   6.491
 2780SOL    HW2 9240   0.532   0.551   6.477
 2781SOL     OW 9241   6.396   0.838   2.374
 2781SOL    HW1 9242   6.454   0.892   2.435
 2781SOL    HW2 9243   6.321   0.799   2.427
 2782SOL     OW 9244   4.421   0.765   5.870
 2782SOL    HW1 9245   4.501   0.820   5.891
 2782SOL    HW2 9246   4.350   0.822   5.830
 2783SOL     OW 9247   6.176   3.429   1.027
 2783SOL    HW1 9248   6.128   3.448   0.941
 2783SOL    HW2 9249   6.120   3.368   1.083
 2784SOL     OW 9250   2.678   1.845   2.051
 2784SOL    HW1 9251   2.776   1.835   2.036
 2784SOL    HW2 9252   2.635   1.754   2.055
 2785SOL     OW 9253   5.066   2.490   1.649
 2785SOL    HW1 9254   5.071   2.536   1.560
 2785SOL    HW2 9255   5.083   2.557   1.722
 2786SOL     OW 9256   6.763   5.788   1.403
 2786SOL    HW1 9257   6.740   5.724   1.477
 2786SOL    HW2 9258   6.723   5.755   1.317
 2787SOL     OW 9259   6.480   5.920   5.750
 2787SOL    HW1 9260   6.502   5.952   5.657
 2787SOL    HW2 9261   6.562   5.923   5.806
 2788SOL     OW 9262   3.543   6.586   5.972
 2788SOL    HW1 9263   3.520   6.490   5.958
 2788SOL    HW2 9264   3.517   6.613   6.065
 2789SOL     OW 9265   0.843   2.636   4.117
 2789SOL    HW1 9266   0.941   2.649   4.102
 2789SOL    HW2 9267   0.796   2.723   4.107
 2790SOL     OW 9268   2.716   5.146   0.300
 2790SOL    HW1 9269   2.762   5.070   0.346
 2790SOL    HW2 9270   2.657   5.110   0.227
 2791SOL     OW 9271   0.210   4.247   2.113
 2791SOL    HW1 9272   0.261   4.164   2.094
 2791SOL    HW2 9273   0.226   4.276   2.208
 2792SOL     OW 9274   3.181   0.496   4.786
 2792SOL    HW1 9275   3.095   0.542   4.809
 2792SOL    HW2 9276   3.244   0.561   4.743
 2793SOL     OW 9277   4.473   4.427   1.310
 2793SOL    HW1 9278   4.573   4.424   1.306
 2793SOL    HW2 9279   4.444   4.474   1.393
 2794SOL     OW 9280   0.040   1.175   6.709
 2794SOL    HW1 9281   0.107   1.101   6.702
 2794SOL    HW2 9282   0.053   1.222   6.797
 2795SOL     OW 9283   0.518   4.791   0.828
 2795SOL    HW1 9284   0.497   4.700   0.792
 2795SOL    HW2 9285   0.459   4.811   0.906
 2796SOL     OW 9286   0.910   5.838   5.475
 2796SOL    HW1 9287   0.940   5.748   5.507
 2796SOL    HW2 9288   0.988   5.889   5.441
 2797SOL     OW 9289   5.700   5.605   5.259
 2797SOL    HW1 9290   5.734   5.513   5.278
 2797SOL    HW2 9291   5.776   5.670   5.263
 2798SOL     OW 9292   6.365   6.175   2.277
 2798SOL    HW1 9293   6.353   6.081   2.309
 2798SOL    HW2 9294   6.284   6.204   2.226
 2799SOL     OW 9295   4.906   5.610   5.504
 2799SOL    HW1 9296   4.923   5.662   5.587
 2799SOL    HW2 9297   4.887   5.672   5.428
 2800SOL     OW 9298   5.917   0.978   0.442
 2800SOL    HW1 9299   5.952   0.895   0.398
 2800SOL    HW2 9300   5.819   0.968   0.457
 2801SOL     OW 9301   0.711   5.335   5.911
 2801SOL    HW1 9302   0.675   5.242   5.901
 2801SOL    HW2 9303   0.738   5.370   5.821
 2802SOL     OW 9304   6.471   6.503   5.559
 2802SOL    HW1 9305   6.569   6.489   5.564
 2802SOL    HW2 9306   6.441   6.498   5.464
 2803SOL     OW 9307   3.467   3.381   6.100
 2803SOL    HW1 9308   3.467   3.343   6.008
 2803SOL    HW2 9309   3.402   3.457   6.105
 2804SOL     OW 9310   0.305   2.798   4.125
 2804SOL    HW1 9311   0.342   2.716   4.084
 2804SOL    HW2 9312   0.261   2.775   4.212
 2805SOL     OW 9313   5.034   3.734   2.217
 2805SOL    HW1 9314   5.014   3.703   2.124
 2805SOL    HW2 9315   5.008   3.663   2.282
 2806SOL     OW 9316   2.391   4.060   6.293
 2806SOL    HW1 9317   2.325   4.045   6.219
 2806SOL    HW2 9318   2.346   4.106   6.369
 2807SOL     OW 9319   2.795   0.841   3.119
 2807SOL    HW1 9320   2.770   0.832   3.023
 2807SOL    HW2 9321   2.734   0.783   3.174
 2808SOL     OW 9322   6.043   5.527   0.756
 2808SOL    HW1 9323   6.076   5.621   0.765
 2808SOL    HW2 9324   5.965   5.513   0.817
 2809SOL     OW 9325   5.733   3.951   2.144
 2809SOL    HW1 9326   5.700   3.905   2.226
 2809SOL    HW2 9327   5.734   3.887   2.067
 2810SOL     OW 9328   2.326   6.266   3.363
 2810SOL    HW1 9329   2.377   6.347   3.390
 2810SOL    HW2 9330   2.338   6.250   3.265
 2811SOL     OW 9331   0.980   0.498   2.617
 2811SOL    HW1 9332   0.909   0.508   2.547
 2811SOL    HW2 9333   1.065   0.541   2.584
 2812SOL     OW 9334   0.595   2.982   0.335
 2812SOL    HW1 9335   0.554   3.044   0.401
 2812SOL    HW2 9336   0.682   2.947   0.371
 2813SOL     OW 9337   0.904   1.717   0.992
 2813SOL    HW1 9338   0.900   1.813   0.963
 2813SOL    HW2 9339   0.886   1.658   0.913
 2814SOL     OW 9340   2.762   3.874   6.845
 2814SOL    HW1 9341   2.721   3.846   6.758
 2814SOL    HW2 9342   2.842   3.931   6.826
 2815SOL     OW 9343   0.103   6.091   5.214
 2815SOL    HW1 9344   0.018   6.039   5.219
 2815SOL    HW2 9345   0.181   6.032   5.236
 2816SOL     OW 9346   6.798   5.939   4.943
 2816SOL    HW1 9347   6.747   5.885   5.011
 2816SOL    HW2 9348   6.889   5.959   4.978
 2817SOL     OW 9349   3.880   0.576   2.050
 2817SOL    HW1 9350   3.790   0.536   2.065
 2817SOL    HW2 9351   3.903   0.637   2.126
 2818SOL     OW 9352   1.144   0.725   1.055
 2818SOL    HW1 9353   1.226   0.710   1.110
 2818SOL    HW2 9354   1.081   0.649   1.068
 2819SOL     OW 9355   0.928   0.407   0.775
 2819SOL    HW1 9356   0.844   0.360   0.749
 2819SOL    HW2 9357   0.908   0.503   0.795
 2820SOL     OW 9358   0.789   2.500   2.311
 2820SOL    HW1 9359   0.859   2.456   2.255
 2820SOL    HW2 9360   0.794   2.463   2.404
 2821SOL     OW 9361   4.108   5.133   6.167
 2821SOL    HW1 9362   4.118   5.154   6.070
 2821SOL    HW2 9363   4.054   5.050   6.178
 2822SOL     OW 9364   3.650   3.228   1.078
 2822SOL    HW1 9365   3.735   3.274   1.051
 2822SOL    HW2 9366   3.667   3.171   1.159
 2823SOL     OW 9367   4.889   0.911   0.653
 2823SOL    HW1 9368   4.823   0.981   0.626
 2823SOL    HW2 9369   4.944   0.886   0.574
 2824SOL     OW 9370   1.630   3.636   5.823
 2824SOL    HW1 9371   1.592   3.662   5.734
 2824SOL    HW2 9372   1.634   3.536   5.830
 2825SOL     OW 9373   5.333   0.545   6.850
 2825SOL    HW1 9374   5.278   0.623   6.879
 2825SOL    HW2 9375   5.409   0.576   6.793
 2826SOL     OW 9376   1.722   3.276   6.197
 2826SOL    HW1 9377   1.739   3.240   6.105
 2826SOL    HW2 9378   1.809   3.296   6.241
 2827SOL     OW 9379   0.317   0.641   6.895
 2827SOL    HW1 9380   0.327   0.560   6.838
 2827SOL    HW2 9381   0.242   0.697   6.860
 2828SOL     OW 9382   1.535   3.170   1.543
 2828SOL    HW1 9383   1.540   3.270   1.538
 2828SOL    HW2 9384   1.618   3.135   1.587
 2829SOL     OW 9385   2.966   3.830   3.448
 2829SOL    HW1 9386   2.964   3.772   3.367
 2829SOL    HW2 9387   3.059   3.836   3.483
 2830SOL     OW 9388   3.682   4.566   5.310
 2830SOL    HW1 9389   3.735   4.588   5.228
 2830SOL    HW2 9390   3.745   4.551   5.387
 2831SOL     OW 9391   6.612   2.321   2.003
 2831SOL    HW1 9392   6.589   2.276   2.089
 2831SOL    HW2 9393   6.528   2.338   1.951
 2832SOL     OW 9394   0.963   3.393   1.469
 2832SOL    HW1 9395   1.003   3.436   1.550
 2832SOL    HW2 9396   0.972   3.294   1.476
 2833SOL     OW 9397   2.364   0.573   1.946
 2833SOL    HW1 9398   2.417   0.506   1.894
 2833SOL    HW2 9399   2.390   0.666   1.917
 2834SOL     OW 9400   4.420   6.150   4.932
 2834SOL    HW1 9401   4.361   6.190   5.002
 2834SOL    HW2 9402   4.364   6.098   4.867
 2835SOL     OW 9403   1.341   6.328   0.660
 2835SOL    HW1 9404   1.440   6.319   0.648
 2835SOL    HW2 9405   1.309   6.254   0.720
 2836SOL     OW 9406   3.639   6.703   3.339
 2836SOL    HW1 9407   3.596   6.716   3.428
 2836SOL    HW2 9408   3.694   6.621   3.340
 2837SOL     OW 9409   5.882   4.185   2.178
 2837SOL    HW1 9410   5.834   4.102   2.152
 2837SOL    HW2 9411   5.966   4.161   2.226
 2838SOL     OW 9412   4.867   3.951   6.006
 2838SOL    HW1 9413   4.793   3.902   6.053
 2838SOL    HW2 9414   4.936   3.980   6.073
 2839SOL     OW 9415   6.549   3.181   3.867
 2839SOL    HW1 9416   6.491   3.261   3.882
 2839SOL    HW2 9417   6.596   3.189   3.779
 2840SOL     OW 9418   0.727   5.396   2.682
 2840SOL    HW1 9419   0.721   5.479   2.737
 2840SOL    HW2 9420   0.686   5.319   2.732
 2841SOL     OW 9421   5.952   2.323   0.947
 2841SOL    HW1 9422   5.971   2.310   0.849
 2841SOL    HW2 9423   6.025   2.377   0.988
 2842SOL     OW 9424   1.123   6.004   4.528
 2842SOL    HW1 9425   1.098   5.920   4.480
 2842SOL    HW2 9426   1.061   6.078   4.502
 2843SOL     OW 9427   2.026   3.266   3.138
 2843SOL    HW1 9428   1.984   3.229   3.056
 2843SOL    HW2 9429   1.965   3.334   3.179
 2844SOL     OW 9430   5.044   4.373   1.181
 2844SOL    HW1 9431   5.049   4.472   1.185
 2844SOL    HW2 9432   4.973   4.345   1.116
 2845SOL     OW 9433   4.912   3.215   3.499
 2845SOL    HW1 9434   4.923   3.291   3.435
 2845SOL    HW2 9435   4.863   3.245   3.580
 2846SOL     OW 9436   4.479   0.462   0.175
 2846SOL    HW1 9437   4.538   0.399   0.226
 2846SOL    HW2 9438   4.536   0.532   0.131
 2847SOL     OW 9439   4.694   4.347   2.226
 2847SOL    HW1 9440   4.734   4.257   2.245
 2847SOL    HW2 9441   4.630   4.339   2.150
 2848SOL     OW 9442   0.700   3.068   5.003
 2848SOL    HW1 9443   0.741   3.134   5.065
 2848SOL    HW2 9444   0.711   2.976   5.040
 2849SOL     OW 9445   3.654   0.929   2.270
 2849SOL    HW1 9446   3.748   0.902   2.250
 2849SOL    HW2 9447   3.627   1.003   2.208
 2850SOL     OW 9448   2.502   6.729   3.599
 2850SOL    HW1 9449   2.593   6.736   3.641
 2850SOL    HW2 9450   2.436   6.777   3.657
 2851SOL     OW 9451   4.666   3.399   0.273
 2851SOL    HW1 9452   4.657   3.307   0.310
 2851SOL    HW2 9453   4.733   3.399   0.199
 2852SOL     OW 9454   6.242   4.297   6.499
 2852SOL    HW1 9455   6.275   4.390   6.486
 2852SOL    HW2 9456   6.173   4.295   6.571
 2853SOL     OW 9457   0.356   3.432   0.311
 2853SOL    HW1 9458   0.344   3.400   0.217
 2853SOL    HW2 9459   0.440   3.485   0.319
 2854SOL     OW 9460   3.022   1.116   6.737
 2854SOL    HW1 9461   3.096   1.116   6.670
 2854SOL    HW2 9462   2.978   1.205   6.739
 2855SOL     OW 9463   0.970   2.139   4.613
 2855SOL    HW1 9464   1.042   2.076   4.586
 2855SOL    HW2 9465   0.965   2.214   4.547
 2856SOL     OW 9466   1.677   3.969   3.116
 2856SOL    HW1 9467   1.709   4.057   3.150
 2856SOL    HW2 9468   1.614   3.928   3.182
 2857SOL     OW 9469   0.104   3.087   0.399
 2857SOL    HW1 9470   0.108   3.172   0.451
 2857SOL    HW2 9471   0.068   3.106   0.307
 2858SOL     OW 9472   5.314   6.002   3.015
 2858SOL    HW1 9473   5.251   5.966   2.946
 2858SOL    HW2 9474   5.399   5.949   3.013
 2859SOL     OW 9475   5.475   5.980   0.642
 2859SOL    HW1 9476   5.528   5.921   0.703
 2859SOL    HW2 9477   5.537   6.024   0.576
 2860SOL     OW 9478   1.831   5.887   1.612
 2860SOL    HW1 9479   1.783   5.816   1.664
 2860SOL    HW2 9480   1.765   5.939   1.557
 2861SOL     OW 9481   3.821   5.064   5.990
 2861SOL    HW1 9482   3.731   5.035   5.959
 2861SOL    HW2 9483   3.891   5.009   5.944
 2862SOL     OW 9484   4.510   3.053   1.177
 2862SOL    HW1 9485   4.580   3.080   1.110
 2862SOL    HW2 9486   4.552   3.043   1.267
 2863SOL     OW 9487   5.119   0.600   6.329
 2863SOL    HW1 9488   5.141   0.695   6.307
 2863SOL    HW2 9489   5.203   0.545   6.329
 2864SOL     OW 9490   4.349   3.475   1.648
 2864SOL    HW1 9491   4.366   3.379   1.670
 2864SOL    HW2 9492   4.333   3.484   1.550
 2865SOL     OW 9493   4.816   6.230   4.230
 2865SOL    HW1 9494   4.757   6.149   4.232
 2865SOL    HW2 9495   4.810   6.277   4.318
 2866SOL     OW 9496   5.406   4.557   6.556
 2866SOL    HW1 9497   5.364   4.603   6.478
 2866SOL    HW2 9498   5.346   4.565   6.635
 2867SOL     OW 9499   6.080   6.636   2.414
 2867SOL    HW1 9500   6.165   6.585   2.414
 2867SOL    HW2 9501   6.040   6.635   2.322
 2868SOL     OW 9502   1.254   1.474   6.014
 2868SOL    HW1 9503   1.179   1.532   5.982
 2868SOL    HW2 9504   1.337   1.529   6.024
 2869SOL     OW 9505   5.517   6.718   4.114
 2869SOL    HW1 9506   5.550   6.624   4.107
 2869SOL    HW2 9507   5.564   6.775   4.046
 2870SOL     OW 9508   1.251   1.462   0.708
 2870SOL    HW1 9509   1.212   1.495   0.622
 2870SOL    HW2 9510   1.341   1.422   0.691
 2871SOL     OW 9511   6.787   1.122   1.787
 2871SOL    HW1 9512   6.846   1.073   1.723
 2871SOL    HW2 9513   6.697   1.137   1.744
 2872SOL     OW 9514   2.441   1.834   2.383
 2872SOL    HW1 9515   2.533   1.796   2.374
 2872SOL    HW2 9516   2.377   1.761   2.409
 2873SOL     OW 9517   0.626   5.725   1.123
 2873SOL    HW1 9518   0.715   5.738   1.079
 2873SOL    HW2 9519   0.627   5.768   1.214
 2874SOL     OW 9520   3.327   0.439   2.713
 2874SOL    HW1 9521   3.233   0.437   2.679
 2874SOL    HW2 9522   3.368   0.349   2.703
 2875SOL     OW 9523   2.761   0.007   2.827
 2875SOL    HW1 9524   2.814   0.086   2.797
 2875SOL    HW2 9525   2.738   6.974   2.747
 2876SOL     OW 9526   1.682   5.859   2.365
 2876SOL    HW1 9527   1.627   5.860   2.282
 2876SOL    HW2 9528   1.754   5.789   2.358
 2877SOL     OW 9529   1.811   1.994   6.151
 2877SOL    HW1 9530   1.853   2.001   6.241
 2877SOL    HW2 9531   1.764   1.906   6.142
 2878SOL     OW 9532   3.270   2.949   4.770
 2878SOL    HW1 9533   3.208   2.877   4.801
 2878SOL    HW2 9534   3.245   3.036   4.813
 2879SOL     OW 9535   4.969   4.666   5.879
 2879SOL    HW1 9536   4.889   4.607   5.873
 2879SOL    HW2 9537   4.975   4.722   5.796
 2880SOL     OW 9538   0.698   2.029   4.075
 2880SOL    HW1 9539   0.738   1.938   4.077
 2880SOL    HW2 9540   0.770   2.097   4.060
 2881SOL     OW 9541   3.471   5.521   6.778
 2881SOL    HW1 9542   3.535   5.479   6.714
 2881SOL    HW2 9543   3.474   5.621   6.767
 2882SOL     OW 9544   5.935   6.163   0.535
 2882SOL    HW1 9545   5.966   6.113   0.617
 2882SOL    HW2 9546   5.840   6.139   0.515
 2883SOL     OW 9547   6.573   6.321   2.886
 2883SOL    HW1 9548   6.602   6.245   2.829
 2883SOL    HW2 9549   6.482   6.302   2.924
 2884SOL     OW 9550   0.186   5.207   2.853
 2884SOL    HW1 9551   0.133   5.123   2.866
 2884SOL    HW2 9552   0.204   5.250   2.941
 2885SOL     OW 9553   1.532   3.032   3.465
 2885SOL    HW1 9554   1.480   3.073   3.540
 2885SOL    HW2 9555   1.630   3.041   3.483
 2886SOL     OW 9556   2.374   4.445   6.767
 2886SOL    HW1 9557   2.406   4.539   6.774
 2886SOL    HW2 9558   2.350   4.424   6.672
 2887SOL     OW 9559   0.504   6.001   4.408
 2887SOL    HW1 9560   0.599   6.002   4.376
 2887SOL    HW2 9561   0.499   5.950   4.494
 2888SOL     OW 9562   0.150   6.183   0.163
 2888SOL    HW1 9563   0.065   6.158   0.115
 2888SOL    HW2 9564   0.228   6.160   0.105
 2889SOL     OW 9565   2.765   0.035   3.319
 2889SOL    HW1 9566   2.839   0.090   3.359
 2889SOL    HW2 9567   2.677   0.070   3.350
 2890SOL     OW 9568   2.229   5.963   1.043
 2890SOL    HW1 9569   2.301   5.908   1.085
 2890SOL    HW2 9570   2.261   5.998   0.955
 2891SOL     OW 9571   0.517   3.077   2.622
 2891SOL    HW1 9572   0.502   2.988   2.579
 2891SOL    HW2 9573   0.455   3.089   2.699
 2892SOL     OW 9574   6.313   3.971   0.983
 2892SOL    HW1 9575   6.386   4.015   1.035
 2892SOL    HW2 9576   6.347   3.886   0.942
 2893SOL     OW 9577   1.025   5.919   4.905
 2893SOL    HW1 9578   1.113   5.899   4.861
 2893SOL    HW2 9579   0.958   5.946   4.835
 2894SOL     OW 9580   1.792   4.370   1.573
 2894SOL    HW1 9581   1.714   4.415   1.618
 2894SOL    HW2 9582   1.796   4.274   1.602
 2895SOL     OW 9583   3.996   0.399   6.276
 2895SOL    HW1 9584   3.928   0.403   6.203
 2895SOL    HW2 9585   4.077   0.350   6.244
 2896SOL     OW 9586   5.616   6.957   5.852
 2896SOL    HW1 9587   5.707   6.924   5.826
 2896SOL    HW2 9588   5.580   7.016   5.780
 2897SOL     OW 9589   3.554   5.526   2.563
 2897SOL    HW1 9590   3.468   5.559   2.525
 2897SOL    HW2 9591   3.544   5.430   2.590
 2898SOL     OW 9592   6.288   3.703   3.501
 2898SOL    HW1 9593   6.368   3.654   3.467
 2898SOL    HW2 9594   6.225   3.722   3.425
 2899SOL     OW 9595   0.112   2.193   1.284
 2899SOL    HW1 9596   0.135   2.126   1.213
 2899SOL    HW2 9597   0.191   2.208   1.343
 2900SOL     OW 9598   3.288   3.691   0.238
 2900SOL    HW1 9599   3.316   3.723   0.148
 2900SOL    HW2 9600   3.204   3.738   0.265
 2901SOL     OW 9601   1.788   4.692   3.531
 2901SOL    HW1 9602   1.709   4.729   3.581
 2901SOL    HW2 9603   1.770   4.597   3.506
 2902SOL     OW 9604   0.447   5.901   4.074
 2902SOL    HW1 9605   0.416   5.810   4.099
 2902SOL    HW2 9606   0.543   5.912   4.103
 2903SOL     OW 9607   4.608   6.199   0.565
 2903SOL    HW1 9608   4.594   6.220   0.662
 2903SOL    HW2 9609   4.615   6.284   0.513
 2904SOL     OW 9610   2.703   4.816   4.795
 2904SOL    HW1 9611   2.746   4.757   4.864
 2904SOL    HW2 9612   2.765   4.892   4.773
 2905SOL     OW 9613   0.962   4.634   2.597
 2905SOL    HW1 9614   0.881   4.580   2.571
 2905SOL    HW2 9615   1.041   4.573   2.604
 2906SOL     OW 9616   5.108   6.211   3.027
 2906SOL    HW1 9617   5.020   6.173   3.056
 2906SOL    HW2 9618   5.181   6.144   3.046
 2907SOL     OW 9619   1.124   0.835   4.007
 2907SOL    HW1 9620   1.102   0.803   4.099
 2907SOL    HW2 9621   1.221   0.857   4.003
 2908SOL     OW 9622   4.934   0.504   3.673
 2908SOL    HW1 9623   5.030   0.478   3.661
 2908SOL    HW2 9624   4.881   0.424   3.699
 2909SOL     OW 9625   1.120   6.299   3.010
 2909SOL    HW1 9626   1.133   6.215   3.063
 2909SOL    HW2 9627   1.104   6.275   2.914
 2910SOL     OW 9628   6.691   0.930   3.892
 2910SOL    HW1 9629   6.651   0.856   3.945
 2910SOL    HW2 9630   6.785   0.905   3.866
 2911SOL     OW 9631   0.715   4.902   3.780
 2911SOL    HW1 9632   0.629   4.870   3.739
 2911SOL    HW2 9633   0.757   4.828   3.832
 2912SOL     OW 9634   0.037   6.443   0.596
 2912SOL    HW1 9635   0.053   6.374   0.525
 2912SOL    HW2 9636   7.002   6.404   0.668
 2913SOL     OW 9637   1.887   4.481   2.083
 2913SOL    HW1 9638   1.857   4.438   2.168
 2913SOL    HW2 9639   1.965   4.541   2.101
 2914SOL     OW 9640   5.119   4.905   0.413
 2914SOL    HW1 9641   5.068   4.945   0.488
 2914SOL    HW2 9642   5.217   4.903   0.437
 2915SOL     OW 9643   3.206   2.090   2.644
 2915SOL    HW1 9644   3.277   2.151   2.609
 2915SOL    HW2 9645   3.127   2.093   2.583
 2916SOL     OW 9646   2.540   5.072   0.076
 2916SOL    HW1 9647   2.493   5.155   0.045
 2916SOL    HW2 9648   2.497   5.039   0.160
 2917SOL     OW 9649   2.634   0.260   3.965
 2917SOL    HW1 9650   2.670   0.287   4.055
 2917SOL    HW2 9651   2.537   0.284   3.960
 2918SOL     OW 9652   6.059   3.837   1.092
 2918SOL    HW1 9653   6.057   3.775   1.170
 2918SOL    HW2 9654   6.154   3.860   1.070
 2919SOL     OW 9655   0.507   5.906   4.653
 2919SOL    HW1 9656   0.548   5.997   4.657
 2919SOL    HW2 9657   0.467   5.884   4.741
 2920SOL     OW 9658   2.101   0.437   1.920
 2920SOL    HW1 9659   2.192   0.479   1.925
 2920SOL    HW2 9660   2.063   0.428   2.012
 2921SOL     OW 9661   0.069   0.150   5.848
 2921SOL    HW1 9662   0.003   0.076   5.848
 2921SOL    HW2 9663   0.030   0.230   5.892
 2922SOL     OW 9664   4.468   0.196   2.789
 2922SOL    HW1 9665   4.557   0.178   2.830
 2922SOL    HW2 9666   4.450   0.294   2.789
 2923SOL     OW 9667   6.616   4.743   4.684
 2923SOL    HW1 9668   6.609   4.648   4.654
 2923SOL    HW2 9669   6.616   4.804   4.605
 2924SOL     OW 9670   0.050   1.751   5.344
 2924SOL    HW1 9671   0.111   1.805   5.401
 2924SOL    HW2 9672   0.049   1.788   5.251
 2925SOL     OW 9673   5.364   1.194   6.332
 2925SOL    HW1 9674   5.346   1.182   6.429
 2925SOL    HW2 9675   5.328   1.283   6.302
 2926SOL     OW 9676   0.243   1.898   5.446
 2926SOL    HW1 9677   0.291   1.985   5.452
 2926SOL    HW2 9678   0.257   1.846   5.530
 2927SOL     OW 9679   2.219   3.289   1.137
 2927SOL    HW1 9680   2.128   3.277   1.099
 2927SOL    HW2 9681   2.248   3.384   1.126
 2928SOL     OW 9682   6.623   1.632   0.346
 2928SOL    HW1 9683   6.697   1.612   0.410
 2928SOL    HW2 9684   6.624   1.729   0.323
 2929SOL     OW 9685   1.197   2.901   4.818
 2929SOL    HW1 9686   1.098   2.890   4.804
 2929SOL    HW2 9687   1.245   2.881   4.733
 2930SOL     OW 9688   6.356   5.385   5.452
 2930SOL    HW1 9689   6.360   5.338   5.540
 2930SOL    HW2 9690   6.380   5.482   5.464
 2931SOL     OW 9691   4.054   4.449   0.166
 2931SOL    HW1 9692   4.122   4.522   0.166
 2931SOL    HW2 9693   4.009   4.446   0.076
 2932SOL     OW 9694   6.859   5.903   1.834
 2932SOL    HW1 9695   6.936   5.939   1.781
 2932SOL    HW2 9696   6.814   5.830   1.783
 2933SOL     OW 9697   0.754   0.063   1.911
 2933SOL    HW1 9698   0.763   0.050   2.010
 2933SOL    HW2 9699   0.694   0.142   1.894
 2934SOL     OW 9700   4.035   3.134   1.331
 2934SOL    HW1 9701   4.118   3.191   1.329
 2934SOL    HW2 9702   3.958   3.187   1.295
 2935SOL     OW 9703   0.519   2.605   6.173
 2935SOL    HW1 9704   0.457   2.535   6.137
 2935SOL    HW2 9705   0.559   2.573   6.258
 2936SOL     OW 9706   4.589   0.373   0.512
 2936SOL    HW1 9707   4.573   0.472   0.519
 2936SOL    HW2 9708   4.647   0.344   0.588
 2937SOL     OW 9709   4.651   5.530   1.266
 2937SOL    HW1 9710   4.632   5.628   1.262
 2937SOL    HW2 9711   4.734   5.514   1.319
 2938SOL     OW 9712   5.951   5.610   6.968
 2938SOL    HW1 9713   6.026   5.572   6.913
 2938SOL    HW2 9714   5.935   5.705   6.941
 2939SOL     OW 9715   0.531   6.141   1.839
 2939SOL    HW1 9716   0.555   6.220   1.895
 2939SOL    HW2 9717   0.490   6.172   1.753
 2940SOL     OW 9718   6.014   6.057   4.496
 2940SOL    HW1 9719   5.971   6.073   4.407
 2940SOL    HW2 9720   6.076   6.132   4.517
 2941SOL     OW 9721   1.938   2.771   3.175
 2941SOL    HW1 9722   1.860   2.834   3.174
 2941SOL    HW2 9723   1.914   2.689   3.227
 2942SOL     OW 9724   2.681   1.974   6.767
 2942SOL    HW1 9725   2.693   1.937   6.675
 2942SOL    HW2 9726   2.628   1.909   6.822
 2943SOL     OW 9727   6.236   4.447   3.616
 2943SOL    HW1 9728   6.196   4.410   3.533
 2943SOL    HW2 9729   6.166   4.453   3.687
 2944SOL     OW 9730   2.521   6.035   3.686
 2944SOL    HW1 9731   2.434   6.071   3.653
 2944SOL    HW2 9732   2.513   6.015   3.784
 2945SOL     OW 9733   5.310   3.964   1.727
 2945SOL    HW1 9734   5.274   3.998   1.640
 2945SOL    HW2 9735   5.239   3.970   1.797
 2946SOL     OW 9736   2.964   3.999   5.777
 2946SOL    HW1 9737   3.016   4.084   5.786
 2946SOL    HW2 9738   2.915   3.981   5.863
 2947SOL     OW 9739   6.638   6.314   0.475
 2947SOL    HW1 9740   6.572   6.382   0.509
 2947SOL    HW2 9741   6.592   6.252   0.412
 2948SOL     OW 9742   5.766   4.779   3.105
 2948SOL    HW1 9743   5.822   4.740   3.032
 2948SOL    HW2 9744   5.825   4.802   3.183
 2949SOL     OW 9745   0.970   6.312   0.642
 2949SOL    HW1 9746   1.068   6.316   0.626
 2949SOL    HW2 9747   0.942   6.387   0.701
 2950SOL     OW 9748   5.490   4.538   2.486
 2950SOL    HW1 9749   5.482   4.446   2.448
 2950SOL    HW2 9750   5.497   4.532   2.585
 2951SOL     OW 9751   5.681   0.769   1.680
 2951SOL    HW1 9752   5.605   0.704   1.688
 2951SOL    HW2 9753   5.748   0.734   1.614
 2952SOL     OW 9754   6.190   0.772   4.939
 2952SOL    HW1 9755   6.102   0.737   4.907
 2952SOL    HW2 9756   6.210   0.859   4.894
 2953SOL     OW 9757   0.142   5.611   3.067
 2953SOL    HW1 9758   0.097   5.545   3.007
 2953SOL    HW2 9759   0.118   5.591   3.162
 2954SOL     OW 9760   0.586   4.564   6.548
 2954SOL    HW1 9761   0.588   4.495   6.475
 2954SOL    HW2 9762   0.594   4.518   6.637
 2955SOL     OW 9763   1.314   4.210   7.007
 2955SOL    HW1 9764   1.285   4.228   0.078
 2955SOL    HW2 9765   1.352   4.117   7.002
 2956SOL     OW 9766   0.064   4.680   4.126
 2956SOL    HW1 9767   0.124   4.717   4.056
 2956SOL    HW2 9768   0.042   4.752   4.193
 2957SOL     OW 9769   3.560   5.317   1.816
 2957SOL    HW1 9770   3.481   5.270   1.854
 2957SOL    HW2 9771   3.642   5.261   1.828
 2958SOL     OW 9772   1.697   5.307   2.996
 2958SOL    HW1 9773   1.636   5.350   3.062
 2958SOL    HW2 9774   1.755   5.377   2.953
 2959SOL     OW 9775   5.566   2.214   3.134
 2959SOL    HW1 9776   5.612   2.288   3.183
 2959SOL    HW2 9777   5.468   2.218   3.152
 2960SOL     OW 9778   3.807   0.736   0.260
 2960SOL    HW1 9779   3.895   0.705   0.226
 2960SOL    HW2 9780   3.779   0.678   0.336
 2961SOL     OW 9781   5.416   4.664   2.946
 2961SOL    HW1 9782   5.503   4.662   2.897
 2961SOL    HW2 9783   5.408   4.751   2.995
 2962SOL     OW 9784   5.270   6.747   3.015
 2962SOL    HW1 9785   5.259   6.656   2.976
 2962SOL    HW2 9786   5.306   6.809   2.945
 2963SOL     OW 9787   1.440   1.047   5.867
 2963SOL    HW1 9788   1.474   0.967   5.917
 2963SOL    HW2 9789   1.439   1.127   5.928
 2964SOL     OW 9790   0.289   2.645   6.999
 2964SOL    HW1 9791   0.296   2.719   0.043
 2964SOL    HW2 9792   0.355   2.574   7.022
 2965SOL     OW 9793   0.711   0.881   4.909
 2965SOL    HW1 9794   0.625   0.835   4.930
 2965SOL    HW2 9795   0.739   0.936   4.988
 2966SOL     OW 9796   4.469   5.791   3.887
 2966SOL    HW1 9797   4.396   5.774   3.953
 2966SOL    HW2 9798   4.450   5.741   3.802
 2967SOL     OW 9799   6.967   1.366   5.727
 2967SOL    HW1 9800   0.020   1.345   5.665
 2967SOL    HW2 9801   7.003   1.387   5.818
 2968SOL     OW 9802   2.332   3.054   1.002
 2968SOL    HW1 9803   2.283   3.127   1.051
 2968SOL    HW2 9804   2.344   2.976   1.063
 2969SOL     OW 9805   4.865   3.737   4.690
 2969SOL    HW1 9806   4.934   3.673   4.656
 2969SOL    HW2 9807   4.799   3.688   4.747
 2970SOL     OW 9808   2.657   2.787   5.689
 2970SOL    HW1 9809   2.592   2.860   5.668
 2970SOL    HW2 9810   2.741   2.801   5.636
 2971SOL     OW 9811   5.669   3.860   0.054
 2971SOL    HW1 9812   5.642   3.956   0.053
 2971SOL    HW2 9813   5.610   3.810   0.117
 2972SOL     OW 9814   6.060   5.063   6.934
 2972SOL    HW1 9815   6.158   5.056   6.920
 2972SOL    HW2 9816   6.023   5.136   6.876
 2973SOL     OW 9817   4.455   0.032   2.216
 2973SOL    HW1 9818   4.441   0.126   2.247
 2973SOL    HW2 9819   4.489   0.033   2.122
 2974SOL     OW 9820   6.198   4.822   3.227
 2974SOL    HW1 9821   6.230   4.811   3.321
 2974SOL    HW2 9822   6.260   4.881   3.176
 2975SOL     OW 9823   4.807   4.654   3.734
 2975SOL    HW1 9824   4.753   4.731   3.701
 2975SOL    HW2 9825   4.899   4.685   3.758
 2976SOL     OW 9826   4.717   1.959   3.302
 2976SOL    HW1 9827   4.659   2.040   3.291
 2976SOL    HW2 9828   4.685   1.905   3.380
 2977SOL     OW 9829   0.872   0.380   2.308
 2977SOL    HW1 9830   0.926   0.463   2.292
 2977SOL    HW2 9831   0.775   0.405   2.318
 2978SOL     OW 9832   4.333   4.092   6.500
 2978SOL    HW1 9833   4.241   4.118   6.529
 2978SOL    HW2 9834   4.342   4.109   6.402
 2979SOL     OW 9835   3.400   1.785   4.636
 2979SOL    HW1 9836   3.373   1.862   4.577
 2979SOL    HW2 9837   3.445   1.715   4.581
 2980SOL     OW 9838   3.611   4.263   6.567
 2980SOL    HW1 9839   3.681   4.293   6.501
 2980SOL    HW2 9840   3.561   4.342   6.601
 2981SOL     OW 9841   1.970   1.659   0.046
 2981SOL    HW1 9842   1.995   1.595   6.996
 2981SOL    HW2 9843   1.893   1.623   0.097
 2982SOL     OW 9844   1.843   6.321   2.017
 2982SOL    HW1 9845   1.796   6.388   2.075
 2982SOL    HW2 9846   1.862   6.239   2.071
 2983SOL     OW 9847   6.968   2.506   6.609
 2983SOL    HW1 9848   6.948   2.418   6.565
 2983SOL    HW2 9849   0.013   2.556   6.554
 2984SOL     OW 9850   6.325   4.815   7.000
 2984SOL    HW1 9851   6.388   4.759   6.946
 2984SOL    HW2 9852   6.271   4.756   0.038
 2985SOL     OW 9853   0.595   0.363   4.752
 2985SOL    HW1 9854   0.659   0.378   4.827
 2985SOL    HW2 9855   0.637   0.302   4.685
 2986SOL     OW 9856   3.263   4.004   2.617
 2986SOL    HW1 9857   3.343   4.009   2.677
 2986SOL    HW2 9858   3.180   4.004   2.673
 2987SOL     OW 9859   1.196   2.392   4.156
 2987SOL    HW1 9860   1.175   2.377   4.059
 2987SOL    HW2 9861   1.197   2.490   4.175
 2988SOL     OW 9862   1.321   0.520   1.586
 2988SOL    HW1 9863   1.225   0.548   1.571
 2988SOL    HW2 9864   1.329   0.421   1.576
 2989SOL     OW 9865   5.275   3.352   5.189
 2989SOL    HW1 9866   5.176   3.355   5.204
 2989SOL    HW2 9867   5.294   3.325   5.095
 2990SOL     OW 9868   5.298   1.992   4.444
 2990SOL    HW1 9869   5.294   2.073   4.502
 2990SOL    HW2 9870   5.212   1.941   4.450
 2991SOL     OW 9871   5.938   3.855   0.806
 2991SOL    HW1 9872   6.023   3.815   0.770
 2991SOL    HW2 9873   5.949   3.874   0.903
 2992SOL     OW 9874   0.589   3.876   4.565
 2992SOL    HW1 9875   0.582   3.777   4.547
 2992SOL    HW2 9876   0.665   3.892   4.628
 2993SOL     OW 9877   0.526   4.276   0.129
 2993SOL    HW1 9878   0.593   4.312   0.063
 2993SOL    HW2 9879   0.474   4.202   0.086
 2994SOL     OW 9880   4.858   6.372   6.548
 2994SOL    HW1 9881   4.955   6.364   6.573
 2994SOL    HW2 9882   4.806   6.400   6.629
 2995SOL     OW 9883   4.518   0.659   0.540
 2995SOL    HW1 9884   4.427   0.653   0.498
 2995SOL    HW2 9885   4.536   0.753   0.567
 2996SOL     OW 9886   1.527   1.979   4.700
 2996SOL    HW1 9887   1.578   1.918   4.761
 2996SOL    HW2 9888   1.478   2.047   4.754
 2997SOL     OW 9889   4.405   0.545   3.291
 2997SOL    HW1 9890   4.342   0.467   3.293
 2997SOL    HW2 9891   4.365   0.618   3.236
 2998SOL     OW 9892   2.970   0.559   3.961
 2998SOL    HW1 9893   2.935   0.652   3.954
 2998SOL    HW2 9894   3.013   0.533   3.875
 2999SOL     OW 9895   3.090   4.456   6.830
 2999SOL    HW1 9896   3.105   4.527   6.761
 2999SOL    HW2 9897   3.101   4.366   6.787
 3000SOL     OW 9898   2.841   3.439   5.969
 3000SOL    HW1 9899   2.848   3.342   5.946
 3000SOL    HW2 9900   2.922   3.487   5.934
 3001SOL     OW 9901   5.715   1.051   0.023
 3001SOL    HW1 9902   5.736   0.969   0.078
 3001SOL    HW2 9903   5.725   1.029   6.949
 3002SOL     OW 9904   2.849   1.736   1.046
 3002SOL    HW1 9905   2.941   1.748   1.009
 3002SOL    HW2 9906   2.838   1.643   1.079
 3003SOL     OW 9907   1.625   6.023   1.077
 3003SOL    HW1 9908   1.525   6.026   1.070
 3003SOL    HW2 9909   1.660   5.955   1.012
 3004SOL     OW 9910   2.053   4.382   4.377
 3004SOL    HW1 9911   2.074   4.437   4.295
 3004SOL    HW2 9912   2.136   4.337   4.409
 3005SOL     OW 9913   0.917   3.122   5.706
 3005SOL    HW1 9914   1.003   3.148   5.661
 3005SOL    HW2 9915   0.889   3.194   5.770
 3006SOL     OW 9916   5.223   1.603   5.801
 3006SOL    HW1 9917   5.213   1.505   5.785
 3006SOL    HW2 9918   5.246   1.618   5.897
 3007SOL     OW 9919   5.095   5.558   0.113
 3007SOL    HW1 9920   5.146   5.481   0.151
 3007SOL    HW2 9921   5.102   5.637   0.174
 3008SOL     OW 9922   4.031   2.121   6.011
 3008SOL    HW1 9923   3.935   2.145   5.993
 3008SOL    HW2 9924   4.091   2.192   5.975
 3009SOL     OW 9925   6.774   2.553   3.054
 3009SOL    HW1 9926   6.756   2.645   3.087
 3009SOL    HW2 9927   6.796   2.493   3.132
 3010SOL     OW 9928   3.992   5.599   5.953
 3010SOL    HW1 9929   3.945   5.511   5.957
 3010SOL    HW2 9930   3.943   5.660   5.891
 3011SOL     OW 9931   6.590   0.029   1.981
 3011SOL    HW1 9932   6.655   6.996   1.929
 3011SOL    HW2 9933   6.618   0.125   1.977
 3012SOL     OW 9934   2.771   3.543   6.670
 3012SOL    HW1 9935   2.800   3.556   6.765
 3012SOL    HW2 9936   2.779   3.630   6.621
 3013SOL     OW 9937   6.731   5.483   3.227
 3013SOL    HW1 9938   6.699   5.426   3.151
 3013SOL    HW2 9939   6.744   5.425   3.308
 3014SOL     OW 9940   5.173   0.862   6.309
 3014SOL    HW1 9941   5.271   0.878   6.321
 3014SOL    HW2 9942   5.124   0.948   6.320
 3015SOL     OW 9943   2.726   1.117   0.534
 3015SOL    HW1 9944   2.650   1.086   0.476
 3015SOL    HW2 9945   2.690   1.158   0.617
 3016SOL     OW 9946   3.478   6.912   4.476
 3016SOL    HW1 9947   3.460   6.881   4.569
 3016SOL    HW2 9948   3.392   6.928   4.429
 3017SOL     OW 9949   6.495   5.078   2.002
 3017SOL    HW1 9950   6.427   5.071   2.075
 3017SOL    HW2 9951   6.487   4.998   1.942
 3018SOL     OW 9952   3.927   7.013   0.315
 3018SOL    HW1 9953   3.953   6.943   0.248
 3018SOL    HW2 9954   3.885   0.067   0.267
 3019SOL     OW 9955   1.276   6.999   0.041
 3019SOL    HW1 9956   1.218   6.975   6.987
 3019SOL    HW2 9957   1.220   7.005   0.124
 3020SOL     OW 9958   5.204   3.357   6.993
 3020SOL    HW1 9959   5.201   3.379   6.896
 3020SOL    HW2 9960   5.289   3.310   7.014
 3021SOL     OW 9961   3.115   6.459   4.387
 3021SOL    HW1 9962   3.074   6.546   4.416
 3021SOL    HW2 9963   3.093   6.443   4.291
 3022SOL     OW 9964   3.778   6.208   3.218
 3022SOL    HW1 9965   3.699   6.186   3.276
 3022SOL    HW2 9966   3.857   6.227   3.276
 3023SOL     OW 9967   3.928   6.913   3.017
 3023SOL    HW1 9968   3.913   6.827   3.065
 3023SOL    HW2 9969   3.965   6.895   2.926
 3024SOL     OW 9970   6.723   6.261   5.038
 3024SOL    HW1 9971   6.776   6.195   4.984
 3024SOL    HW2 9972   6.778   6.342   5.056
 3025SOL     OW 9973   4.233   5.850   0.471
 3025SOL    HW1 9974   4.292   5.926   0.500
 3025SOL    HW2 9975   4.152   5.848   0.529
 3026SOL     OW 9976   5.978   1.107   0.665
 3026SOL    HW1 9977   5.952   1.203   0.654
 3026SOL    HW2 9978   5.976   1.061   0.575
 3027SOL     OW 9979   4.242   1.429   1.905
 3027SOL    HW1 9980   4.149   1.460   1.927
 3027SOL    HW2 9981   4.238   1.347   1.849
 3028SOL     OW 9982   1.910   4.129   6.471
 3028SOL    HW1 9983   1.940   4.214   6.514
 3028SOL    HW2 9984   1.874   4.068   6.542
 3029SOL     OW 9985   0.730   2.552   4.356
 3029SOL    HW1 9986   0.753   2.547   4.259
 3029SOL    HW2 9987   0.729   2.648   4.385
 3030SOL     OW 9988   1.496   4.106   0.976
 3030SOL    HW1 9989   1.573   4.126   0.915
 3030SOL    HW2 9990   1.417   4.162   0.951
 3031SOL     OW 9991   1.556   5.156   1.261
 3031SOL    HW1 9992   1.467   5.136   1.303
 3031SOL    HW2 9993   1.623   5.171   1.333
 3032SOL     OW 9994   1.919   0.014   3.431
 3032SOL    HW1 9995   1.992   6.969   3.443
 3032SOL    HW2 9996   1.954   0.105   3.452
 3033SOL     OW 9997   6.105   2.661   3.919
 3033SOL    HW1 9998   6.058   2.725   3.980
 3033SOL    HW2 9999   6.127   2.577   3.970
 3034SOL     OW10000   0.730   6.082   3.703
 3034SOL    HW110001   0.677   6.003   3.733
 3034SOL    HW210002   0.705   6.105   3.609
 3035SOL     OW10003   1.415   2.736   6.170
 3035SOL    HW110004   1.382   2.643   6.182
 3035SOL    HW210005   1.339   2.796   6.144
 3036SOL     OW10006   1.087   2.390   5.998
 3036SOL    HW110007   1.117   2.295   6.001
 3036SOL    HW210008   0.991   2.394   5.971
 3037SOL     OW10009   0.591   5.146   5.426
 3037SOL    HW110010   0.544   5.194   5.351
 3037SOL    HW210011   0.550   5.174   5.513
 3038SOL     OW10012   5.025   5.315   6.029
 3038SOL    HW110013   4.948   5.373   6.056
 3038SOL    HW210014   5.056   5.341   5.938
 3039SOL     OW10015   6.353   3.330   0.134
 3039SOL    HW110016   6.304   3.369   0.055
 3039SOL    HW210017   6.408   3.401   0.178
 3040SOL     OW10018   3.775   4.021   6.092
 3040SOL    HW110019   3.768   3.940   6.151
 3040SOL    HW210020   3.821   4.095   6.142
 3041SOL     OW10021   1.275   3.771   4.856
 3041SOL    HW110022   1.362   3.821   4.864
 3041SOL    HW210023   1.277   3.713   4.775
 3042SOL     OW10024   0.198   4.935   2.983
 3042SOL    HW110025   0.199   4.996   3.062
 3042SOL    HW210026   0.116   4.878   2.986
 3043SOL     OW10027   2.585   3.697   0.652
 3043SOL    HW110028   2.581   3.609   0.604
 3043SOL    HW210029   2.630   3.684   0.740
 3044SOL     OW10030   3.123   3.607   5.633
 3044SOL    HW110031   3.107   3.705   5.623
 3044SOL    HW210032   3.212   3.583   5.595
 3045SOL     OW10033   4.923   0.945   3.360
 3045SOL    HW110034   4.862   0.866   3.356
 3045SOL    HW210035   4.881   1.018   3.415
 3046SOL     OW10036   5.291   5.639   0.340
 3046SOL    HW110037   5.291   5.539   0.334
 3046SOL    HW210038   5.218   5.669   0.401
 3047SOL     OW10039   6.135   6.411   0.707
 3047SOL    HW110040   6.162   6.480   0.774
 3047SOL    HW210041   6.042   6.431   0.675
 3048SOL     OW10042   4.137   2.994   0.781
 3048SOL    HW110043   4.078   3.055   0.730
 3048SOL    HW210044   4.175   3.043   0.860
 3049SOL     OW10045   0.993   0.542   4.873
 3049SOL    HW110046   0.962   0.582   4.787
 3049SOL    HW210047   1.032   0.614   4.930
 3050SOL     OW10048   2.006   2.433   1.699
 3050SOL    HW110049   2.017   2.480   1.787
 3050SOL    HW210050   1.925   2.374   1.703
 3051SOL     OW10051   3.351   6.893   6.193
 3051SOL    HW110052   3.353   6.925   6.098
 3051SOL    HW210053   3.413   6.948   6.248
 3052SOL     OW10054   5.511   5.916   2.722
 3052SOL    HW110055   5.456   6.000   2.722
 3052SOL    HW210056   5.598   5.934   2.676
 3053SOL     OW10057   1.483   4.754   0.492
 3053SOL    HW110058   1.480   4.703   0.406
 3053SOL    HW210059   1.574   4.796   0.502
 3054SOL     OW10060   5.519   0.760   3.722
 3054SOL    HW110061   5.529   0.757   3.623
 3054SOL    HW210062   5.497   0.669   3.756
 3055SOL     OW10063   6.496   6.314   6.735
 3055SOL    HW110064   6.579   6.355   6.773
 3055SOL    HW210065   6.469   6.363   6.652
 3056SOL     OW10066   5.098   1.880   6.158
 3056SOL    HW110067   5.192   1.907   6.177
 3056SOL    HW210068   5.042   1.894   6.240
 3057SOL     OW10069   5.685   6.420   3.356
 3057SOL    HW110070   5.648   6.331   3.381
 3057SOL    HW210071   5.784   6.412   3.342
 3058SOL     OW10072   6.207   4.463   0.879
 3058SOL    HW110073   6.258   4.378   0.883
 3058SOL    HW210074   6.118   4.447   0.835
 3059SOL     OW10075   2.333   2.710   4.206
 3059SOL    HW110076   2.421   2.665   4.217
 3059SOL    HW210077   2.263   2.641   4.187
 3060SOL     OW10078   2.883   4.747   6.284
 3060SOL    HW110079   2.878   4.704   6.374
 3060SOL    HW210080   2.906   4.843   6.294
 3061SOL     OW10081   5.844   5.048   5.727
 3061SOL    HW110082   5.800   4.962   5.753
 3061SOL    HW210083   5.806   5.123   5.780
 3062SOL     OW10084   4.063   4.883   1.143
 3062SOL    HW110085   4.124   4.958   1.118
 3062SOL    HW210086   3.993   4.872   1.072
 3063SOL     OW10087   0.409   4.138   0.656
 3063SOL    HW110088   0.428   4.075   0.731
 3063SOL    HW210089   0.463   4.221   0.668
 3064SOL     OW10090   4.442   2.736   0.180
 3064SOL    HW110091   4.386   2.811   0.144
 3064SOL    HW210092   4.488   2.690   0.104
 3065SOL     OW10093   0.912   1.480   6.329
 3065SOL    HW110094   0.861   1.527   6.257
 3065SOL    HW210095   0.927   1.385   6.302
 3066SOL     OW10096   5.149   5.454   5.537
 3066SOL    HW110097   5.237   5.495   5.515
 3066SOL    HW210098   5.076   5.511   5.499
 3067SOL     OW10099   2.386   1.545   0.004
 3067SOL    HW110100   2.308   1.569   0.061
 3067SOL    HW210101   2.441   1.476   0.049
 3068SOL     OW10102   0.628   0.779   1.866
 3068SOL    HW110103   0.727   0.783   1.848
 3068SOL    HW210104   0.596   0.685   1.854
 3069SOL     OW10105   5.698   6.998   3.458
 3069SOL    HW110106   5.633   0.020   3.396
 3069SOL    HW210107   5.788   6.994   3.415
 3070SOL     OW10108   3.034   1.366   0.052
 3070SOL    HW110109   2.936   1.359   0.038
 3070SOL    HW210110   3.055   1.447   0.107
 3071SOL     OW10111   6.967   4.217   3.623
 3071SOL    HW110112   6.900   4.246   3.556
 3071SOL    HW210113   0.036   4.244   3.593
 3072SOL     OW10114   2.087   5.850   6.849
 3072SOL    HW110115   2.114   5.755   6.837
 3072SOL    HW210116   2.043   5.882   6.765
 3073SOL     OW10117   6.607   4.926   0.560
 3073SOL    HW110118   6.557   4.989   0.501
 3073SOL    HW210119   6.666   4.867   0.504
 3074SOL     OW10120   0.805   4.045   1.125
 3074SOL    HW110121   0.755   4.121   1.084
 3074SOL    HW210122   0.886   4.024   1.070
 3075SOL     OW10123   2.620   5.192   4.029
 3075SOL    HW110124   2.668   5.221   4.112
 3075SOL    HW210125   2.526   5.223   4.033
 3076SOL     OW10126   0.260   1.231   5.045
 3076SOL    HW110127   0.259   1.317   5.096
 3076SOL    HW210128   0.214   1.244   4.956
 3077SOL     OW10129   6.173   3.758   1.615
 3077SOL    HW110130   6.258   3.811   1.621
 3077SOL    HW210131   6.184   3.672   1.665
 3078SOL     OW10132   6.514   3.190   1.878
 3078SOL    HW110133   6.570   3.161   1.800
 3078SOL    HW210134   6.570   3.188   1.961
 3079SOL     OW10135   2.507   2.472   4.934
 3079SOL    HW110136   2.546   2.519   5.013
 3079SOL    HW210137   2.565   2.394   4.909
 3080SOL     OW10138   4.420   4.572   1.549
 3080SOL    HW110139   4.326   4.540   1.559
 3080SOL    HW210140   4.471   4.552   1.633
 3081SOL     OW10141   0.925   4.174   0.195
 3081SOL    HW110142   0.863   4.169   0.274
 3081SOL    HW210143   0.893   4.245   0.132
 3082SOL     OW10144   3.297   5.289   4.545
 3082SOL    HW110145   3.372   5.282   4.611
 3082SOL    HW210146   3.293   5.383   4.509
 3083SOL     OW10147   2.813   5.186   2.659
 3083SOL    HW110148   2.820   5.121   2.584
 3083SOL    HW210149   2.887   5.254   2.652
 3084SOL     OW10150   0.699   3.604   2.827
 3084SOL    HW110151   0.656   3.550   2.755
 3084SOL    HW210152   0.794   3.624   2.802
 3085SOL     OW10153   4.911   4.661   0.718
 3085SOL    HW110154   5.005   4.648   0.749
 3085SOL    HW210155   4.883   4.581   0.665
 3086SOL     OW10156   5.332   0.786   0.254
 3086SOL    HW110157   5.303   0.843   0.177
 3086SOL    HW210158   5.314   0.834   0.340
 3087SOL     OW10159   2.081   6.411   2.326
 3087SOL    HW110160   2.061   6.465   2.244
 3087SOL    HW210161   2.021   6.441   2.400
 3088SOL     OW10162   0.508   3.078   5.444
 3088SOL    HW110163   0.565   3.005   5.483
 3088SOL    HW210164   0.551   3.166   5.463
 3089SOL     OW10165   4.744   1.010   4.349
 3089SOL    HW110166   4.755   1.105   4.317
 3089SOL    HW210167   4.677   1.007   4.422
 3090SOL     OW10168   0.963   1.497   1.939
 3090SOL    HW110169   1.058   1.514   1.966
 3090SOL    HW210170   0.960   1.423   1.871
 3091SOL     OW10171   0.637   1.115   0.823
 3091SOL    HW110172   0.553   1.120   0.770
 3091SOL    HW210173   0.635   1.185   0.895
 3092SOL     OW10174   5.225   0.183   2.134
 3092SOL    HW110175   5.226   0.251   2.207
 3092SOL    HW210176   5.300   0.118   2.149
 3093SOL     OW10177   5.801   6.087   6.253
 3093SOL    HW110178   5.844   6.010   6.205
 3093SOL    HW210179   5.755   6.053   6.335
 3094SOL     OW10180   2.403   1.095   4.882
 3094SOL    HW110181   2.498   1.098   4.911
 3094SOL    HW210182   2.376   1.183   4.844
 3095SOL     OW10183   2.666   3.126   5.349
 3095SOL    HW110184   2.752   3.078   5.332
 3095SOL    HW210185   2.596   3.090   5.288
 3096SOL     OW10186   0.818   3.230   5.195
 3096SOL    HW110187   0.872   3.178   5.261
 3096SOL    HW210188   0.768   3.303   5.243
 3097SOL     OW10189   5.906   2.890   6.391
 3097SOL    HW110190   5.846   2.833   6.447
 3097SOL    HW210191   5.986   2.917   6.445
 3098SOL     OW10192   1.590   2.165   2.179
 3098SOL    HW110193   1.670   2.160   2.239
 3098SOL    HW210194   1.521   2.224   2.221
 3099SOL     OW10195   0.444   6.253   3.436
 3099SOL    HW110196   0.517   6.185   3.430
 3099SOL    HW210197   0.390   6.237   3.519
 3100SOL     OW10198   6.153   6.181   2.866
 3100SOL    HW110199   6.196   6.167   2.777
 3100SOL    HW210200   6.060   6.145   2.864
 3101SOL     OW10201   4.993   6.972   5.850
 3101SOL    HW110202   4.923   6.963   5.779
 3101SOL    HW210203   4.968   0.023   5.912
 3102SOL     OW10204   0.838   5.495   0.359
 3102SOL    HW110205   0.843   5.565   0.288
 3102SOL    HW210206   0.742   5.475   0.380
 3103SOL     OW10207   3.828   0.456   0.935
 3103SOL    HW110208   3.832   0.369   0.885
 3103SOL    HW210209   3.736   0.466   0.975
 3104SOL     OW10210   4.736   6.901   6.219
 3104SOL    HW110211   4.638   6.919   6.232
 3104SOL    HW210212   4.789   6.973   6.264
 3105SOL     OW10213   5.120   3.066   1.043
 3105SOL    HW110214   5.041   3.042   1.101
 3105SOL    HW210215   5.192   3.105   1.100
 3106SOL     OW10216   5.678   1.073   5.148
 3106SOL    HW110217   5.594   1.030   5.179
 3106SOL    HW210218   5.707   1.030   5.062
 3107SOL     OW10219   4.170   1.498   4.644
 3107SOL    HW110220   4.112   1.491   4.725
 3107SOL    HW210221   4.219   1.412   4.630
 3108SOL     OW10222   2.130   4.564   4.669
 3108SOL    HW110223   2.038   4.563   4.630
 3108SOL    HW210224   2.195   4.593   4.599
 3109SOL     OW10225   6.233   0.505   4.601
 3109SOL    HW110226   6.188   0.426   4.643
 3109SOL    HW210227   6.265   0.567   4.672
 3110SOL     OW10228   2.555   4.564   3.664
 3110SOL    HW110229   2.514   4.500   3.599
 3110SOL    HW210230   2.595   4.641   3.614
 3111SOL     OW10231   6.548   4.950   4.481
 3111SOL    HW110232   6.573   4.931   4.386
 3111SOL    HW210233   6.499   5.037   4.486
 3112SOL     OW10234   3.835   2.770   0.073
 3112SOL    HW110235   3.873   2.775   7.003
 3112SOL    HW210236   3.908   2.785   0.140
 3113SOL     OW10237   2.922   5.715   2.623
 3113SOL    HW110238   2.975   5.785   2.671
 3113SOL    HW210239   2.897   5.749   2.532
 3114SOL     OW10240   3.606   1.096   0.193
 3114SOL    HW110241   3.516   1.062   0.222
 3114SOL    HW210242   3.595   1.155   0.114
 3115SOL     OW10243   4.257   4.078   5.484
 3115SOL    HW110244   4.337   4.124   5.521
 3115SOL    HW210245   4.183   4.082   5.552
 3116SOL     OW10246   0.878   2.361   0.959
 3116SOL    HW110247   0.899   2.303   1.038
 3116SOL    HW210248   0.815   2.433   0.986
 3117SOL     OW10249   4.961   2.383   6.198
 3117SOL    HW110250   4.866   2.369   6.224
 3117SOL    HW210251   4.997   2.298   6.157
 3118SOL     OW10252   1.090   0.357   3.034
 3118SOL    HW110253   1.147   0.277   3.016
 3118SOL    HW210254   1.054   0.393   2.947
 3119SOL     OW10255   3.039   2.873   5.752
 3119SOL    HW110256   2.961   2.918   5.795
 3119SOL    HW210257   3.014   2.780   5.726
 3120SOL     OW10258   2.883   0.368   5.091
 3120SOL    HW110259   2.920   0.459   5.072
 3120SOL    HW210260   2.907   0.305   5.017
 3121SOL     OW10261   5.036   1.912   4.481
 3121SOL    HW110262   4.993   1.908   4.391
 3121SOL    HW210263   5.007   1.994   4.529
 3122SOL     OW10264   4.336   4.651   4.500
 3122SOL    HW110265   4.294   4.699   4.577
 3122SOL    HW210266   4.390   4.573   4.535
 3123SOL     OW10267   2.282   0.712   3.726
 3123SOL    HW110268   2.375   0.675   3.724
 3123SOL    HW210269   2.250   0.730   3.633
 3124SOL     OW10270   5.535   6.334   4.428
 3124SOL    HW110271   5.628   6.311   4.455
 3124SOL    HW210272   5.512   6.288   4.343
 3125SOL     OW10273   0.743   2.800   5.046
 3125SOL    HW110274   0.843   2.803   5.044
 3125SOL    HW210275   0.712   2.711   5.012
 3126SOL     OW10276   5.982   5.576   4.916
 3126SOL    HW110277   5.945   5.484   4.920
 3126SOL    HW210278   6.035   5.595   4.999
 3127SOL     OW10279   1.103   2.531   5.003
 3127SOL    HW110280   1.195   2.569   5.014
 3127SOL    HW210281   1.080   2.526   4.906
 3128SOL     OW10282   3.358   0.574   0.524
 3128SOL    HW110283   3.336   0.606   0.616
 3128SOL    HW210284   3.394   0.481   0.529
 3129SOL     OW10285   5.248   3.217   1.257
 3129SOL    HW110286   5.219   3.312   1.254
 3129SOL    HW210287   5.348   3.212   1.252
 3130SOL     OW10288   1.528   4.418   0.997
 3130SOL    HW110289   1.596   4.346   0.992
 3130SOL    HW210290   1.527   4.457   1.089
 3131SOL     OW10291   6.807   3.488   2.110
 3131SOL    HW110292   6.817   3.458   2.015
 3131SOL    HW210293   6.838   3.415   2.172
 3132SOL     OW10294   4.207   4.676   0.193
 3132SOL    HW110295   4.296   4.654   0.232
 3132SOL    HW210296   4.218   4.707   0.098
 3133SOL     OW10297   3.245   0.592   3.287
 3133SOL    HW110298   3.239   0.655   3.364
 3133SOL    HW210299   3.339   0.587   3.254
 3134SOL     OW10300   3.421   4.949   2.096
 3134SOL    HW110301   3.475   4.885   2.042
 3134SOL    HW210302   3.363   4.898   2.160
 3135SOL     OW10303   5.616   0.139   6.055
 3135SOL    HW110304   5.662   0.169   5.972
 3135SOL    HW210305   5.531   0.091   6.031
 3136SOL     OW10306   5.958   0.998   2.533
 3136SOL    HW110307   5.867   0.972   2.565
 3136SOL    HW210308   5.952   1.028   2.438
 3137SOL     OW10309   6.517   0.350   1.399
 3137SOL    HW110310   6.505   0.280   1.328
 3137SOL    HW210311   6.441   0.415   1.395
 3138SOL     OW10312   5.302   5.154   3.929
 3138SOL    HW110313   5.306   5.223   3.857
 3138SOL    HW210314   5.395   5.128   3.956
 3139SOL     OW10315   3.091   4.890   1.618
 3139SOL    HW110316   3.041   4.803   1.619
 3139SOL    HW210317   3.158   4.891   1.692
 3140SOL     OW10318   6.603   6.088   5.523
 3140SOL    HW110319   6.539   6.142   5.577
 3140SOL    HW210320   6.660   6.148   5.467
 3141SOL     OW10321   0.372   2.277   0.506
 3141SOL    HW110322   0.454   2.302   0.455
 3141SOL    HW210323   0.392   2.278   0.604
 3142SOL     OW10324   4.374   0.512   2.904
 3142SOL    HW110325   4.359   0.521   2.805
 3142SOL    HW210326   4.285   0.502   2.950
 3143SOL     OW10327   6.028   2.212   0.081
 3143SOL    HW110328   6.036   2.113   0.071
 3143SOL    HW210329   6.119   2.254   0.079
 3144SOL     OW10330   4.308   3.642   6.797
 3144SOL    HW110331   4.389   3.590   6.772
 3144SOL    HW210332   4.262   3.596   6.874
 3145SOL     OW10333   2.265   6.329   1.680
 3145SOL    HW110334   2.219   6.340   1.768
 3145SOL    HW210335   2.326   6.249   1.683
 3146SOL     OW10336   0.573   1.002   5.315
 3146SOL    HW110337   0.602   1.097   5.323
 3146SOL    HW210338   0.651   0.942   5.333
 3147SOL     OW10339   3.934   5.313   6.312
 3147SOL    HW110340   3.859   5.333   6.249
 3147SOL    HW210341   4.009   5.268   6.263
 3148SOL     OW10342   0.437   6.866   2.966
 3148SOL    HW110343   0.434   6.956   2.922
 3148SOL    HW210344   0.526   6.824   2.951
 3149SOL     OW10345   3.129   1.113   0.014
 3149SOL    HW110346   3.091   1.079   6.951
 3149SOL    HW210347   3.087   1.201   0.036
 3150SOL     OW10348   6.644   5.499   5.499
 3150SOL    HW110349   6.654   5.440   5.419
 3150SOL    HW210350   6.596   5.583   5.473
 3151SOL     OW10351   0.038   1.951   6.339
 3151SOL    HW110352   6.984   1.908   6.292
 3151SOL    HW210353   0.095   1.881   6.381
 3152SOL     OW10354   1.410   4.313   6.461
 3152SOL    HW110355   1.474   4.275   6.529
 3152SOL    HW210356   1.432   4.277   6.371
 3153SOL     OW10357   6.317   4.847   0.384
 3153SOL    HW110358   6.240   4.891   0.338
 3153SOL    HW210359   6.376   4.916   0.425
 3154SOL     OW10360   5.755   1.169   1.864
 3154SOL    HW110361   5.807   1.201   1.785
 3154SOL    HW210362   5.738   1.246   1.926
 3155SOL     OW10363   6.510   4.699   0.678
 3155SOL    HW110364   6.464   4.719   0.764
 3155SOL    HW210365   6.526   4.785   0.628
 3156SOL     OW10366   3.595   4.161   2.296
 3156SOL    HW110367   3.611   4.244   2.244
 3156SOL    HW210368   3.683   4.125   2.329
 3157SOL     OW10369   1.137   2.182   5.002
 3157SOL    HW110370   1.106   2.179   5.097
 3157SOL    HW210371   1.058   2.177   4.941
 3158SOL     OW10372   2.813   2.142   5.728
 3158SOL    HW110373   2.754   2.207   5.774
 3158SOL    HW210374   2.803   2.052   5.770
 3159SOL     OW10375   5.311   0.103   0.769
 3159SOL    HW110376   5.387   0.152   0.725
 3159SOL    HW210377   5.261   0.050   0.700
 3160SOL     OW10378   1.724   0.059   5.539
 3160SOL    HW110379   1.810   0.014   5.516
 3160SOL    HW210380   1.656   7.014   5.566
 3161SOL     OW10381   2.150   2.857   2.581
 3161SOL    HW110382   2.164   2.764   2.614
 3161SOL    HW210383   2.065   2.894   2.620
 3162SOL     OW10384   2.615   5.567   6.829
 3162SOL    HW110385   2.712   5.557   6.806
 3162SOL    HW210386   2.566   5.483   6.804
 3163SOL     OW10387   4.512   3.198   0.077
 3163SOL    HW110388   4.538   3.289   0.109
 3163SOL    HW210389   4.588   3.134   0.089
 3164SOL     OW10390   3.329   5.859   1.960
 3164SOL    HW110391   3.240   5.830   1.995
 3164SOL    HW210392   3.333   5.959   1.961
 3165SOL     OW10393   1.080   4.834   0.733
 3165SOL    HW110394   1.057   4.738   0.752
 3165SOL    HW210395   1.014   4.893   0.780
 3166SOL     OW10396   3.991   1.089   4.581
 3166SOL    HW110397   4.076   1.142   4.583
 3166SOL    HW210398   3.968   1.066   4.486
 3167SOL     OW10399   5.732   4.578   0.523
 3167SOL    HW110400   5.706   4.634   0.444
 3167SOL    HW210401   5.656   4.518   0.547
 3168SOL     OW10402   5.504   2.141   1.385
 3168SOL    HW110403   5.551   2.227   1.401
 3168SOL    HW210404   5.420   2.138   1.440
 3169SOL     OW10405   1.796   4.805   2.650
 3169SOL    HW110406   1.750   4.826   2.737
 3169SOL    HW210407   1.846   4.719   2.659
 3170SOL     OW10408   3.912   6.262   2.442
 3170SOL    HW110409   3.969   6.182   2.458
 3170SOL    HW210410   3.819   6.244   2.474
 3171SOL     OW10411   5.277   2.416   2.172
 3171SOL    HW110412   5.201   2.464   2.128
 3171SOL    HW210413   5.279   2.321   2.140
 3172SOL     OW10414   0.379   5.291   0.036
 3172SOL    HW110415   0.339   5.382   0.026
 3172SOL    HW210416   0.449   5.294   0.108
 3173SOL     OW10417   2.569   2.535   6.746
 3173SOL    HW110418   2.533   2.628   6.745
 3173SOL    HW210419   2.551   2.491   6.658
 3174SOL     OW10420   2.189   2.762   5.926
 3174SOL    HW110421   2.244   2.735   5.847
 3174SOL    HW210422   2.191   2.690   5.995
 3175SOL     OW10423   5.997   1.266   2.872
 3175SOL    HW110424   5.993   1.167   2.888
 3175SOL    HW210425   5.973   1.285   2.776
 3176SOL     OW10426   0.060   3.627   5.313
 3176SOL    HW110427   0.055   3.564   5.391
 3176SOL    HW210428   0.082   3.575   5.230
 3177SOL     OW10429   5.423   4.287   3.942
 3177SOL    HW110430   5.492   4.334   3.887
 3177SOL    HW210431   5.449   4.290   4.038
 3178SOL     OW10432   5.755   2.122   6.791
 3178SOL    HW110433   5.700   2.055   6.742
 3178SOL    HW210434   5.708   2.148   6.876
 3179SOL     OW10435   1.374   1.974   1.871
 3179SOL    HW110436   1.320   1.894   1.847
 3179SOL    HW210437   1.318   2.056   1.864
 3180SOL     OW10438   6.024   6.514   6.973
 3180SOL    HW110439   6.110   6.473   7.001
 3180SOL    HW210440   5.978   6.552   0.030
 3181SOL     OW10441   0.102   1.332   4.204
 3181SOL    HW110442   0.137   1.297   4.117
 3181SOL    HW210443   0.002   1.338   4.199
 3182SOL     OW10444   2.961   0.760   6.904
 3182SOL    HW110445   3.035   0.815   6.867
 3182SOL    HW210446   2.985   0.663   6.897
 3183SOL     OW10447   4.657   4.762   2.360
 3183SOL    HW110448   4.595   4.780   2.284
 3183SOL    HW210449   4.622   4.686   2.414
 3184SOL     OW10450   0.530   2.137   3.479
 3184SOL    HW110451   0.482   2.207   3.426
 3184SOL    HW210452   0.624   2.166   3.495
 3185SOL     OW10453   6.171   6.461   5.897
 3185SOL    HW110454   6.176   6.412   5.810
 3185SOL    HW210455   6.161   6.395   5.972
 3186SOL     OW10456   2.250   0.981   0.446
 3186SOL    HW110457   2.296   0.975   0.535
 3186SOL    HW210458   2.151   0.989   0.460
 3187SOL     OW10459   3.282   5.378   2.187
 3187SOL    HW110460   3.258   5.355   2.281
 3187SOL    HW210461   3.301   5.476   2.180
 3188SOL     OW10462   2.145   5.588   4.802
 3188SOL    HW110463   2.140   5.624   4.709
 3188SOL    HW210464   2.212   5.514   4.805
 3189SOL     OW10465   2.050   1.290   0.208
 3189SOL    HW110466   1.977   1.228   0.180
 3189SOL    HW210467   2.012   1.363   0.265
 3190SOL     OW10468   6.377   5.303   6.105
 3190SOL    HW110469   6.423   5.234   6.048
 3190SOL    HW210470   6.435   5.384   6.113
 3191SOL     OW10471   4.437   5.854   2.092
 3191SOL    HW110472   4.501   5.795   2.142
 3191SOL    HW210473   4.473   5.872   2.000
 3192SOL     OW10474   6.883   2.828   0.978
 3192SOL    HW110475   6.890   2.729   0.989
 3192SOL    HW210476   6.957   2.872   1.028
 3193SOL     OW10477   4.313   1.109   5.060
 3193SOL    HW110478   4.376   1.175   5.019
 3193SOL    HW210479   4.362   1.049   5.122
 3194SOL     OW10480   0.741   1.190   5.547
 3194SOL    HW110481   0.721   1.211   5.452
 3194SOL    HW210482   0.747   1.275   5.600
 3195SOL     OW10483   0.849   1.269   2.087
 3195SOL    HW110484   0.790   1.350   2.093
 3195SOL    HW210485   0.793   1.188   2.071
 3196SOL     OW10486   0.064   0.860   6.360
 3196SOL    HW110487   6.997   0.832   6.325
 3196SOL    HW210488   0.079   0.820   6.450
 3197SOL     OW10489   2.451   6.811   5.396
 3197SOL    HW110490   2.449   6.886   5.462
 3197SOL    HW210491   2.529   6.752   5.415
 3198SOL     OW10492   6.311   2.268   3.782
 3198SOL    HW110493   6.231   2.328   3.789
 3198SOL    HW210494   6.351   2.255   3.873
 3199SOL     OW10495   5.486   4.859   3.118
 3199SOL    HW110496   5.465   4.928   3.187
 3199SOL    HW210497   5.580   4.827   3.131
 3200SOL     OW10498   6.137   3.877   2.996
 3200SOL    HW110499   6.105   3.911   3.085
 3200SOL    HW210500   6.233   3.853   3.002
 3201SOL     OW10501   5.969   5.294   3.614
 3201SOL    HW110502   5.993   5.249   3.528
 3201SOL    HW210503   6.032   5.369   3.631
 3202SOL     OW10504   1.201   5.211   1.111
 3202SOL    HW110505   1.244   5.126   1.141
 3202SOL    HW210506   1.239   5.287   1.163
 3203SOL     OW10507   5.017   1.131   1.337
 3203SOL    HW110508   4.918   1.122   1.328
 3203SOL    HW210509   5.045   1.221   1.304
 3204SOL     OW10510   2.957   1.433   3.253
 3204SOL    HW110511   2.983   1.377   3.174
 3204SOL    HW210512   2.929   1.524   3.221
 3205SOL     OW10513   4.897   2.529   5.691
 3205SOL    HW110514   4.862   2.526   5.785
 3205SOL    HW210515   4.847   2.599   5.639
 3206SOL     OW10516   2.749   3.580   1.511
 3206SOL    HW110517   2.796   3.495   1.533
 3206SOL    HW210518   2.664   3.560   1.463
 3207SOL     OW10519   1.482   1.043   6.237
 3207SOL    HW110520   1.407   0.987   6.204
 3207SOL    HW210521   1.460   1.077   6.329
 3208SOL     OW10522   5.889   5.508   6.190
 3208SOL    HW110523   5.870   5.585   6.252
 3208SOL    HW210524   5.830   5.431   6.212
 3209SOL     OW10525   3.373   5.281   4.875
 3209SOL    HW110526   3.412   5.282   4.966
 3209SOL    HW210527   3.320   5.197   4.863
 3210SOL     OW10528   0.868   5.312   1.695
 3210SOL    HW110529   0.800   5.247   1.661
 3210SOL    HW210530   0.943   5.261   1.738
 3211SOL     OW10531   1.511   5.057   0.556
 3211SOL    HW110532   1.453   5.038   0.635
 3211SOL    HW210533   1.607   5.057   0.584
 3212SOL     OW10534   2.999   6.915   2.430
 3212SOL    HW110535   3.088   6.926   2.385
 3212SOL    HW210536   2.998   6.967   2.515
 3213SOL     OW10537   1.705   0.055   6.383
 3213SOL    HW110538   1.682   7.017   6.307
 3213SOL    HW210539   1.804   0.053   6.399
 3214SOL     OW10540   4.492   6.747   2.970
 3214SOL    HW110541   4.393   6.747   2.979
 3214SOL    HW210542   4.532   6.810   3.036
 3215SOL     OW10543   1.040   3.543   0.413
 3215SOL    HW110544   0.981   3.469   0.443
 3215SOL    HW210545   0.997   3.631   0.433
 3216SOL     OW10546   5.573   4.944   1.140
 3216SOL    HW110547   5.643   4.985   1.081
 3216SOL    HW210548   5.614   4.874   1.197
 3217SOL     OW10549   0.316   5.318   2.354
 3217SOL    HW110550   0.265   5.285   2.433
 3217SOL    HW210551   0.325   5.243   2.287
 3218SOL     OW10552   5.856   2.389   3.664
 3218SOL    HW110553   5.792   2.447   3.713
 3218SOL    HW210554   5.882   2.311   3.721
 3219SOL     OW10555   6.992   1.029   4.913
 3219SOL    HW110556   0.009   1.014   4.823
 3219SOL    HW210557   0.003   0.959   4.977
 3220SOL     OW10558   0.942   5.919   6.868
 3220SOL    HW110559   0.878   5.845   6.889
 3220SOL    HW210560   0.948   5.981   6.947
 3221SOL     OW10561   3.554   6.948   2.220
 3221SOL    HW110562   3.622   6.908   2.158
 3221SOL    HW210563   3.596   6.966   2.309
 3222SOL     OW10564   2.779   1.354   2.216
 3222SOL    HW110565   2.786   1.283   2.146
 3222SOL    HW210566   2.842   1.333   2.291
 3223SOL     OW10567   2.529   6.202   0.281
 3223SOL    HW110568   2.623   6.177   0.260
 3223SOL    HW210569   2.523   6.301   0.295
 3224SOL     OW10570   5.247   2.384   4.885
 3224SOL    HW110571   5.299   2.458   4.842
 3224SOL    HW210572   5.289   2.359   4.971
 3225SOL     OW10573   4.344   1.345   5.283
 3225SOL    HW110574   4.377   1.413   5.217
 3225SOL    HW210575   4.267   1.295   5.242
 3226SOL     OW10576   1.766   0.368   1.390
 3226SOL    HW110577   1.690   0.304   1.376
 3226SOL    HW210578   1.818   0.377   1.305
 3227SOL     OW10579   3.461   2.822   6.604
 3227SOL    HW110580   3.510   2.850   6.521
 3227SOL    HW210581   3.363   2.815   6.584
 3228SOL     OW10582   0.077   3.943   0.038
 3228SOL    HW110583   7.019   3.908   0.085
 3228SOL    HW210584   0.050   4.010   6.993
 3229SOL     OW10585   3.555   0.485   5.490
 3229SOL    HW110586   3.511   0.396   5.496
 3229SOL    HW210587   3.605   0.504   5.574
 3230SOL     OW10588   1.656   5.544   5.777
 3230SOL    HW110589   1.746   5.554   5.820
 3230SOL    HW210590   1.641   5.448   5.754
 3231SOL     OW10591   2.528   0.999   2.498
 3231SOL    HW110592   2.481   0.988   2.585
 3231SOL    HW210593   2.543   1.097   2.480
 3232SOL     OW10594   4.215   5.676   4.000
 3232SOL    HW110595   4.180   5.766   3.973
 3232SOL    HW210596   4.139   5.610   3.998
 3233SOL     OW10597   6.704   2.967   0.561
 3233SOL    HW110598   6.743   3.053   0.594
 3233SOL    HW210599   6.687   2.973   0.463
 3234SOL     OW10600   1.845   2.866   0.338
 3234SOL    HW110601   1.783   2.936   0.373
 3234SOL    HW210602   1.921   2.854   0.401
 3235SOL     OW10603   6.382   6.268   1.840
 3235SOL    HW110604   6.348   6.324   1.765
 3235SOL    HW210605   6.437   6.193   1.804
 3236SOL     OW10606   1.336   4.433   0.796
 3236SOL    HW110607   1.399   4.417   0.872
 3236SOL    HW210608   1.344   4.359   0.729
 3237SOL     OW10609   6.466   1.934   3.230
 3237SOL    HW110610   6.424   1.848   3.202
 3237SOL    HW210611   6.427   2.009   3.177
 3238SOL     OW10612   5.971   5.281   6.782
 3238SOL    HW110613   5.878   5.279   6.817
 3238SOL    HW210614   5.969   5.290   6.682
 3239SOL     OW10615   6.826   0.122   3.074
 3239SOL    HW110616   6.863   0.162   3.158
 3239SOL    HW210617   6.897   0.066   3.031
 3240SOL     OW10618   6.926   0.370   5.922
 3240SOL    HW110619   6.977   0.415   5.849
 3240SOL    HW210620   6.834   0.348   5.890
 3241SOL     OW10621   4.819   1.511   6.255
 3241SOL    HW110622   4.738   1.452   6.266
 3241SOL    HW210623   4.790   1.601   6.223
 3242SOL     OW10624   5.025   3.563   5.672
 3242SOL    HW110625   4.955   3.494   5.651
 3242SOL    HW210626   5.002   3.610   5.757
 3243SOL     OW10627   4.565   5.262   0.370
 3243SOL    HW110628   4.508   5.292   0.447
 3243SOL    HW210629   4.599   5.341   0.321
 3244SOL     OW10630   6.037   6.120   6.612
 3244SOL    HW110631   5.989   6.154   6.693
 3244SOL    HW210632   6.107   6.186   6.584
 3245SOL     OW10633   4.861   2.262   4.085
 3245SOL    HW110634   4.916   2.343   4.063
 3245SOL    HW210635   4.819   2.273   4.175
 3246SOL     OW10636   6.580   0.244   3.011
 3246SOL    HW110637   6.617   0.274   2.923
 3246SOL    HW210638   6.625   0.160   3.040
 3247SOL     OW10639   6.807   4.852   2.164
 3247SOL    HW110640   6.748   4.851   2.083
 3247SOL    HW210641   6.860   4.937   2.166
 3248SOL     OW10642   5.539   2.452   2.584
 3248SOL    HW110643   5.626   2.408   2.561
 3248SOL    HW210644   5.468   2.419   2.522
 3249SOL     OW10645   3.618   3.980   3.716
 3249SOL    HW110646   3.556   3.919   3.667
 3249SOL    HW210647   3.713   3.956   3.696
 3250SOL     OW10648   5.039   6.885   3.135
 3250SOL    HW110649   5.106   6.817   3.106
 3250SOL    HW210650   5.055   6.910   3.230
 3251SOL     OW10651   2.798   1.006   4.606
 3251SOL    HW110652   2.791   0.928   4.669
 3251SOL    HW210653   2.893   1.016   4.576
 3252SOL     OW10654   2.725   0.628   2.906
 3252SOL    HW110655   2.780   0.675   2.837
 3252SOL    HW210656   2.681   0.548   2.865
 3253SOL     OW10657   4.628   3.453   0.856
 3253SOL    HW110658   4.651   3.528   0.795
 3253SOL    HW210659   4.561   3.393   0.812
 3254SOL     OW10660   5.270   0.009   5.997
 3254SOL    HW110661   5.212   0.018   6.078
 3254SOL    HW210662   5.311   6.940   5.995
 3255SOL     OW10663   5.671   6.375   1.043
 3255SOL    HW110664   5.614   6.343   0.968
 3255SOL    HW210665   5.649   6.471   1.062
 3256SOL     OW10666   3.908   1.801   1.459
 3256SOL    HW110667   3.829   1.746   1.486
 3256SOL    HW210668   3.932   1.780   1.364
 3257SOL     OW10669   2.680   1.867   1.667
 3257SOL    HW110670   2.690   1.964   1.687
 3257SOL    HW210671   2.738   1.814   1.727
 3258SOL     OW10672   3.540   4.964   3.574
 3258SOL    HW110673   3.442   4.954   3.594
 3258SOL    HW210674   3.554   4.957   3.476
 3259SOL     OW10675   4.907   5.409   4.139
 3259SOL    HW110676   4.994   5.370   4.109
 3259SOL    HW210677   4.846   5.336   4.172
 3260SOL     OW10678   1.337   3.579   1.864
 3260SOL    HW110679   1.313   3.510   1.932
 3260SOL    HW210680   1.391   3.537   1.791
 3261SOL     OW10681   4.534   0.651   2.114
 3261SOL    HW110682   4.601   0.654   2.039
 3261SOL    HW210683   4.580   0.667   2.201
 3262SOL     OW10684   3.873   2.131   2.185
 3262SOL    HW110685   3.793   2.169   2.138
 3262SOL    HW210686   3.856   2.036   2.209
 3263SOL     OW10687   3.407   1.048   3.342
 3263SOL    HW110688   3.409   1.140   3.380
 3263SOL    HW210689   3.371   0.985   3.410
 3264SOL     OW10690   2.246   5.161   1.334
 3264SOL    HW110691   2.242   5.249   1.287
 3264SOL    HW210692   2.216   5.171   1.428
 3265SOL     OW10693   5.915   6.316   6.407
 3265SOL    HW110694   6.002   6.312   6.455
 3265SOL    HW210695   5.876   6.224   6.399
 3266SOL     OW10696   3.005   4.192   6.807
 3266SOL    HW110697   2.981   4.211   6.712
 3266SOL    HW210698   3.016   4.093   6.819
 3267SOL     OW10699   2.970   6.956   2.073
 3267SOL    HW110700   2.899   6.936   2.141
 3267SOL    HW210701   3.041   6.887   2.078
 3268SOL     OW10702   1.237   4.583   1.121
 3268SOL    HW110703   1.238   4.494   1.166
 3268SOL    HW210704   1.328   4.624   1.127
 3269SOL     OW10705   0.285   5.242   1.468
 3269SOL    HW110706   0.258   5.182   1.543
 3269SOL    HW210707   0.335   5.321   1.505
 3270SOL     OW10708   1.810   3.178   6.526
 3270SOL    HW110709   1.837   3.214   6.615
 3270SOL    HW210710   1.892   3.166   6.469
 3271SOL     OW10711   6.862   3.389   1.279
 3271SOL    HW110712   6.770   3.373   1.243
 3271SOL    HW210713   6.882   3.487   1.275
 3272SOL     OW10714   2.845   4.487   6.904
 3272SOL    HW110715   2.942   4.484   6.877
 3272SOL    HW210716   2.825   4.409   6.963
 3273SOL     OW10717   5.667   4.938   6.136
 3273SOL    HW110718   5.643   4.894   6.222
 3273SOL    HW210719   5.765   4.930   6.120
 3274SOL     OW10720   5.854   0.441   1.190
 3274SOL    HW110721   5.889   0.406   1.278
 3274SOL    HW210722   5.926   0.492   1.145
 3275SOL     OW10723   4.710   1.140   0.681
 3275SOL    HW110724   4.662   1.184   0.756
 3275SOL    HW210725   4.645   1.084   0.628
 3276SOL     OW10726   4.662   6.049   0.038
 3276SOL    HW110727   4.651   5.988   6.982
 3276SOL    HW210728   4.654   6.144   0.008
 3277SOL     OW10729   3.607   1.532   0.907
 3277SOL    HW110730   3.624   1.620   0.950
 3277SOL    HW210731   3.694   1.491   0.880
 3278SOL     OW10732   0.434   0.453   5.802
 3278SOL    HW110733   0.432   0.489   5.709
 3278SOL    HW210734   0.512   0.392   5.813
 3279SOL     OW10735   5.027   0.177   1.162
 3279SOL    HW110736   5.029   0.237   1.242
 3279SOL    HW210737   4.943   0.122   1.163
 3280SOL     OW10738   4.571   4.462   4.317
 3280SOL    HW110739   4.512   4.532   4.357
 3280SOL    HW210740   4.597   4.396   4.388
 3281SOL     OW10741   0.588   4.414   1.250
 3281SOL    HW110742   0.663   4.476   1.273
 3281SOL    HW210743   0.624   4.321   1.241
 3282SOL     OW10744   6.686   4.635   5.157
 3282SOL    HW110745   6.717   4.703   5.223
 3282SOL    HW210746   6.628   4.568   5.203
 3283SOL     OW10747   3.727   1.289   1.610
 3283SOL    HW110748   3.703   1.204   1.563
 3283SOL    HW210749   3.678   1.294   1.697
 3284SOL     OW10750   1.453   5.699   5.140
 3284SOL    HW110751   1.408   5.763   5.202
 3284SOL    HW210752   1.408   5.610   5.147
 3285SOL     OW10753   5.862   1.666   4.754
 3285SOL    HW110754   5.794   1.739   4.752
 3285SOL    HW210755   5.952   1.705   4.774
 3286SOL     OW10756   3.233   2.773   1.577
 3286SOL    HW110757   3.309   2.739   1.633
 3286SOL    HW210758   3.149   2.774   1.632
 3287SOL     OW10759   0.632   0.617   0.394
 3287SOL    HW110760   0.721   0.662   0.402
 3287SOL    HW210761   0.615   0.593   0.299
 3288SOL     OW10762   2.034   0.045   0.270
 3288SOL    HW110763   2.102   0.105   0.229
 3288SOL    HW210764   2.035   0.056   0.369
 3289SOL     OW10765   2.700   1.949   6.496
 3289SOL    HW110766   2.742   1.859   6.504
 3289SOL    HW210767   2.604   1.939   6.471
 3290SOL     OW10768   0.005   5.155   1.026
 3290SOL    HW110769   6.983   5.086   0.969
 3290SOL    HW210770   0.097   5.124   1.051
 3291SOL     OW10771   2.847   0.861   5.992
 3291SOL    HW110772   2.895   0.937   5.949
 3291SOL    HW210773   2.857   0.866   6.091
 3292SOL     OW10774   0.142   1.240   0.816
 3292SOL    HW110775   0.224   1.272   0.864
 3292SOL    HW210776   0.091   1.318   0.781
 3293SOL     OW10777   6.569   4.939   1.453
 3293SOL    HW110778   6.642   4.919   1.388
 3293SOL    HW210779   6.534   5.031   1.437
 3294SOL     OW10780   4.822   1.963   5.919
 3294SOL    HW110781   4.859   1.882   5.965
 3294SOL    HW210782   4.723   1.966   5.934
 3295SOL     OW10783   1.019   3.508   1.722
 3295SOL    HW110784   1.046   3.436   1.786
 3295SOL    HW210785   1.099   3.562   1.697
 3296SOL     OW10786   0.309   0.687   3.972
 3296SOL    HW110787   0.263   0.735   4.046
 3296SOL    HW210788   0.240   0.653   3.907
 3297SOL     OW10789   3.138   1.977   5.358
 3297SOL    HW110790   3.214   1.957   5.419
 3297SOL    HW210791   3.073   2.037   5.404
 3298SOL     OW10792   6.751   2.370   5.608
 3298SOL    HW110793   6.781   2.460   5.575
 3298SOL    HW210794   6.661   2.379   5.651
 3299SOL     OW10795   3.917   5.925   2.787
 3299SOL    HW110796   3.927   5.983   2.868
 3299SOL    HW210797   3.825   5.935   2.751
 3300SOL     OW10798   1.210   0.544   5.849
 3300SOL    HW110799   1.168   0.520   5.936
 3300SOL    HW210800   1.280   0.614   5.864
 3301SOL     OW10801   1.543   3.726   3.409
 3301SOL    HW110802   1.641   3.742   3.419
 3301SOL    HW210803   1.509   3.677   3.489
 3302SOL     OW10804   1.220   4.627   6.125
 3302SOL    HW110805   1.306   4.617   6.175
 3302SOL    HW210806   1.144   4.598   6.184
 3303SOL     OW10807   3.130   3.400   0.407
 3303SOL    HW110808   3.139   3.478   0.470
 3303SOL    HW210809   3.054   3.342   0.436
 3304SOL     OW10810   2.086   5.699   6.115
 3304SOL    HW110811   2.130   5.689   6.026
 3304SOL    HW210812   2.001   5.752   6.104
 3305SOL     OW10813   2.999   0.759   1.819
 3305SOL    HW110814   2.986   0.738   1.916
 3305SOL    HW210815   3.096   0.771   1.799
 3306SOL     OW10816   1.158   5.940   5.376
 3306SOL    HW110817   1.183   6.013   5.440
 3306SOL    HW210818   1.181   5.969   5.283
 3307SOL     OW10819   0.703   0.061   5.210
 3307SOL    HW110820   0.652   0.002   5.147
 3307SOL    HW210821   0.726   0.009   5.293
 3308SOL     OW10822   3.407   5.420   1.181
 3308SOL    HW110823   3.407   5.392   1.277
 3308SOL    HW210824   3.410   5.339   1.123
 3309SOL     OW10825   6.141   4.655   3.953
 3309SOL    HW110826   6.218   4.608   3.996
 3309SOL    HW210827   6.124   4.742   4.001
 3310SOL     OW10828   0.601   4.196   4.749
 3310SOL    HW110829   0.504   4.193   4.774
 3310SOL    HW210830   0.639   4.103   4.752
 3311SOL     OW10831   3.058   3.580   0.604
 3311SOL    HW110832   3.139   3.549   0.653
 3311SOL    HW210833   3.019   3.659   0.650
 3312SOL     OW10834   4.194   2.958   5.630
 3312SOL    HW110835   4.261   2.999   5.569
 3312SOL    HW210836   4.222   2.865   5.654
 3313SOL     OW10837   0.751   0.093   3.559
 3313SOL    HW110838   0.827   0.102   3.495
 3313SOL    HW210839   0.725   7.020   3.566
 3314SOL     OW10840   3.110   0.868   2.128
 3314SOL    HW110841   3.086   0.806   2.203
 3314SOL    HW210842   3.030   0.923   2.104
 3315SOL     OW10843   0.857   4.387   4.991
 3315SOL    HW110844   0.786   4.452   4.965
 3315SOL    HW210845   0.883   4.332   4.912
 3316SOL     OW10846   4.078   0.802   5.059
 3316SOL    HW110847   4.153   0.753   5.103
 3316SOL    HW210848   4.002   0.813   5.124
 3317SOL     OW10849   5.153   1.928   2.369
 3317SOL    HW110850   5.135   1.856   2.302
 3317SOL    HW210851   5.087   1.922   2.444
 3318SOL     OW10852   1.595   1.078   6.965
 3318SOL    HW110853   1.615   1.174   6.981
 3318SOL    HW210854   1.619   1.055   6.870
 3319SOL     OW10855   5.867   0.296   3.635
 3319SOL    HW110856   5.871   0.201   3.666
 3319SOL    HW210857   5.949   0.317   3.582
 3320SOL     OW10858   6.666   0.644   0.092
 3320SOL    HW110859   6.705   0.731   0.060
 3320SOL    HW210860   6.591   0.617   0.031
 3321SOL     OW10861   5.965   1.876   0.955
 3321SOL    HW110862   6.006   1.930   1.029
 3321SOL    HW210863   5.956   1.781   0.985
 3322SOL     OW10864   0.068   2.936   1.137
 3322SOL    HW110865   0.005   2.993   1.189
 3322SOL    HW210866   0.112   2.871   1.199
 3323SOL     OW10867   2.504   1.944   0.838
 3323SOL    HW110868   2.453   1.882   0.897
 3323SOL    HW210869   2.456   2.031   0.831
 3324SOL     OW10870   4.673   5.462   5.516
 3324SOL    HW110871   4.761   5.508   5.524
 3324SOL    HW210872   4.605   5.527   5.480
 3325SOL     OW10873   0.057   3.104   6.830
 3325SOL    HW110874   0.152   3.076   6.843
 3325SOL    HW210875   0.015   3.119   6.920
 3326SOL     OW10876   4.704   1.523   1.758
 3326SOL    HW110877   4.722   1.443   1.700
 3326SOL    HW210878   4.616   1.511   1.805
 3327SOL     OW10879   2.364   5.364   1.619
 3327SOL    HW110880   2.278   5.318   1.598
 3327SOL    HW210881   2.350   5.463   1.617
 3328SOL     OW10882   3.547   2.024   1.018
 3328SOL    HW110883   3.469   2.076   1.053
 3328SOL    HW210884   3.631   2.078   1.029
 3329SOL     OW10885   6.095   0.079   5.615
 3329SOL    HW110886   6.046   7.016   5.597
 3329SOL    HW210887   6.067   0.148   5.548
 3330SOL     OW10888   6.204   3.519   1.740
 3330SOL    HW110889   6.165   3.558   1.824
 3330SOL    HW210890   6.303   3.509   1.752
 3331SOL     OW10891   2.422   2.850   1.177
 3331SOL    HW110892   2.413   2.925   1.243
 3331SOL    HW210893   2.518   2.826   1.166
 3332SOL     OW10894   5.907   5.407   0.116
 3332SOL    HW110895   5.913   5.488   0.058
 3332SOL    HW210896   5.848   5.426   0.195
 3333SOL     OW10897   4.384   5.773   6.456
 3333SOL    HW110898   4.366   5.812   6.366
 3333SOL    HW210899   4.320   5.812   6.522
 3334SOL     OW10900   3.663   3.473   1.265
 3334SOL    HW110901   3.762   3.458   1.264
 3334SOL    HW210902   3.624   3.435   1.348
 3335SOL     OW10903   4.510   5.610   5.323
 3335SOL    HW110904   4.489   5.655   5.236
 3335SOL    HW210905   4.479   5.668   5.399
 3336SOL     OW10906   3.124   5.097   5.100
 3336SOL    HW110907   3.036   5.050   5.089
 3336SOL    HW210908   3.179   5.084   5.018
 3337SOL     OW10909   3.214   3.003   1.412
 3337SOL    HW110910   3.309   3.034   1.407
 3337SOL    HW210911   3.205   2.934   1.485
 3338SOL     OW10912   6.342   3.303   1.461
 3338SOL    HW110913   6.244   3.293   1.480
 3338SOL    HW210914   6.356   3.310   1.362
 3339SOL     OW10915   0.075   6.852   0.001
 3339SOL    HW110916   0.034   6.916   0.067
 3339SOL    HW210917   0.102   6.769   0.048
 3340SOL     OW10918   3.603   0.298   1.566
 3340SOL    HW110919   3.635   0.212   1.605
 3340SOL    HW210920   3.669   0.330   1.498
 3341SOL     OW10921   1.641   6.675   3.991
 3341SOL    HW110922   1.600   6.633   3.910
 3341SOL    HW210923   1.698   6.608   4.038
 3342SOL     OW10924   2.142   6.447   3.929
 3342SOL    HW110925   2.166   6.469   3.835
 3342SOL    HW210926   2.186   6.512   3.991
 3343SOL     OW10927   4.827   2.763   0.532
 3343SOL    HW110928   4.891   2.707   0.479
 3343SOL    HW210929   4.869   2.853   0.549
 3344SOL     OW10930   5.625   4.134   4.952
 3344SOL    HW110931   5.630   4.034   4.949
 3344SOL    HW210932   5.548   4.162   5.009
 3345SOL     OW10933   2.452   3.771   5.914
 3345SOL    HW110934   2.420   3.787   6.007
 3345SOL    HW210935   2.508   3.689   5.912
 3346SOL     OW10936   1.563   0.957   1.548
 3346SOL    HW110937   1.560   0.861   1.577
 3346SOL    HW210938   1.587   1.015   1.626
 3347SOL     OW10939   0.805   5.384   3.687
 3347SOL    HW110940   0.795   5.285   3.675
 3347SOL    HW210941   0.731   5.418   3.744
 3348SOL     OW10942   3.090   3.097   3.525
 3348SOL    HW110943   3.063   3.183   3.570
 3348SOL    HW210944   3.185   3.076   3.549
 3349SOL     OW10945   0.674   4.568   4.841
 3349SOL    HW110946   0.612   4.551   4.764
 3349SOL    HW210947   0.768   4.577   4.807
 3350SOL     OW10948   1.328   2.148   6.564
 3350SOL    HW110949   1.245   2.202   6.568
 3350SOL    HW210950   1.362   2.132   6.657
 3351SOL     OW10951   5.207   0.310   2.371
 3351SOL    HW110952   5.306   0.310   2.386
 3351SOL    HW210953   5.171   0.401   2.392
 3352SOL     OW10954   0.063   3.637   0.406
 3352SOL    HW110955   0.150   3.665   0.447
 3352SOL    HW210956   0.062   3.664   0.310
 3353SOL     OW10957   1.365   6.848   2.181
 3353SOL    HW110958   1.352   6.915   2.254
 3353SOL    HW210959   1.306   6.769   2.197
 3354SOL     OW10960   6.417   2.563   4.047
 3354SOL    HW110961   6.374   2.604   4.127
 3354SOL    HW210962   6.399   2.464   4.046
 3355SOL     OW10963   1.038   1.279   0.095
 3355SOL    HW110964   0.993   1.196   0.062
 3355SOL    HW210965   1.061   1.269   0.192
 3356SOL     OW10966   2.210   3.032   0.176
 3356SOL    HW110967   2.221   3.020   0.275
 3356SOL    HW210968   2.167   3.120   0.157
 3357SOL     OW10969   2.411   4.735   1.884
 3357SOL    HW110970   2.399   4.781   1.972
 3357SOL    HW210971   2.439   4.641   1.898
 3358SOL     OW10972   4.648   6.569   1.671
 3358SOL    HW110973   4.685   6.646   1.619
 3358SOL    HW210974   4.712   6.544   1.744
 3359SOL     OW10975   0.061   0.607   3.883
 3359SOL    HW110976   6.999   0.560   3.909
 3359SOL    HW210977   0.117   0.547   3.827
 3360SOL     OW10978   0.366   1.300   1.022
 3360SOL    HW110979   0.291   1.345   1.071
 3360SOL    HW210980   0.407   1.230   1.081
 3361SOL     OW10981   0.135   4.545   2.404
 3361SOL    HW110982   0.228   4.572   2.377
 3361SOL    HW210983   0.075   4.624   2.400
 3362SOL     OW10984   3.608   1.298   4.478
 3362SOL    HW110985   3.697   1.321   4.438
 3362SOL    HW210986   3.535   1.328   4.417
 3363SOL     OW10987   0.414   0.428   6.199
 3363SOL    HW110988   0.429   0.436   6.298
 3363SOL    HW210989   0.335   0.482   6.172
 3364SOL     OW10990   1.275   4.919   5.106
 3364SOL    HW110991   1.356   4.947   5.055
 3364SOL    HW210992   1.299   4.847   5.171
 3365SOL     OW10993   0.279   2.820   5.182
 3365SOL    HW110994   0.218   2.746   5.153
 3365SOL    HW210995   0.349   2.835   5.112
 3366SOL     OW10996   6.380   0.894   5.102
 3366SOL    HW110997   6.326   0.974   5.076
 3366SOL    HW210998   6.351   0.815   5.049
 3367SOL     OW10999   2.072   2.805   1.762
 3367SOL    HW111000   2.066   2.776   1.666
 3367SOL    HW211001   2.084   2.904   1.766
 3368SOL     OW11002   0.373   6.037   0.006
 3368SOL    HW111003   0.437   5.970   0.046
 3368SOL    HW211004   0.333   6.000   6.946
 3369SOL     OW11005   3.384   2.126   6.127
 3369SOL    HW111006   3.397   2.202   6.063
 3369SOL    HW211007   3.314   2.065   6.091
 3370SOL     OW11008   6.532   6.704   5.278
 3370SOL    HW111009   6.526   6.617   5.229
 3370SOL    HW211010   6.552   6.777   5.212
 3371SOL     OW11011   0.599   4.230   2.543
 3371SOL    HW111012   0.552   4.148   2.576
 3371SOL    HW211013   0.546   4.272   2.470
 3372SOL     OW11014   1.069   1.481   2.580
 3372SOL    HW111015   1.139   1.527   2.525
 3372SOL    HW211016   1.105   1.394   2.613
 3373SOL     OW11017   6.699   1.365   3.993
 3373SOL    HW111018   6.690   1.362   3.893
 3373SOL    HW211019   6.756   1.289   4.024
 3374SOL     OW11020   3.135   5.650   4.235
 3374SOL    HW111021   3.115   5.552   4.228
 3374SOL    HW211022   3.194   5.666   4.314
 3375SOL     OW11023   4.213   4.827   4.676
 3375SOL    HW111024   4.279   4.889   4.632
 3375SOL    HW211025   4.129   4.877   4.697
 3376SOL     OW11026   4.158   3.415   2.794
 3376SOL    HW111027   4.151   3.428   2.892
 3376SOL    HW211028   4.240   3.360   2.773
 3377SOL     OW11029   0.399   6.698   4.337
 3377SOL    HW111030   0.442   6.788   4.329
 3377SOL    HW211031   0.459   6.637   4.389
 3378SOL     OW11032   6.727   0.683   1.617
 3378SOL    HW111033   6.715   0.619   1.541
 3378SOL    HW211034   6.785   0.642   1.687
 3379SOL     OW11035   6.812   5.022   6.049
 3379SOL    HW111036   6.813   5.121   6.063
 3379SOL    HW211037   6.856   4.977   6.126
 3380SOL     OW11038   6.258   5.649   5.957
 3380SOL    HW111039   6.255   5.592   5.875
 3380SOL    HW211040   6.240   5.744   5.932
 3381SOL     OW11041   1.852   1.924   0.059
 3381SOL    HW111042   1.910   1.843   0.052
 3381SOL    HW211043   1.763   1.898   0.097
 3382SOL     OW11044   0.741   1.388   0.960
 3382SOL    HW111045   0.806   1.392   0.884
 3382SOL    HW211046   0.669   1.456   0.945
 3383SOL     OW11047   5.491   4.819   2.026
 3383SOL    HW111048   5.468   4.723   2.011
 3383SOL    HW211049   5.590   4.832   2.012
 3384SOL     OW11050   2.931   3.484   5.104
 3384SOL    HW111051   2.850   3.501   5.160
 3384SOL    HW211052   2.964   3.391   5.121
 3385SOL     OW11053   0.428   3.990   4.022
 3385SOL    HW111054   0.525   3.989   3.999
 3385SOL    HW211055   0.380   4.052   3.960
 3386SOL     OW11056   6.254   3.029   5.236
 3386SOL    HW111057   6.337   2.988   5.273
 3386SOL    HW211058   6.190   3.047   5.311
 3387SOL     OW11059   2.120   1.000   2.734
 3387SOL    HW111060   2.082   1.033   2.820
 3387SOL    HW211061   2.049   1.005   2.663
 3388SOL     OW11062   5.767   3.601   0.921
 3388SOL    HW111063   5.859   3.639   0.911
 3388SOL    HW211064   5.773   3.506   0.953
 3389SOL     OW11065   4.269   5.333   4.519
 3389SOL    HW111066   4.186   5.367   4.565
 3389SOL    HW211067   4.347   5.343   4.580
 3390SOL     OW11068   4.919   4.136   5.594
 3390SOL    HW111069   4.900   4.191   5.675
 3390SOL    HW211070   4.899   4.040   5.614
 3391SOL     OW11071   5.732   2.565   4.710
 3391SOL    HW111072   5.716   2.650   4.761
 3391SOL    HW211073   5.646   2.516   4.701
 3392SOL     OW11074   2.748   1.014   3.546
 3392SOL    HW111075   2.793   1.040   3.631
 3392SOL    HW211076   2.652   0.994   3.564
 3393SOL     OW11077   6.821   6.572   0.769
 3393SOL    HW111078   6.880   6.577   0.850
 3393SOL    HW211079   6.801   6.476   0.749
 3394SOL     OW11080   5.856   3.494   1.290
 3394SOL    HW111081   5.886   3.407   1.331
 3394SOL    HW211082   5.767   3.481   1.247
 3395SOL     OW11083   0.044   3.669   4.064
 3395SOL    HW111084   0.027   3.662   3.965
 3395SOL    HW211085   7.015   3.746   4.102
 3396SOL     OW11086   0.483   2.769   3.469
 3396SOL    HW111087   0.537   2.704   3.416
 3396SOL    HW211088   0.502   2.757   3.566
 3397SOL     OW11089   3.084   1.199   5.556
 3397SOL    HW111090   2.989   1.197   5.525
 3397SOL    HW211091   3.124   1.108   5.545
 3398SOL     OW11092   1.411   6.826   4.374
 3398SOL    HW111093   1.464   6.747   4.407
 3398SOL    HW211094   1.398   6.818   4.275
 3399SOL     OW11095   4.733   4.182   4.094
 3399SOL    HW111096   4.720   4.206   4.191
 3399SOL    HW211097   4.692   4.253   4.037
 3400SOL     OW11098   4.088   1.083   5.362
 3400SOL    HW111099   4.160   1.083   5.292
 3400SOL    HW211100   4.006   1.127   5.326
 3401SOL     OW11101   6.853   3.703   0.774
 3401SOL    HW111102   6.940   3.728   0.815
 3401SOL    HW211103   6.867   3.629   0.707
 3402SOL     OW11104   4.777   5.984   0.651
 3402SOL    HW111105   4.738   6.063   0.603
 3402SOL    HW211106   4.758   5.901   0.600
 3403SOL     OW11107   3.529   0.672   4.341
 3403SOL    HW111108   3.559   0.756   4.386
 3403SOL    HW211109   3.567   0.593   4.389
 3404SOL     OW11110   3.752   1.498   0.491
 3404SOL    HW111111   3.706   1.574   0.538
 3404SOL    HW211112   3.688   1.421   0.482
 3405SOL     OW11113   6.562   3.344   4.448
 3405SOL    HW111114   6.586   3.434   4.412
 3405SOL    HW211115   6.464   3.340   4.468
 3406SOL     OW11116   1.097   3.958   1.609
 3406SOL    HW111117   1.163   3.994   1.543
 3406SOL    HW211118   1.136   3.967   1.701
 3407SOL     OW11119   1.589   5.276   0.408
 3407SOL    HW111120   1.637   5.281   0.320
 3407SOL    HW211121   1.536   5.191   0.411
 3408SOL     OW11122   4.966   4.591   4.988
 3408SOL    HW111123   4.953   4.494   5.008
 3408SOL    HW211124   5.044   4.625   5.040
 3409SOL     OW11125   3.465   6.343   5.650
 3409SOL    HW111126   3.442   6.355   5.747
 3409SOL    HW211127   3.563   6.358   5.636
 3410SOL     OW11128   5.984   6.323   0.304
 3410SOL    HW111129   5.994   6.277   0.392
 3410SOL    HW211130   5.893   6.304   0.267
 3411SOL     OW11131   0.065   2.719   2.041
 3411SOL    HW111132   0.031   2.811   2.058
 3411SOL    HW211133   0.058   2.698   1.943
 3412SOL     OW11134   4.527   2.545   6.992
 3412SOL    HW111135   4.495   2.586   6.907
 3412SOL    HW211136   4.492   2.452   6.999
 3413SOL     OW11137   4.853   0.992   2.749
 3413SOL    HW111138   4.806   0.948   2.825
 3413SOL    HW211139   4.917   0.928   2.707
 3414SOL     OW11140   2.152   1.385   5.543
 3414SOL    HW111141   2.227   1.439   5.579
 3414SOL    HW211142   2.183   1.334   5.463
 3415SOL     OW11143   2.298   4.258   4.382
 3415SOL    HW111144   2.280   4.163   4.359
 3415SOL    HW211145   2.333   4.305   4.301
 3416SOL     OW11146   6.437   5.048   0.018
 3416SOL    HW111147   6.490   5.080   6.962
 3416SOL    HW211148   6.382   4.969   7.014
 3417SOL     OW11149   6.237   6.042   3.250
 3417SOL    HW111150   6.289   6.000   3.325
 3417SOL    HW211151   6.156   5.987   3.231
 3418SOL     OW11152   3.983   0.183   5.085
 3418SOL    HW111153   4.034   0.268   5.068
 3418SOL    HW211154   3.891   0.191   5.047
 3419SOL     OW11155   3.230   5.501   5.736
 3419SOL    HW111156   3.258   5.597   5.728
 3419SOL    HW211157   3.219   5.463   5.644
 3420SOL     OW11158   5.177   2.155   3.413
 3420SOL    HW111159   5.085   2.128   3.386
 3420SOL    HW211160   5.238   2.076   3.405
 3421SOL     OW11161   6.508   0.494   6.297
 3421SOL    HW111162   6.471   0.402   6.284
 3421SOL    HW211163   6.587   0.490   6.357
 3422SOL     OW11164   2.362   6.377   1.051
 3422SOL    HW111165   2.344   6.376   1.150
 3422SOL    HW211166   2.439   6.438   1.032
 3423SOL     OW11167   2.298   6.910   0.756
 3423SOL    HW111168   2.341   6.993   0.720
 3423SOL    HW211169   2.281   6.922   0.854
 3424SOL     OW11170   2.899   0.249   2.358
 3424SOL    HW111171   2.831   0.198   2.410
 3424SOL    HW211172   2.990   0.214   2.379
 3425SOL     OW11173   4.859   4.469   2.038
 3425SOL    HW111174   4.792   4.420   2.095
 3425SOL    HW211175   4.814   4.507   1.958
 3426SOL     OW11176   3.266   2.902   7.000
 3426SOL    HW111177   3.348   2.885   0.032
 3426SOL    HW211178   3.211   2.819   6.994
 3427SOL     OW11179   6.587   6.754   6.609
 3427SOL    HW111180   6.554   6.660   6.618
 3427SOL    HW211181   6.661   6.770   6.674
 3428SOL     OW11182   3.748   5.089   1.553
 3428SOL    HW111183   3.821   5.052   1.495
 3428SOL    HW211184   3.695   5.014   1.591
 3429SOL     OW11185   0.630   1.598   0.041
 3429SOL    HW111186   0.673   1.563   0.124
 3429SOL    HW211187   0.688   1.668   7.022
 3430SOL     OW11188   0.349   0.067   5.894
 3430SOL    HW111189   0.360   0.117   5.980
 3430SOL    HW211190   0.266   0.098   5.847
 3431SOL     OW11191   1.852   6.990   1.322
 3431SOL    HW111192   1.826   6.936   1.242
 3431SOL    HW211193   1.930   0.025   1.298
 3432SOL     OW11194   2.642   2.408   6.201
 3432SOL    HW111195   2.632   2.507   6.192
 3432SOL    HW211196   2.731   2.380   6.165
 3433SOL     OW11197   1.393   6.891   6.315
 3433SOL    HW111198   1.445   6.834   6.379
 3433SOL    HW211199   1.413   6.987   6.333
 3434SOL     OW11200   3.517   2.844   1.002
 3434SOL    HW111201   3.614   2.819   0.997
 3434SOL    HW211202   3.475   2.796   1.079
 3435SOL     OW11203   0.798   2.350   1.713
 3435SOL    HW111204   0.746   2.421   1.666
 3435SOL    HW211205   0.859   2.305   1.648
 3436SOL     OW11206   4.269   6.821   5.425
 3436SOL    HW111207   4.192   6.875   5.461
 3436SOL    HW211208   4.312   6.872   5.351
 3437SOL     OW11209   4.568   0.158   6.592
 3437SOL    HW111210   4.621   0.086   6.636
 3437SOL    HW211211   4.581   0.244   6.642
 3438SOL     OW11212   1.149   2.537   6.916
 3438SOL    HW111213   1.213   2.524   6.992
 3438SOL    HW211214   1.188   2.601   6.850
 3439SOL     OW11215   2.192   0.293   6.000
 3439SOL    HW111216   2.188   0.275   6.098
 3439SOL    HW211217   2.128   0.232   5.953
 3440SOL     OW11218   4.646   3.496   1.721
 3440SOL    HW111219   4.549   3.470   1.718
 3440SOL    HW211220   4.702   3.414   1.724
 3441SOL     OW11221   5.394   0.523   3.751
 3441SOL    HW111222   5.393   0.447   3.816
 3441SOL    HW211223   5.323   0.509   3.682
 3442SOL     OW11224   3.084   4.836   2.698
 3442SOL    HW111225   3.087   4.864   2.794
 3442SOL    HW211226   3.167   4.866   2.651
 3443SOL     OW11227   5.675   0.771   2.406
 3443SOL    HW111228   5.670   0.673   2.391
 3443SOL    HW211229   5.705   0.816   2.322
 3444SOL     OW11230   5.357   4.761   6.957
 3444SOL    HW111231   5.313   4.703   6.889
 3444SOL    HW211232   5.349   4.857   6.930
 3445SOL     OW11233   5.888   4.865   3.849
 3445SOL    HW111234   5.955   4.913   3.793
 3445SOL    HW211235   5.927   4.844   3.938
 3446SOL     OW11236   6.504   1.187   3.277
 3446SOL    HW111237   6.444   1.114   3.309
 3446SOL    HW211238   6.452   1.251   3.221
 3447SOL     OW11239   5.545   4.466   0.693
 3447SOL    HW111240   5.502   4.556   0.683
 3447SOL    HW211241   5.488   4.396   0.652
 3448SOL     OW11242   3.128   0.185   0.527
 3448SOL    HW111243   3.117   0.260   0.592
 3448SOL    HW211244   3.178   0.110   0.569
 3449SOL     OW11245   5.755   6.571   3.587
 3449SOL    HW111246   5.737   6.546   3.492
 3449SOL    HW211247   5.716   6.661   3.607
 3450SOL     OW11248   0.435   2.624   0.338
 3450SOL    HW111249   0.366   2.607   0.409
 3450SOL    HW211250   0.408   2.703   0.284
 3451SOL     OW11251   0.494   5.517   3.522
 3451SOL    HW111252   0.469   5.577   3.598
 3451SOL    HW211253   0.441   5.542   3.441
 3452SOL     OW11254   5.606   1.497   0.022
 3452SOL    HW111255   5.622   1.480   6.947
 3452SOL    HW211256   5.622   1.593   0.042
 3453SOL     OW11257   6.836   5.953   5.556
 3453SOL    HW111258   6.748   5.998   5.539
 3453SOL    HW211259   6.868   5.976   5.648
 3454SOL     OW11260   2.238   0.846   5.605
 3454SOL    HW111261   2.336   0.861   5.598
 3454SOL    HW211262   2.215   0.823   5.700
 3455SOL     OW11263   1.780   2.869   4.274
 3455SOL    HW111264   1.690   2.857   4.314
 3455SOL    HW211265   1.830   2.940   4.324
 3456SOL     OW11266   5.205   6.439   2.274
 3456SOL    HW111267   5.232   6.499   2.198
 3456SOL    HW211268   5.177   6.495   2.352
 3457SOL     OW11269   2.540   5.567   3.911
 3457SOL    HW111270   2.479   5.637   3.875
 3457SOL    HW211271   2.531   5.483   3.857
 3458SOL     OW11272   5.588   6.858   0.169
 3458SOL    HW111273   5.497   6.897   0.182
 3458SOL    HW211274   5.639   6.862   0.255
 3459SOL     OW11275   6.323   4.306   2.939
 3459SOL    HW111276   6.231   4.328   2.971
 3459SOL    HW211277   6.390   4.361   2.990
 3460SOL     OW11278   2.876   3.759   0.416
 3460SOL    HW111279   2.819   3.712   0.349
 3460SOL    HW211280   2.942   3.694   0.455
 3461SOL     OW11281   4.483   5.617   4.429
 3461SOL    HW111282   4.426   5.575   4.357
 3461SOL    HW211283   4.460   5.575   4.517
 3462SOL     OW11284   6.633   3.750   2.398
 3462SOL    HW111285   6.579   3.686   2.453
 3462SOL    HW211286   6.633   3.840   2.441
 3463SOL     OW11287   0.893   2.699   2.596
 3463SOL    HW111288   0.986   2.721   2.627
 3463SOL    HW211289   0.878   2.738   2.505
 3464SOL     OW11290   6.454   2.057   6.836
 3464SOL    HW111291   6.382   2.119   6.806
 3464SOL    HW211292   6.544   2.099   6.820
 3465SOL     OW11293   0.803   3.327   1.997
 3465SOL    HW111294   0.787   3.405   1.937
 3465SOL    HW211295   0.767   3.244   1.955
 3466SOL     OW11296   6.828   4.988   5.692
 3466SOL    HW111297   6.751   4.990   5.755
 3466SOL    HW211298   6.796   5.004   5.598
 3467SOL     OW11299   1.734   1.605   0.175
 3467SOL    HW111300   1.709   1.631   0.268
 3467SOL    HW211301   1.685   1.663   0.110
 3468SOL     OW11302   5.602   1.539   3.138
 3468SOL    HW111303   5.602   1.439   3.144
 3468SOL    HW211304   5.654   1.577   3.215
 3469SOL     OW11305   4.365   0.100   4.165
 3469SOL    HW111306   4.376   0.029   4.234
 3469SOL    HW211307   4.277   0.146   4.178
 3470SOL     OW11308   0.479   2.291   1.796
 3470SOL    HW111309   0.535   2.269   1.875
 3470SOL    HW211310   0.526   2.359   1.739
 3471SOL     OW11311   4.441   4.522   3.608
 3471SOL    HW111312   4.416   4.578   3.529
 3471SOL    HW211313   4.436   4.577   3.691
 3472SOL     OW11314   2.784   0.878   1.592
 3472SOL    HW111315   2.771   0.883   1.493
 3472SOL    HW211316   2.808   0.785   1.619
 3473SOL     OW11317   6.125   3.575   2.665
 3473SOL    HW111318   6.215   3.589   2.704
 3473SOL    HW211319   6.069   3.656   2.679
 3474SOL     OW11320   6.909   4.209   2.490
 3474SOL    HW111321   6.881   4.161   2.573
 3474SOL    HW211322   6.987   4.269   2.510
 3475SOL     OW11323   0.905   4.631   4.709
 3475SOL    HW111324   0.900   4.729   4.688
 3475SOL    HW211325   0.984   4.591   4.662
 3476SOL     OW11326   2.431   2.516   2.274
 3476SOL    HW111327   2.405   2.443   2.210
 3476SOL    HW211328   2.388   2.602   2.245
 3477SOL     OW11329   1.549   4.812   0.987
 3477SOL    HW111330   1.535   4.789   0.891
 3477SOL    HW211331   1.466   4.856   1.023
 3478SOL     OW11332   2.762   5.897   6.467
 3478SOL    HW111333   2.791   5.914   6.562
 3478SOL    HW211334   2.741   5.985   6.423
 3479SOL     OW11335   0.659   0.516   2.699
 3479SOL    HW111336   0.641   0.420   2.680
 3479SOL    HW211337   0.573   0.567   2.695
 3480SOL     OW11338   0.313   6.324   5.212
 3480SOL    HW111339   0.336   6.405   5.159
 3480SOL    HW211340   0.255   6.263   5.158
 3481SOL     OW11341   5.041   0.569   0.407
 3481SOL    HW111342   4.982   0.490   0.390
 3481SOL    HW211343   5.131   0.553   0.367
 3482SOL     OW11344   6.310   1.311   2.176
 3482SOL    HW111345   6.364   1.295   2.259
 3482SOL    HW211346   6.353   1.264   2.099
 3483SOL     OW11347   5.353   2.096   2.468
 3483SOL    HW111348   5.424   2.084   2.398
 3483SOL    HW211349   5.282   2.026   2.456
 3484SOL     OW11350   1.265   3.254   0.577
 3484SOL    HW111351   1.311   3.248   0.666
 3484SOL    HW211352   1.167   3.237   0.589
 3485SOL     OW11353   1.685   1.939   3.858
 3485SOL    HW111354   1.731   2.027   3.847
 3485SOL    HW211355   1.741   1.866   3.819
 3486SOL     OW11356   1.777   0.230   3.318
 3486SOL    HW111357   1.736   0.232   3.227
 3486SOL    HW211358   1.841   0.153   3.323
 3487SOL     OW11359   0.166   1.749   0.481
 3487SOL    HW111360   0.069   1.772   0.467
 3487SOL    HW211361   0.218   1.775   0.400
 3488SOL     OW11362   5.477   1.351   5.181
 3488SOL    HW111363   5.521   1.339   5.092
 3488SOL    HW211364   5.520   1.291   5.248
 3489SOL     OW11365   3.696   0.082   1.692
 3489SOL    HW111366   3.743   0.040   1.770
 3489SOL    HW211367   3.735   0.046   1.607
 3490SOL     OW11368   3.707   4.673   1.147
 3490SOL    HW111369   3.771   4.596   1.153
 3490SOL    HW211370   3.648   4.661   1.067
 3491SOL     OW11371   4.452   2.224   6.039
 3491SOL    HW111372   4.436   2.293   5.968
 3491SOL    HW211373   4.391   2.241   6.116
 3492SOL     OW11374   6.122   4.710   0.878
 3492SOL    HW111375   6.030   4.693   0.844
 3492SOL    HW211376   6.178   4.628   0.866
 3493SOL     OW11377   4.845   3.951   4.011
 3493SOL    HW111378   4.869   3.932   4.106
 3493SOL    HW211379   4.805   4.043   4.004
 3494SOL     OW11380   2.559   1.236   1.886
 3494SOL    HW111381   2.573   1.332   1.864
 3494SOL    HW211382   2.604   1.178   1.818
 3495SOL     OW11383   6.617   4.807   1.953
 3495SOL    HW111384   6.523   4.789   1.984
 3495SOL    HW211385   6.624   4.790   1.855
 3496SOL     OW11386   5.992   5.222   0.915
 3496SOL    HW111387   6.074   5.169   0.893
 3496SOL    HW211388   6.010   5.282   0.993
 3497SOL     OW11389   2.860   1.856   3.896
 3497SOL    HW111390   2.946   1.869   3.847
 3497SOL    HW211391   2.788   1.909   3.851
 3498SOL     OW11392   2.970   1.421   1.535
 3498SOL    HW111393   2.910   1.406   1.613
 3498SOL    HW211394   2.969   1.340   1.476
 3499SOL     OW11395   5.572   4.400   4.191
 3499SOL    HW111396   5.613   4.463   4.125
 3499SOL    HW211397   5.643   4.368   4.255
 3500SOL     OW11398   1.862   3.112   2.906
 3500SOL    HW111399   1.793   3.184   2.917
 3500SOL    HW211400   1.845   3.040   2.973
 3501SOL     OW11401   3.466   6.629   6.221
 3501SOL    HW111402   3.392   6.697   6.216
 3501SOL    HW211403   3.445   6.563   6.293
 3502SOL     OW11404   6.929   1.787   1.637
 3502SOL    HW111405   6.854   1.721   1.644
 3502SOL    HW211406   6.898   1.867   1.585
 3503SOL     OW11407   5.992   6.129   4.912
 3503SOL    HW111408   6.052   6.204   4.939
 3503SOL    HW211409   5.924   6.162   4.847
 3504SOL     OW11410   2.463   0.350   1.836
 3504SOL    HW111411   2.431   0.318   1.747
 3504SOL    HW211412   2.457   0.276   1.902
 3505SOL     OW11413   5.387   4.248   5.459
 3505SOL    HW111414   5.351   4.202   5.378
 3505SOL    HW211415   5.339   4.214   5.540
 3506SOL     OW11416   5.425   5.180   5.153
 3506SOL    HW111417   5.458   5.151   5.063
 3506SOL    HW211418   5.471   5.125   5.224
 3507SOL     OW11419   2.799   0.725   0.923
 3507SOL    HW111420   2.835   0.721   1.016
 3507SOL    HW211421   2.789   0.632   0.887
 3508SOL     OW11422   2.018   1.692   5.938
 3508SOL    HW111423   2.054   1.741   6.017
 3508SOL    HW211424   2.082   1.619   5.913
 3509SOL     OW11425   6.061   6.863   0.107
 3509SOL    HW111426   6.089   6.937   0.168
 3509SOL    HW211427   5.987   6.895   0.047
 3510SOL     OW11428   1.441   1.045   2.109
 3510SOL    HW111429   1.341   1.047   2.108
 3510SOL    HW211430   1.475   1.115   2.171
 3511SOL     OW11431   1.781   4.129   1.679
 3511SOL    HW111432   1.826   4.055   1.629
 3511SOL    HW211433   1.841   4.161   1.752
 3512SOL     OW11434   0.315   4.388   0.298
 3512SOL    HW111435   0.282   4.327   0.370
 3512SOL    HW211436   0.359   4.335   0.226
 3513SOL     OW11437   5.900   2.166   0.624
 3513SOL    HW111438   5.960   2.245   0.629
 3513SOL    HW211439   5.950   2.088   0.585
 3514SOL     OW11440   7.015   0.905   1.941
 3514SOL    HW111441   0.007   0.886   1.844
 3514SOL    HW211442   0.072   0.950   1.979
 3515SOL     OW11443   4.363   6.128   2.561
 3515SOL    HW111444   4.435   6.133   2.630
 3515SOL    HW211445   4.394   6.072   2.484
 3516SOL     OW11446   4.973   7.015   0.735
 3516SOL    HW111447   5.018   0.081   0.724
 3516SOL    HW211448   4.990   6.958   0.654
 3517SOL     OW11449   0.363   1.821   1.374
 3517SOL    HW111450   0.417   1.744   1.341
 3517SOL    HW211451   0.379   1.833   1.472
 3518SOL     OW11452   5.379   2.739   5.164
 3518SOL    HW111453   5.438   2.805   5.210
 3518SOL    HW211454   5.317   2.787   5.101
 3519SOL     OW11455   1.363   0.533   5.583
 3519SOL    HW111456   1.454   0.523   5.624
 3519SOL    HW211457   1.298   0.477   5.634
 3520SOL     OW11458   3.190   5.892   6.918
 3520SOL    HW111459   3.284   5.870   6.941
 3520SOL    HW211460   3.138   5.807   6.906
 3521SOL     OW11461   4.700   2.826   0.308
 3521SOL    HW111462   4.719   2.801   0.403
 3521SOL    HW211463   4.617   2.781   0.277
 3522SOL     OW11464   0.395   5.193   0.766
 3522SOL    HW111465   0.475   5.147   0.804
 3522SOL    HW211466   0.413   5.219   0.671
 3523SOL     OW11467   1.567   4.730   5.109
 3523SOL    HW111468   1.545   4.645   5.060
 3523SOL    HW211469   1.648   4.772   5.068
 3524SOL     OW11470   4.421   1.375   1.586
 3524SOL    HW111471   4.413   1.458   1.641
 3524SOL    HW211472   4.348   1.311   1.608
 3525SOL     OW11473   6.515   4.486   3.559
 3525SOL    HW111474   6.423   4.461   3.592
 3525SOL    HW211475   6.572   4.404   3.556
 3526SOL     OW11476   2.053   6.762   3.819
 3526SOL    HW111477   2.016   6.671   3.804
 3526SOL    HW211478   1.978   6.828   3.824
 3527SOL     OW11479   5.803   3.157   6.324
 3527SOL    HW111480   5.799   3.075   6.380
 3527SOL    HW211481   5.747   3.144   6.242
 3528SOL     OW11482   1.283   6.736   5.240
 3528SOL    HW111483   1.252   6.831   5.229
 3528SOL    HW211484   1.233   6.677   5.176
 3529SOL     OW11485   4.085   6.973   0.593
 3529SOL    HW111486   4.003   6.953   0.541
 3529SOL    HW211487   4.060   7.002   0.686
 3530SOL     OW11488   6.473   6.113   1.257
 3530SOL    HW111489   6.379   6.087   1.280
 3530SOL    HW211490   6.534   6.035   1.270
 3531SOL     OW11491   4.827   2.307   0.993
 3531SOL    HW111492   4.787   2.398   0.979
 3531SOL    HW211493   4.759   2.246   1.033
 3532SOL     OW11494   2.463   0.059   1.850
 3532SOL    HW111495   2.501   0.098   1.766
 3532SOL    HW211496   2.537   0.020   1.905
 3533SOL     OW11497   0.888   1.496   2.801
 3533SOL    HW111498   0.964   1.503   2.737
 3533SOL    HW211499   0.843   1.408   2.790
 3534SOL     OW11500   0.633   2.134   0.960
 3534SOL    HW111501   0.720   2.085   0.951
 3534SOL    HW211502   0.571   2.080   1.017
 3535SOL     OW11503   2.050   5.126   6.425
 3535SOL    HW111504   1.962   5.172   6.425
 3535SOL    HW211505   2.049   5.052   6.492
 3536SOL     OW11506   3.525   1.830   2.709
 3536SOL    HW111507   3.556   1.901   2.772
 3536SOL    HW211508   3.525   1.866   2.616
 3537SOL     OW11509   2.488   5.373   2.831
 3537SOL    HW111510   2.428   5.405   2.758
 3537SOL    HW211511   2.579   5.413   2.820
 3538SOL     OW11512   2.140   6.836   5.753
 3538SOL    HW111513   2.219   6.788   5.715
 3538SOL    HW211514   2.135   6.928   5.713
 3539SOL     OW11515   3.516   2.810   5.052
 3539SOL    HW111516   3.544   2.806   4.956
 3539SOL    HW211517   3.416   2.813   5.057
 3540SOL     OW11518   1.746   2.382   4.926
 3540SOL    HW111519   1.776   2.312   4.861
 3540SOL    HW211520   1.753   2.346   5.019
 3541SOL     OW11521   2.375   2.909   6.212
 3541SOL    HW111522   2.346   2.856   6.292
 3541SOL    HW211523   2.341   2.864   6.129
 3542SOL     OW11524   1.247   5.410   3.425
 3542SOL    HW111525   1.309   5.341   3.387
 3542SOL    HW211526   1.199   5.371   3.504
 3543SOL     OW11527   0.619   2.508   5.035
 3543SOL    HW111528   0.623   2.443   4.960
 3543SOL    HW211529   0.558   2.583   5.012
 3544SOL     OW11530   1.839   4.073   5.571
 3544SOL    HW111531   1.862   4.054   5.476
 3544SOL    HW211532   1.753   4.027   5.594
 3545SOL     OW11533   4.477   5.688   0.045
 3545SOL    HW111534   4.529   5.690   0.131
 3545SOL    HW211535   4.384   5.655   0.063
 3546SOL     OW11536   1.768   4.295   3.882
 3546SOL    HW111537   1.840   4.365   3.882
 3546SOL    HW211538   1.679   4.338   3.865
 3547SOL     OW11539   6.589   4.529   3.848
 3547SOL    HW111540   6.552   4.573   3.766
 3547SOL    HW211541   6.686   4.510   3.835
 3548SOL     OW11542   5.847   1.757   5.944
 3548SOL    HW111543   5.907   1.681   5.918
 3548SOL    HW211544   5.897   1.843   5.935
 3549SOL     OW11545   6.539   4.903   5.630
 3549SOL    HW111546   6.516   4.807   5.621
 3549SOL    HW211547   6.476   4.947   5.694
 3550SOL     OW11548   5.768   2.348   2.500
 3550SOL    HW111549   5.800   2.254   2.511
 3550SOL    HW211550   5.798   2.383   2.411
 3551SOL     OW11551   3.662   0.025   2.757
 3551SOL    HW111552   3.719   7.013   2.682
 3551SOL    HW211553   3.647   6.975   2.824
 3552SOL     OW11554   5.404   6.143   1.482
 3552SOL    HW111555   5.312   6.123   1.517
 3552SOL    HW211556   5.412   6.240   1.461
 3553SOL     OW11557   5.680   3.748   1.554
 3553SOL    HW111558   5.585   3.736   1.526
 3553SOL    HW211559   5.686   3.825   1.618
 3554SOL     OW11560   3.806   2.790   1.064
 3554SOL    HW111561   3.855   2.794   0.977
 3554SOL    HW211562   3.872   2.784   1.139
 3555SOL     OW11563   1.301   3.844   2.960
 3555SOL    HW111564   1.233   3.860   2.888
 3555SOL    HW211565   1.346   3.931   2.983
 3556SOL     OW11566   4.601   0.932   3.706
 3556SOL    HW111567   4.613   0.974   3.616
 3556SOL    HW211568   4.630   0.836   3.702
 3557SOL     OW11569   1.048   0.222   4.094
 3557SOL    HW111570   1.119   0.283   4.129
 3557SOL    HW211571   0.963   0.274   4.082
 3558SOL     OW11572   1.133   5.772   0.843
 3558SOL    HW111573   1.222   5.777   0.798
 3558SOL    HW211574   1.138   5.707   0.919
 3559SOL     OW11575   0.568   6.898   4.576
 3559SOL    HW111576   0.637   6.827   4.589
 3559SOL    HW211577   0.548   6.909   4.479
 3560SOL     OW11578   1.420   5.705   1.400
 3560SOL    HW111579   1.468   5.731   1.317
 3560SOL    HW211580   1.412   5.606   1.405
 3561SOL     OW11581   3.890   4.868   5.357
 3561SOL    HW111582   3.867   4.789   5.413
 3561SOL    HW211583   3.990   4.875   5.348
 3562SOL     OW11584   5.774   0.932   4.132
 3562SOL    HW111585   5.857   0.899   4.178
 3562SOL    HW211586   5.719   0.986   4.196
 3563SOL     OW11587   5.813   0.879   1.059
 3563SOL    HW111588   5.912   0.882   1.069
 3563SOL    HW211589   5.772   0.838   1.140
 3564SOL     OW11590   1.751   4.535   4.240
 3564SOL    HW111591   1.770   4.569   4.148
 3564SOL    HW211592   1.720   4.441   4.235
 3565SOL     OW11593   3.694   6.421   5.302
 3565SOL    HW111594   3.597   6.434   5.281
 3565SOL    HW211595   3.733   6.357   5.236
 3566SOL     OW11596   6.665   3.232   6.390
 3566SOL    HW111597   6.743   3.175   6.415
 3566SOL    HW211598   6.656   3.307   6.456
 3567SOL     OW11599   0.991   2.966   0.037
 3567SOL    HW111600   0.918   2.900   0.052
 3567SOL    HW211601   0.986   3.037   0.107
 3568SOL     OW11602   5.292   6.356   3.985
 3568SOL    HW111603   5.202   6.366   4.028
 3568SOL    HW211604   5.316   6.440   3.937
 3569SOL     OW11605   3.228   2.458   6.282
 3569SOL    HW111606   3.196   2.552   6.270
 3569SOL    HW211607   3.327   2.458   6.297
 3570SOL     OW11608   5.500   0.540   4.655
 3570SOL    HW111609   5.575   0.497   4.604
 3570SOL    HW211610   5.435   0.471   4.684
 3571SOL     OW11611   2.312   0.843   4.814
 3571SOL    HW111612   2.345   0.927   4.858
 3571SOL    HW211613   2.270   0.784   4.882
 3572SOL     OW11614   5.642   3.882   2.649
 3572SOL    HW111615   5.610   3.817   2.717
 3572SOL    HW211616   5.675   3.833   2.568
 3573SOL     OW11617   6.205   3.878   2.500
 3573SOL    HW111618   6.199   3.934   2.583
 3573SOL    HW211619   6.113   3.850   2.473
 3574SOL     OW11620   1.296   3.471   0.339
 3574SOL    HW111621   1.336   3.403   0.400
 3574SOL    HW211622   1.200   3.485   0.363
 3575SOL     OW11623   4.795   6.010   1.979
 3575SOL    HW111624   4.802   6.107   2.000
 3575SOL    HW211625   4.756   5.961   2.056
 3576SOL     OW11626   0.564   2.045   0.551
 3576SOL    HW111627   0.513   1.967   0.588
 3576SOL    HW211628   0.501   2.121   0.535
 3577SOL     OW11629   2.112   3.134   6.862
 3577SOL    HW111630   2.160   3.050   6.889
 3577SOL    HW211631   2.155   3.173   6.781
 3578SOL     OW11632   4.986   1.869   1.187
 3578SOL    HW111633   5.076   1.910   1.199
 3578SOL    HW211634   4.923   1.905   1.256
 3579SOL     OW11635   6.916   2.991   2.468
 3579SOL    HW111636   6.840   3.054   2.482
 3579SOL    HW211637   6.986   3.007   2.538
 3580SOL     OW11638   6.229   2.703   6.861
 3580SOL    HW111639   6.201   2.669   6.771
 3580SOL    HW211640   6.199   2.797   6.872
 3581SOL     OW11641   0.426   6.129   2.718
 3581SOL    HW111642   0.467   6.111   2.807
 3581SOL    HW211643   0.486   6.188   2.664
 3582SOL     OW11644   2.109   4.759   5.730
 3582SOL    HW111645   2.196   4.799   5.760
 3582SOL    HW211646   2.120   4.661   5.717
 3583SOL     OW11647   1.277   4.912   0.221
 3583SOL    HW111648   1.244   4.909   0.315
 3583SOL    HW211649   1.227   4.846   0.165
 3584SOL     OW11650   5.539   4.895   5.625
 3584SOL    HW111651   5.593   4.896   5.710
 3584SOL    HW211652   5.601   4.890   5.547
 3585SOL     OW11653   3.209   2.022   5.097
 3585SOL    HW111654   3.174   2.100   5.044
 3585SOL    HW211655   3.148   2.005   5.174
 3586SOL     OW11656   0.041   2.366   5.123
 3586SOL    HW111657   7.000   2.410   5.186
 3586SOL    HW211658   7.022   2.283   5.086
 3587SOL     OW11659   2.790   5.415   6.209
 3587SOL    HW111660   2.847   5.340   6.177
 3587SOL    HW211661   2.698   5.382   6.226
 3588SOL     OW11662   6.580   3.077   5.032
 3588SOL    HW111663   6.663   3.126   5.005
 3588SOL    HW211664   6.504   3.102   4.973
 3589SOL     OW11665   6.251   0.073   6.863
 3589SOL    HW111666   6.161   0.032   6.850
 3589SOL    HW211667   6.274   0.129   6.783
 3590SOL     OW11668   0.505   3.860   0.130
 3590SOL    HW111669   0.474   3.953   0.110
 3590SOL    HW211670   0.433   3.812   0.180
 3591SOL     OW11671   5.739   3.764   0.641
 3591SOL    HW111672   5.798   3.695   0.599
 3591SOL    HW211673   5.792   3.818   0.706
 3592SOL     OW11674   0.608   0.205   3.150
 3592SOL    HW111675   0.584   0.222   3.055
 3592SOL    HW211676   0.645   0.288   3.191
 3593SOL     OW11677   0.769   4.398   6.104
 3593SOL    HW111678   0.866   4.422   6.092
 3593SOL    HW211679   0.725   4.391   6.015
 3594SOL     OW11680   5.211   0.512   4.083
 3594SOL    HW111681   5.210   0.476   4.177
 3594SOL    HW211682   5.122   0.551   4.062
 3595SOL     OW11683   4.992   5.609   6.177
 3595SOL    HW111684   4.978   5.574   6.270
 3595SOL    HW211685   4.922   5.678   6.157
 3596SOL     OW11686   4.729   2.895   3.885
 3596SOL    HW111687   4.694   2.891   3.792
 3596SOL    HW211688   4.702   2.813   3.935
 3597SOL     OW11689   1.901   2.987   5.088
 3597SOL    HW111690   1.939   2.938   5.010
 3597SOL    HW211691   1.955   2.968   5.170
 3598SOL     OW11692   2.026   6.572   5.390
 3598SOL    HW111693   2.118   6.535   5.380
 3598SOL    HW211694   1.981   6.575   5.301
 3599SOL     OW11695   4.227   1.945   7.013
 3599SOL    HW111696   4.304   1.999   0.023
 3599SOL    HW211697   4.246   1.913   6.920
 3600SOL     OW11698   0.617   3.655   2.098
 3600SOL    HW111699   0.614   3.656   2.198
 3600SOL    HW211700   0.684   3.588   2.067
 3601SOL     OW11701   5.249   2.340   6.225
 3601SOL    HW111702   5.266   2.279   6.147
 3601SOL    HW211703   5.153   2.336   6.250
 3602SOL     OW11704   1.316   3.533   0.753
 3602SOL    HW111705   1.345   3.573   0.840
 3602SOL    HW211706   1.228   3.487   0.765
 3603SOL     OW11707   3.518   1.011   4.906
 3603SOL    HW111708   3.451   0.958   4.959
 3603SOL    HW211709   3.477   1.040   4.820
 3604SOL     OW11710   6.639   0.718   4.057
 3604SOL    HW111711   6.725   0.746   4.101
 3604SOL    HW211712   6.659   0.655   3.982
 3605SOL     OW11713   1.086   4.423   3.939
 3605SOL    HW111714   1.119   4.485   4.009
 3605SOL    HW211715   0.992   4.396   3.959
 3606SOL     OW11716   1.119   6.421   3.258
 3606SOL    HW111717   1.123   6.367   3.174
 3606SOL    HW211718   1.030   6.409   3.302
 3607SOL     OW11719   5.676   3.516   2.244
 3607SOL    HW111720   5.712   3.424   2.261
 3607SOL    HW211721   5.582   3.522   2.276
 3608SOL     OW11722   5.028   1.585   4.312
 3608SOL    HW111723   5.037   1.500   4.260
 3608SOL    HW211724   5.107   1.597   4.371
 3609SOL     OW11725   2.353   0.220   4.333
 3609SOL    HW111726   2.302   0.303   4.353
 3609SOL    HW211727   2.434   0.215   4.391
 3610SOL     OW11728   1.386   0.819   5.544
 3610SOL    HW111729   1.484   0.825   5.525
 3610SOL    HW211730   1.360   0.722   5.549
 3611SOL     OW11731   3.975   4.833   3.857
 3611SOL    HW111732   4.028   4.847   3.773
 3611SOL    HW211733   4.037   4.803   3.930
 3612SOL     OW11734   7.018   1.228   6.979
 3612SOL    HW111735   6.921   1.218   7.003
 3612SOL    HW211736   0.038   1.138   6.974
 3613SOL     OW11737   4.362   4.844   1.773
 3613SOL    HW111738   4.328   4.764   1.823
 3613SOL    HW211739   4.310   4.853   1.688
 3614SOL     OW11740   3.012   3.880   0.140
 3614SOL    HW111741   3.055   3.906   0.226
 3614SOL    HW211742   2.912   3.885   0.150
 3615SOL     OW11743   5.668   2.489   6.054
 3615SOL    HW111744   5.719   2.537   6.125
 3615SOL    HW211745   5.590   2.546   6.026
 3616SOL     OW11746   1.310   0.657   6.174
 3616SOL    HW111747   1.316   0.562   6.143
 3616SOL    HW211748   1.401   0.698   6.171
 3617SOL     OW11749   4.287   0.529   6.006
 3617SOL    HW111750   4.337   0.607   5.968
 3617SOL    HW211751   4.191   0.533   5.975
 3618SOL     OW11752   2.561   3.387   5.303
 3618SOL    HW111753   2.462   3.372   5.293
 3618SOL    HW211754   2.608   3.299   5.308
 3619SOL     OW11755   5.507   3.564   6.922
 3619SOL    HW111756   5.527   3.485   6.865
 3619SOL    HW211757   5.578   3.634   6.909
 3620SOL     OW11758   5.915   5.422   5.556
 3620SOL    HW111759   5.843   5.447   5.620
 3620SOL    HW211760   5.924   5.322   5.553
 3621SOL     OW11761   3.238   3.522   4.528
 3621SOL    HW111762   3.292   3.583   4.470
 3621SOL    HW211763   3.193   3.576   4.600
 3622SOL     OW11764   1.863   0.692   0.407
 3622SOL    HW111765   1.775   0.703   0.360
 3622SOL    HW211766   1.896   0.782   0.437
 3623SOL     OW11767   0.244   5.640   5.163
 3623SOL    HW111768   0.283   5.581   5.093
 3623SOL    HW211769   0.149   5.612   5.182
 3624SOL     OW11770   1.421   6.761   2.490
 3624SOL    HW111771   1.515   6.795   2.491
 3624SOL    HW211772   1.422   6.661   2.494
 3625SOL     OW11773   0.130   3.736   6.479
 3625SOL    HW111774   0.165   3.696   6.564
 3625SOL    HW211775   0.041   3.696   6.457
 3626SOL     OW11776   0.537   3.066   3.976
 3626SOL    HW111777   0.633   3.093   3.968
 3626SOL    HW211778   0.480   3.149   3.984
 3627SOL     OW11779   4.742   3.237   1.708
 3627SOL    HW111780   4.811   3.182   1.661
 3627SOL    HW211781   4.702   3.184   1.783
 3628SOL     OW11782   1.710   1.154   2.056
 3628SOL    HW111783   1.789   1.092   2.055
 3628SOL    HW211784   1.629   1.105   2.024
 3629SOL     OW11785   1.152   0.415   4.492
 3629SOL    HW111786   1.177   0.406   4.396
 3629SOL    HW211787   1.217   0.476   4.538
 3630SOL     OW11788   6.429   2.738   3.825
 3630SOL    HW111789   6.427   2.679   3.906
 3630SOL    HW211790   6.361   2.811   3.834
 3631SOL     OW11791   1.537   6.737   3.553
 3631SOL    HW111792   1.592   6.812   3.590
 3631SOL    HW211793   1.520   6.754   3.456
 3632SOL     OW11794   4.379   4.456   0.041
 3632SOL    HW111795   4.425   4.471   0.129
 3632SOL    HW211796   4.351   4.360   0.034
 3633SOL     OW11797   4.323   2.741   5.778
 3633SOL    HW111798   4.365   2.665   5.730
 3633SOL    HW211799   4.336   2.730   5.877
 3634SOL     OW11800   2.039   6.403   6.210
 3634SOL    HW111801   2.023   6.488   6.161
 3634SOL    HW211802   2.043   6.421   6.308
 3635SOL     OW11803   2.151   1.456   0.686
 3635SOL    HW111804   2.143   1.525   0.614
 3635SOL    HW211805   2.241   1.412   0.680
 3636SOL     OW11806   0.130   5.927   1.207
 3636SOL    HW111807   0.203   5.895   1.268
 3636SOL    HW211808   0.132   5.874   1.122
 3637SOL     OW11809   0.601   3.119   1.226
 3637SOL    HW111810   0.513   3.165   1.214
 3637SOL    HW211811   0.614   3.053   1.151
 3638SOL     OW11812   6.541   4.244   2.704
 3638SOL    HW111813   6.629   4.292   2.713
 3638SOL    HW211814   6.467   4.307   2.730
 3639SOL     OW11815   3.434   4.602   6.345
 3639SOL    HW111816   3.439   4.545   6.427
 3639SOL    HW211817   3.412   4.696   6.370
 3640SOL     OW11818   5.388   1.751   0.663
 3640SOL    HW111819   5.446   1.825   0.696
 3640SOL    HW211820   5.368   1.688   0.738
 3641SOL     OW11821   5.306   4.363   1.230
 3641SOL    HW111822   5.333   4.402   1.318
 3641SOL    HW211823   5.207   4.365   1.221
 3642SOL     OW11824   4.883   2.176   6.890
 3642SOL    HW111825   4.871   2.093   6.836
 3642SOL    HW211826   4.872   2.155   6.987
 3643SOL     OW11827   4.209   6.532   5.957
 3643SOL    HW111828   4.212   6.563   5.862
 3643SOL    HW211829   4.241   6.605   6.017
 3644SOL     OW11830   2.917   0.356   1.584
 3644SOL    HW111831   2.904   0.455   1.585
 3644SOL    HW211832   2.832   0.311   1.613
 3645SOL     OW11833   1.452   3.753   4.372
 3645SOL    HW111834   1.369   3.784   4.326
 3645SOL    HW211835   1.466   3.806   4.455
 3646SOL     OW11836   1.756   4.849   4.687
 3646SOL    HW111837   1.747   4.764   4.635
 3646SOL    HW211838   1.792   4.828   4.778
 3647SOL     OW11839   2.867   5.974   6.703
 3647SOL    HW111840   2.845   5.967   6.800
 3647SOL    HW211841   2.899   6.067   6.683
 3648SOL     OW11842   4.846   6.196   3.087
 3648SOL    HW111843   4.785   6.254   3.141
 3648SOL    HW211844   4.794   6.151   3.015
 3649SOL     OW11845   6.378   3.962   0.284
 3649SOL    HW111846   6.301   3.923   0.233
 3649SOL    HW211847   6.440   4.009   0.220
 3650SOL     OW11848   5.922   4.159   0.764
 3650SOL    HW111849   5.918   4.059   0.758
 3650SOL    HW211850   5.938   4.186   0.859
 3651SOL     OW11851   1.871   1.540   4.417
 3651SOL    HW111852   1.901   1.584   4.333
 3651SOL    HW211853   1.813   1.602   4.469
 3652SOL     OW11854   5.584   0.224   2.880
 3652SOL    HW111855   5.520   0.259   2.948
 3652SOL    HW211856   5.675   0.215   2.922
 3653SOL     OW11857   1.522   0.975   3.246
 3653SOL    HW111858   1.438   1.023   3.221
 3653SOL    HW211859   1.505   0.917   3.326
 3654SOL     OW11860   5.045   6.090   0.625
 3654SOL    HW111861   5.105   6.012   0.647
 3654SOL    HW211862   4.950   6.064   0.642
 3655SOL     OW11863   3.165   1.307   3.962
 3655SOL    HW111864   3.208   1.230   4.008
 3655SOL    HW211865   3.084   1.336   4.013
 3656SOL     OW11866   1.335   4.962   1.357
 3656SOL    HW111867   1.302   4.867   1.363
 3656SOL    HW211868   1.286   5.018   1.425
 3657SOL     OW11869   4.830   5.859   5.328
 3657SOL    HW111870   4.778   5.932   5.282
 3657SOL    HW211871   4.835   5.779   5.267
 3658SOL     OW11872   1.675   4.698   6.435
 3658SOL    HW111873   1.621   4.646   6.502
 3658SOL    HW211874   1.761   4.650   6.418
 3659SOL     OW11875   0.611   1.853   6.686
 3659SOL    HW111876   0.704   1.876   6.716
 3659SOL    HW211877   0.601   1.876   6.589
 3660SOL     OW11878   6.268   6.059   5.168
 3660SOL    HW111879   6.362   6.068   5.134
 3660SOL    HW211880   6.213   6.011   5.100
 3661SOL     OW11881   0.449   0.682   4.457
 3661SOL    HW111882   0.400   0.627   4.390
 3661SOL    HW211883   0.534   0.636   4.482
 3662SOL     OW11884   3.683   0.856   4.506
 3662SOL    HW111885   3.759   0.898   4.457
 3662SOL    HW211886   3.699   0.862   4.604
 3663SOL     OW11887   2.259   2.899   6.926
 3663SOL    HW111888   2.165   2.867   6.943
 3663SOL    HW211889   2.315   2.882   7.007
 3664SOL     OW11890   3.701   1.567   2.023
 3664SOL    HW111891   3.764   1.556   1.946
 3664SOL    HW211892   3.690   1.480   2.071
 3665SOL     OW11893   0.721   5.807   5.904
 3665SOL    HW111894   0.687   5.730   5.850
 3665SOL    HW211895   0.787   5.774   5.972
 3666SOL     OW11896   1.094   3.222   3.118
 3666SOL    HW111897   1.144   3.210   3.033
 3666SOL    HW211898   1.152   3.197   3.196
 3667SOL     OW11899   0.988   1.309   4.034
 3667SOL    HW111900   0.962   1.324   3.938
 3667SOL    HW211901   0.993   1.397   4.081
 3668SOL     OW11902   1.231   0.595   0.813
 3668SOL    HW111903   1.227   0.499   0.840
 3668SOL    HW211904   1.208   0.653   0.891
 3669SOL     OW11905   5.939   1.699   3.933
 3669SOL    HW111906   5.873   1.630   3.902
 3669SOL    HW211907   6.001   1.722   3.859
 3670SOL     OW11908   3.089   4.907   1.127
 3670SOL    HW111909   3.021   4.838   1.105
 3670SOL    HW211910   3.124   4.892   1.220
 3671SOL     OW11911   6.674   1.391   2.986
 3671SOL    HW111912   6.722   1.336   3.055
 3671SOL    HW211913   6.595   1.436   3.028
 3672SOL     OW11914   4.740   1.588   2.734
 3672SOL    HW111915   4.762   1.502   2.689
 3672SOL    HW211916   4.824   1.641   2.747
 3673SOL     OW11917   4.260   5.404   7.002
 3673SOL    HW111918   4.303   5.410   0.069
 3673SOL    HW211919   4.322   5.442   6.933
 3674SOL     OW11920   1.291   6.064   5.684
 3674SOL    HW111921   1.295   5.975   5.730
 3674SOL    HW211922   1.382   6.089   5.652
 3675SOL     OW11923   0.030   2.912   3.417
 3675SOL    HW111924   0.077   2.971   3.482
 3675SOL    HW211925   0.008   2.825   3.460
 3676SOL     OW11926   5.635   2.537   3.004
 3676SOL    HW111927   5.644   2.637   3.008
 3676SOL    HW211928   5.582   2.505   3.083
 3677SOL     OW11929   2.224   1.045   5.144
 3677SOL    HW111930   2.144   0.986   5.139
 3677SOL    HW211931   2.244   1.082   5.054
 3678SOL     OW11932   1.502   1.807   4.315
 3678SOL    HW111933   1.510   1.738   4.244
 3678SOL    HW211934   1.494   1.898   4.274
 3679SOL     OW11935   6.812   0.142   3.826
 3679SOL    HW111936   6.791   0.046   3.809
 3679SOL    HW211937   6.784   0.166   3.919
 3680SOL     OW11938   4.442   2.438   3.746
 3680SOL    HW111939   4.374   2.379   3.789
 3680SOL    HW211940   4.450   2.415   3.649
 3681SOL     OW11941   0.542   1.067   5.975
 3681SOL    HW111942   0.447   1.073   5.944
 3681SOL    HW211943   0.576   1.159   5.996
 3682SOL     OW11944   5.355   2.292   0.853
 3682SOL    HW111945   5.313   2.206   0.824
 3682SOL    HW211946   5.434   2.273   0.910
 3683SOL     OW11947   0.761   0.979   4.669
 3683SOL    HW111948   0.818   1.060   4.661
 3683SOL    HW211949   0.766   0.944   4.763
 3684SOL     OW11950   1.665   6.168   0.166
 3684SOL    HW111951   1.618   6.147   0.080
 3684SOL    HW211952   1.764   6.173   0.149
 3685SOL     OW11953   2.492   6.132   5.143
 3685SOL    HW111954   2.562   6.077   5.098
 3685SOL    HW211955   2.419   6.073   5.176
 3686SOL     OW11956   6.681   4.590   4.167
 3686SOL    HW111957   6.608   4.563   4.104
 3686SOL    HW211958   6.764   4.539   4.145
 3687SOL     OW11959   5.295   6.822   3.324
 3687SOL    HW111960   5.343   6.756   3.382
 3687SOL    HW211961   5.269   6.778   3.239
 3688SOL     OW11962   5.890   3.070   0.026
 3688SOL    HW111963   5.932   3.092   0.114
 3688SOL    HW211964   5.803   3.022   0.042
 3689SOL     OW11965   2.089   1.990   5.723
 3689SOL    HW111966   2.174   2.035   5.750
 3689SOL    HW211967   2.021   2.000   5.796
 3690SOL     OW11968   4.730   5.752   0.857
 3690SOL    HW111969   4.761   5.828   0.800
 3690SOL    HW211970   4.642   5.718   0.824
 3691SOL     OW11971   2.492   2.201   6.095
 3691SOL    HW111972   2.560   2.263   6.133
 3691SOL    HW211973   2.532   2.111   6.081
 3692SOL     OW11974   6.660   4.575   6.048
 3692SOL    HW111975   6.576   4.604   6.001
 3692SOL    HW211976   6.738   4.625   6.010
 3693SOL     OW11977   1.772   2.096   2.482
 3693SOL    HW111978   1.787   2.186   2.442
 3693SOL    HW211979   1.836   2.083   2.559
 3694SOL     OW11980   1.182   0.291   1.505
 3694SOL    HW111981   1.091   0.253   1.494
 3694SOL    HW211982   1.249   0.230   1.463
 3695SOL     OW11983   6.251   1.933   1.700
 3695SOL    HW111984   6.254   2.005   1.770
 3695SOL    HW211985   6.318   1.863   1.722
 3696SOL     OW11986   5.187   0.639   5.751
 3696SOL    HW111987   5.138   0.610   5.834
 3696SOL    HW211988   5.207   0.559   5.695
 3697SOL     OW11989   6.318   6.209   3.068
 3697SOL    HW111990   6.254   6.200   2.992
 3697SOL    HW211991   6.293   6.145   3.140
 3698SOL     OW11992   2.591   1.381   3.439
 3698SOL    HW111993   2.679   1.381   3.486
 3698SOL    HW211994   2.548   1.470   3.450
 3699SOL     OW11995   2.182   2.113   3.362
 3699SOL    HW111996   2.147   2.183   3.299
 3699SOL    HW211997   2.150   2.133   3.455
 3700SOL     OW11998   1.609   5.496   4.991
 3700SOL    HW111999   1.697   5.523   4.952
 3700SOL    HW212000   1.557   5.577   5.016
 3701SOL     OW12001   0.460   6.491   2.401
 3701SOL    HW112002   0.401   6.570   2.385
 3701SOL    HW212003   0.547   6.503   2.354
 3702SOL     OW12004   5.318   6.576   3.508
 3702SOL    HW112005   5.252   6.503   3.522
 3702SOL    HW212006   5.375   6.555   3.428
 3703SOL     OW12007   0.405   0.870   6.461
 3703SOL    HW112008   0.423   0.884   6.363
 3703SOL    HW212009   0.473   0.808   6.499
 3704SOL     OW12010   5.536   3.601   0.747
 3704SOL    HW112011   5.618   3.567   0.794
 3704SOL    HW212012   5.562   3.669   0.679
 3705SOL     OW12013   4.668   4.893   3.654
 3705SOL    HW112014   4.656   4.992   3.658
 3705SOL    HW212015   4.649   4.860   3.562
 3706SOL     OW12016   0.953   3.955   7.011
 3706SOL    HW112017   0.917   3.997   6.928
 3706SOL    HW212018   1.001   4.024   0.043
 3707SOL     OW12019   3.992   5.481   3.980
 3707SOL    HW112020   3.993   5.382   3.995
 3707SOL    HW212021   3.909   5.508   3.931
 3708SOL     OW12022   4.496   0.126   1.400
 3708SOL    HW112023   4.417   0.182   1.375
 3708SOL    HW212024   4.501   0.116   1.499
 3709SOL     OW12025   1.776   7.008   1.580
 3709SOL    HW112026   1.807   0.070   1.622
 3709SOL    HW212027   1.807   7.004   1.485
 3710SOL     OW12028   0.484   5.603   5.338
 3710SOL    HW112029   0.405   5.621   5.280
 3710SOL    HW212030   0.499   5.504   5.344
 3711SOL     OW12031   1.589   5.982   4.728
 3711SOL    HW112032   1.622   5.891   4.701
 3711SOL    HW212033   1.578   5.985   4.827
 3712SOL     OW12034   2.127   6.108   6.434
 3712SOL    HW112035   2.081   6.075   6.351
 3712SOL    HW212036   2.218   6.066   6.440
 3713SOL     OW12037   0.261   6.740   4.943
 3713SOL    HW112038   0.254   6.720   4.845
 3713SOL    HW212039   0.241   6.837   4.959
 3714SOL     OW12040   0.403   5.089   6.871
 3714SOL    HW112041   0.373   5.170   6.920
 3714SOL    HW212042   0.467   5.037   6.928
 3715SOL     OW12043   0.465   5.269   3.267
 3715SOL    HW112044   0.432   5.294   3.176
 3715SOL    HW212045   0.560   5.299   3.279
 3716SOL     OW12046   5.854   5.328   4.202
 3716SOL    HW112047   5.872   5.357   4.107
 3716SOL    HW212048   5.923   5.369   4.262
 3717SOL     OW12049   5.781   1.371   0.493
 3717SOL    HW112050   5.761   1.325   0.406
 3717SOL    HW212051   5.728   1.328   0.566
 3718SOL     OW12052   0.512   0.202   6.792
 3718SOL    HW112053   0.511   0.110   6.754
 3718SOL    HW212054   0.547   0.266   6.723
 3719SOL     OW12055   4.400   3.165   6.614
 3719SOL    HW112056   4.462   3.170   6.536
 3719SOL    HW212057   4.363   3.256   6.634
 3720SOL     OW12058   5.285   3.772   0.889
 3720SOL    HW112059   5.268   3.795   0.985
 3720SOL    HW212060   5.375   3.728   0.880
 3721SOL     OW12061   6.651   5.014   0.207
 3721SOL    HW112062   6.575   5.059   0.159
 3721SOL    HW212063   6.615   4.943   0.267
 3722SOL     OW12064   5.041   6.982   1.561
 3722SOL    HW112065   4.954   0.008   1.563
 3722SOL    HW212066   5.112   0.014   1.605
 3723SOL     OW12067   4.613   5.207   6.878
 3723SOL    HW112068   4.542   5.200   6.949
 3723SOL    HW212069   4.612   5.298   6.839
 3724SOL     OW12070   1.903   4.803   5.310
 3724SOL    HW112071   1.917   4.826   5.214
 3724SOL    HW212072   1.819   4.846   5.343
 3725SOL     OW12073   0.512   6.259   6.946
 3725SOL    HW112074   0.427   6.300   6.913
 3725SOL    HW212075   0.491   6.173   6.993
 3726SOL     OW12076   5.396   3.576   5.486
 3726SOL    HW112077   5.423   3.560   5.391
 3726SOL    HW212078   5.345   3.662   5.492
 3727SOL     OW12079   6.692   2.982   4.675
 3727SOL    HW112080   6.785   2.992   4.710
 3727SOL    HW212081   6.644   3.070   4.681
 3728SOL     OW12082   2.462   3.923   6.996
 3728SOL    HW112083   2.527   3.848   6.986
 3728SOL    HW212084   2.473   3.987   6.920
 3729SOL     OW12085   0.847   0.406   4.089
 3729SOL    HW112086   0.845   0.468   4.011
 3729SOL    HW212087   0.773   0.428   4.153
 3730SOL     OW12088   4.022   6.223   5.528
 3730SOL    HW112089   3.983   6.308   5.563
 3730SOL    HW212090   4.083   6.183   5.596
 3731SOL     OW12091   0.778   1.599   0.306
 3731SOL    HW112092   0.763   1.501   0.315
 3731SOL    HW212093   0.714   1.648   0.364
 3732SOL     OW12094   1.855   1.437   0.680
 3732SOL    HW112095   1.795   1.484   0.745
 3732SOL    HW212096   1.950   1.459   0.702
 3733SOL     OW12097   2.136   2.811   3.597
 3733SOL    HW112098   2.158   2.750   3.674
 3733SOL    HW212099   2.199   2.793   3.521
 3734SOL     OW12100   3.763   0.764   1.851
 3734SOL    HW112101   3.805   0.697   1.912
 3734SOL    HW212102   3.671   0.733   1.825
 3735SOL     OW12103   3.892   0.592   2.546
 3735SOL    HW112104   3.950   0.531   2.492
 3735SOL    HW212105   3.810   0.543   2.576
 3736SOL     OW12106   6.522   1.022   1.353
 3736SOL    HW112107   6.442   1.065   1.311
 3736SOL    HW212108   6.564   0.959   1.288
 3737SOL     OW12109   6.083   2.354   4.010
 3737SOL    HW112110   6.014   2.295   3.967
 3737SOL    HW212111   6.133   2.301   4.078
 3738SOL     OW12112   6.194   5.885   0.891
 3738SOL    HW112113   6.095   5.881   0.901
 3738SOL    HW212114   6.222   5.978   0.869
 3739SOL     OW12115   2.921   4.610   1.620
 3739SOL    HW112116   2.862   4.552   1.565
 3739SOL    HW212117   2.903   4.594   1.717
 3740SOL     OW12118   6.055   5.942   0.277
 3740SOL    HW112119   6.120   6.014   0.303
 3740SOL    HW212120   5.998   5.918   0.356
 3741SOL     OW12121   4.641   3.180   6.748
 3741SOL    HW112122   4.557   3.159   6.698
 3741SOL    HW212123   4.697   3.098   6.756
 3742SOL     OW12124   4.738   6.695   0.373
 3742SOL    HW112125   4.663   6.632   0.352
 3742SOL    HW212126   4.733   6.722   0.469
 3743SOL     OW12127   4.591   4.722   1.407
 3743SOL    HW112128   4.653   4.649   1.379
 3743SOL    HW212129   4.509   4.682   1.448
 3744SOL     OW12130   0.551   6.367   2.627
 3744SOL    HW112131   0.520   6.418   2.547
 3744SOL    HW212132   0.501   6.399   2.708
 3745SOL     OW12133   4.855   4.105   2.244
 3745SOL    HW112134   4.825   4.093   2.150
 3745SOL    HW212135   4.932   4.170   2.246
 3746SOL     OW12136   6.773   0.451   3.120
 3746SOL    HW112137   6.746   0.543   3.151
 3746SOL    HW212138   6.694   0.405   3.080
 3747SOL     OW12139   5.080   6.302   5.227
 3747SOL    HW112140   5.123   6.213   5.214
 3747SOL    HW212141   5.129   6.352   5.298
 3748SOL     OW12142   5.240   0.767   2.333
 3748SOL    HW112143   5.294   0.775   2.249
 3748SOL    HW212144   5.144   0.784   2.312
 3749SOL     OW12145   1.522   5.071   2.965
 3749SOL    HW112146   1.554   5.164   2.985
 3749SOL    HW212147   1.578   5.032   2.892
 3750SOL     OW12148   5.664   4.265   0.816
 3750SOL    HW112149   5.629   4.358   0.814
 3750SOL    HW212150   5.758   4.264   0.784
 3751SOL     OW12151   0.166   2.534   0.908
 3751SOL    HW112152   0.247   2.588   0.885
 3751SOL    HW212153   0.185   2.437   0.893
 3752SOL     OW12154   0.529   6.925   0.461
 3752SOL    HW112155   0.538   7.017   0.422
 3752SOL    HW212156   0.465   6.872   0.406
 3753SOL     OW12157   0.603   6.997   4.959
 3753SOL    HW112158   0.595   0.073   4.972
 3753SOL    HW212159   0.522   6.963   4.912
 3754SOL     OW12160   4.987   6.387   1.554
 3754SOL    HW112161   5.030   6.450   1.489
 3754SOL    HW212162   4.888   6.388   1.540
 3755SOL     OW12163   5.580   5.582   4.364
 3755SOL    HW112164   5.524   5.642   4.307
 3755SOL    HW212165   5.524   5.544   4.438
 3756SOL     OW12166   1.590   0.643   6.126
 3756SOL    HW112167   1.615   0.600   6.213
 3756SOL    HW212168   1.651   0.610   6.054
 3757SOL     OW12169   3.760   5.844   6.680
 3757SOL    HW112170   3.850   5.854   6.722
 3757SOL    HW212171   3.712   5.766   6.723
 3758SOL     OW12172   1.597   1.466   4.568
 3758SOL    HW112173   1.680   1.430   4.525
 3758SOL    HW212174   1.612   1.561   4.596
 3759SOL     OW12175   4.152   5.118   5.280
 3759SOL    HW112176   4.146   5.188   5.210
 3759SOL    HW212177   4.208   5.150   5.356
 3760SOL     OW12178   1.110   4.073   4.317
 3760SOL    HW112179   1.129   3.978   4.341
 3760SOL    HW212180   1.177   4.104   4.249
 3761SOL     OW12181   0.958   6.999   5.021
 3761SOL    HW112182   0.865   6.967   5.036
 3761SOL    HW212183   1.008   6.933   4.965
 3762SOL     OW12184   0.757   5.058   6.983
 3762SOL    HW112185   0.747   5.004   0.044
 3762SOL    HW212186   0.814   5.138   7.002
 3763SOL     OW12187   6.956   4.649   0.231
 3763SOL    HW112188   6.948   4.733   0.178
 3763SOL    HW212189   0.024   4.646   0.273
 3764SOL     OW12190   2.259   0.720   4.572
 3764SOL    HW112191   2.184   0.754   4.515
 3764SOL    HW212192   2.260   0.771   4.658
 3765SOL     OW12193   5.316   1.371   2.084
 3765SOL    HW112194   5.290   1.385   1.989
 3765SOL    HW212195   5.285   1.281   2.114
 3766SOL     OW12196   0.651   0.509   4.485
 3766SOL    HW112197   0.671   0.416   4.453
 3766SOL    HW212198   0.731   0.545   4.533
 3767SOL     OW12199   2.237   4.991   0.393
 3767SOL    HW112200   2.293   4.931   0.336
 3767SOL    HW212201   2.287   5.075   0.412
 3768SOL     OW12202   3.310   6.037   6.249
 3768SOL    HW112203   3.281   5.990   6.166
 3768SOL    HW212204   3.270   6.129   6.250
 3769SOL     OW12205   5.909   5.812   5.254
 3769SOL    HW112206   5.990   5.756   5.236
 3769SOL    HW212207   5.886   5.864   5.172
 3770SOL     OW12208   1.890   0.640   6.722
 3770SOL    HW112209   1.840   0.554   6.716
 3770SOL    HW212210   1.830   0.716   6.695
 3771SOL     OW12211   5.313   2.233   0.472
 3771SOL    HW112212   5.332   2.299   0.544
 3771SOL    HW212213   5.374   2.154   0.483
 3772SOL     OW12214   6.448   1.680   1.245
 3772SOL    HW112215   6.448   1.710   1.150
 3772SOL    HW212216   6.470   1.582   1.250
 3773SOL     OW12217   5.352   2.581   6.258
 3773SOL    HW112218   5.300   2.499   6.231
 3773SOL    HW212219   5.397   2.620   6.178
 3774SOL     OW12220   1.085   6.894   6.851
 3774SOL    HW112221   0.999   6.849   6.874
 3774SOL    HW212222   1.149   6.825   6.816
 3775SOL     OW12223   5.275   3.813   2.034
 3775SOL    HW112224   5.351   3.878   2.029
 3775SOL    HW212225   5.256   3.792   2.130
 3776SOL     OW12226   2.947   1.507   1.223
 3776SOL    HW112227   3.032   1.489   1.174
 3776SOL    HW212228   2.958   1.586   1.282
 3777SOL     OW12229   2.507   4.858   4.222
 3777SOL    HW112230   2.461   4.787   4.168
 3777SOL    HW212231   2.594   4.822   4.257
 3778SOL     OW12232   2.331   5.957   3.051
 3778SOL    HW112233   2.329   5.869   3.004
 3778SOL    HW212234   2.357   6.028   2.986
 3779SOL     OW12235   2.228   4.535   0.079
 3779SOL    HW112236   2.203   4.612   0.137
 3779SOL    HW212237   2.319   4.503   0.104
 3780SOL     OW12238   4.069   4.888   5.054
 3780SOL    HW112239   3.970   4.870   5.060
 3780SOL    HW212240   4.091   4.971   5.107
 3781SOL     OW12241   1.851   6.539   4.100
 3781SOL    HW112242   1.858   6.470   4.029
 3781SOL    HW212243   1.941   6.578   4.118
 3782SOL     OW12244   2.963   2.212   4.470
 3782SOL    HW112245   3.042   2.200   4.410
 3782SOL    HW212246   2.995   2.224   4.564
 3783SOL     OW12247   6.106   6.421   4.917
 3783SOL    HW112248   6.127   6.402   4.821
 3783SOL    HW212249   6.078   6.517   4.927
 3784SOL     OW12250   4.525   1.940   3.046
 3784SOL    HW112251   4.594   1.962   3.115
 3784SOL    HW212252   4.529   1.842   3.025
 3785SOL     OW12253   2.266   1.243   6.801
 3785SOL    HW112254   2.298   1.222   6.893
 3785SOL    HW212255   2.202   1.172   6.771
 3786SOL     OW12256   3.028   6.347   3.395
 3786SOL    HW112257   3.017   6.309   3.303
 3786SOL    HW212258   3.068   6.278   3.455
 3787SOL     OW12259   5.640   6.230   3.643
 3787SOL    HW112260   5.561   6.265   3.694
 3787SOL    HW212261   5.609   6.185   3.560
 3788SOL     OW12262   0.456   3.075   3.450
 3788SOL    HW112263   0.423   2.985   3.480
 3788SOL    HW212264   0.378   3.131   3.423
 3789SOL     OW12265   1.314   3.637   3.920
 3789SOL    HW112266   1.368   3.690   3.985
 3789SOL    HW212267   1.343   3.542   3.923
 3790SOL     OW12268   1.520   3.837   4.837
 3790SOL    HW112269   1.587   3.768   4.865
 3790SOL    HW212270   1.532   3.860   4.741
 3791SOL     OW12271   6.244   0.097   1.052
 3791SOL    HW112272   6.198   0.157   1.118
 3791SOL    HW212273   6.177   0.037   1.009
 3792SOL     OW12274   6.837   0.868   4.519
 3792SOL    HW112275   6.789   0.794   4.565
 3792SOL    HW212276   6.789   0.891   4.434
 3793SOL     OW12277   2.950   0.429   2.897
 3793SOL    HW112278   2.920   0.340   2.862
 3793SOL    HW212279   2.896   0.452   2.979
 3794SOL     OW12280   3.577   4.871   1.648
 3794SOL    HW112281   3.598   4.822   1.563
 3794SOL    HW212282   3.571   4.806   1.723
 3795SOL     OW12283   4.057   6.407   0.372
 3795SOL    HW112284   4.155   6.385   0.367
 3795SOL    HW212285   4.046   6.499   0.409
 3796SOL     OW12286   2.227   2.226   1.541
 3796SOL    HW112287   2.159   2.154   1.531
 3796SOL    HW212288   2.182   2.311   1.569
 3797SOL     OW12289   6.749   5.042   2.709
 3797SOL    HW112290   6.714   5.010   2.621
 3797SOL    HW212291   6.841   5.079   2.697
 3798SOL     OW12292   2.997   5.434   3.224
 3798SOL    HW112293   3.085   5.388   3.215
 3798SOL    HW212294   2.965   5.462   3.134
 3799SOL     OW12295   0.712   2.090   4.583
 3799SOL    HW112296   0.811   2.094   4.597
 3799SOL    HW212297   0.684   2.167   4.526
 3800SOL     OW12298   5.279   2.205   4.590
 3800SOL    HW112299   5.226   2.171   4.669
 3800SOL    HW212300   5.259   2.301   4.575
 3801SOL     OW12301   0.106   6.445   4.853
 3801SOL    HW112302   0.100   6.541   4.826
 3801SOL    HW212303   0.199   6.424   4.882
 3802SOL     OW12304   0.764   1.539   5.020
 3802SOL    HW112305   0.678   1.552   4.971
 3802SOL    HW212306   0.818   1.623   5.014
 3803SOL     OW12307   3.885   1.620   1.806
 3803SOL    HW112308   3.925   1.540   1.761
 3803SOL    HW212309   3.812   1.657   1.749
 3804SOL     OW12310   5.250   2.405   4.068
 3804SOL    HW112311   5.209   2.410   4.159
 3804SOL    HW212312   5.232   2.489   4.017
 3805SOL     OW12313   2.718   3.741   1.723
 3805SOL    HW112314   2.794   3.784   1.772
 3805SOL    HW212315   2.753   3.689   1.646
 3806SOL     OW12316   2.477   3.120   0.112
 3806SOL    HW112317   2.476   3.191   0.042
 3806SOL    HW212318   2.387   3.077   0.117
 3807SOL     OW12319   2.525   1.527   4.463
 3807SOL    HW112320   2.583   1.576   4.398
 3807SOL    HW212321   2.498   1.590   4.536
 3808SOL     OW12322   3.184   1.080   1.507
 3808SOL    HW112323   3.136   1.053   1.423
 3808SOL    HW212324   3.263   1.137   1.483
 3809SOL     OW12325   6.344   2.089   0.145
 3809SOL    HW112326   6.278   2.037   0.199
 3809SOL    HW212327   6.360   2.041   0.059
 3810SOL     OW12328   4.212   2.844   5.325
 3810SOL    HW112329   4.163   2.855   5.412
 3810SOL    HW212330   4.171   2.770   5.272
 3811SOL     OW12331   1.331   4.612   4.630
 3811SOL    HW112332   1.347   4.518   4.659
 3811SOL    HW212333   1.332   4.672   4.710
 3812SOL     OW12334   5.585   1.232   5.421
 3812SOL    HW112335   5.618   1.138   5.416
 3812SOL    HW212336   5.488   1.232   5.445
 3813SOL     OW12337   4.605   4.553   0.762
 3813SOL    HW112338   4.694   4.531   0.802
 3813SOL    HW212339   4.540   4.577   0.835
 3814SOL     OW12340   0.242   6.167   1.150
 3814SOL    HW112341   0.224   6.071   1.171
 3814SOL    HW212342   0.326   6.173   1.096
 3815SOL     OW12343   4.608   2.321   0.299
 3815SOL    HW112344   4.650   2.293   0.385
 3815SOL    HW212345   4.560   2.407   0.312
 3816SOL     OW12346   0.025   6.144   0.943
 3816SOL    HW112347   6.963   6.110   0.984
 3816SOL    HW212348   0.099   6.135   1.009
 3817SOL     OW12349   4.906   3.094   3.892
 3817SOL    HW112350   4.964   3.068   3.815
 3817SOL    HW212351   4.837   3.024   3.908
 3818SOL     OW12352   5.092   6.527   1.338
 3818SOL    HW112353   5.138   6.610   1.369
 3818SOL    HW212354   4.998   6.549   1.312
 3819SOL     OW12355   5.288   4.611   0.507
 3819SOL    HW112356   5.220   4.657   0.450
 3819SOL    HW212357   5.323   4.675   0.576
 3820SOL     OW12358   6.738   6.726   3.969
 3820SOL    HW112359   6.686   6.654   3.923
 3820SOL    HW212360   6.834   6.721   3.941
 3821SOL     OW12361   1.678   3.089   2.131
 3821SOL    HW112362   1.760   3.044   2.165
 3821SOL    HW212363   1.704   3.159   2.064
 3822SOL     OW12364   1.096   5.661   2.418
 3822SOL    HW112365   1.111   5.647   2.320
 3822SOL    HW212366   1.034   5.738   2.432
 3823SOL     OW12367   4.056   2.307   5.604
 3823SOL    HW112368   4.106   2.292   5.519
 3823SOL    HW212369   3.965   2.345   5.583
 3824SOL     OW12370   5.782   1.429   5.719
 3824SOL    HW112371   5.824   1.378   5.645
 3824SOL    HW212372   5.682   1.425   5.711
 3825SOL     OW12373   0.682   0.362   0.439
 3825SOL    HW112374   0.660   0.459   0.444
 3825SOL    HW212375   0.774   0.350   0.403
 3826SOL     OW12376   0.103   3.657   6.760
 3826SOL    HW112377   0.058   3.574   6.793
 3826SOL    HW212378   0.202   3.644   6.760
 3827SOL     OW12379   3.846   3.839   0.777
 3827SOL    HW112380   3.899   3.916   0.741
 3827SOL    HW212381   3.758   3.834   0.730
 3828SOL     OW12382   4.460   2.357   1.479
 3828SOL    HW112383   4.473   2.428   1.548
 3828SOL    HW212384   4.380   2.302   1.502
 3829SOL     OW12385   2.271   4.475   3.864
 3829SOL    HW112386   2.252   4.519   3.776
 3829SOL    HW212387   2.358   4.509   3.901
 3830SOL     OW12388   0.791   0.373   4.948
 3830SOL    HW112389   0.854   0.440   4.907
 3830SOL    HW212390   0.811   0.363   5.045
 3831SOL     OW12391   4.508   1.921   2.618
 3831SOL    HW112392   4.535   1.826   2.603
 3831SOL    HW212393   4.473   1.959   2.533
 3832SOL     OW12394   6.140   0.521   2.152
 3832SOL    HW112395   6.143   0.452   2.225
 3832SOL    HW212396   6.227   0.520   2.102
 3833SOL     OW12397   0.620   5.811   6.652
 3833SOL    HW112398   0.694   5.768   6.601
 3833SOL    HW212399   0.615   5.772   6.744
 3834SOL     OW12400   3.315   2.701   0.198
 3834SOL    HW112401   3.324   2.609   0.162
 3834SOL    HW212402   3.252   2.701   0.275
 3835SOL     OW12403   3.239   5.250   5.307
 3835SOL    HW112404   3.183   5.221   5.230
 3835SOL    HW212405   3.242   5.178   5.376
 3836SOL     OW12406   2.119   3.165   5.018
 3836SOL    HW112407   2.208   3.121   5.033
 3836SOL    HW212408   2.047   3.112   5.063
 3837SOL     OW12409   4.750   3.341   6.992
 3837SOL    HW112410   4.834   3.291   7.013
 3837SOL    HW212411   4.690   3.283   6.937
 3838SOL     OW12412   5.847   3.699   4.392
 3838SOL    HW112413   5.899   3.657   4.466
 3838SOL    HW212414   5.864   3.798   4.391
 3839SOL     OW12415   4.653   0.007   4.523
 3839SOL    HW112416   4.662   6.931   4.511
 3839SOL    HW212417   4.557   0.033   4.511
 3840SOL     OW12418   1.231   1.270   5.375
 3840SOL    HW112419   1.187   1.194   5.423
 3840SOL    HW212420   1.284   1.324   5.441
 3841SOL     OW12421   0.321   3.604   4.933
 3841SOL    HW112422   0.378   3.626   4.854
 3841SOL    HW212423   0.367   3.536   4.990
 3842SOL     OW12424   0.921   4.978   0.505
 3842SOL    HW112425   0.851   4.931   0.560
 3842SOL    HW212426   1.010   4.966   0.548
 3843SOL     OW12427   6.917   3.101   1.252
 3843SOL    HW112428   6.852   3.058   1.315
 3843SOL    HW212429   6.895   3.198   1.242
 3844SOL     OW12430   0.384   4.847   5.504
 3844SOL    HW112431   0.330   4.785   5.446
 3844SOL    HW212432   0.458   4.796   5.548
 3845SOL     OW12433   3.336   2.913   2.708
 3845SOL    HW112434   3.414   2.970   2.735
 3845SOL    HW212435   3.252   2.949   2.750
 3846SOL     OW12436   0.421   4.610   4.164
 3846SOL    HW112437   0.359   4.531   4.160
 3846SOL    HW212438   0.516   4.578   4.167
 3847SOL     OW12439   6.419   1.128   6.039
 3847SOL    HW112440   6.321   1.127   6.018
 3847SOL    HW212441   6.465   1.189   5.974
 3848SOL     OW12442   2.194   5.504   2.974
 3848SOL    HW112443   2.185   5.449   2.891
 3848SOL    HW212444   2.103   5.521   3.012
 3849SOL     OW12445   0.331   1.192   5.654
 3849SOL    HW112446   0.273   1.196   5.573
 3849SOL    HW212447   0.398   1.118   5.643
 3850SOL     OW12448   2.512   3.563   1.696
 3850SOL    HW112449   2.571   3.644   1.705
 3850SOL    HW212450   2.451   3.558   1.775
 3851SOL     OW12451   1.975   4.159   2.718
 3851SOL    HW112452   1.923   4.230   2.764
 3851SOL    HW212453   1.915   4.109   2.656
 3852SOL     OW12454   4.334   6.558   4.840
 3852SOL    HW112455   4.345   6.470   4.794
 3852SOL    HW212456   4.361   6.632   4.779
 3853SOL     OW12457   1.096   3.314   2.615
 3853SOL    HW112458   1.131   3.348   2.528
 3853SOL    HW212459   1.100   3.214   2.617
 3854SOL     OW12460   0.957   3.611   3.360
 3854SOL    HW112461   1.004   3.523   3.365
 3854SOL    HW212462   1.022   3.683   3.336
 3855SOL     OW12463   5.502   5.349   6.746
 3855SOL    HW112464   5.417   5.334   6.797
 3855SOL    HW212465   5.486   5.333   6.649
 3856SOL     OW12466   0.070   0.271   5.550
 3856SOL    HW112467   0.087   0.206   5.624
 3856SOL    HW212468   0.156   0.313   5.522
 3857SOL     OW12469   1.692   0.121   5.272
 3857SOL    HW112470   1.748   0.048   5.231
 3857SOL    HW212471   1.685   0.106   5.371
 3858SOL     OW12472   1.204   6.195   5.898
 3858SOL    HW112473   1.225   6.150   5.812
 3858SOL    HW212474   1.111   6.171   5.926
 3859SOL     OW12475   6.807   2.000   3.577
 3859SOL    HW112476   6.750   2.060   3.633
 3859SOL    HW212477   6.858   1.937   3.636
 3860SOL     OW12478   2.288   6.214   4.263
 3860SOL    HW112479   2.349   6.149   4.308
 3860SOL    HW212480   2.206   6.228   4.320
 3861SOL     OW12481   5.615   4.442   1.051
 3861SOL    HW112482   5.521   4.423   1.025
 3861SOL    HW212483   5.647   4.525   1.004
 3862SOL     OW12484   6.615   6.948   5.980
 3862SOL    HW112485   6.694   6.916   6.032
 3862SOL    HW212486   6.599   0.022   5.999
 3863SOL     OW12487   3.794   3.449   0.057
 3863SOL    HW112488   3.806   3.540   0.017
 3863SOL    HW212489   3.781   3.458   0.156
 3864SOL     OW12490   4.235   1.946   6.272
 3864SOL    HW112491   4.238   2.045   6.255
 3864SOL    HW212492   4.147   1.910   6.244
 3865SOL     OW12493   3.652   0.409   2.085
 3865SOL    HW112494   3.653   0.439   1.990
 3865SOL    HW212495   3.612   0.318   2.092
 3866SOL     OW12496   4.141   0.469   0.832
 3866SOL    HW112497   4.239   0.478   0.813
 3866SOL    HW212498   4.114   0.532   0.905
 3867SOL     OW12499   2.161   3.897   3.211
 3867SOL    HW112500   2.193   3.934   3.124
 3867SOL    HW212501   2.138   3.972   3.273
 3868SOL     OW12502   1.966   5.637   1.718
 3868SOL    HW112503   2.005   5.552   1.684
 3868SOL    HW212504   1.867   5.635   1.706
 3869SOL     OW12505   0.242   2.652   3.779
 3869SOL    HW112506   0.230   2.576   3.716
 3869SOL    HW212507   0.159   2.707   3.783
 3870SOL     OW12508   2.791   4.873   6.777
 3870SOL    HW112509   2.834   4.941   6.836
 3870SOL    HW212510   2.760   4.916   6.692
 3871SOL     OW12511   3.084   0.486   2.643
 3871SOL    HW112512   3.031   0.498   2.726
 3871SOL    HW212513   3.056   0.401   2.597
 3872SOL     OW12514   3.948   3.595   1.154
 3872SOL    HW112515   3.981   3.637   1.238
 3872SOL    HW212516   3.905   3.664   1.096
 3873SOL     OW12517   5.341   5.056   1.241
 3873SOL    HW112518   5.251   5.032   1.205
 3873SOL    HW212519   5.412   5.007   1.189
 3874SOL     OW12520   4.301   6.768   0.134
 3874SOL    HW112521   4.306   6.677   0.092
 3874SOL    HW212522   4.308   6.760   0.233
 3875SOL     OW12523   1.498   3.930   2.483
 3875SOL    HW112524   1.426   3.996   2.504
 3875SOL    HW212525   1.509   3.923   2.384
 3876SOL     OW12526   5.104   5.627   5.909
 3876SOL    HW112527   5.069   5.632   6.002
 3876SOL    HW212528   5.059   5.696   5.853
 3877SOL     OW12529   6.234   1.221   1.236
 3877SOL    HW112530   6.243   1.270   1.323
 3877SOL    HW212531   6.148   1.246   1.192
 3878SOL     OW12532   3.632   6.844   5.871
 3878SOL    HW112533   3.574   6.763   5.879
 3878SOL    HW212534   3.575   6.926   5.872
 3879SOL     OW12535   4.642   5.750   0.547
 3879SOL    HW112536   4.703   5.671   0.552
 3879SOL    HW212537   4.572   5.742   0.619
 3880SOL     OW12538   6.108   4.120   2.319
 3880SOL    HW112539   6.150   4.031   2.299
 3880SOL    HW212540   6.123   4.143   2.415
 3881SOL     OW12541   1.857   5.263   0.515
 3881SOL    HW112542   1.772   5.305   0.483
 3881SOL    HW212543   1.837   5.206   0.595
 3882SOL     OW12544   6.379   1.252   6.408
 3882SOL    HW112545   6.317   1.289   6.338
 3882SOL    HW212546   6.343   1.271   6.499
 3883SOL     OW12547   4.733   1.347   3.660
 3883SOL    HW112548   4.675   1.329   3.580
 3883SOL    HW212549   4.675   1.358   3.741
 3884SOL     OW12550   1.173   6.576   5.059
 3884SOL    HW112551   1.084   6.533   5.073
 3884SOL    HW212552   1.218   6.534   4.980
 3885SOL     OW12553   6.613   1.287   4.318
 3885SOL    HW112554   6.654   1.279   4.409
 3885SOL    HW212555   6.664   1.355   4.265
 3886SOL     OW12556   6.890   0.418   5.198
 3886SOL    HW112557   6.935   0.470   5.126
 3886SOL    HW212558   6.792   0.438   5.198
 3887SOL     OW12559   4.089   1.402   5.994
 3887SOL    HW112560   4.087   1.343   5.913
 3887SOL    HW212561   4.063   1.495   5.969
 3888SOL     OW12562   6.727   1.267   0.485
 3888SOL    HW112563   6.773   1.346   0.527
 3888SOL    HW212564   6.785   1.187   0.493
 3889SOL     OW12565   0.465   5.585   6.504
 3889SOL    HW112566   0.367   5.597   6.487
 3889SOL    HW212567   0.507   5.675   6.519
 3890SOL     OW12568   5.614   5.815   3.240
 3890SOL    HW112569   5.644   5.858   3.155
 3890SOL    HW212570   5.680   5.745   3.267
 3891SOL     OW12571   5.183   5.486   4.879
 3891SOL    HW112572   5.164   5.563   4.940
 3891SOL    HW212573   5.098   5.440   4.856
 3892SOL     OW12574   6.530   6.647   2.638
 3892SOL    HW112575   6.549   6.550   2.626
 3892SOL    HW212576   6.433   6.660   2.660
 3893SOL     OW12577   3.424   5.848   3.889
 3893SOL    HW112578   3.347   5.857   3.953
 3893SOL    HW212579   3.389   5.849   3.795
 3894SOL     OW12580   4.144   2.893   0.346
 3894SOL    HW112581   4.120   2.796   0.348
 3894SOL    HW212582   4.203   2.915   0.424
 3895SOL     OW12583   1.601   1.319   5.399
 3895SOL    HW112584   1.699   1.309   5.415
 3895SOL    HW212585   1.586   1.374   5.317
 3896SOL     OW12586   0.023   2.084   5.867
 3896SOL    HW112587   7.017   2.180   5.869
 3896SOL    HW212588   6.972   2.028   5.830
 3897SOL     OW12589   2.546   6.485   2.095
 3897SOL    HW112590   2.591   6.427   2.027
 3897SOL    HW212591   2.498   6.560   2.049
 3898SOL     OW12592   4.158   3.343   4.163
 3898SOL    HW112593   4.233   3.283   4.137
 3898SOL    HW212594   4.085   3.289   4.204
 3899SOL     OW12595   4.618   1.437   5.313
 3899SOL    HW112596   4.532   1.431   5.363
 3899SOL    HW212597   4.630   1.356   5.256
 3900SOL     OW12598   6.460   2.316   3.450
 3900SOL    HW112599   6.400   2.393   3.475
 3900SOL    HW212600   6.516   2.291   3.530
 3901SOL     OW12601   1.113   6.812   4.912
 3901SOL    HW112602   1.094   6.762   4.996
 3901SOL    HW212603   1.138   6.747   4.840
 3902SOL     OW12604   5.436   4.835   1.452
 3902SOL    HW112605   5.383   4.850   1.535
 3902SOL    HW212606   5.375   4.812   1.377
 3903SOL     OW12607   4.077   2.624   0.381
 3903SOL    HW112608   4.015   2.597   0.454
 3903SOL    HW212609   4.172   2.616   0.412
 3904SOL     OW12610   1.081   6.966   0.271
 3904SOL    HW112611   1.035   6.905   0.336
 3904SOL    HW212612   1.028   6.970   0.186
 3905SOL     OW12613   6.926   6.937   5.822
 3905SOL    HW112614   6.843   6.929   5.876
 3905SOL    HW212615   6.903   6.962   5.728
 3906SOL     OW12616   1.918   4.861   4.406
 3906SOL    HW112617   1.917   4.782   4.466
 3906SOL    HW212618   1.839   4.920   4.426
 3907SOL     OW12619   6.894   1.438   4.328
 3907SOL    HW112620   6.852   1.412   4.415
 3907SOL    HW212621   6.994   1.441   4.338
 3908SOL     OW12622   1.375   0.652   5.055
 3908SOL    HW112623   1.292   0.607   5.085
 3908SOL    HW212624   1.411   0.710   5.128
 3909SOL     OW12625   5.165   2.643   5.601
 3909SOL    HW112626   5.084   2.608   5.648
 3909SOL    HW212627   5.199   2.724   5.650
 3910SOL     OW12628   3.123   2.814   0.876
 3910SOL    HW112629   3.054   2.778   0.813
 3910SOL    HW212630   3.126   2.756   0.958
 3911SOL     OW12631   5.788   0.919   1.913
 3911SOL    HW112632   5.791   1.015   1.883
 3911SOL    HW212633   5.766   0.861   1.835
 3912SOL     OW12634   3.826   2.376   0.409
 3912SOL    HW112635   3.870   2.308   0.350
 3912SOL    HW212636   3.761   2.430   0.356
 3913SOL     OW12637   4.375   6.056   0.588
 3913SOL    HW112638   4.464   6.099   0.574
 3913SOL    HW212639   4.308   6.126   0.616
 3914SOL     OW12640   6.112   0.857   1.054
 3914SOL    HW112641   6.124   0.923   0.979
 3914SOL    HW212642   6.179   0.784   1.044
 3915SOL     OW12643   4.973   5.247   0.477
 3915SOL    HW112644   4.965   5.149   0.496
 3915SOL    HW212645   4.984   5.297   0.563
 3916SOL     OW12646   2.119   0.673   2.693
 3916SOL    HW112647   2.118   0.702   2.598
 3916SOL    HW212648   2.153   0.747   2.751
 3917SOL     OW12649   2.789   4.903   0.446
 3917SOL    HW112650   2.755   4.833   0.509
 3917SOL    HW212651   2.873   4.871   0.403
 3918SOL     OW12652   5.502   0.318   0.961
 3918SOL    HW112653   5.528   0.351   1.052
 3918SOL    HW212654   5.402   0.322   0.952
 3919SOL     OW12655   4.045   0.562   1.072
 3919SOL    HW112656   3.960   0.535   1.028
 3919SOL    HW212657   4.040   0.659   1.097
 3920SOL     OW12658   3.165   0.663   6.049
 3920SOL    HW112659   3.139   0.657   6.146
 3920SOL    HW212660   3.093   0.622   5.993
 3921SOL     OW12661   0.981   2.794   6.252
 3921SOL    HW112662   0.891   2.783   6.210
 3921SOL    HW212663   0.977   2.868   6.320
 3922SOL     OW12664   4.382   5.074   1.926
 3922SOL    HW112665   4.349   4.993   1.878
 3922SOL    HW212666   4.305   5.133   1.951
 3923SOL     OW12667   5.131   0.855   1.241
 3923SOL    HW112668   5.108   0.804   1.323
 3923SOL    HW212669   5.175   0.942   1.266
 3924SOL     OW12670   6.898   4.597   4.580
 3924SOL    HW112671   6.867   4.681   4.537
 3924SOL    HW212672   6.956   4.546   4.517
 3925SOL     OW12673   4.758   3.789   0.414
 3925SOL    HW112674   4.688   3.718   0.414
 3925SOL    HW212675   4.846   3.749   0.385
 3926SOL     OW12676   0.460   0.580   5.543
 3926SOL    HW112677   0.560   0.577   5.541
 3926SOL    HW212678   0.430   0.656   5.600
 3927SOL     OW12679   6.929   2.650   4.882
 3927SOL    HW112680   6.890   2.660   4.974
 3927SOL    HW212681   6.875   2.583   4.831
 3928SOL     OW12682   2.013   6.284   2.903
 3928SOL    HW112683   1.954   6.361   2.927
 3928SOL    HW212684   1.964   6.223   2.841
 3929SOL     OW12685   0.343   2.054   5.207
 3929SOL    HW112686   0.279   2.018   5.275
 3929SOL    HW212687   0.371   2.146   5.233
 3930SOL     OW12688   1.231   3.834   4.241
 3930SOL    HW112689   1.176   3.759   4.203
 3930SOL    HW212690   1.239   3.906   4.172
 3931SOL     OW12691   1.351   2.614   1.373
 3931SOL    HW112692   1.255   2.624   1.401
 3931SOL    HW212693   1.374   2.517   1.365
 3932SOL     OW12694   1.642   5.700   4.031
 3932SOL    HW112695   1.693   5.619   4.001
 3932SOL    HW212696   1.688   5.782   3.997
 3933SOL     OW12697   1.949   5.040   0.044
 3933SOL    HW112698   2.027   4.978   0.031
 3933SOL    HW212699   1.942   5.066   0.140
 3934SOL     OW12700   0.926   1.168   2.458
 3934SOL    HW112701   0.976   1.233   2.401
 3934SOL    HW212702   0.990   1.098   2.492
 3935SOL     OW12703   6.309   3.129   6.867
 3935SOL    HW112704   6.351   3.201   6.922
 3935SOL    HW212705   6.380   3.067   6.833
 3936SOL     OW12706   0.084   5.316   5.089
 3936SOL    HW112707   0.104   5.236   5.032
 3936SOL    HW212708   0.151   5.322   5.163
 3937SOL     OW12709   6.793   6.644   2.551
 3937SOL    HW112710   6.826   6.559   2.591
 3937SOL    HW212711   6.698   6.658   2.577
 3938SOL     OW12712   6.829   4.066   3.049
 3938SOL    HW112713   6.891   4.113   3.112
 3938SOL    HW212714   6.745   4.120   3.039
 3939SOL     OW12715   0.887   0.830   2.692
 3939SOL    HW112716   0.891   0.745   2.744
 3939SOL    HW212717   0.808   0.828   2.631
 3940SOL     OW12718   3.174   4.556   1.540
 3940SOL    HW112719   3.083   4.576   1.576
 3940SOL    HW212720   3.242   4.608   1.592
 3941SOL     OW12721   5.811   6.326   4.295
 3941SOL    HW112722   5.815   6.268   4.214
 3941SOL    HW212723   5.755   6.406   4.276
 3942SOL     OW12724   0.907   6.123   6.683
 3942SOL    HW112725   0.997   6.140   6.643
 3942SOL    HW212726   0.908   6.036   6.732
 3943SOL     OW12727   1.090   3.355   1.110
 3943SOL    HW112728   1.025   3.289   1.146
 3943SOL    HW212729   1.088   3.438   1.166
 3944SOL     OW12730   6.466   2.146   6.527
 3944SOL    HW112731   6.427   2.205   6.598
 3944SOL    HW212732   6.406   2.146   6.447
 3945SOL     OW12733   0.532   0.867   2.766
 3945SOL    HW112734   0.573   0.934   2.829
 3945SOL    HW212735   0.597   0.845   2.694
 3946SOL     OW12736   1.050   3.119   0.661
 3946SOL    HW112737   1.009   3.087   0.747
 3946SOL    HW212738   1.099   3.044   0.618
 3947SOL     OW12739   6.310   5.454   0.755
 3947SOL    HW112740   6.211   5.461   0.752
 3947SOL    HW212741   6.341   5.453   0.850
 3948SOL     OW12742   2.070   2.617   5.618
 3948SOL    HW112743   2.155   2.616   5.566
 3948SOL    HW212744   2.007   2.548   5.580
 3949SOL     OW12745   6.334   6.521   2.449
 3949SOL    HW112746   6.385   6.550   2.368
 3949SOL    HW212747   6.397   6.478   2.514
 3950SOL     OW12748   3.296   4.202   1.340
 3950SOL    HW112749   3.287   4.216   1.439
 3950SOL    HW212750   3.224   4.142   1.308
 3951SOL     OW12751   0.197   1.501   5.124
 3951SOL    HW112752   0.177   1.564   5.050
 3951SOL    HW212753   0.120   1.500   5.188
 3952SOL     OW12754   6.624   3.394   5.825
 3952SOL    HW112755   6.528   3.418   5.841
 3952SOL    HW212756   6.679   3.424   5.904
 3953SOL     OW12757   3.665   4.236   6.262
 3953SOL    HW112758   3.610   4.161   6.298
 3953SOL    HW212759   3.761   4.221   6.286
 3954SOL     OW12760   1.141   3.810   5.611
 3954SOL    HW112761   1.099   3.788   5.700
 3954SOL    HW212762   1.112   3.901   5.582
 3955SOL     OW12763   5.237   5.187   0.020
 3955SOL    HW112764   5.139   5.203   0.025
 3955SOL    HW212765   5.255   5.108   6.985
 3956SOL     OW12766   0.343   3.028   5.996
 3956SOL    HW112767   0.314   3.087   6.071
 3956SOL    HW212768   0.384   2.944   6.033
 3957SOL     OW12769   2.063   0.145   4.002
 3957SOL    HW112770   2.150   0.099   3.981
 3957SOL    HW212771   2.012   0.090   4.068
 3958SOL     OW12772   5.695   6.343   5.206
 3958SOL    HW112773   5.640   6.397   5.270
 3958SOL    HW212774   5.723   6.257   5.251
 3959SOL     OW12775   3.040   4.818   0.056
 3959SOL    HW112776   3.077   4.863   6.997
 3959SOL    HW212777   2.940   4.817   0.051
 3960SOL     OW12778   4.098   3.057   0.131
 3960SOL    HW112779   4.012   3.108   0.135
 3960SOL    HW212780   4.101   2.990   0.205
 3961SOL     OW12781   4.639   0.482   1.658
 3961SOL    HW112782   4.649   0.456   1.562
 3961SOL    HW212783   4.726   0.517   1.693
 3962SOL     OW12784   0.912   0.382   6.617
 3962SOL    HW112785   0.869   0.318   6.681
 3962SOL    HW212786   0.974   0.333   6.557
 3963SOL     OW12787   4.763   5.628   4.334
 3963SOL    HW112788   4.776   5.535   4.300
 3963SOL    HW212789   4.691   5.628   4.405
 3964SOL     OW12790   5.028   5.975   5.481
 3964SOL    HW112791   5.001   6.043   5.550
 3964SOL    HW212792   4.946   5.939   5.437
 3965SOL     OW12793   3.197   3.965   0.357
 3965SOL    HW112794   3.294   3.989   0.350
 3965SOL    HW212795   3.172   3.960   0.454
 3966SOL     OW12796   6.274   4.437   5.016
 3966SOL    HW112797   6.330   4.423   5.097
 3966SOL    HW212798   6.185   4.394   5.029
 3967SOL     OW12799   0.755   6.170   6.127
 3967SOL    HW112800   0.847   6.132   6.138
 3967SOL    HW212801   0.714   6.134   6.043
 3968SOL     OW12802   5.453   0.853   2.582
 3968SOL    HW112803   5.535   0.832   2.529
 3968SOL    HW212804   5.429   0.774   2.639
 3969SOL     OW12805   0.608   4.947   2.957
 3969SOL    HW112806   0.541   4.911   2.892
 3969SOL    HW212807   0.580   4.925   3.050
 3970SOL     OW12808   4.912   4.425   2.845
 3970SOL    HW112809   4.926   4.515   2.802
 3970SOL    HW212810   4.822   4.390   2.820
 3971SOL     OW12811   1.805   6.128   3.233
 3971SOL    HW112812   1.808   6.224   3.261
 3971SOL    HW212813   1.882   6.107   3.174
 3972SOL     OW12814   0.623   6.850   0.701
 3972SOL    HW112815   0.596   6.857   0.606
 3972SOL    HW212816   0.583   6.767   0.742
 3973SOL     OW12817   3.106   4.025   4.739
 3973SOL    HW112818   3.143   4.044   4.648
 3973SOL    HW212819   3.039   4.095   4.763
 3974SOL     OW12820   6.427   0.887   6.738
 3974SOL    HW112821   6.491   0.878   6.661
 3974SOL    HW212822   6.338   0.848   6.711
 3975SOL     OW12823   6.725   1.286   6.111
 3975SOL    HW112824   6.655   1.310   6.178
 3975SOL    HW212825   6.708   1.194   6.075
 3976SOL     OW12826   1.242   3.715   0.556
 3976SOL    HW112827   1.259   3.661   0.638
 3976SOL    HW212828   1.162   3.679   0.508
 3977SOL     OW12829   2.949   6.208   6.312
 3977SOL    HW112830   2.859   6.174   6.337
 3977SOL    HW212831   2.944   6.306   6.290
 3978SOL     OW12832   6.269   2.503   5.764
 3978SOL    HW112833   6.230   2.562   5.834
 3978SOL    HW212834   6.202   2.436   5.735
 3979SOL     OW12835   0.874   6.555   2.240
 3979SOL    HW112836   0.871   6.600   2.151
 3979SOL    HW212837   0.803   6.594   2.299
 3980SOL     OW12838   4.883   3.065   4.337
 3980SOL    HW112839   4.897   3.052   4.435
 3980SOL    HW212840   4.823   2.993   4.302
 3981SOL     OW12841   6.663   1.918   0.595
 3981SOL    HW112842   6.596   1.986   0.625
 3981SOL    HW212843   6.670   1.920   0.495
 3982SOL     OW12844   2.583   2.012   4.038
 3982SOL    HW112845   2.609   2.017   4.135
 3982SOL    HW212846   2.661   1.983   3.984
 3983SOL     OW12847   2.820   6.295   4.062
 3983SOL    HW112848   2.745   6.301   3.996
 3983SOL    HW212849   2.784   6.310   4.154
 3984SOL     OW12850   1.935   6.043   1.830
 3984SOL    HW112851   1.965   6.127   1.787
 3984SOL    HW212852   1.877   5.992   1.767
 3985SOL     OW12853   2.604   3.102   1.091
 3985SOL    HW112854   2.515   3.093   1.046
 3985SOL    HW212855   2.591   3.111   1.190
 3986SOL     OW12856   0.317   1.883   2.095
 3986SOL    HW112857   0.312   1.982   2.104
 3986SOL    HW212858   0.230   1.842   2.120
 3987SOL     OW12859   2.280   4.793   6.542
 3987SOL    HW112860   2.182   4.797   6.520
 3987SOL    HW212861   2.329   4.749   6.467
 3988SOL     OW12862   3.975   2.734   0.855
 3988SOL    HW112863   3.944   2.683   0.775
 3988SOL    HW212864   4.018   2.819   0.826
 3989SOL     OW12865   6.254   6.573   0.266
 3989SOL    HW112866   6.277   6.589   0.170
 3989SOL    HW212867   6.251   6.475   0.284
 3990SOL     OW12868   0.893   3.541   3.757
 3990SOL    HW112869   0.967   3.528   3.691
 3990SOL    HW212870   0.904   3.630   3.801
 3991SOL     OW12871   0.256   2.336   4.014
 3991SOL    HW112872   0.166   2.315   4.053
 3991SOL    HW212873   0.270   2.281   3.932
 3992SOL     OW12874   4.219   3.374   6.334
 3992SOL    HW112875   4.162   3.355   6.414
 3992SOL    HW212876   4.230   3.291   6.280
 3993SOL     OW12877   3.022   2.029   2.815
 3993SOL    HW112878   2.956   2.097   2.782
 3993SOL    HW212879   3.108   2.041   2.764
 3994SOL     OW12880   2.520   2.581   3.743
 3994SOL    HW112881   2.442   2.544   3.794
 3994SOL    HW212882   2.604   2.565   3.794
 3995SOL     OW12883   2.144   4.135   3.339
 3995SOL    HW112884   2.208   4.143   3.415
 3995SOL    HW212885   2.176   4.191   3.262
 3996SOL     OW12886   0.789   1.021   3.357
 3996SOL    HW112887   0.839   0.990   3.438
 3996SOL    HW212888   0.749   1.111   3.375
 3997SOL     OW12889   5.440   3.946   3.033
 3997SOL    HW112890   5.467   3.869   2.975
 3997SOL    HW212891   5.506   4.021   3.022
 3998SOL     OW12892   6.616   2.267   3.186
 3998SOL    HW112893   6.592   2.269   3.283
 3998SOL    HW212894   6.545   2.314   3.134
 3999SOL     OW12895   5.963   3.766   2.406
 3999SOL    HW112896   5.874   3.745   2.365
 3999SOL    HW212897   6.026   3.689   2.390
 4000SOL     OW12898   2.685   5.601   2.726
 4000SOL    HW112899   2.776   5.636   2.705
 4000SOL    HW212900   2.627   5.675   2.759
 4001SOL     OW12901   2.547   3.705   5.535
 4001SOL    HW112902   2.526   3.725   5.439
 4001SOL    HW212903   2.608   3.776   5.570
 4002SOL     OW12904   3.322   3.223   4.847
 4002SOL    HW112905   3.242   3.247   4.792
 4002SOL    HW212906   3.387   3.299   4.848
 4003SOL     OW12907   2.799   1.191   5.913
 4003SOL    HW112908   2.825   1.286   5.935
 4003SOL    HW212909   2.759   1.149   5.993
 4004SOL     OW12910   6.967   3.845   2.913
 4004SOL    HW112911   6.966   3.747   2.934
 4004SOL    HW212912   6.944   3.896   2.995
 4005SOL     OW12913   4.751   3.369   1.397
 4005SOL    HW112914   4.701   3.442   1.445
 4005SOL    HW212915   4.727   3.371   1.300
 4006SOL     OW12916   4.863   5.389   2.322
 4006SOL    HW112917   4.778   5.370   2.372
 4006SOL    HW212918   4.940   5.382   2.385
 4007SOL     OW12919   1.204   1.836   3.374
 4007SOL    HW112920   1.203   1.741   3.405
 4007SOL    HW212921   1.240   1.840   3.281
 4008SOL     OW12922   2.952   6.796   0.281
 4008SOL    HW112923   2.867   6.781   0.331
 4008SOL    HW212924   2.962   6.893   0.260
 4009SOL     OW12925   4.710   1.892   1.100
 4009SOL    HW112926   4.681   1.988   1.101
 4009SOL    HW212927   4.809   1.887   1.094
 4010SOL     OW12928   3.873   4.311   1.573
 4010SOL    HW112929   3.813   4.346   1.501
 4010SOL    HW212930   3.817   4.265   1.643
 4011SOL     OW12931   0.001   5.992   0.715
 4011SOL    HW112932   7.014   6.034   0.805
 4011SOL    HW212933   6.966   6.040   0.649
 4012SOL     OW12934   4.537   6.992   1.973
 4012SOL    HW112935   4.502   6.898   1.967
 4012SOL    HW212936   4.631   6.991   2.008
 4013SOL     OW12937   1.792   0.276   0.837
 4013SOL    HW112938   1.828   0.192   0.878
 4013SOL    HW212939   1.786   0.264   0.738
 4014SOL     OW12940   3.164   6.258   3.863
 4014SOL    HW112941   3.148   6.239   3.766
 4014SOL    HW212942   3.115   6.191   3.919
 4015SOL     OW12943   4.553   5.057   6.017
 4015SOL    HW112944   4.553   4.960   6.038
 4015SOL    HW212945   4.647   5.092   6.022
 4016SOL     OW12946   3.707   4.953   6.957
 4016SOL    HW112947   3.662   4.873   6.996
 4016SOL    HW212948   3.748   5.007   0.007
 4017SOL     OW12949   0.879   4.905   5.574
 4017SOL    HW112950   0.814   4.891   5.499
 4017SOL    HW212951   0.904   5.001   5.579
 4018SOL     OW12952   3.647   6.248   2.143
 4018SOL    HW112953   3.721   6.257   2.076
 4018SOL    HW212954   3.561   6.278   2.103
 4019SOL     OW12955   5.277   3.233   2.333
 4019SOL    HW112956   5.236   3.216   2.423
 4019SOL    HW212957   5.266   3.153   2.275
 4020SOL     OW12958   0.151   3.955   4.295
 4020SOL    HW112959   0.248   3.929   4.299
 4020SOL    HW212960   0.095   3.873   4.300
 4021SOL     OW12961   3.357   3.517   5.542
 4021SOL    HW112962   3.393   3.423   5.534
 4021SOL    HW212963   3.421   3.573   5.595
 4022SOL     OW12964   3.909   6.529   0.752
 4022SOL    HW112965   3.858   6.609   0.784
 4022SOL    HW212966   3.949   6.549   0.662
 4023SOL     OW12967   0.129   1.299   5.451
 4023SOL    HW112968   0.051   1.285   5.391
 4023SOL    HW212969   0.160   1.394   5.444
 4024SOL     OW12970   1.644   4.880   4.055
 4024SOL    HW112971   1.571   4.911   3.993
 4024SOL    HW212972   1.604   4.834   4.134
 4025SOL     OW12973   1.020   5.757   4.409
 4025SOL    HW112974   1.064   5.780   4.322
 4025SOL    HW212975   0.960   5.678   4.396
 4026SOL     OW12976   6.220   6.258   4.389
 4026SOL    HW112977   6.311   6.216   4.389
 4026SOL    HW212978   6.214   6.326   4.462
 4027SOL     OW12979   2.445   2.318   6.865
 4027SOL    HW112980   2.482   2.407   6.839
 4027SOL    HW212981   2.508   2.273   6.928
 4028SOL     OW12982   4.582   1.516   3.460
 4028SOL    HW112983   4.489   1.539   3.489
 4028SOL    HW212984   4.648   1.566   3.516
 4029SOL     OW12985   3.068   4.104   6.092
 4029SOL    HW112986   3.118   4.138   6.012
 4029SOL    HW212987   3.109   4.019   6.123
 4030SOL     OW12988   0.186   1.047   2.089
 4030SOL    HW112989   0.274   1.080   2.123
 4030SOL    HW212990   0.138   1.121   2.041
 4031SOL     OW12991   5.186   0.380   2.989
 4031SOL    HW112992   5.261   0.337   3.040
 4031SOL    HW212993   5.169   0.472   3.025
 4032SOL     OW12994   6.467   6.661   2.189
 4032SOL    HW112995   6.509   6.588   2.135
 4032SOL    HW212996   6.412   6.719   2.128
 4033SOL     OW12997   2.716   1.790   2.702
 4033SOL    HW112998   2.727   1.888   2.690
 4033SOL    HW212999   2.729   1.767   2.799
 4034SOL     OW13000   6.082   2.252   5.183
 4034SOL    HW113001   5.997   2.278   5.227
 4034SOL    HW213002   6.095   2.306   5.099
 4035SOL     OW13003   6.778   1.434   1.474
 4035SOL    HW113004   6.731   1.354   1.509
 4035SOL    HW213005   6.726   1.517   1.497
 4036SOL     OW13006   4.049   4.820   2.109
 4036SOL    HW113007   4.121   4.864   2.164
 4036SOL    HW213008   4.092   4.763   2.038
 4037SOL     OW13009   2.616   1.554   6.024
 4037SOL    HW113010   2.578   1.627   6.081
 4037SOL    HW213011   2.579   1.466   6.053
 4038SOL     OW13012   4.718   3.039   0.037
 4038SOL    HW113013   4.817   3.042   0.022
 4038SOL    HW213014   4.676   2.974   6.997
 4039SOL     OW13015   4.947   6.052   1.730
 4039SOL    HW113016   4.911   6.014   1.815
 4039SOL    HW213017   4.873   6.093   1.678
 4040SOL     OW13018   2.798   6.216   4.612
 4040SOL    HW113019   2.737   6.138   4.605
 4040SOL    HW213020   2.782   6.263   4.699
 4041SOL     OW13021   1.928   6.040   1.361
 4041SOL    HW113022   1.995   6.072   1.294
 4041SOL    HW213023   1.975   6.001   1.440
 4042SOL     OW13024   6.132   6.531   3.280
 4042SOL    HW113025   6.204   6.533   3.349
 4042SOL    HW213026   6.083   6.618   3.281
 4043SOL     OW13027   6.636   1.940   6.617
 4043SOL    HW113028   6.571   2.016   6.621
 4043SOL    HW213029   6.727   1.975   6.595
 4044SOL     OW13030   5.467   4.836   2.690
 4044SOL    HW113031   5.558   4.872   2.669
 4044SOL    HW213032   5.419   4.899   2.751
 4045SOL     OW13033   4.204   6.688   5.703
 4045SOL    HW113034   4.217   6.608   5.644
 4045SOL    HW213035   4.252   6.766   5.663
 4046SOL     OW13036   1.066   1.825   2.940
 4046SOL    HW113037   1.061   1.885   3.020
 4046SOL    HW213038   1.074   1.730   2.970
 4047SOL     OW13039   1.906   2.595   6.792
 4047SOL    HW113040   1.970   2.661   6.831
 4047SOL    HW213041   1.859   2.547   6.866
 4048SOL     OW13042   5.617   1.373   2.024
 4048SOL    HW113043   5.527   1.341   1.994
 4048SOL    HW213044   5.607   1.432   2.104
 4049SOL     OW13045   4.783   6.212   6.279
 4049SOL    HW113046   4.703   6.218   6.220
 4049SOL    HW213047   4.763   6.154   6.358
 4050SOL     OW13048   1.002   6.342   2.402
 4050SOL    HW113049   0.928   6.310   2.461
 4050SOL    HW213050   0.965   6.396   2.326
 4051SOL     OW13051   4.769   1.149   6.561
 4051SOL    HW113052   4.702   1.188   6.497
 4051SOL    HW213053   4.739   1.057   6.588
 4052SOL     OW13054   5.910   2.290   3.410
 4052SOL    HW113055   5.883   2.328   3.498
 4052SOL    HW213056   6.009   2.301   3.397
 4053SOL     OW13057   2.110   6.194   4.486
 4053SOL    HW113058   2.142   6.237   4.571
 4053SOL    HW213059   2.029   6.242   4.453
 4054SOL     OW13060   5.378   4.362   0.956
 4054SOL    HW113061   5.413   4.281   0.908
 4054SOL    HW213062   5.341   4.335   1.045
 4055SOL     OW13063   1.532   3.826   1.041
 4055SOL    HW113064   1.611   3.805   0.982
 4055SOL    HW213065   1.513   3.924   1.036
 4056SOL     OW13066   5.425   3.877   1.218
 4056SOL    HW113067   5.437   3.951   1.153
 4056SOL    HW213068   5.513   3.838   1.242
 4057SOL     OW13069   6.972   2.945   0.027
 4057SOL    HW113070   6.920   2.881   0.083
 4057SOL    HW213071   0.015   2.894   6.993
 4058SOL     OW13072   2.763   6.513   4.810
 4058SOL    HW113073   2.703   6.433   4.813
 4058SOL    HW213074   2.851   6.491   4.851
 4059SOL     OW13075   0.158   2.429   3.390
 4059SOL    HW113076   0.138   2.527   3.393
 4059SOL    HW213077   0.089   2.382   3.334
 4060SOL     OW13078   5.362   5.117   5.573
 4060SOL    HW113079   5.419   5.036   5.588
 4060SOL    HW213080   5.396   5.168   5.494
 4061SOL     OW13081   2.608   4.646   2.185
 4061SOL    HW113082   2.550   4.565   2.183
 4061SOL    HW213083   2.675   4.641   2.111
 4062SOL     OW13084   2.618   0.722   2.095
 4062SOL    HW113085   2.674   0.762   2.022
 4062SOL    HW213086   2.583   0.795   2.154
 4063SOL     OW13087   6.186   0.177   0.668
 4063SOL    HW113088   6.275   0.221   0.678
 4063SOL    HW213089   6.199   0.080   0.647
 4064SOL     OW13090   2.536   1.916   4.514
 4064SOL    HW113091   2.609   1.852   4.535
 4064SOL    HW213092   2.488   1.941   4.598
 4065SOL     OW13093   0.923   0.001   1.698
 4065SOL    HW113094   0.864   0.052   1.762
 4065SOL    HW213095   0.904   6.926   1.706
 4066SOL     OW13096   6.695   4.461   2.515
 4066SOL    HW113097   6.766   4.456   2.445
 4066SOL    HW213098   6.617   4.405   2.487
 4067SOL     OW13099   5.477   3.750   3.614
 4067SOL    HW113100   5.382   3.770   3.590
 4067SOL    HW213101   5.515   3.683   3.550
 4068SOL     OW13102   2.450   2.223   4.669
 4068SOL    HW113103   2.421   2.154   4.736
 4068SOL    HW213104   2.392   2.305   4.678
 4069SOL     OW13105   3.972   5.012   6.809
 4069SOL    HW113106   3.912   4.975   6.880
 4069SOL    HW213107   3.941   5.104   6.784
 4070SOL     OW13108   0.200   2.756   2.767
 4070SOL    HW113109   0.192   2.695   2.846
 4070SOL    HW213110   0.218   2.702   2.685
 4071SOL     OW13111   1.402   1.607   4.721
 4071SOL    HW113112   1.383   1.655   4.635
 4071SOL    HW213113   1.336   1.532   4.732
 4072SOL     OW13114   0.807   6.007   4.787
 4072SOL    HW113115   0.751   6.062   4.725
 4072SOL    HW213116   0.748   5.958   4.851
 4073SOL     OW13117   3.132   5.585   6.121
 4073SOL    HW113118   3.173   5.670   6.087
 4073SOL    HW213119   3.041   5.604   6.156
 4074SOL     OW13120   0.349   4.507   1.235
 4074SOL    HW113121   0.314   4.489   1.143
 4074SOL    HW213122   0.441   4.470   1.244
 4075SOL     OW13123   4.816   2.033   1.369
 4075SOL    HW113124   4.720   2.061   1.366
 4075SOL    HW213125   4.834   1.987   1.456
 4076SOL     OW13126   2.379   3.359   6.209
 4076SOL    HW113127   2.312   3.293   6.176
 4076SOL    HW213128   2.471   3.325   6.190
 4077SOL     OW13129   4.049   2.014   1.017
 4077SOL    HW113130   4.100   2.071   1.081
 4077SOL    HW213131   4.112   1.974   0.950
 4078SOL     OW13132   2.196   4.744   2.230
 4078SOL    HW113133   2.097   4.753   2.222
 4078SOL    HW213134   2.241   4.807   2.166
 4079SOL     OW13135   1.974   1.313   2.892
 4079SOL    HW113136   1.894   1.366   2.867
 4079SOL    HW213137   1.948   1.218   2.909
 4080SOL     OW13138   4.688   2.701   5.849
 4080SOL    HW113139   4.767   2.699   5.910
 4080SOL    HW213140   4.657   2.795   5.838
 4081SOL     OW13141   1.451   2.784   3.413
 4081SOL    HW113142   1.476   2.879   3.435
 4081SOL    HW213143   1.463   2.727   3.494
 4082SOL     OW13144   0.764   3.924   0.290
 4082SOL    HW113145   0.666   3.939   0.287
 4082SOL    HW213146   0.809   3.977   0.218
 4083SOL     OW13147   6.323   3.432   2.869
 4083SOL    HW113148   6.420   3.432   2.842
 4083SOL    HW213149   6.289   3.338   2.868
 4084SOL     OW13150   5.780   1.962   3.837
 4084SOL    HW113151   5.728   1.952   3.752
 4084SOL    HW213152   5.827   1.876   3.857
 4085SOL     OW13153   3.872   5.513   0.748
 4085SOL    HW113154   3.800   5.530   0.816
 4085SOL    HW213155   3.842   5.441   0.685
 4086SOL     OW13156   2.076   5.828   1.877
 4086SOL    HW113157   2.048   5.760   1.809
 4086SOL    HW213158   2.012   5.905   1.875
 4087SOL     OW13159   3.082   2.218   3.608
 4087SOL    HW113160   3.162   2.196   3.663
 4087SOL    HW213161   3.099   2.192   3.513
 4088SOL     OW13162   0.485   2.248   0.776
 4088SOL    HW113163   0.532   2.196   0.847
 4088SOL    HW213164   0.540   2.327   0.750
 4089SOL     OW13165   6.516   6.250   3.682
 4089SOL    HW113166   6.432   6.259   3.628
 4089SOL    HW213167   6.494   6.254   3.779
 4090SOL     OW13168   1.955   4.250   5.726
 4090SOL    HW113169   1.875   4.275   5.781
 4090SOL    HW213170   1.927   4.184   5.656
 4091SOL     OW13171   6.482   6.245   0.271
 4091SOL    HW113172   6.549   6.213   0.205
 4091SOL    HW213173   6.396   6.266   0.224
 4092SOL     OW13174   6.622   3.507   5.233
 4092SOL    HW113175   6.579   3.429   5.188
 4092SOL    HW213176   6.550   3.569   5.267
 4093SOL     OW13177   4.055   7.003   3.345
 4093SOL    HW113178   4.109   6.983   3.426
 4093SOL    HW213179   4.024   0.075   3.349
 4094SOL     OW13180   2.187   5.679   4.559
 4094SOL    HW113181   2.170   5.607   4.490
 4094SOL    HW213182   2.214   5.763   4.513
 4095SOL     OW13183   0.447   3.690   6.452
 4095SOL    HW113184   0.533   3.640   6.440
 4095SOL    HW213185   0.462   3.786   6.431
 4096SOL     OW13186   4.669   5.365   0.776
 4096SOL    HW113187   4.755   5.405   0.745
 4096SOL    HW213188   4.688   5.292   0.842
 4097SOL     OW13189   3.799   3.534   6.222
 4097SOL    HW113190   3.881   3.583   6.192
 4097SOL    HW213191   3.718   3.586   6.194
 4098SOL     OW13192   0.436   3.101   1.766
 4098SOL    HW113193   0.481   3.109   1.676
 4098SOL    HW213194   0.457   3.182   1.820
 4099SOL     OW13195   3.201   4.640   1.051
 4099SOL    HW113196   3.218   4.695   1.133
 4099SOL    HW213197   3.222   4.544   1.071
 4100SOL     OW13198   6.491   6.088   5.042
 4100SOL    HW113199   6.574   6.144   5.031
 4100SOL    HW213200   6.505   5.999   5.000
 4101SOL     OW13201   5.777   0.956   0.776
 4101SOL    HW113202   5.817   0.924   0.862
 4101SOL    HW213203   5.840   1.021   0.732
 4102SOL     OW13204   6.520   0.861   1.588
 4102SOL    HW113205   6.528   0.908   1.500
 4102SOL    HW213206   6.603   0.806   1.603
 4103SOL     OW13207   0.569   0.430   0.864
 4103SOL    HW113208   0.554   0.365   0.939
 4103SOL    HW213209   0.639   0.394   0.802
 4104SOL     OW13210   0.802   4.614   1.880
 4104SOL    HW113211   0.717   4.652   1.917
 4104SOL    HW213212   0.793   4.601   1.782
 4105SOL     OW13213   4.057   5.562   1.134
 4105SOL    HW113214   3.959   5.544   1.140
 4105SOL    HW213215   4.104   5.513   1.208
 4106SOL     OW13216   0.720   1.945   4.988
 4106SOL    HW113217   0.689   1.878   5.054
 4106SOL    HW213218   0.662   2.027   4.994
 4107SOL     OW13219   1.658   6.058   1.342
 4107SOL    HW113220   1.620   6.058   1.249
 4107SOL    HW213221   1.758   6.069   1.337
 4108SOL     OW13222   6.978   4.632   6.279
 4108SOL    HW113223   6.994   4.586   6.192
 4108SOL    HW213224   6.889   4.606   6.315
 4109SOL     OW13225   4.683   6.080   4.855
 4109SOL    HW113226   4.638   6.019   4.790
 4109SOL    HW213227   4.620   6.103   4.929
 4110SOL     OW13228   4.860   2.992   6.310
 4110SOL    HW113229   4.807   2.940   6.242
 4110SOL    HW213230   4.878   2.934   6.389
 4111SOL     OW13231   4.198   2.986   6.647
 4111SOL    HW113232   4.287   3.022   6.618
 4111SOL    HW213233   4.169   3.033   6.731
 4112SOL     OW13234   5.195   0.658   5.260
 4112SOL    HW113235   5.160   0.749   5.281
 4112SOL    HW213236   5.225   0.614   5.345
 4113SOL     OW13237   4.418   6.524   4.379
 4113SOL    HW113238   4.336   6.508   4.434
 4113SOL    HW213239   4.477   6.442   4.382
 4114SOL     OW13240   3.739   2.142   4.171
 4114SOL    HW113241   3.785   2.167   4.256
 4114SOL    HW213242   3.744   2.043   4.159
 4115SOL     OW13243   4.311   6.079   2.265
 4115SOL    HW113244   4.301   6.169   2.223
 4115SOL    HW213245   4.357   6.017   2.201
 4116SOL     OW13246   4.077   2.067   1.683
 4116SOL    HW113247   4.137   2.017   1.746
 4116SOL    HW213248   3.983   2.061   1.714
 4117SOL     OW13249   0.713   5.437   1.861
 4117SOL    HW113250   0.772   5.382   1.802
 4117SOL    HW213251   0.720   5.404   1.955
 4118SOL     OW13252   2.510   6.423   0.706
 4118SOL    HW113253   2.533   6.470   0.791
 4118SOL    HW213254   2.582   6.356   0.685
 4119SOL     OW13255   4.095   2.265   3.654
 4119SOL    HW113256   4.184   2.239   3.616
 4119SOL    HW213257   4.108   2.342   3.717
 4120SOL     OW13258   4.326   0.790   0.978
 4120SOL    HW113259   4.353   0.694   0.989
 4120SOL    HW213260   4.240   0.807   1.026
 4121SOL     OW13261   5.706   1.507   5.233
 4121SOL    HW113262   5.779   1.445   5.263
 4121SOL    HW213263   5.624   1.453   5.213
 4122SOL     OW13264   0.640   6.142   5.616
 4122SOL    HW113265   0.724   6.093   5.594
 4122SOL    HW213266   0.580   6.145   5.536
 4123SOL     OW13267   4.608   4.762   5.322
 4123SOL    HW113268   4.587   4.752   5.419
 4123SOL    HW213269   4.703   4.792   5.312
 4124SOL     OW13270   6.070   5.183   5.866
 4124SOL    HW113271   6.049   5.277   5.892
 4124SOL    HW213272   5.991   5.143   5.819
 4125SOL     OW13273   4.490   1.329   2.011
 4125SOL    HW113274   4.416   1.368   1.956
 4125SOL    HW213275   4.494   1.376   2.099
 4126SOL     OW13276   1.200   4.190   3.874
 4126SOL    HW113277   1.278   4.191   3.813
 4126SOL    HW213278   1.168   4.284   3.889
 4127SOL     OW13279   4.521   4.472   4.628
 4127SOL    HW113280   4.555   4.383   4.659
 4127SOL    HW213281   4.535   4.540   4.700
 4128SOL     OW13282   1.340   3.342   2.040
 4128SOL    HW113283   1.400   3.388   2.106
 4128SOL    HW213284   1.393   3.276   1.987
 4129SOL     OW13285   4.845   1.302   6.779
 4129SOL    HW113286   4.867   1.260   6.868
 4129SOL    HW213287   4.795   1.236   6.723
 4130SOL     OW13288   0.101   3.378   5.691
 4130SOL    HW113289   0.141   3.293   5.725
 4130SOL    HW213290   0.162   3.419   5.623
 4131SOL     OW13291   1.393   5.635   3.977
 4131SOL    HW113292   1.484   5.652   4.016
 4131SOL    HW213293   1.345   5.567   4.033
 4132SOL     OW13294   4.883   4.541   4.043
 4132SOL    HW113295   4.914   4.558   3.950
 4132SOL    HW213296   4.949   4.579   4.108
 4133SOL     OW13297   2.912   6.730   1.824
 4133SOL    HW113298   2.841   6.711   1.891
 4133SOL    HW213299   2.914   6.828   1.804
 4134SOL     OW13300   1.716   2.577   0.432
 4134SOL    HW113301   1.643   2.619   0.486
 4134SOL    HW213302   1.799   2.633   0.438
 4135SOL     OW13303   2.282   0.678   2.179
 4135SOL    HW113304   2.368   0.723   2.203
 4135SOL    HW213305   2.284   0.651   2.083
 4136SOL     OW13306   1.199   2.100   2.449
 4136SOL    HW113307   1.298   2.107   2.456
 4136SOL    HW213308   1.157   2.185   2.479
 4137SOL     OW13309   1.772   4.285   1.010
 4137SOL    HW113310   1.845   4.353   1.016
 4137SOL    HW213311   1.772   4.245   0.918
 4138SOL     OW13312   3.788   5.390   3.120
 4138SOL    HW113313   3.782   5.307   3.175
 4138SOL    HW213314   3.869   5.442   3.148
 4139SOL     OW13315   2.277   2.184   5.336
 4139SOL    HW113316   2.235   2.146   5.253
 4139SOL    HW213317   2.367   2.144   5.349
 4140SOL     OW13318   2.984   0.924   5.615
 4140SOL    HW113319   3.017   0.831   5.631
 4140SOL    HW213320   2.982   0.942   5.516
 4141SOL     OW13321   5.224   6.373   1.882
 4141SOL    HW113322   5.306   6.318   1.865
 4141SOL    HW213323   5.192   6.413   1.796
 4142SOL     OW13324   6.541   5.565   0.960
 4142SOL    HW113325   6.473   5.501   0.997
 4142SOL    HW213326   6.599   5.517   0.894
 4143SOL     OW13327   0.298   3.075   0.070
 4143SOL    HW113328   0.299   3.166   0.113
 4143SOL    HW213329   0.323   3.084   6.997
 4144SOL     OW13330   5.438   3.244   0.027
 4144SOL    HW113331   5.489   3.311   6.996
 4144SOL    HW213332   5.439   3.155   7.003
 4145SOL     OW13333   0.344   5.856   1.403
 4145SOL    HW113334   0.434   5.855   1.361
 4145SOL    HW213335   0.353   5.847   1.502
 4146SOL     OW13336   6.875   0.902   5.968
 4146SOL    HW113337   6.967   0.943   5.964
 4146SOL    HW213338   6.883   0.803   5.975
 4147SOL     OW13339   3.969   2.029   5.642
 4147SOL    HW113340   4.009   2.120   5.640
 4147SOL    HW213341   3.874   2.033   5.609
 4148SOL     OW13342   0.525   0.285   3.951
 4148SOL    HW113343   0.605   0.248   3.904
 4148SOL    HW213344   0.530   0.385   3.950
 4149SOL     OW13345   0.861   2.855   0.456
 4149SOL    HW113346   0.864   2.856   0.356
 4149SOL    HW213347   0.954   2.864   0.491
 4150SOL     OW13348   0.093   1.079   5.927
 4150SOL    HW113349   0.158   1.153   5.908
 4150SOL    HW213350   0.060   1.088   6.021
 4151SOL     OW13351   5.021   6.622   6.058
 4151SOL    HW113352   4.979   6.544   6.012
 4151SOL    HW213353   4.997   6.620   6.155
 4152SOL     OW13354   2.642   5.530   1.020
 4152SOL    HW113355   2.736   5.508   0.995
 4152SOL    HW213356   2.637   5.623   1.056
 4153SOL     OW13357   4.641   5.028   6.559
 4153SOL    HW113358   4.726   5.078   6.575
 4153SOL    HW213359   4.568   5.092   6.534
 4154SOL     OW13360   0.257   4.330   5.075
 4154SOL    HW113361   0.179   4.272   5.051
 4154SOL    HW213362   0.277   4.392   5.000
 4155SOL     OW13363   6.033   2.653   3.421
 4155SOL    HW113364   5.957   2.679   3.480
 4155SOL    HW213365   6.110   2.623   3.477
 4156SOL     OW13366   5.424   6.944   5.083
 4156SOL    HW113367   5.488   7.012   5.049
 4156SOL    HW213368   5.344   6.990   5.122
 4157SOL     OW13369   4.147   6.512   3.647
 4157SOL    HW113370   4.155   6.413   3.655
 4157SOL    HW213371   4.050   6.538   3.652
 4158SOL     OW13372   1.685   5.352   4.123
 4158SOL    HW113373   1.756   5.282   4.115
 4158SOL    HW213374   1.705   5.428   4.061
 4159SOL     OW13375   1.747   2.944   3.736
 4159SOL    HW113376   1.653   2.933   3.769
 4159SOL    HW213377   1.787   3.027   3.777
 4160SOL     OW13378   6.751   0.854   1.209
 4160SOL    HW113379   6.800   0.786   1.155
 4160SOL    HW213380   6.749   0.941   1.159
 4161SOL     OW13381   1.743   6.384   6.554
 4161SOL    HW113382   1.810   6.329   6.604
 4161SOL    HW213383   1.705   6.454   6.614
 4162SOL     OW13384   6.255   7.008   5.307
 4162SOL    HW113385   6.282   6.934   5.369
 4162SOL    HW213386   6.321   0.060   5.316
 4163SOL     OW13387   6.216   0.432   3.251
 4163SOL    HW113388   6.221   0.450   3.349
 4163SOL    HW213389   6.308   0.423   3.213
 4164SOL     OW13390   1.148   6.777   6.312
 4164SOL    HW113391   1.243   6.810   6.315
 4164SOL    HW213392   1.138   6.712   6.237
 4165SOL     OW13393   4.623   0.235   0.272
 4165SOL    HW113394   4.630   0.271   0.365
 4165SOL    HW213395   4.569   0.151   0.273
 4166SOL     OW13396   5.618   3.418   1.164
 4166SOL    HW113397   5.651   3.378   1.079
 4166SOL    HW213398   5.594   3.345   1.228
 4167SOL     OW13399   2.423   3.838   0.439
 4167SOL    HW113400   2.344   3.778   0.427
 4167SOL    HW213401   2.481   3.802   0.513
 4168SOL     OW13402   0.718   5.360   1.103
 4168SOL    HW113403   0.663   5.384   1.023
 4168SOL    HW213404   0.815   5.374   1.082
 4169SOL     OW13405   5.937   3.528   3.788
 4169SOL    HW113406   5.877   3.599   3.826
 4169SOL    HW213407   6.028   3.537   3.827
 4170SOL     OW13408   3.354   3.239   5.140
 4170SOL    HW113409   3.343   3.234   5.041
 4170SOL    HW213410   3.413   3.317   5.163
 4171SOL     OW13411   5.663   4.364   1.318
 4171SOL    HW113412   5.601   4.415   1.377
 4171SOL    HW213413   5.648   4.390   1.222
 4172SOL     OW13414   0.301   2.428   6.410
 4172SOL    HW113415   0.327   2.523   6.426
 4172SOL    HW213416   0.377   2.368   6.435
 4173SOL     OW13417   6.048   3.463   4.846
 4173SOL    HW113418   6.013   3.370   4.839
 4173SOL    HW213419   6.001   3.511   4.921
 4174SOL     OW13420   5.816   0.616   3.693
 4174SOL    HW113421   5.772   0.656   3.773
 4174SOL    HW213422   5.772   0.528   3.672
 4175SOL     OW13423   2.610   6.059   3.980
 4175SOL    HW113424   2.512   6.077   3.984
 4175SOL    HW213425   2.639   6.008   4.060
 4176SOL     OW13426   2.652   6.582   2.311
 4176SOL    HW113427   2.751   6.597   2.305
 4176SOL    HW213428   2.619   6.539   2.227
 4177SOL     OW13429   0.595   4.915   5.276
 4177SOL    HW113430   0.600   4.991   5.341
 4177SOL    HW213431   0.623   4.830   5.321
 4178SOL     OW13432   4.152   0.985   4.265
 4178SOL    HW113433   4.107   0.978   4.176
 4178SOL    HW213434   4.237   0.933   4.263
 4179SOL     OW13435   5.325   3.361   4.032
 4179SOL    HW113436   5.334   3.420   4.113
 4179SOL    HW213437   5.411   3.364   3.980
 4180SOL     OW13438   5.414   3.454   2.437
 4180SOL    HW113439   5.482   3.419   2.501
 4180SOL    HW213440   5.368   3.378   2.392
 4181SOL     OW13441   2.203   2.415   6.003
 4181SOL    HW113442   2.240   2.389   6.092
 4181SOL    HW213443   2.268   2.390   5.931
 4182SOL     OW13444   0.125   6.639   2.619
 4182SOL    HW113445   0.147   6.545   2.596
 4182SOL    HW213446   0.090   6.643   2.713
 4183SOL     OW13447   3.675   1.060   1.465
 4183SOL    HW113448   3.600   0.998   1.443
 4183SOL    HW213449   3.740   1.064   1.390
 4184SOL     OW13450   4.450   4.839   1.152
 4184SOL    HW113451   4.359   4.803   1.130
 4184SOL    HW213452   4.462   4.841   1.252
 4185SOL     OW13453   0.303   5.379   3.056
 4185SOL    HW113454   0.308   5.430   2.970
 4185SOL    HW213455   0.264   5.438   3.127
 4186SOL     OW13456   1.234   4.848   0.500
 4186SOL    HW113457   1.212   4.827   0.596
 4186SOL    HW213458   1.327   4.818   0.480
 4187SOL     OW13459   3.708   3.114   5.401
 4187SOL    HW113460   3.626   3.090   5.349
 4187SOL    HW213461   3.787   3.068   5.362
 4188SOL     OW13462   4.857   6.700   4.355
 4188SOL    HW113463   4.929   6.634   4.375
 4188SOL    HW213464   4.807   6.670   4.273
 4189SOL     OW13465   3.247   1.670   4.818
 4189SOL    HW113466   3.315   1.699   4.885
 4189SOL    HW213467   3.282   1.685   4.725
 4190SOL     OW13468   2.209   0.082   6.522
 4190SOL    HW113469   2.191   0.179   6.538
 4190SOL    HW213470   2.138   0.045   6.462
 4191SOL     OW13471   5.736   3.712   2.991
 4191SOL    HW113472   5.826   3.673   2.972
 4191SOL    HW213473   5.738   3.761   3.078
 4192SOL     OW13474   0.201   1.702   3.490
 4192SOL    HW113475   0.183   1.784   3.436
 4192SOL    HW213476   0.119   1.644   3.491
 4193SOL     OW13477   1.941   6.289   1.605
 4193SOL    HW113478   1.968   6.382   1.580
 4193SOL    HW213479   1.978   6.224   1.538
 4194SOL     OW13480   6.775   2.035   5.337
 4194SOL    HW113481   6.722   2.047   5.421
 4194SOL    HW213482   6.867   2.073   5.351
 4195SOL     OW13483   3.374   0.218   1.731
 4195SOL    HW113484   3.449   0.244   1.670
 4195SOL    HW213485   3.347   0.297   1.786
 4196SOL     OW13486   6.134   1.940   4.332
 4196SOL    HW113487   6.198   1.864   4.320
 4196SOL    HW213488   6.080   1.926   4.415
 4197SOL     OW13489   4.537   4.879   4.249
 4197SOL    HW113490   4.589   4.859   4.165
 4197SOL    HW213491   4.597   4.923   4.315
 4198SOL     OW13492   6.111   3.729   6.783
 4198SOL    HW113493   6.051   3.707   6.706
 4198SOL    HW213494   6.081   3.679   6.864
 4199SOL     OW13495   1.979   3.387   6.248
 4199SOL    HW113496   2.054   3.418   6.307
 4199SOL    HW213497   1.997   3.415   6.154
 4200SOL     OW13498   2.876   6.245   5.476
 4200SOL    HW113499   2.902   6.154   5.445
 4200SOL    HW213500   2.790   6.272   5.433
 4201SOL     OW13501   5.632   6.468   4.070
 4201SOL    HW113502   5.670   6.537   4.009
 4201SOL    HW213503   5.636   6.378   4.026
 4202SOL     OW13504   4.409   4.617   6.011
 4202SOL    HW113505   4.403   4.621   5.912
 4202SOL    HW213506   4.381   4.526   6.042
 4203SOL     OW13507   3.668   5.962   2.685
 4203SOL    HW113508   3.647   6.046   2.635
 4203SOL    HW213509   3.583   5.917   2.712
 4204SOL     OW13510   3.289   2.869   1.988
 4204SOL    HW113511   3.234   2.896   2.067
 4204SOL    HW213512   3.366   2.813   2.018
 4205SOL     OW13513   3.822   5.325   4.206
 4205SOL    HW113514   3.893   5.308   4.138
 4205SOL    HW213515   3.852   5.291   4.295
 4206SOL     OW13516   4.874   1.181   5.789
 4206SOL    HW113517   4.797   1.234   5.753
 4206SOL    HW213518   4.893   1.105   5.727
 4207SOL     OW13519   1.897   1.624   1.511
 4207SOL    HW113520   1.978   1.677   1.537
 4207SOL    HW213521   1.916   1.526   1.519
 4208SOL     OW13522   1.413   2.378   0.639
 4208SOL    HW113523   1.511   2.358   0.636
 4208SOL    HW213524   1.375   2.346   0.726
 4209SOL     OW13525   1.207   1.351   4.785
 4209SOL    HW113526   1.288   1.320   4.735
 4209SOL    HW213527   1.173   1.276   4.843
 4210SOL     OW13528   3.412   3.283   1.984
 4210SOL    HW113529   3.504   3.245   1.995
 4210SOL    HW213530   3.415   3.359   1.919
 4211SOL     OW13531   5.224   5.985   6.012
 4211SOL    HW113532   5.272   6.072   6.020
 4211SOL    HW213533   5.274   5.924   5.950
 4212SOL     OW13534   6.426   2.541   2.152
 4212SOL    HW113535   6.345   2.595   2.128
 4212SOL    HW213536   6.417   2.505   2.244
 4213SOL     OW13537   2.468   0.914   2.236
 4213SOL    HW113538   2.490   0.911   2.334
 4213SOL    HW213539   2.399   0.984   2.219
 4214SOL     OW13540   0.439   4.191   5.623
 4214SOL    HW113541   0.412   4.128   5.695
 4214SOL    HW213542   0.440   4.142   5.535
 4215SOL     OW13543   6.924   5.700   4.913
 4215SOL    HW113544   6.871   5.784   4.906
 4215SOL    HW213545   6.927   5.670   5.009
 4216SOL     OW13546   1.469   2.220   3.389
 4216SOL    HW113547   1.378   2.251   3.415
 4216SOL    HW213548   1.506   2.161   3.461
 4217SOL     OW13549   6.687   0.430   2.822
 4217SOL    HW113550   6.728   0.506   2.870
 4217SOL    HW213551   6.636   0.464   2.742
 4218SOL     OW13552   5.320   0.299   1.829
 4218SOL    HW113553   5.244   0.364   1.836
 4218SOL    HW213554   5.404   0.349   1.810
 4219SOL     OW13555   2.780   4.790   5.239
 4219SOL    HW113556   2.786   4.730   5.160
 4219SOL    HW213557   2.841   4.756   5.311
 4220SOL     OW13558   6.285   3.581   3.078
 4220SOL    HW113559   6.308   3.670   3.040
 4220SOL    HW213560   6.297   3.511   3.007
 4221SOL     OW13561   6.696   5.826   6.122
 4221SOL    HW113562   6.748   5.781   6.194
 4221SOL    HW213563   6.603   5.845   6.153
 4222SOL     OW13564   6.142   1.852   2.141
 4222SOL    HW113565   6.073   1.804   2.196
 4222SOL    HW213566   6.101   1.934   2.100
 4223SOL     OW13567   3.878   3.406   3.639
 4223SOL    HW113568   3.953   3.396   3.704
 4223SOL    HW213569   3.852   3.316   3.603
 4224SOL     OW13570   5.042   3.459   4.115
 4224SOL    HW113571   4.999   3.370   4.131
 4224SOL    HW213572   5.130   3.462   4.160
 4225SOL     OW13573   5.472   0.974   5.320
 4225SOL    HW113574   5.508   0.922   5.397
 4225SOL    HW213575   5.393   1.029   5.350
 4226SOL     OW13576   2.317   0.724   3.456
 4226SOL    HW113577   2.354   0.756   3.368
 4226SOL    HW213578   2.238   0.665   3.439
 4227SOL     OW13579   3.398   4.098   6.479
 4227SOL    HW113580   3.440   4.008   6.467
 4227SOL    HW213581   3.469   4.166   6.494
 4228SOL     OW13582   5.708   5.600   4.128
 4228SOL    HW113583   5.654   5.569   4.206
 4228SOL    HW213584   5.801   5.621   4.158
 4229SOL     OW13585   4.028   4.708   6.084
 4229SOL    HW113586   4.113   4.712   6.136
 4229SOL    HW213587   3.995   4.801   6.068
 4230SOL     OW13588   2.233   0.197   4.888
 4230SOL    HW113589   2.172   0.236   4.818
 4230SOL    HW213590   2.287   0.124   4.847
 4231SOL     OW13591   5.450   6.224   5.083
 4231SOL    HW113592   5.413   6.278   5.007
 4231SOL    HW213593   5.527   6.273   5.124
 4232SOL     OW13594   0.688   5.096   1.694
 4232SOL    HW113595   0.671   5.026   1.764
 4232SOL    HW213596   0.659   5.061   1.605
 4233SOL     OW13597   6.581   0.441   0.539
 4233SOL    HW113598   6.586   0.529   0.587
 4233SOL    HW213599   6.562   0.457   0.442
 4234SOL     OW13600   2.430   5.564   5.334
 4234SOL    HW113601   2.439   5.512   5.419
 4234SOL    HW213602   2.491   5.643   5.337
 4235SOL     OW13603   5.683   4.513   5.193
 4235SOL    HW113604   5.720   4.420   5.204
 4235SOL    HW213605   5.659   4.527   5.097
 4236SOL     OW13606   6.934   3.270   3.805
 4236SOL    HW113607   6.918   3.346   3.742
 4236SOL    HW213608   6.954   3.306   3.896
 4237SOL     OW13609   6.470   4.687   4.336
 4237SOL    HW113610   6.546   4.657   4.279
 4237SOL    HW213611   6.480   4.648   4.428
 4238SOL     OW13612   4.239   4.780   4.000
 4238SOL    HW113613   4.320   4.767   3.943
 4238SOL    HW213614   4.262   4.766   4.096
 4239SOL     OW13615   5.131   0.125   4.179
 4239SOL    HW113616   5.108   0.109   4.275
 4239SOL    HW213617   5.223   0.162   4.173
 4240SOL     OW13618   2.707   6.138   6.372
 4240SOL    HW113619   2.661   6.106   6.288
 4240SOL    HW213620   2.640   6.180   6.432
 4241SOL     OW13621   6.019   0.620   0.754
 4241SOL    HW113622   6.097   0.683   0.755
 4241SOL    HW213623   5.957   0.645   0.680
 4242SOL     OW13624   2.569   6.721   3.334
 4242SOL    HW113625   2.483   6.768   3.312
 4242SOL    HW213626   2.575   6.707   3.432
 4243SOL     OW13627   0.376   3.507   2.509
 4243SOL    HW113628   0.424   3.430   2.552
 4243SOL    HW213629   0.301   3.537   2.568
 4244SOL     OW13630   4.722   5.844   1.126
 4244SOL    HW113631   4.805   5.797   1.156
 4244SOL    HW213632   4.706   5.825   1.029
 4245SOL     OW13633   6.926   2.842   0.280
 4245SOL    HW113634   6.911   2.761   0.336
 4245SOL    HW213635   7.004   2.894   0.317
 4246SOL     OW13636   5.129   3.039   2.877
 4246SOL    HW113637   5.186   3.077   2.804
 4246SOL    HW213638   5.052   2.989   2.837
 4247SOL     OW13639   2.463   5.534   4.182
 4247SOL    HW113640   2.545   5.536   4.240
 4247SOL    HW213641   2.490   5.523   4.087
 4248SOL     OW13642   1.835   0.492   3.278
 4248SOL    HW113643   1.743   0.529   3.293
 4248SOL    HW213644   1.829   0.393   3.268
 4249SOL     OW13645   0.099   2.053   3.627
 4249SOL    HW113646   0.191   2.092   3.620
 4249SOL    HW213647   0.044   2.109   3.690
 4250SOL     OW13648   0.239   5.920   4.359
 4250SOL    HW113649   0.337   5.939   4.357
 4250SOL    HW213650   0.223   5.822   4.353
 4251SOL     OW13651   6.142   2.654   6.602
 4251SOL    HW113652   6.206   2.725   6.576
 4251SOL    HW213653   6.053   2.695   6.624
 4252SOL     OW13654   6.181   5.590   6.228
 4252SOL    HW113655   6.087   5.555   6.235
 4252SOL    HW213656   6.204   5.602   6.131
 4253SOL     OW13657   3.668   6.399   2.827
 4253SOL    HW113658   3.757   6.378   2.787
 4253SOL    HW213659   3.612   6.315   2.831
 4254SOL     OW13660   1.903   4.493   1.300
 4254SOL    HW113661   1.872   4.434   1.374
 4254SOL    HW213662   1.936   4.436   1.224
 4255SOL     OW13663   0.605   4.205   3.632
 4255SOL    HW113664   0.599   4.106   3.646
 4255SOL    HW213665   0.560   4.229   3.546
 4256SOL     OW13666   1.022   5.287   1.345
 4256SOL    HW113667   1.011   5.383   1.322
 4256SOL    HW213668   0.934   5.250   1.378
 4257SOL     OW13669   6.685   1.650   4.792
 4257SOL    HW113670   6.749   1.638   4.715
 4257SOL    HW213671   6.591   1.637   4.760
 4258SOL     OW13672   3.488   5.694   1.222
 4258SOL    HW113673   3.526   5.708   1.130
 4258SOL    HW213674   3.463   5.598   1.233
 4259SOL     OW13675   1.779   6.255   1.084
 4259SOL    HW113676   1.784   6.299   1.174
 4259SOL    HW213677   1.727   6.170   1.093
 4260SOL     OW13678   4.886   0.115   4.064
 4260SOL    HW113679   4.856   0.210   4.052
 4260SOL    HW213680   4.986   0.112   4.064
 4261SOL     OW13681   2.343   0.078   4.095
 4261SOL    HW113682   2.378   0.108   4.184
 4261SOL    HW213683   2.348   0.154   4.030
 4262SOL     OW13684   1.653   5.009   5.832
 4262SOL    HW113685   1.631   4.999   5.929
 4262SOL    HW213686   1.734   4.953   5.811
 4263SOL     OW13687   2.790   1.923   3.242
 4263SOL    HW113688   2.701   1.882   3.260
 4263SOL    HW213689   2.839   1.937   3.329
 4264SOL     OW13690   5.819   1.492   4.528
 4264SOL    HW113691   5.807   1.567   4.594
 4264SOL    HW213692   5.909   1.500   4.485
 4265SOL     OW13693   3.411   7.011   0.565
 4265SOL    HW113694   3.434   6.938   0.500
 4265SOL    HW213695   3.438   0.077   0.526
 4266SOL     OW13696   1.648   0.374   6.940
 4266SOL    HW113697   1.725   0.337   6.888
 4266SOL    HW213698   1.581   0.301   6.956
 4267SOL     OW13699   2.192   4.010   3.897
 4267SOL    HW113700   2.176   3.993   3.994
 4267SOL    HW213701   2.182   3.925   3.846
 4268SOL     OW13702   1.534   4.997   6.732
 4268SOL    HW113703   1.476   5.022   6.654
 4268SOL    HW213704   1.481   5.002   6.816
 4269SOL     OW13705   3.593   1.847   3.907
 4269SOL    HW113706   3.552   1.934   3.879
 4269SOL    HW213707   3.643   1.808   3.829
 4270SOL     OW13708   3.771   3.307   1.581
 4270SOL    HW113709   3.671   3.301   1.582
 4270SOL    HW213710   3.809   3.216   1.563
 4271SOL     OW13711   6.163   1.089   0.901
 4271SOL    HW113712   6.122   1.137   0.979
 4271SOL    HW213713   6.097   1.083   0.827
 4272SOL     OW13714   6.783   3.160   5.825
 4272SOL    HW113715   6.754   3.255   5.813
 4272SOL    HW213716   6.727   3.118   5.897
 4273SOL     OW13717   4.854   6.495   5.250
 4273SOL    HW113718   4.810   6.527   5.166
 4273SOL    HW213719   4.938   6.445   5.226
 4274SOL     OW13720   0.681   6.749   2.387
 4274SOL    HW113721   0.618   6.811   2.435
 4274SOL    HW213722   0.737   6.700   2.454
 4275SOL     OW13723   0.187   2.281   4.351
 4275SOL    HW113724   0.139   2.348   4.294
 4275SOL    HW213725   0.247   2.226   4.293
 4276SOL     OW13726   2.941   4.935   3.738
 4276SOL    HW113727   2.867   4.998   3.763
 4276SOL    HW213728   2.946   4.927   3.639
 4277SOL     OW13729   6.776   4.917   3.811
 4277SOL    HW113730   6.807   4.974   3.888
 4277SOL    HW213731   6.677   4.923   3.803
 4278SOL     OW13732   6.778   6.536   3.443
 4278SOL    HW113733   6.850   6.589   3.399
 4278SOL    HW213734   6.689   6.574   3.417
 4279SOL     OW13735   1.491   1.165   2.619
 4279SOL    HW113736   1.467   1.146   2.524
 4279SOL    HW213737   1.579   1.212   2.623
 4280SOL     OW13738   6.328   6.837   6.320
 4280SOL    HW113739   6.249   6.825   6.379
 4280SOL    HW213740   6.321   6.776   6.241
 4281SOL     OW13741   4.692   5.459   3.890
 4281SOL    HW113742   4.706   5.552   3.925
 4281SOL    HW213743   4.773   5.403   3.910
 4282SOL     OW13744   3.361   4.098   0.621
 4282SOL    HW113745   3.283   4.038   0.639
 4282SOL    HW213746   3.332   4.177   0.567
 4283SOL     OW13747   4.944   0.891   3.072
 4283SOL    HW113748   4.935   0.916   3.168
 4283SOL    HW213749   4.954   0.974   3.016
 4284SOL     OW13750   4.353   5.463   0.246
 4284SOL    HW113751   4.373   5.508   0.333
 4284SOL    HW213752   4.437   5.455   0.192
 4285SOL     OW13753   3.602   0.844   6.156
 4285SOL    HW113754   3.636   0.846   6.250
 4285SOL    HW213755   3.502   0.855   6.157
 4286SOL     OW13756   0.055   0.440   6.920
 4286SOL    HW113757   7.012   0.401   6.984
 4286SOL    HW213758   0.039   0.538   6.911
 4287SOL     OW13759   4.426   0.844   0.289
 4287SOL    HW113760   4.329   0.867   0.282
 4287SOL    HW213761   4.437   0.759   0.339
 4288SOL     OW13762   6.228   5.620   1.794
 4288SOL    HW113763   6.285   5.538   1.801
 4288SOL    HW213764   6.269   5.693   1.849
 4289SOL     OW13765   0.298   2.338   5.220
 4289SOL    HW113766   0.199   2.348   5.212
 4289SOL    HW213767   0.338   2.331   5.129
 4290SOL     OW13768   0.137   6.710   3.225
 4290SOL    HW113769   0.228   6.749   3.243
 4290SOL    HW213770   0.133   6.618   3.263
 4291SOL     OW13771   4.887   3.327   5.931
 4291SOL    HW113772   4.871   3.308   5.834
 4291SOL    HW213773   4.980   3.299   5.955
 4292SOL     OW13774   5.299   2.479   0.333
 4292SOL    HW113775   5.273   2.383   0.342
 4292SOL    HW213776   5.380   2.497   0.390
 4293SOL     OW13777   4.675   3.748   6.653
 4293SOL    HW113778   4.684   3.699   6.740
 4293SOL    HW213779   4.599   3.813   6.659
 4294SOL     OW13780   2.561   1.732   6.257
 4294SOL    HW113781   2.556   1.633   6.273
 4294SOL    HW213782   2.528   1.781   6.337
 4295SOL     OW13783   4.239   6.443   2.845
 4295SOL    HW113784   4.191   6.491   2.771
 4295SOL    HW213785   4.184   6.365   2.875
 4296SOL     OW13786   3.298   6.869   0.920
 4296SOL    HW113787   3.303   6.848   1.017
 4296SOL    HW213788   3.387   6.900   0.887
 4297SOL     OW13789   6.803   5.473   1.270
 4297SOL    HW113790   6.895   5.456   1.236
 4297SOL    HW213791   6.756   5.385   1.283
 4298SOL     OW13792   4.283   6.172   1.280
 4298SOL    HW113793   4.284   6.093   1.219
 4298SOL    HW213794   4.260   6.254   1.228
 4299SOL     OW13795   0.608   2.930   0.049
 4299SOL    HW113796   0.616   2.922   6.972
 4299SOL    HW213797   0.529   2.877   0.080
 4300SOL     OW13798   3.275   0.266   0.820
 4300SOL    HW113799   3.234   0.212   0.893
 4300SOL    HW213800   3.211   0.338   0.792
 4301SOL     OW13801   2.648   6.752   1.293
 4301SOL    HW113802   2.658   6.796   1.383
 4301SOL    HW213803   2.564   6.785   1.250
 4302SOL     OW13804   0.002   0.137   7.019
 4302SOL    HW113805   6.943   0.102   0.041
 4302SOL    HW213806   7.003   0.160   6.924
 4303SOL     OW13807   6.934   4.711   3.685
 4303SOL    HW113808   6.907   4.796   3.731
 4303SOL    HW213809   6.926   4.723   3.586
 4304SOL     OW13810   3.513   4.014   2.100
 4304SOL    HW113811   3.532   4.041   2.195
 4304SOL    HW213812   3.492   4.096   2.046
 4305SOL     OW13813   0.490   0.044   5.496
 4305SOL    HW113814   0.482   7.010   5.414
 4305SOL    HW213815   0.403   0.043   5.545
 4306SOL     OW13816   4.948   3.842   4.936
 4306SOL    HW113817   4.931   3.843   4.837
 4306SOL    HW213818   4.898   3.767   4.978
 4307SOL     OW13819   5.949   2.654   5.600
 4307SOL    HW113820   5.984   2.583   5.538
 4307SOL    HW213821   5.906   2.610   5.679
 4308SOL     OW13822   5.505   5.121   1.702
 4308SOL    HW113823   5.445   5.201   1.693
 4308SOL    HW213824   5.578   5.141   1.768
 4309SOL     OW13825   0.662   3.533   6.497
 4309SOL    HW113826   0.733   3.535   6.427
 4309SOL    HW213827   0.704   3.553   6.586
 4310SOL     OW13828   1.455   2.342   2.707
 4310SOL    HW113829   1.402   2.422   2.734
 4310SOL    HW213830   1.550   2.369   2.691
 4311SOL     OW13831   1.091   6.234   2.741
 4311SOL    HW113832   1.068   6.146   2.782
 4311SOL    HW213833   1.007   6.278   2.707
 4312SOL     OW13834   0.798   5.019   2.518
 4312SOL    HW113835   0.703   4.996   2.496
 4312SOL    HW213836   0.827   4.970   2.600
 4313SOL     OW13837   4.283   1.793   0.402
 4313SOL    HW113838   4.217   1.757   0.468
 4313SOL    HW213839   4.252   1.882   0.369
 4314SOL     OW13840   6.626   2.219   5.901
 4314SOL    HW113841   6.572   2.277   5.840
 4314SOL    HW213842   6.677   2.277   5.964
 4315SOL     OW13843   1.976   1.897   3.170
 4315SOL    HW113844   1.984   1.995   3.187
 4315SOL    HW213845   1.894   1.861   3.215
 4316SOL     OW13846   4.815   0.580   3.104
 4316SOL    HW113847   4.719   0.555   3.118
 4316SOL    HW213848   4.856   0.602   3.193
 4317SOL     OW13849   4.720   0.852   5.447
 4317SOL    HW113850   4.704   0.770   5.502
 4317SOL    HW213851   4.658   0.925   5.476
 4318SOL     OW13852   0.564   0.884   4.213
 4318SOL    HW113853   0.638   0.917   4.272
 4318SOL    HW213854   0.478   0.887   4.264
 4319SOL     OW13855   1.488   2.137   1.481
 4319SOL    HW113856   1.557   2.080   1.526
 4319SOL    HW213857   1.487   2.117   1.383
 4320SOL     OW13858   3.895   6.088   0.588
 4320SOL    HW113859   3.874   6.117   0.495
 4320SOL    HW213860   3.844   6.145   0.653
 4321SOL     OW13861   6.720   5.705   3.383
 4321SOL    HW113862   6.739   5.786   3.327
 4321SOL    HW213863   6.735   5.623   3.329
 4322SOL     OW13864   0.648   2.770   5.355
 4322SOL    HW113865   0.670   2.813   5.267
 4322SOL    HW213866   0.687   2.678   5.358
 4323SOL     OW13867   4.253   5.040   6.878
 4323SOL    HW113868   4.169   5.005   6.837
 4323SOL    HW213869   4.271   5.132   6.844
 4324SOL     OW13870   6.662   3.478   5.565
 4324SOL    HW113871   6.756   3.473   5.532
 4324SOL    HW213872   6.660   3.461   5.664
 4325SOL     OW13873   2.439   1.482   2.403
 4325SOL    HW113874   2.498   1.526   2.471
 4325SOL    HW213875   2.350   1.526   2.402
 4326SOL     OW13876   5.252   3.166   2.675
 4326SOL    HW113877   5.212   3.253   2.648
 4326SOL    HW213878   5.349   3.180   2.698
 4327SOL     OW13879   3.655   5.569   3.249
 4327SOL    HW113880   3.700   5.495   3.199
 4327SOL    HW213881   3.614   5.532   3.333
 4328SOL     OW13882   6.202   4.795   4.897
 4328SOL    HW113883   6.291   4.822   4.935
 4328SOL    HW213884   6.138   4.871   4.905
 4329SOL     OW13885   5.736   3.070   5.269
 4329SOL    HW113886   5.780   3.001   5.326
 4329SOL    HW213887   5.707   3.029   5.183
 4330SOL     OW13888   2.786   6.444   5.261
 4330SOL    HW113889   2.853   6.383   5.220
 4330SOL    HW213890   2.830   6.499   5.333
 4331SOL     OW13891   0.112   0.483   1.657
 4331SOL    HW113892   0.170   0.429   1.596
 4331SOL    HW213893   0.021   0.493   1.616
 4332SOL     OW13894   5.513   3.746   2.867
 4332SOL    HW113895   5.469   3.660   2.841
 4332SOL    HW213896   5.599   3.726   2.913
 4333SOL     OW13897   4.973   2.398   4.889
 4333SOL    HW113898   5.072   2.397   4.878
 4333SOL    HW213899   4.945   2.328   4.954
 4334SOL     OW13900   0.774   2.824   3.001
 4334SOL    HW113901   0.762   2.857   3.094
 4334SOL    HW213902   0.850   2.872   2.958
 4335SOL     OW13903   3.104   3.204   0.713
 4335SOL    HW113904   3.155   3.224   0.797
 4335SOL    HW213905   3.151   3.131   0.662
 4336SOL     OW13906   1.928   5.130   5.685
 4336SOL    HW113907   1.838   5.147   5.643
 4336SOL    HW213908   1.931   5.037   5.720
 4337SOL     OW13909   1.023   5.981   2.867
 4337SOL    HW113910   1.004   5.974   2.964
 4337SOL    HW213911   0.937   5.992   2.816
 4338SOL     OW13912   6.031   6.984   6.088
 4338SOL    HW113913   5.955   6.934   6.128
 4338SOL    HW213914   6.069   6.931   6.012
 4339SOL     OW13915   3.983   2.239   0.226
 4339SOL    HW113916   4.079   2.260   0.209
 4339SOL    HW213917   3.952   2.171   0.160
 4340SOL     OW13918   6.021   3.529   0.810
 4340SOL    HW113919   6.059   3.622   0.806
 4340SOL    HW213920   5.948   3.520   0.742
 4341SOL     OW13921   0.954   5.888   2.383
 4341SOL    HW113922   1.026   5.951   2.354
 4341SOL    HW213923   0.872   5.939   2.407
 4342SOL     OW13924   4.906   3.596   3.077
 4342SOL    HW113925   4.880   3.690   3.054
 4342SOL    HW213926   4.892   3.538   2.997
 4343SOL     OW13927   3.510   0.002   6.358
 4343SOL    HW113928   3.577   0.075   6.342
 4343SOL    HW213929   3.537   6.971   6.437
 4344SOL     OW13930   0.683   2.966   3.632
 4344SOL    HW113931   0.649   2.967   3.538
 4344SOL    HW213932   0.614   2.927   3.692
 4345SOL     OW13933   2.869   3.591   2.792
 4345SOL    HW113934   2.938   3.620   2.727
 4345SOL    HW213935   2.849   3.494   2.779
 4346SOL     OW13936   2.459   2.635   3.012
 4346SOL    HW113937   2.377   2.684   3.042
 4346SOL    HW213938   2.495   2.582   3.088
 4347SOL     OW13939   6.198   5.759   1.157
 4347SOL    HW113940   6.220   5.793   1.066
 4347SOL    HW213941   6.205   5.833   1.223
 4348SOL     OW13942   6.788   5.838   4.183
 4348SOL    HW113943   6.748   5.890   4.257
 4348SOL    HW213944   6.737   5.854   4.099
 4349SOL     OW13945   0.148   4.131   3.377
 4349SOL    HW113946   0.107   4.054   3.426
 4349SOL    HW213947   0.225   4.099   3.322
 4350SOL     OW13948   5.641   1.759   4.530
 4350SOL    HW113949   5.669   1.750   4.434
 4350SOL    HW213950   5.627   1.856   4.551
 4351SOL     OW13951   1.684   5.677   1.706
 4351SOL    HW113952   1.599   5.717   1.672
 4351SOL    HW213953   1.678   5.665   1.805
 4352SOL     OW13954   5.657   3.766   1.179
 4352SOL    HW113955   5.721   3.722   1.242
 4352SOL    HW213956   5.683   3.743   1.085
 4353SOL     OW13957   3.193   3.373   6.621
 4353SOL    HW113958   3.129   3.332   6.685
 4353SOL    HW213959   3.258   3.304   6.589
 4354SOL     OW13960   0.975   0.662   5.189
 4354SOL    HW113961   0.986   0.668   5.289
 4354SOL    HW213962   0.890   0.614   5.169
 4355SOL     OW13963   1.485   6.569   3.788
 4355SOL    HW113964   1.444   6.490   3.743
 4355SOL    HW213965   1.474   6.650   3.729
 4356SOL     OW13966   4.690   3.136   5.561
 4356SOL    HW113967   4.625   3.149   5.635
 4356SOL    HW213968   4.641   3.115   5.476
 4357SOL     OW13969   0.423   1.371   1.990
 4357SOL    HW113970   0.381   1.436   2.054
 4357SOL    HW213971   0.364   1.362   1.909
 4358SOL     OW13972   0.191   1.179   0.397
 4358SOL    HW113973   0.284   1.216   0.396
 4358SOL    HW213974   0.128   1.245   0.356
 4359SOL     OW13975   2.073   0.634   6.280
 4359SOL    HW113976   2.005   0.696   6.241
 4359SOL    HW213977   2.059   0.627   6.379
 4360SOL     OW13978   0.968   2.865   3.821
 4360SOL    HW113979   0.921   2.916   3.893
 4360SOL    HW213980   0.901   2.814   3.767
 4361SOL     OW13981   1.945   2.632   1.080
 4361SOL    HW113982   1.963   2.729   1.061
 4361SOL    HW213983   1.908   2.623   1.173
 4362SOL     OW13984   0.780   6.392   4.032
 4362SOL    HW113985   0.810   6.364   3.941
 4362SOL    HW213986   0.847   6.361   4.100
 4363SOL     OW13987   4.579   0.422   3.068
 4363SOL    HW113988   4.648   0.378   3.011
 4363SOL    HW213989   4.530   0.490   3.015
 4364SOL     OW13990   3.027   3.625   2.583
 4364SOL    HW113991   3.127   3.614   2.580
 4364SOL    HW213992   3.000   3.696   2.518
 4365SOL     OW13993   3.035   2.034   1.660
 4365SOL    HW113994   2.984   2.058   1.577
 4365SOL    HW213995   3.111   1.973   1.636
 4366SOL     OW13996   6.034   6.080   5.388
 4366SOL    HW113997   5.940   6.066   5.356
 4366SOL    HW213998   6.098   6.048   5.318
 4367SOL     OW13999   3.302   4.909   2.552
 4367SOL    HW114000   3.282   4.955   2.465
 4367SOL    HW214001   3.393   4.867   2.547
 4368SOL     OW14002   4.059   6.017   2.537
 4368SOL    HW114003   4.154   6.037   2.515
 4368SOL    HW214004   4.054   5.938   2.598
 4369SOL     OW14005   5.113   5.371   3.132
 4369SOL    HW114006   5.086   5.401   3.041
 4369SOL    HW214007   5.035   5.381   3.195
 4370SOL     OW14008   3.973   4.043   1.480
 4370SOL    HW114009   3.994   4.135   1.448
 4370SOL    HW214010   3.999   4.034   1.576
 4371SOL     OW14011   2.866   0.788   2.264
 4371SOL    HW114012   2.836   0.825   2.351
 4371SOL    HW214013   2.867   0.688   2.268
 4372SOL     OW14014   1.378   3.336   4.619
 4372SOL    HW114015   1.443   3.292   4.556
 4372SOL    HW214016   1.393   3.302   4.711
 4373SOL     OW14017   4.890   0.792   6.163
 4373SOL    HW114018   4.945   0.752   6.236
 4373SOL    HW214019   4.812   0.731   6.144
 4374SOL     OW14020   2.487   2.136   1.181
 4374SOL    HW114021   2.574   2.088   1.170
 4374SOL    HW214022   2.496   2.208   1.250
 4375SOL     OW14023   3.741   0.040   3.638
 4375SOL    HW114024   3.729   0.007   3.544
 4375SOL    HW214025   3.671   0.109   3.658
 4376SOL     OW14026   6.399   6.514   1.682
 4376SOL    HW114027   6.444   6.482   1.599
 4376SOL    HW214028   6.457   6.582   1.727
 4377SOL     OW14029   6.502   5.904   0.196
 4377SOL    HW114030   6.562   5.968   0.149
 4377SOL    HW214031   6.540   5.882   0.285
 4378SOL     OW14032   1.565   4.935   2.168
 4378SOL    HW114033   1.495   5.003   2.191
 4378SOL    HW214034   1.595   4.890   2.252
 4379SOL     OW14035   2.084   0.261   1.716
 4379SOL    HW114036   2.105   0.308   1.802
 4379SOL    HW214037   2.129   0.171   1.715
 4380SOL     OW14038   2.204   5.719   5.063
 4380SOL    HW114039   2.271   5.776   5.016
 4380SOL    HW214040   2.179   5.642   5.005
 4381SOL     OW14041   3.294   5.620   4.554
 4381SOL    HW114042   3.262   5.714   4.561
 4381SOL    HW214043   3.322   5.588   4.645
 4382SOL     OW14044   4.749   4.247   4.693
 4382SOL    HW114045   4.700   4.284   4.772
 4382SOL    HW214046   4.839   4.288   4.687
 4383SOL     OW14047   1.281   1.735   5.636
 4383SOL    HW114048   1.377   1.713   5.619
 4383SOL    HW214049   1.274   1.829   5.671
 4384SOL     OW14050   4.294   0.325   1.330
 4384SOL    HW114051   4.304   0.309   1.428
 4384SOL    HW214052   4.272   0.421   1.314
 4385SOL     OW14053   6.890   1.631   4.148
 4385SOL    HW114054   6.934   1.587   4.069
 4385SOL    HW214055   6.865   1.561   4.215
 4386SOL     OW14056   0.842   4.351   6.664
 4386SOL    HW114057   0.921   4.388   6.615
 4386SOL    HW214058   0.793   4.425   6.709
 4387SOL     OW14059   6.720   2.229   1.710
 4387SOL    HW114060   6.819   2.220   1.716
 4387SOL    HW214061   6.677   2.169   1.778
 4388SOL     OW14062   3.814   0.929   6.604
 4388SOL    HW114063   3.816   0.855   6.672
 4388SOL    HW214064   3.888   0.993   6.624
 4389SOL     OW14065   5.603   1.975   1.658
 4389SOL    HW114066   5.613   2.061   1.708
 4389SOL    HW214067   5.534   1.986   1.586
 4390SOL     OW14068   4.016   2.268   1.907
 4390SOL    HW114069   4.039   2.187   1.960
 4390SOL    HW214070   3.917   2.279   1.903
 4391SOL     OW14071   1.216   6.115   6.634
 4391SOL    HW114072   1.180   6.022   6.624
 4391SOL    HW214073   1.170   6.175   6.568
 4392SOL     OW14074   5.340   3.292   4.939
 4392SOL    HW114075   5.378   3.203   4.917
 4392SOL    HW214076   5.269   3.316   4.872
 4393SOL     OW14077   4.925   6.876   3.438
 4393SOL    HW114078   4.827   6.884   3.418
 4393SOL    HW214079   4.940   6.799   3.500
 4394SOL     OW14080   5.522   6.143   2.489
 4394SOL    HW114081   5.571   6.058   2.506
 4394SOL    HW214082   5.499   6.186   2.577
 4395SOL     OW14083   4.504   1.940   0.607
 4395SOL    HW114084   4.548   1.989   0.682
 4395SOL    HW214085   4.573   1.908   0.542
 4396SOL     OW14086   2.359   1.831   4.304
 4396SOL    HW114087   2.430   1.865   4.366
 4396SOL    HW214088   2.291   1.902   4.288
 4397SOL     OW14089   0.396   1.143   4.163
 4397SOL    HW114090   0.440   1.159   4.252
 4397SOL    HW214091   0.326   1.072   4.173
 4398SOL     OW14092   1.403   4.233   4.437
 4398SOL    HW114093   1.418   4.332   4.437
 4398SOL    HW214094   1.323   4.211   4.382
 4399SOL     OW14095   2.804   0.477   0.795
 4399SOL    HW114096   2.749   0.465   0.713
 4399SOL    HW214097   2.778   0.408   0.863
 4400SOL     OW14098   2.101   6.663   4.937
 4400SOL    HW114099   2.080   6.761   4.930
 4400SOL    HW214100   2.158   6.635   4.860
 4401SOL     OW14101   6.357   6.016   5.435
 4401SOL    HW114102   6.457   6.019   5.447
 4401SOL    HW214103   6.334   6.042   5.341
 4402SOL     OW14104   1.375   6.065   3.043
 4402SOL    HW114105   1.357   6.091   3.137
 4402SOL    HW214106   1.327   5.980   3.021
 4403SOL     OW14107   6.750   6.999   3.358
 4403SOL    HW114108   6.689   0.034   3.412
 4403SOL    HW214109   6.834   0.026   3.337
 4404SOL     OW14110   1.054   3.583   4.188
 4404SOL    HW114111   0.970   3.560   4.139
 4404SOL    HW214112   1.039   3.576   4.286
 4405SOL     OW14113   3.361   4.729   5.860
 4405SOL    HW114114   3.437   4.737   5.926
 4405SOL    HW214115   3.356   4.636   5.826
 4406SOL     OW14116   4.996   4.630   1.168
 4406SOL    HW114117   4.935   4.611   1.092
 4406SOL    HW214118   4.947   4.680   1.239
 4407SOL     OW14119   0.041   5.569   0.705
 4407SOL    HW114120   0.088   5.643   0.752
 4407SOL    HW214121   0.105   5.493   0.691
 4408SOL     OW14122   4.718   0.544   1.018
 4408SOL    HW114123   4.725   0.613   0.947
 4408SOL    HW214124   4.623   0.515   1.029
 4409SOL     OW14125   3.722   1.031   1.922
 4409SOL    HW114126   3.752   0.935   1.915
 4409SOL    HW214127   3.788   1.082   1.977
 4410SOL     OW14128   1.835   4.477   0.121
 4410SOL    HW114129   1.834   4.444   0.215
 4410SOL    HW214130   1.927   4.470   0.084
 4411SOL     OW14131   3.546   3.053   3.019
 4411SOL    HW114132   3.563   3.084   2.925
 4411SOL    HW214133   3.544   3.132   3.080
 4412SOL     OW14134   4.356   1.678   5.189
 4412SOL    HW114135   4.269   1.726   5.176
 4412SOL    HW214136   4.406   1.719   5.265
 4413SOL     OW14137   4.850   5.823   4.873
 4413SOL    HW114138   4.913   5.818   4.795
 4413SOL    HW214139   4.820   5.917   4.886
 4414SOL     OW14140   4.884   4.663   2.233
 4414SOL    HW114141   4.800   4.704   2.268
 4414SOL    HW214142   4.862   4.595   2.164
 4415SOL     OW14143   5.295   3.291   6.284
 4415SOL    HW114144   5.207   3.244   6.291
 4415SOL    HW214145   5.329   3.312   6.375
 4416SOL     OW14146   2.850   1.888   4.200
 4416SOL    HW114147   2.886   1.941   4.123
 4416SOL    HW214148   2.762   1.926   4.228
 4417SOL     OW14149   0.163   4.714   2.703
 4417SOL    HW114150   0.093   4.728   2.774
 4417SOL    HW214151   0.133   4.757   2.618
 4418SOL     OW14152   4.173   6.591   3.922
 4418SOL    HW114153   4.257   6.643   3.902
 4418SOL    HW214154   4.142   6.545   3.839
 4419SOL     OW14155   5.810   5.537   0.350
 4419SOL    HW114156   5.813   5.632   0.380
 4419SOL    HW214157   5.723   5.496   0.378
 4420SOL     OW14158   4.258   0.974   0.633
 4420SOL    HW114159   4.297   0.884   0.610
 4420SOL    HW214160   4.267   0.989   0.732
 4421SOL     OW14161   1.933   1.587   2.787
 4421SOL    HW114162   1.975   1.555   2.702
 4421SOL    HW214163   1.987   1.555   2.865
 4422SOL     OW14164   2.514   3.350   5.654
 4422SOL    HW114165   2.440   3.378   5.715
 4422SOL    HW214166   2.520   3.413   5.576
 4423SOL     OW14167   0.804   2.545   5.565
 4423SOL    HW114168   0.752   2.496   5.636
 4423SOL    HW214169   0.761   2.529   5.476
 4424SOL     OW14170   4.999   0.178   3.438
 4424SOL    HW114171   4.938   0.196   3.515
 4424SOL    HW214172   4.948   0.131   3.365
 4425SOL     OW14173   3.879   5.703   6.328
 4425SOL    HW114174   3.791   5.748   6.345
 4425SOL    HW214175   3.933   5.759   6.265
 4426SOL     OW14176   6.774   1.138   5.249
 4426SOL    HW114177   6.696   1.118   5.307
 4426SOL    HW214178   6.765   1.087   5.163
 4427SOL     OW14179   0.208   0.396   2.611
 4427SOL    HW114180   0.152   0.476   2.630
 4427SOL    HW214181   0.161   0.314   2.644
 4428SOL     OW14182   2.805   4.719   3.908
 4428SOL    HW114183   2.844   4.780   3.977
 4428SOL    HW214184   2.828   4.753   3.817
 4429SOL     OW14185   3.263   0.267   3.766
 4429SOL    HW114186   3.240   0.181   3.722
 4429SOL    HW214187   3.296   0.249   3.859
 4430SOL     OW14188   4.623   2.636   3.696
 4430SOL    HW114189   4.553   2.567   3.714
 4430SOL    HW214190   4.711   2.605   3.733
 4431SOL     OW14191   2.855   1.358   2.583
 4431SOL    HW114192   2.906   1.349   2.668
 4431SOL    HW214193   2.912   1.330   2.506
 4432SOL     OW14194   3.479   2.943   3.829
 4432SOL    HW114195   3.389   2.931   3.871
 4432SOL    HW214196   3.478   2.907   3.736
 4433SOL     OW14197   6.590   6.872   4.151
 4433SOL    HW114198   6.636   6.831   4.072
 4433SOL    HW214199   6.518   6.933   4.118
 4434SOL     OW14200   4.995   1.293   4.158
 4434SOL    HW114201   5.014   1.207   4.112
 4434SOL    HW214202   4.993   1.367   4.090
 4435SOL     OW14203   4.040   3.565   0.647
 4435SOL    HW114204   4.055   3.656   0.609
 4435SOL    HW214205   4.014   3.573   0.743
 4436SOL     OW14206   3.225   2.094   6.904
 4436SOL    HW114207   3.232   2.192   6.887
 4436SOL    HW214208   3.281   2.044   6.838
 4437SOL     OW14209   4.588   0.934   4.114
 4437SOL    HW114210   4.611   0.874   4.038
 4437SOL    HW214211   4.661   0.930   4.182
 4438SOL     OW14212   4.549   1.588   6.916
 4438SOL    HW114213   4.647   1.596   6.936
 4438SOL    HW214214   4.527   1.645   6.837
 4439SOL     OW14215   0.738   5.223   1.343
 4439SOL    HW114216   0.702   5.286   1.274
 4439SOL    HW214217   0.663   5.171   1.383
 4440SOL     OW14218   1.803   5.722   6.490
 4440SOL    HW114219   1.880   5.779   6.517
 4440SOL    HW214220   1.836   5.634   6.455
 4441SOL     OW14221   6.336   1.500   1.760
 4441SOL    HW114222   6.381   1.553   1.689
 4441SOL    HW214223   6.307   1.561   1.834
 4442SOL     OW14224   2.887   6.465   3.749
 4442SOL    HW114225   2.842   6.385   3.789
 4442SOL    HW214226   2.901   6.449   3.651
 4443SOL     OW14227   1.117   2.349   6.548
 4443SOL    HW114228   1.092   2.434   6.502
 4443SOL    HW214229   1.066   2.341   6.634
 4444SOL     OW14230   4.025   6.236   6.272
 4444SOL    HW114231   3.962   6.224   6.195
 4444SOL    HW214232   3.974   6.267   6.352
 4445SOL     OW14233   1.284   0.890   6.374
 4445SOL    HW114234   1.230   0.946   6.437
 4445SOL    HW214235   1.316   0.808   6.421
 4446SOL     OW14236   6.146   0.964   1.303
 4446SOL    HW114237   6.135   0.937   1.208
 4446SOL    HW214238   6.196   1.050   1.308
 4447SOL     OW14239   5.294   3.318   5.515
 4447SOL    HW114240   5.314   3.408   5.476
 4447SOL    HW214241   5.195   3.302   5.512
 4448SOL     OW14242   2.743   4.007   0.449
 4448SOL    HW114243   2.686   4.029   0.370
 4448SOL    HW214244   2.798   3.925   0.429
 4449SOL     OW14245   3.705   0.544   6.240
 4449SOL    HW114246   3.684   0.642   6.248
 4449SOL    HW214247   3.737   0.524   6.148
 4450SOL     OW14248   3.825   3.040   3.279
 4450SOL    HW114249   3.767   2.968   3.242
 4450SOL    HW214250   3.879   3.080   3.205
 4451SOL     OW14251   5.773   4.238   2.443
 4451SOL    HW114252   5.829   4.203   2.368
 4451SOL    HW214253   5.796   4.189   2.527
 4452SOL     OW14254   6.205   6.396   4.644
 4452SOL    HW114255   6.253   6.481   4.624
 4452SOL    HW214256   6.108   6.406   4.622
 4453SOL     OW14257   5.949   3.070   0.291
 4453SOL    HW114258   5.985   2.982   0.259
 4453SOL    HW214259   6.024   3.135   0.301
 4454SOL     OW14260   5.218   2.061   0.730
 4454SOL    HW114261   5.148   2.001   0.690
 4454SOL    HW214262   5.302   2.009   0.744
 4455SOL     OW14263   3.004   6.181   1.000
 4455SOL    HW114264   3.012   6.158   0.903
 4455SOL    HW214265   2.948   6.113   1.047
 4456SOL     OW14266   2.402   5.073   2.345
 4456SOL    HW114267   2.400   5.001   2.414
 4456SOL    HW214268   2.323   5.064   2.285
 4457SOL     OW14269   4.168   2.586   0.105
 4457SOL    HW114270   4.111   2.605   0.185
 4457SOL    HW214271   4.230   2.510   0.126
 4458SOL     OW14272   1.927   3.630   6.451
 4458SOL    HW114273   1.910   3.612   6.354
 4458SOL    HW214274   2.022   3.661   6.463
 4459SOL     OW14275   5.429   0.150   4.160
 4459SOL    HW114276   5.460   0.091   4.235
 4459SOL    HW214277   5.483   0.234   4.160
 4460SOL     OW14278   2.411   3.094   6.664
 4460SOL    HW114279   2.432   3.081   6.761
 4460SOL    HW214280   2.374   3.009   6.626
 4461SOL     OW14281   1.239   0.300   2.591
 4461SOL    HW114282   1.155   0.281   2.642
 4461SOL    HW214283   1.318   0.269   2.645
 4462SOL     OW14284   6.738   4.158   1.034
 4462SOL    HW114285   6.802   4.081   1.039
 4462SOL    HW214286   6.663   4.144   1.099
 4463SOL     OW14287   2.027   2.763   6.981
 4463SOL    HW114288   2.034   2.729   0.052
 4463SOL    HW214289   1.931   2.770   6.955
 4464SOL     OW14290   6.113   5.309   0.489
 4464SOL    HW114291   6.093   5.304   0.586
 4464SOL    HW214292   6.168   5.391   0.470
 4465SOL     OW14293   2.018   5.855   3.052
 4465SOL    HW114294   2.012   5.953   3.038
 4465SOL    HW214295   2.112   5.830   3.076
 4466SOL     OW14296   1.261   0.798   2.805
 4466SOL    HW114297   1.216   0.830   2.722
 4466SOL    HW214298   1.192   0.764   2.869
 4467SOL     OW14299   0.686   6.865   3.607
 4467SOL    HW114300   0.750   6.797   3.643
 4467SOL    HW214301   0.606   6.871   3.668
 4468SOL     OW14302   0.866   2.091   0.393
 4468SOL    HW114303   0.897   2.144   0.472
 4468SOL    HW214304   0.776   2.051   0.413
 4469SOL     OW14305   3.015   6.555   1.233
 4469SOL    HW114306   3.057   6.644   1.216
 4469SOL    HW214307   2.999   6.545   1.331
 4470SOL     OW14308   5.821   3.340   1.948
 4470SOL    HW114309   5.845   3.433   1.974
 4470SOL    HW214310   5.724   3.336   1.924
 4471SOL     OW14311   0.387   2.859   0.203
 4471SOL    HW114312   0.335   2.929   0.155
 4471SOL    HW214313   0.468   2.900   0.246
 4472SOL     OW14314   1.478   4.215   2.769
 4472SOL    HW114315   1.426   4.290   2.811
 4472SOL    HW214316   1.441   4.195   2.679
 4473SOL     OW14317   0.511   0.708   4.976
 4473SOL    HW114318   0.471   0.704   5.067
 4473SOL    HW214319   0.471   0.636   4.919
 4474SOL     OW14320   3.476   0.598   2.497
 4474SOL    HW114321   3.436   0.556   2.416
 4474SOL    HW214322   3.491   0.695   2.480
 4475SOL     OW14323   1.877   3.945   1.331
 4475SOL    HW114324   1.827   4.028   1.311
 4475SOL    HW214325   1.856   3.915   1.425
 4476SOL     OW14326   5.496   6.592   3.274
 4476SOL    HW114327   5.565   6.527   3.305
 4476SOL    HW214328   5.535   6.653   3.205
 4477SOL     OW14329   1.661   0.340   6.412
 4477SOL    HW114330   1.646   0.241   6.403
 4477SOL    HW214331   1.685   0.378   6.323
 4478SOL     OW14332   2.167   6.472   2.790
 4478SOL    HW114333   2.105   6.413   2.842
 4478SOL    HW214334   2.183   6.557   2.840
 4479SOL     OW14335   1.447   0.735   6.585
 4479SOL    HW114336   1.426   0.646   6.543
 4479SOL    HW214337   1.372   0.761   6.645
 4480SOL     OW14338   2.105   3.344   4.410
 4480SOL    HW114339   2.176   3.288   4.454
 4480SOL    HW214340   2.015   3.309   4.436
 4481SOL     OW14341   2.042   6.725   4.228
 4481SOL    HW114342   2.030   6.716   4.327
 4481SOL    HW214343   2.138   6.743   4.207
 4482SOL     OW14344   0.498   3.634   3.692
 4482SOL    HW114345   0.545   3.560   3.741
 4482SOL    HW214346   0.565   3.699   3.657
 4483SOL     OW14347   6.350   2.688   1.160
 4483SOL    HW114348   6.401   2.692   1.074
 4483SOL    HW214349   6.411   2.663   1.235
 4484SOL     OW14350   3.657   1.744   5.577
 4484SOL    HW114351   3.607   1.691   5.508
 4484SOL    HW214352   3.693   1.827   5.534
 4485SOL     OW14353   5.236   2.216   6.462
 4485SOL    HW114354   5.317   2.161   6.483
 4485SOL    HW214355   5.255   2.272   6.381
 4486SOL     OW14356   6.439   3.665   4.527
 4486SOL    HW114357   6.481   3.616   4.450
 4486SOL    HW214358   6.350   3.700   4.500
 4487SOL     OW14359   2.477   3.667   6.831
 4487SOL    HW114360   2.481   3.633   6.737
 4487SOL    HW214361   2.530   3.606   6.890
 4488SOL     OW14362   5.119   2.482   6.599
 4488SOL    HW114363   5.190   2.412   6.594
 4488SOL    HW214364   5.107   2.509   6.695
 4489SOL     OW14365   5.452   6.227   4.197
 4489SOL    HW114366   5.502   6.172   4.129
 4489SOL    HW214367   5.415   6.308   4.152
 4490SOL     OW14368   5.531   1.981   1.964
 4490SOL    HW114369   5.588   1.982   1.882
 4490SOL    HW214370   5.487   2.070   1.975
 4491SOL     OW14371   0.941   2.963   3.297
 4491SOL    HW114372   0.881   3.011   3.362
 4491SOL    HW214373   0.974   3.028   3.228
 4492SOL     OW14374   5.365   3.037   0.579
 4492SOL    HW114375   5.268   3.055   0.562
 4492SOL    HW214376   5.402   3.109   0.639
 4493SOL     OW14377   3.828   4.924   4.494
 4493SOL    HW114378   3.786   4.888   4.577
 4493SOL    HW214379   3.890   4.998   4.517
 4494SOL     OW14380   6.729   2.368   6.161
 4494SOL    HW114381   6.729   2.275   6.197
 4494SOL    HW214382   6.810   2.417   6.194
 4495SOL     OW14383   5.231   0.028   3.490
 4495SOL    HW114384   5.154   0.084   3.460
 4495SOL    HW214385   5.248   6.979   3.422
 4496SOL     OW14386   5.271   5.102   0.715
 4496SOL    HW114387   5.181   5.141   0.731
 4496SOL    HW214388   5.299   5.121   0.621
 4497SOL     OW14389   4.984   6.226   6.978
 4497SOL    HW114390   5.046   6.213   0.032
 4497SOL    HW214391   5.037   6.247   6.896
 4498SOL     OW14392   0.332   3.318   6.486
 4498SOL    HW114393   0.309   3.411   6.517
 4498SOL    HW214394   0.417   3.289   6.530
 4499SOL     OW14395   6.541   3.147   4.228
 4499SOL    HW114396   6.563   3.208   4.304
 4499SOL    HW214397   6.624   3.100   4.198
 4500SOL     OW14398   3.056   3.657   3.953
 4500SOL    HW114399   2.999   3.718   3.897
 4500SOL    HW214400   3.119   3.608   3.893
 4501SOL     OW14401   0.457   3.765   5.529
 4501SOL    HW114402   0.487   3.832   5.597
 4501SOL    HW214403   0.399   3.810   5.461
 4502SOL     OW14404   2.046   2.888   6.184
 4502SOL    HW114405   2.087   2.808   6.227
 4502SOL    HW214406   1.994   2.860   6.103
 4503SOL     OW14407   1.916   0.698   3.065
 4503SOL    HW114408   1.898   0.627   3.133
 4503SOL    HW214409   1.831   0.746   3.043
 4504SOL     OW14410   6.456   2.213   5.434
 4504SOL    HW114411   6.518   2.248   5.363
 4504SOL    HW214412   6.385   2.157   5.392
 4505SOL     OW14413   0.345   6.263   4.682
 4505SOL    HW114414   0.337   6.235   4.587
 4505SOL    HW214415   0.382   6.356   4.687
 4506SOL     OW14416   4.654   2.248   4.294
 4506SOL    HW114417   4.665   2.149   4.288
 4506SOL    HW214418   4.559   2.271   4.311
 4507SOL     OW14419   4.871   4.447   1.601
 4507SOL    HW114420   4.802   4.376   1.616
 4507SOL    HW214421   4.908   4.476   1.689
 4508SOL     OW14422   1.304   4.383   6.797
 4508SOL    HW114423   1.353   4.343   6.720
 4508SOL    HW214424   1.287   4.313   6.866
 4509SOL     OW14425   4.586   1.687   4.261
 4509SOL    HW114426   4.632   1.774   4.278
 4509SOL    HW214427   4.623   1.646   4.177
 4510SOL     OW14428   5.460   0.053   4.775
 4510SOL    HW114429   5.530   0.071   4.844
 4510SOL    HW214430   5.471   6.982   4.741
 4511SOL     OW14431   0.023   3.400   6.234
 4511SOL    HW114432   0.115   3.438   6.233
 4511SOL    HW214433   7.006   3.405   6.142
 4512SOL     OW14434   2.418   6.815   5.804
 4512SOL    HW114435   2.443   6.864   5.721
 4512SOL    HW214436   2.501   6.791   5.855
 4513SOL     OW14437   4.679   6.889   1.034
 4513SOL    HW114438   4.729   6.862   1.116
 4513SOL    HW214439   4.661   6.807   0.978
 4514SOL     OW14440   4.192   0.888   4.690
 4514SOL    HW114441   4.146   0.977   4.694
 4514SOL    HW214442   4.277   0.893   4.743
 4515SOL     OW14443   6.438   3.817   6.565
 4515SOL    HW114444   6.402   3.894   6.512
 4515SOL    HW214445   6.468   3.850   6.655
 4516SOL     OW14446   1.038   1.690   6.427
 4516SOL    HW114447   1.021   1.698   6.525
 4516SOL    HW214448   0.985   1.613   6.390
 4517SOL     OW14449   2.615   0.165   6.106
 4517SOL    HW114450   2.667   0.163   6.191
 4517SOL    HW214451   2.548   0.090   6.106
 4518SOL     OW14452   7.000   2.193   4.030
 4518SOL    HW114453   6.903   2.198   4.052
 4518SOL    HW214454   7.014   2.216   3.934
 4519SOL     OW14455   6.884   1.460   2.332
 4519SOL    HW114456   6.856   1.552   2.305
 4519SOL    HW214457   6.983   1.451   2.318
 4520SOL     OW14458   5.424   5.184   2.612
 4520SOL    HW114459   5.502   5.192   2.549
 4520SOL    HW214460   5.360   5.116   2.576
 4521SOL     OW14461   4.556   1.599   6.014
 4521SOL    HW114462   4.626   1.638   5.955
 4521SOL    HW214463   4.508   1.673   6.061
 4522SOL     OW14464   5.006   0.021   3.687
 4522SOL    HW114465   4.948   0.103   3.684
 4522SOL    HW214466   5.005   6.998   3.598
 4523SOL     OW14467   1.351   3.940   6.933
 4523SOL    HW114468   1.383   3.906   7.022
 4523SOL    HW214469   1.267   3.892   6.907
 4524SOL     OW14470   4.998   2.070   5.733
 4524SOL    HW114471   5.092   2.037   5.724
 4524SOL    HW214472   4.960   2.038   5.820
 4525SOL     OW14473   6.703   2.222   3.716
 4525SOL    HW114474   6.649   2.181   3.790
 4525SOL    HW214475   6.667   2.313   3.695
 4526SOL     OW14476   5.112   0.352   1.361
 4526SOL    HW114477   5.175   0.332   1.436
 4526SOL    HW214478   5.145   0.432   1.310
 4527SOL     OW14479   4.264   1.284   3.908
 4527SOL    HW114480   4.195   1.282   3.980
 4527SOL    HW214481   4.335   1.351   3.931
 4528SOL     OW14482   4.994   6.425   0.433
 4528SOL    HW114483   4.903   6.417   0.393
 4528SOL    HW214484   5.002   6.510   0.484
 4529SOL     OW14485   2.443   1.303   3.216
 4529SOL    HW114486   2.436   1.205   3.203
 4529SOL    HW214487   2.503   1.322   3.294
 4530SOL     OW14488   0.285   3.538   5.504
 4530SOL    HW114489   0.351   3.600   5.461
 4530SOL    HW214490   0.210   3.592   5.544
 4531SOL     OW14491   0.724   3.766   3.235
 4531SOL    HW114492   0.814   3.756   3.278
 4531SOL    HW214493   0.701   3.682   3.186
 4532SOL     OW14494   0.371   1.034   2.451
 4532SOL    HW114495   0.284   0.987   2.465
 4532SOL    HW214496   0.371   1.079   2.361
 4533SOL     OW14497   1.512   0.228   3.722
 4533SOL    HW114498   1.494   0.133   3.749
 4533SOL    HW214499   1.602   0.233   3.678
 4534SOL     OW14500   6.288   3.339   4.493
 4534SOL    HW114501   6.238   3.255   4.476
 4534SOL    HW214502   6.229   3.418   4.476
 4535SOL     OW14503   4.604   2.190   2.556
 4535SOL    HW114504   4.592   2.101   2.601
 4535SOL    HW214505   4.518   2.219   2.515
 4536SOL     OW14506   4.913   1.593   4.608
 4536SOL    HW114507   4.919   1.613   4.510
 4536SOL    HW214508   4.857   1.662   4.653
 4537SOL     OW14509   3.826   3.128   6.443
 4537SOL    HW114510   3.821   3.222   6.411
 4537SOL    HW214511   3.737   3.083   6.432
 4538SOL     OW14512   3.438   2.001   4.270
 4538SOL    HW114513   3.373   1.928   4.288
 4538SOL    HW214514   3.521   1.985   4.323
 4539SOL     OW14515   2.666   2.036   4.302
 4539SOL    HW114516   2.701   2.130   4.297
 4539SOL    HW214517   2.616   2.023   4.387
 4540SOL     OW14518   4.046   3.753   3.444
 4540SOL    HW114519   4.058   3.723   3.350
 4540SOL    HW214520   4.036   3.673   3.504
 4541SOL     OW14521   5.599   0.713   0.306
 4541SOL    HW114522   5.641   0.757   0.385
 4541SOL    HW214523   5.501   0.733   0.305
 4542SOL     OW14524   5.906   6.087   1.813
 4542SOL    HW114525   5.897   6.135   1.725
 4542SOL    HW214526   5.892   6.152   1.888
 4543SOL     OW14527   4.531   1.335   6.760
 4543SOL    HW114528   4.578   1.402   6.818
 4543SOL    HW214529   4.529   1.369   6.666
 4544SOL     OW14530   2.491   6.112   6.198
 4544SOL    HW114531   2.505   6.055   6.117
 4544SOL    HW214532   2.475   6.207   6.170
 4545SOL     OW14533   5.290   2.295   5.158
 4545SOL    HW114534   5.375   2.300   5.212
 4545SOL    HW214535   5.213   2.279   5.220
 4546SOL     OW14536   1.129   0.049   5.869
 4546SOL    HW114537   1.085   6.987   5.899
 4546SOL    HW214538   1.078   0.087   5.792
 4547SOL     OW14539   6.251   3.118   1.890
 4547SOL    HW114540   6.209   3.135   1.979
 4547SOL    HW214541   6.341   3.161   1.886
 4548SOL     OW14542   1.405   4.430   4.154
 4548SOL    HW114543   1.314   4.466   4.135
 4548SOL    HW214544   1.438   4.466   4.242
 4549SOL     OW14545   6.327   4.413   2.681
 4549SOL    HW114546   6.334   4.378   2.775
 4549SOL    HW214547   6.365   4.505   2.677
 4550SOL     OW14548   0.594   5.820   3.824
 4550SOL    HW114549   0.586   5.844   3.921
 4550SOL    HW214550   0.515   5.764   3.797
 4551SOL     OW14551   0.294   1.737   5.669
 4551SOL    HW114552   0.280   1.669   5.741
 4551SOL    HW214553   0.376   1.791   5.690
 4552SOL     OW14554   6.915   2.939   6.233
 4552SOL    HW114555   6.836   2.899   6.188
 4552SOL    HW214556   6.885   3.012   6.294
 4553SOL     OW14557   3.704   4.069   0.224
 4553SOL    HW114558   3.605   4.079   0.224
 4553SOL    HW214559   3.745   4.135   0.287
 4554SOL     OW14560   3.931   0.896   2.278
 4554SOL    HW114561   4.025   0.881   2.248
 4554SOL    HW214562   3.924   0.877   2.376
 4555SOL     OW14563   4.266   1.129   6.683
 4555SOL    HW114564   4.239   1.197   6.615
 4555SOL    HW214565   4.250   1.166   6.775
 4556SOL     OW14566   4.413   1.602   3.903
 4556SOL    HW114567   4.473   1.655   3.963
 4556SOL    HW214568   4.464   1.526   3.863
 4557SOL     OW14569   5.336   0.343   4.870
 4557SOL    HW114570   5.377   0.258   4.836
 4557SOL    HW214571   5.236   0.334   4.871
 4558SOL     OW14572   6.670   4.044   6.110
 4558SOL    HW114573   6.718   4.072   6.026
 4558SOL    HW214574   6.603   4.115   6.134
 4559SOL     OW14575   1.720   6.795   2.206
 4559SOL    HW114576   1.812   6.798   2.167
 4559SOL    HW214577   1.659   6.855   2.153
 4560SOL     OW14578   5.159   4.424   3.175
 4560SOL    HW114579   5.157   4.518   3.141
 4560SOL    HW214580   5.089   4.412   3.245
 4561SOL     OW14581   2.725   0.429   1.044
 4561SOL    HW114582   2.666   0.507   1.065
 4561SOL    HW214583   2.794   0.418   1.115
 4562SOL     OW14584   3.060   5.750   5.338
 4562SOL    HW114585   3.044   5.672   5.398
 4562SOL    HW214586   3.148   5.792   5.361
 4563SOL     OW14587   6.233   3.721   0.199
 4563SOL    HW114588   6.288   3.716   0.115
 4563SOL    HW214589   6.138   3.697   0.178
 4564SOL     OW14590   1.389   5.443   1.162
 4564SOL    HW114591   1.475   5.447   1.111
 4564SOL    HW214592   1.409   5.444   1.260
 4565SOL     OW14593   0.657   1.278   5.287
 4565SOL    HW114594   0.605   1.363   5.300
 4565SOL    HW214595   0.728   1.293   5.218
 4566SOL     OW14596   6.914   0.333   0.717
 4566SOL    HW114597   6.851   0.305   0.645
 4566SOL    HW214598   7.008   0.311   0.690
 4567SOL     OW14599   0.438   0.911   0.944
 4567SOL    HW114600   0.429   0.818   0.909
 4567SOL    HW214601   0.435   0.976   0.868
 4568SOL     OW14602   1.558   3.744   5.518
 4568SOL    HW114603   1.601   3.674   5.461
 4568SOL    HW214604   1.476   3.706   5.562
 4569SOL     OW14605   2.095   2.137   3.623
 4569SOL    HW114606   2.098   2.060   3.687
 4569SOL    HW214607   2.012   2.190   3.638
 4570SOL     OW14608   0.134   5.986   3.553
 4570SOL    HW114609   0.101   5.976   3.647
 4570SOL    HW214610   0.068   6.039   3.500
 4571SOL     OW14611   3.525   3.812   5.429
 4571SOL    HW114612   3.599   3.847   5.370
 4571SOL    HW214613   3.466   3.751   5.376
 4572SOL     OW14614   0.451   6.976   1.012
 4572SOL    HW114615   0.364   7.013   1.042
 4572SOL    HW214616   0.482   6.906   1.077
 4573SOL     OW14617   6.051   5.889   0.624
 4573SOL    HW114618   6.146   5.920   0.625
 4573SOL    HW214619   6.020   5.876   0.719
 4574SOL     OW14620   6.929   4.358   0.720
 4574SOL    HW114621   6.923   4.363   0.620
 4574SOL    HW214622   6.888   4.441   0.759
 4575SOL     OW14623   0.117   2.165   0.566
 4575SOL    HW114624   0.074   2.118   0.489
 4575SOL    HW214625   0.202   2.208   0.536
 4576SOL     OW14626   2.633   5.459   5.968
 4576SOL    HW114627   2.622   5.372   5.922
 4576SOL    HW214628   2.712   5.454   6.030
 4577SOL     OW14629   0.255   3.480   2.969
 4577SOL    HW114630   0.303   3.393   2.980
 4577SOL    HW214631   0.294   3.548   3.030
 4578SOL     OW14632   0.684   4.220   3.311
 4578SOL    HW114633   0.679   4.122   3.291
 4578SOL    HW214634   0.780   4.247   3.318
 4579SOL     OW14635   4.517   1.629   3.023
 4579SOL    HW114636   4.587   1.585   3.079
 4579SOL    HW214637   4.527   1.600   2.928
 4580SOL     OW14638   5.827   5.036   0.508
 4580SOL    HW114639   5.913   4.986   0.493
 4580SOL    HW214640   5.757   4.999   0.447
 4581SOL     OW14641   2.914   5.054   2.454
 4581SOL    HW114642   2.873   5.070   2.364
 4581SOL    HW214643   2.944   4.959   2.460
 4582SOL     OW14644   6.055   6.589   4.121
 4582SOL    HW114645   6.019   6.637   4.201
 4582SOL    HW214646   6.135   6.535   4.147
 4583SOL     OW14647   3.016   1.748   5.219
 4583SOL    HW114648   3.018   1.776   5.123
 4583SOL    HW214649   3.054   1.821   5.275
 4584SOL     OW14650   0.412   5.755   6.067
 4584SOL    HW114651   0.504   5.722   6.085
 4584SOL    HW214652   0.355   5.740   6.148
 4585SOL     OW14653   2.681   6.318   3.094
 4585SOL    HW114654   2.613   6.391   3.101
 4585SOL    HW214655   2.702   6.301   2.998
 4586SOL     OW14656   3.599   4.794   1.378
 4586SOL    HW114657   3.644   4.754   1.298
 4586SOL    HW214658   3.535   4.865   1.348
 4587SOL     OW14659   4.310   3.851   1.697
 4587SOL    HW114660   4.269   3.816   1.781
 4587SOL    HW214661   4.275   3.799   1.619
 4588SOL     OW14662   3.777   3.365   4.845
 4588SOL    HW114663   3.855   3.353   4.905
 4588SOL    HW214664   3.700   3.310   4.878
 4589SOL     OW14665   5.958   1.849   2.770
 4589SOL    HW114666   5.915   1.786   2.835
 4589SOL    HW214667   5.888   1.906   2.727
 4590SOL     OW14668   4.490   5.950   1.555
 4590SOL    HW114669   4.522   5.938   1.650
 4590SOL    HW214670   4.426   6.027   1.551
 4591SOL     OW14671   0.002   6.299   5.353
 4591SOL    HW114672   0.051   6.236   5.292
 4591SOL    HW214673   0.062   6.375   5.378
 4592SOL     OW14674   3.975   3.088   1.579
 4592SOL    HW114675   4.003   3.106   1.485
 4592SOL    HW214676   3.939   2.995   1.586
 4593SOL     OW14677   4.503   5.450   3.412
 4593SOL    HW114678   4.587   5.417   3.456
 4593SOL    HW214679   4.510   5.548   3.396
 4594SOL     OW14680   4.153   1.702   1.556
 4594SOL    HW114681   4.128   1.617   1.603
 4594SOL    HW214682   4.070   1.753   1.533
 4595SOL     OW14683   3.584   2.981   5.930
 4595SOL    HW114684   3.523   2.903   5.914
 4595SOL    HW214685   3.619   3.015   5.843
 4596SOL     OW14686   5.835   6.633   1.628
 4596SOL    HW114687   5.935   6.632   1.628
 4596SOL    HW214688   5.800   6.558   1.572
 4597SOL     OW14689   4.919   4.836   6.670
 4597SOL    HW114690   4.956   4.744   6.663
 4597SOL    HW214691   4.823   4.832   6.699
 4598SOL     OW14692   0.676   4.820   6.464
 4598SOL    HW114693   0.632   4.731   6.471
 4598SOL    HW214694   0.636   4.883   6.530
 4599SOL     OW14695   1.501   3.428   1.365
 4599SOL    HW114696   1.542   3.514   1.335
 4599SOL    HW214697   1.407   3.423   1.332
 4600SOL     OW14698   2.918   5.199   6.067
 4600SOL    HW114699   2.858   5.174   5.990
 4600SOL    HW214700   2.992   5.257   6.035
 4601SOL     OW14701   1.875   1.363   5.400
 4601SOL    HW114702   1.965   1.359   5.445
 4601SOL    HW214703   1.888   1.373   5.301
 4602SOL     OW14704   1.164   6.248   1.109
 4602SOL    HW114705   1.113   6.258   1.195
 4602SOL    HW214706   1.225   6.327   1.097
 4603SOL     OW14707   3.694   6.361   1.103
 4603SOL    HW114708   3.698   6.371   1.004
 4603SOL    HW214709   3.681   6.450   1.146
 4604SOL     OW14710   4.046   1.148   1.104
 4604SOL    HW114711   4.075   1.224   1.046
 4604SOL    HW214712   4.063   1.171   1.200
 4605SOL     OW14713   4.961   0.635   4.069
 4605SOL    HW114714   4.978   0.714   4.128
 4605SOL    HW214715   4.973   0.662   3.973
 4606SOL     OW14716   0.004   6.461   2.313
 4606SOL    HW114717   7.017   6.439   2.410
 4606SOL    HW214718   6.966   6.538   2.291
 4607SOL     OW14719   2.449   1.772   0.584
 4607SOL    HW114720   2.439   1.866   0.551
 4607SOL    HW214721   2.535   1.734   0.550
 4608SOL     OW14722   1.286   5.168   4.779
 4608SOL    HW114723   1.242   5.200   4.863
 4608SOL    HW214724   1.248   5.078   4.754
 4609SOL     OW14725   4.437   5.321   6.093
 4609SOL    HW114726   4.429   5.224   6.072
 4609SOL    HW214727   4.388   5.342   6.177
 4610SOL     OW14728   6.856   2.631   0.472
 4610SOL    HW114729   6.777   2.577   0.442
 4610SOL    HW214730   6.905   2.582   0.544
 4611SOL     OW14731   6.477   4.219   6.174
 4611SOL    HW114732   6.491   4.304   6.225
 4611SOL    HW214733   6.424   4.155   6.230
 4612SOL     OW14734   1.514   6.587   6.924
 4612SOL    HW114735   1.579   6.606   6.997
 4612SOL    HW214736   1.424   6.624   6.949
 4613SOL     OW14737   2.366   6.147   2.855
 4613SOL    HW114738   2.385   6.239   2.820
 4613SOL    HW214739   2.368   6.082   2.779
 4614SOL     OW14740   1.545   4.999   6.080
 4614SOL    HW114741   1.465   4.956   6.039
 4614SOL    HW214742   1.568   4.952   6.166
 4615SOL     OW14743   2.072   1.515   6.830
 4615SOL    HW114744   2.044   1.419   6.837
 4615SOL    HW214745   2.165   1.519   6.794
 4616SOL     OW14746   0.074   0.417   6.357
 4616SOL    HW114747   7.010   0.381   6.323
 4616SOL    HW214748   0.106   0.488   6.295
 4617SOL     OW14749   1.125   2.409   2.583
 4617SOL    HW114750   1.210   2.442   2.625
 4617SOL    HW214751   1.055   2.399   2.653
 4618SOL     OW14752   1.819   2.651   5.030
 4618SOL    HW114753   1.794   2.560   5.001
 4618SOL    HW214754   1.893   2.686   4.972
 4619SOL     OW14755   4.881   6.499   3.469
 4619SOL    HW114756   4.835   6.533   3.388
 4619SOL    HW214757   4.927   6.575   3.516
 4620SOL     OW14758   3.222   3.852   6.729
 4620SOL    HW114759   3.297   3.806   6.775
 4620SOL    HW214760   3.166   3.785   6.679
 4621SOL     OW14761   5.843   2.126   4.315
 4621SOL    HW114762   5.874   2.083   4.400
 4621SOL    HW214763   5.884   2.079   4.237
 4622SOL     OW14764   0.903   3.130   1.223
 4622SOL    HW114765   0.939   3.099   1.311
 4622SOL    HW214766   0.804   3.142   1.230
 4623SOL     OW14767   6.936   5.161   0.676
 4623SOL    HW114768   7.004   5.230   0.699
 4623SOL    HW214769   6.844   5.200   0.683
 4624SOL     OW14770   4.594   0.081   3.521
 4624SOL    HW114771   4.602   7.015   3.565
 4624SOL    HW214772   4.644   0.080   3.435
 4625SOL     OW14773   1.223   4.487   0.220
 4625SOL    HW114774   1.277   4.442   0.291
 4625SOL    HW214775   1.138   4.437   0.206
 4626SOL     OW14776   5.878   4.760   1.173
 4626SOL    HW114777   5.922   4.672   1.190
 4626SOL    HW214778   5.843   4.797   1.259
 4627SOL     OW14779   3.437   5.603   5.307
 4627SOL    HW114780   3.381   5.542   5.364
 4627SOL    HW214781   3.510   5.642   5.363
 4628SOL     OW14782   6.356   4.093   3.136
 4628SOL    HW114783   6.359   4.168   3.070
 4628SOL    HW214784   6.394   4.010   3.093
 4629SOL     OW14785   2.161   4.782   6.161
 4629SOL    HW114786   2.125   4.874   6.147
 4629SOL    HW214787   2.123   4.720   6.092
 4630SOL     OW14788   3.270   5.700   3.408
 4630SOL    HW114789   3.313   5.612   3.386
 4630SOL    HW214790   3.253   5.751   3.324
 4631SOL     OW14791   2.717   0.325   3.458
 4631SOL    HW114792   2.624   0.300   3.429
 4631SOL    HW214793   2.715   0.354   3.553
 4632SOL     OW14794   4.109   5.121   3.105
 4632SOL    HW114795   4.165   5.159   3.178
 4632SOL    HW214796   4.093   5.192   3.036
 4633SOL     OW14797   6.454   1.883   4.179
 4633SOL    HW114798   6.413   1.955   4.123
 4633SOL    HW214799   6.385   1.842   4.238
 4634SOL     OW14800   2.536   4.423   6.377
 4634SOL    HW114801   2.534   4.329   6.411
 4634SOL    HW214802   2.631   4.449   6.358
 4635SOL     OW14803   6.133   3.570   2.374
 4635SOL    HW114804   6.169   3.579   2.467
 4635SOL    HW214805   6.207   3.541   2.313
 4636SOL     OW14806   2.640   4.581   6.687
 4636SOL    HW114807   2.704   4.601   6.761
 4636SOL    HW214808   2.572   4.654   6.681
 4637SOL     OW14809   1.447   0.719   6.955
 4637SOL    HW114810   1.517   0.713   6.885
 4637SOL    HW214811   1.356   0.706   6.914
 4638SOL     OW14812   3.935   2.581   6.190
 4638SOL    HW114813   3.952   2.601   6.287
 4638SOL    HW214814   3.985   2.647   6.133
 4639SOL     OW14815   1.585   4.629   5.497
 4639SOL    HW114816   1.602   4.617   5.399
 4639SOL    HW214817   1.555   4.723   5.515
 4640SOL     OW14818   4.745   5.369   3.497
 4640SOL    HW114819   4.762   5.449   3.554
 4640SOL    HW214820   4.803   5.373   3.416
 4641SOL     OW14821   2.773   5.360   3.902
 4641SOL    HW114822   2.719   5.285   3.939
 4641SOL    HW214823   2.741   5.382   3.810
 4642SOL     OW14824   6.746   6.257   5.374
 4642SOL    HW114825   6.700   6.284   5.289
 4642SOL    HW214826   6.845   6.262   5.360
 4643SOL     OW14827   4.708   2.544   0.956
 4643SOL    HW114828   4.732   2.622   1.014
 4643SOL    HW214829   4.612   2.549   0.930
 4644SOL     OW14830   1.474   5.185   5.222
 4644SOL    HW114831   1.471   5.126   5.303
 4644SOL    HW214832   1.475   5.128   5.140
 4645SOL     OW14833   1.758   0.083   4.803
 4645SOL    HW114834   1.712   7.018   4.806
 4645SOL    HW214835   1.697   0.154   4.839
 4646SOL     OW14836   2.259   6.615   2.489
 4646SOL    HW114837   2.218   6.552   2.423
 4646SOL    HW214838   2.333   6.666   2.446
 4647SOL     OW14839   0.641   6.588   3.223
 4647SOL    HW114840   0.572   6.605   3.294
 4647SOL    HW214841   0.691   6.505   3.246
 4648SOL     OW14842   3.821   0.131   1.039
 4648SOL    HW114843   3.884   0.203   1.065
 4648SOL    HW214844   3.727   0.163   1.050
 4649SOL     OW14845   5.109   0.281   5.365
 4649SOL    HW114846   5.141   0.303   5.457
 4649SOL    HW214847   5.055   0.197   5.368
 4650SOL     OW14848   3.535   6.156   2.912
 4650SOL    HW114849   3.457   6.135   2.853
 4650SOL    HW214850   3.502   6.194   2.998
 4651SOL     OW14851   0.162   1.900   1.731
 4651SOL    HW114852   0.075   1.855   1.709
 4651SOL    HW214853   0.145   1.993   1.762
 4652SOL     OW14854   0.710   0.627   3.564
 4652SOL    HW114855   0.698   0.533   3.535
 4652SOL    HW214856   0.622   0.676   3.558
 4653SOL     OW14857   6.567   5.315   6.992
 4653SOL    HW114858   6.579   5.339   0.065
 4653SOL    HW214859   6.505   5.382   6.949
 4654SOL     OW14860   0.870   0.309   0.042
 4654SOL    HW114861   0.923   0.349   0.117
 4654SOL    HW214862   0.876   0.210   0.046
 4655SOL     OW14863   0.245   4.652   2.078
 4655SOL    HW114864   0.151   4.632   2.048
 4655SOL    HW214865   0.304   4.575   2.055
 4656SOL     OW14866   1.111   0.080   2.944
 4656SOL    HW114867   1.081   0.144   2.873
 4656SOL    HW214868   1.032   0.036   2.986
 4657SOL     OW14869   5.347   0.031   1.894
 4657SOL    HW114870   5.335   0.127   1.868
 4657SOL    HW214871   5.350   0.023   1.994
 4658SOL     OW14872   3.648   0.471   2.665
 4658SOL    HW114873   3.598   0.411   2.727
 4658SOL    HW214874   3.583   0.530   2.617
 4659SOL     OW14875   2.296   3.566   5.269
 4659SOL    HW114876   2.228   3.570   5.343
 4659SOL    HW214877   2.250   3.539   5.184
 4660SOL     OW14878   1.340   2.649   4.934
 4660SOL    HW114879   1.334   2.746   4.911
 4660SOL    HW214880   1.425   2.611   4.896
 4661SOL     OW14881   3.730   4.081   4.884
 4661SOL    HW114882   3.819   4.044   4.857
 4661SOL    HW214883   3.663   4.007   4.889
 4662SOL     OW14884   5.037   0.436   5.133
 4662SOL    HW114885   5.061   0.519   5.183
 4662SOL    HW214886   5.084   0.358   5.175
 4663SOL     OW14887   6.816   1.037   2.904
 4663SOL    HW114888   6.789   1.084   2.988
 4663SOL    HW214889   6.768   1.077   2.826
 4664SOL     OW14890   2.259   2.497   6.637
 4664SOL    HW114891   2.316   2.431   6.588
 4664SOL    HW214892   2.179   2.519   6.582
 4665SOL     OW14893   4.555   0.003   6.948
 4665SOL    HW114894   4.582   6.959   6.878
 4665SOL    HW214895   4.464   0.039   6.926
 4666SOL     OW14896   2.278   1.260   0.062
 4666SOL    HW114897   2.199   1.283   0.119
 4666SOL    HW214898   2.362   1.279   0.112
 4667SOL     OW14899   6.615   4.737   0.040
 4667SOL    HW114900   6.549   4.760   6.991
 4667SOL    HW214901   6.567   4.709   0.123
 4668SOL     OW14902   0.338   1.773   4.197
 4668SOL    HW114903   0.246   1.812   4.195
 4668SOL    HW214904   0.346   1.711   4.275
 4669SOL     OW14905   3.541   6.610   0.846
 4669SOL    HW114906   3.500   6.531   0.800
 4669SOL    HW214907   3.516   6.610   0.942
 4670SOL     OW14908   3.264   1.270   5.036
 4670SOL    HW114909   3.203   1.330   4.985
 4670SOL    HW214910   3.358   1.303   5.029
 4671SOL     OW14911   5.985   3.356   1.656
 4671SOL    HW114912   5.965   3.279   1.716
 4671SOL    HW214913   6.057   3.413   1.697
 4672SOL     OW14914   2.925   4.864   5.905
 4672SOL    HW114915   2.833   4.904   5.906
 4672SOL    HW214916   2.930   4.791   5.973
 4673SOL     OW14917   3.551   0.204   1.021
 4673SOL    HW114918   3.466   0.155   1.039
 4673SOL    HW214919   3.530   0.300   1.001
 4674SOL     OW14920   5.421   6.101   6.768
 4674SOL    HW114921   5.373   6.049   6.696
 4674SOL    HW214922   5.426   6.197   6.742
 4675SOL     OW14923   0.459   3.714   0.693
 4675SOL    HW114924   0.513   3.725   0.609
 4675SOL    HW214925   0.441   3.616   0.708
 4676SOL     OW14926   1.023   5.424   4.038
 4676SOL    HW114927   0.992   5.495   4.101
 4676SOL    HW214928   0.944   5.371   4.007
 4677SOL     OW14929   1.768   1.973   0.847
 4677SOL    HW114930   1.845   1.911   0.831
 4677SOL    HW214931   1.706   1.932   0.914
 4678SOL     OW14932   2.560   4.553   3.012
 4678SOL    HW114933   2.595   4.526   2.922
 4678SOL    HW214934   2.533   4.649   3.010
 4679SOL     OW14935   4.145   7.013   2.135
 4679SOL    HW114936   4.163   6.926   2.090
 4679SOL    HW214937   4.229   0.023   2.179
 4680SOL     OW14938   4.047   1.648   0.914
 4680SOL    HW114939   4.055   1.551   0.892
 4680SOL    HW214940   4.125   1.698   0.875
 4681SOL     OW14941   4.659   4.951   6.806
 4681SOL    HW114942   4.643   4.944   6.708
 4681SOL    HW214943   4.659   5.047   6.833
 4682SOL     OW14944   5.683   3.448   6.028
 4682SOL    HW114945   5.646   3.367   6.075
 4682SOL    HW214946   5.775   3.467   6.063
 4683SOL     OW14947   5.964   5.523   2.823
 4683SOL    HW114948   6.029   5.469   2.875
 4683SOL    HW214949   5.933   5.469   2.744
 4684SOL     OW14950   4.572   5.918   6.187
 4684SOL    HW114951   4.567   6.004   6.136
 4684SOL    HW214952   4.482   5.875   6.190
 4685SOL     OW14953   1.688   4.302   6.158
 4685SOL    HW114954   1.601   4.259   6.180
 4685SOL    HW214955   1.742   4.313   6.242
 4686SOL     OW14956   4.025   5.578   0.350
 4686SOL    HW114957   4.030   5.594   0.448
 4686SOL    HW214958   4.101   5.521   0.321
 4687SOL     OW14959   4.395   1.991   4.242
 4687SOL    HW114960   4.454   1.918   4.209
 4687SOL    HW214961   4.386   1.985   4.341
 4688SOL     OW14962   5.802   2.645   5.295
 4688SOL    HW114963   5.812   2.738   5.329
 4688SOL    HW214964   5.720   2.602   5.335
 4689SOL     OW14965   5.668   0.747   1.290
 4689SOL    HW114966   5.666   0.783   1.383
 4689SOL    HW214967   5.702   0.654   1.291
 4690SOL     OW14968   1.845   1.172   0.668
 4690SOL    HW114969   1.855   1.151   0.765
 4690SOL    HW214970   1.844   1.271   0.655
 4691SOL     OW14971   4.305   3.841   0.371
 4691SOL    HW114972   4.368   3.766   0.352
 4691SOL    HW214973   4.354   3.928   0.363
 4692SOL     OW14974   6.081   5.150   3.400
 4692SOL    HW114975   6.144   5.196   3.337
 4692SOL    HW214976   6.130   5.078   3.449
 4693SOL     OW14977   1.371   0.912   4.013
 4693SOL    HW114978   1.408   0.975   3.945
 4693SOL    HW214979   1.444   0.854   4.048
 4694SOL     OW14980   2.205   2.439   0.559
 4694SOL    HW114981   2.162   2.353   0.533
 4694SOL    HW214982   2.188   2.507   0.488
 4695SOL     OW14983   1.799   5.870   0.886
 4695SOL    HW114984   1.881   5.849   0.940
 4695SOL    HW214985   1.822   5.937   0.816
 4696SOL     OW14986   0.406   5.650   6.839
 4696SOL    HW114987   0.415   5.555   6.808
 4696SOL    HW214988   0.365   5.704   6.766
 4697SOL     OW14989   1.078   3.405   2.119
 4697SOL    HW114990   1.008   3.346   2.078
 4697SOL    HW214991   1.168   3.365   2.102
 4698SOL     OW14992   3.762   6.953   3.357
 4698SOL    HW114993   3.724   6.861   3.343
 4698SOL    HW214994   3.861   6.951   3.339
 4699SOL     OW14995   0.387   6.653   2.785
 4699SOL    HW114996   0.293   6.635   2.756
 4699SOL    HW214997   0.388   6.731   2.848
 4700SOL     OW14998   6.635   1.710   2.400
 4700SOL    HW114999   6.543   1.692   2.366
 4700SOL    HW215000   6.660   1.641   2.468
 4701SOL     OW15001   3.200   2.206   1.461
 4701SOL    HW115002   3.152   2.255   1.534
 4701SOL    HW215003   3.154   2.221   1.374
 4702SOL     OW15004   4.763   5.119   0.614
 4702SOL    HW115005   4.666   5.135   0.633
 4702SOL    HW215006   4.795   5.185   0.546
 4703SOL     OW15007   0.974   5.661   2.697
 4703SOL    HW115008   1.030   5.653   2.614
 4703SOL    HW215009   1.026   5.628   2.776
 4704SOL     OW15010   0.423   5.898   5.745
 4704SOL    HW115011   0.504   5.872   5.797
 4704SOL    HW215012   0.433   5.869   5.649
 4705SOL     OW15013   3.159   2.241   0.533
 4705SOL    HW115014   3.228   2.310   0.557
 4705SOL    HW215015   3.205   2.155   0.510
 4706SOL     OW15016   1.409   0.424   0.516
 4706SOL    HW115017   1.340   0.370   0.566
 4706SOL    HW215018   1.385   0.521   0.520
 4707SOL     OW15019   1.219   5.946   1.812
 4707SOL    HW115020   1.193   5.976   1.720
 4707SOL    HW215021   1.302   5.994   1.840
 4708SOL     OW15022   0.578   2.258   5.955
 4708SOL    HW115023   0.584   2.278   6.053
 4708SOL    HW215024   0.658   2.205   5.926
 4709SOL     OW15025   4.628   4.968   4.500
 4709SOL    HW115026   4.643   4.910   4.580
 4709SOL    HW215027   4.552   5.030   4.518
 4710SOL     OW15028   5.828   6.901   5.557
 4710SOL    HW115029   5.847   6.875   5.652
 4710SOL    HW215030   5.843   6.822   5.498
 4711SOL     OW15031   0.062   2.416   2.785
 4711SOL    HW115032   7.011   2.454   2.730
 4711SOL    HW215033   0.084   2.480   2.859
 4712SOL     OW15034   4.084   4.435   6.330
 4712SOL    HW115035   4.071   4.534   6.320
 4712SOL    HW215036   4.115   4.415   6.423
 4713SOL     OW15037   4.948   5.602   0.883
 4713SOL    HW115038   4.865   5.658   0.888
 4713SOL    HW215039   4.967   5.563   0.973
 4714SOL     OW15040   0.251   1.626   6.662
 4714SOL    HW115041   0.311   1.689   6.712
 4714SOL    HW215042   0.212   1.559   6.725
 4715SOL     OW15043   5.809   2.247   1.190
 4715SOL    HW115044   5.821   2.166   1.247
 4715SOL    HW215045   5.888   2.259   1.131
 4716SOL     OW15046   4.793   5.876   5.901
 4716SOL    HW115047   4.825   5.948   5.963
 4716SOL    HW215048   4.747   5.804   5.953
 4717SOL     OW15049   2.150   4.988   5.320
 4717SOL    HW115050   2.117   4.913   5.376
 4717SOL    HW215051   2.249   4.998   5.331
 4718SOL     OW15052   4.763   2.782   1.094
 4718SOL    HW115053   4.812   2.869   1.094
 4718SOL    HW215054   4.748   2.751   1.188
 4719SOL     OW15055   5.223   4.085   2.771
 4719SOL    HW115056   5.317   4.082   2.737
 4719SOL    HW215057   5.222   4.066   2.869
 4720SOL     OW15058   2.132   4.494   5.979
 4720SOL    HW115059   2.213   4.476   6.033
 4720SOL    HW215060   2.132   4.436   5.897
 4721SOL     OW15061   5.788   2.485   1.767
 4721SOL    HW115062   5.823   2.575   1.739
 4721SOL    HW215063   5.696   2.472   1.729
 4722SOL     OW15064   0.773   5.920   0.158
 4722SOL    HW115065   0.805   5.826   0.164
 4722SOL    HW215066   0.848   5.980   0.130
 4723SOL     OW15067   3.585   4.130   5.581
 4723SOL    HW115068   3.495   4.088   5.574
 4723SOL    HW215069   3.591   4.208   5.519
 4724SOL     OW15070   0.285   6.932   4.119
 4724SOL    HW115071   0.279   6.899   4.024
 4724SOL    HW215072   0.195   6.928   4.161
 4725SOL     OW15073   5.617   4.884   0.349
 4725SOL    HW115074   5.680   4.816   0.314
 4725SOL    HW215075   5.614   4.962   0.286
 4726SOL     OW15076   1.148   3.289   5.939
 4726SOL    HW115077   1.155   3.304   5.840
 4726SOL    HW215078   1.230   3.327   5.983
 4727SOL     OW15079   0.219   5.743   0.506
 4727SOL    HW115080   0.253   5.801   0.432
 4727SOL    HW215081   0.125   5.715   0.486
 4728SOL     OW15082   6.520   1.648   3.007
 4728SOL    HW115083   6.502   1.642   2.909
 4728SOL    HW215084   6.610   1.688   3.023
 4729SOL     OW15085   5.204   0.282   0.520
 4729SOL    HW115086   5.299   0.254   0.512
 4729SOL    HW215087   5.159   0.270   0.431
 4730SOL     OW15088   3.917   5.802   5.441
 4730SOL    HW115089   3.974   5.830   5.363
 4730SOL    HW215090   3.821   5.804   5.414
 4731SOL     OW15091   2.962   0.890   0.775
 4731SOL    HW115092   2.904   0.816   0.810
 4731SOL    HW215093   2.937   0.909   0.680
 4732SOL     OW15094   0.613   3.714   5.301
 4732SOL    HW115095   0.572   3.748   5.216
 4732SOL    HW215096   0.563   3.750   5.379
 4733SOL     OW15097   1.722   4.097   2.581
 4733SOL    HW115098   1.718   4.056   2.673
 4733SOL    HW215099   1.682   4.034   2.515
 4734SOL     OW15100   5.309   3.235   0.288
 4734SOL    HW115101   5.374   3.245   0.212
 4734SOL    HW215102   5.237   3.304   0.279
 4735SOL     OW15103   6.640   5.274   4.276
 4735SOL    HW115104   6.709   5.276   4.349
 4735SOL    HW215105   6.557   5.228   4.309
 4736SOL     OW15106   5.562   2.106   4.414
 4736SOL    HW115107   5.642   2.062   4.375
 4736SOL    HW215108   5.479   2.067   4.373
 4737SOL     OW15109   2.426   4.342   0.818
 4737SOL    HW115110   2.487   4.350   0.898
 4737SOL    HW215111   2.479   4.310   0.740
 4738SOL     OW15112   3.454   6.605   3.838
 4738SOL    HW115113   3.423   6.580   3.929
 4738SOL    HW215114   3.387   6.573   3.770
 4739SOL     OW15115   5.627   1.906   4.069
 4739SOL    HW115116   5.530   1.926   4.058
 4739SOL    HW215117   5.679   1.955   4.000
 4740SOL     OW15118   0.715   0.266   0.692
 4740SOL    HW115119   0.651   0.196   0.722
 4740SOL    HW215120   0.712   0.275   0.593
 4741SOL     OW15121   4.856   4.481   0.961
 4741SOL    HW115122   4.765   4.437   0.960
 4741SOL    HW215123   4.911   4.444   0.887
 4742SOL     OW15124   3.091   5.239   1.383
 4742SOL    HW115125   3.015   5.255   1.446
 4742SOL    HW215126   3.176   5.268   1.426
 4743SOL     OW15127   1.753   1.583   5.895
 4743SOL    HW115128   1.843   1.624   5.909
 4743SOL    HW215129   1.763   1.485   5.880
 4744SOL     OW15130   2.227   3.326   5.558
 4744SOL    HW115131   2.281   3.289   5.483
 4744SOL    HW215132   2.253   3.422   5.572
 4745SOL     OW15133   2.561   4.811   5.409
 4745SOL    HW115134   2.634   4.799   5.342
 4745SOL    HW215135   2.488   4.745   5.392
 4746SOL     OW15136   6.066   6.498   1.332
 4746SOL    HW115137   6.163   6.504   1.357
 4746SOL    HW215138   6.050   6.548   1.247
 4747SOL     OW15139   1.365   3.468   6.028
 4747SOL    HW115140   1.364   3.437   6.123
 4747SOL    HW215141   1.337   3.564   6.024
 4748SOL     OW15142   1.568   6.683   1.019
 4748SOL    HW115143   1.609   6.600   0.980
 4748SOL    HW215144   1.504   6.723   0.954
 4749SOL     OW15145   3.155   6.259   6.123
 4749SOL    HW115146   3.114   6.304   6.044
 4749SOL    HW215147   3.083   6.219   6.180
 4750SOL     OW15148   0.452   2.035   3.935
 4750SOL    HW115149   0.537   2.022   3.985
 4750SOL    HW215150   0.381   1.976   3.974
 4751SOL     OW15151   1.912   3.403   0.365
 4751SOL    HW115152   1.995   3.353   0.339
 4751SOL    HW215153   1.928   3.501   0.356
 4752SOL     OW15154   3.120   6.722   0.488
 4752SOL    HW115155   3.074   6.757   0.406
 4752SOL    HW215156   3.054   6.713   0.562
 4753SOL     OW15157   5.564   7.017   4.342
 4753SOL    HW115158   5.660   7.000   4.320
 4753SOL    HW215159   5.515   6.930   4.347
 4754SOL     OW15160   5.897   0.393   5.330
 4754SOL    HW115161   5.950   0.477   5.318
 4754SOL    HW215162   5.954   0.314   5.306
 4755SOL     OW15163   2.391   0.627   0.161
 4755SOL    HW115164   2.321   0.698   0.170
 4755SOL    HW215165   2.479   0.662   0.191
 4756SOL     OW15166   5.684   1.751   1.479
 4756SOL    HW115167   5.637   1.790   1.401
 4756SOL    HW215168   5.648   1.792   1.563
 4757SOL     OW15169   1.586   1.932   2.046
 4757SOL    HW115170   1.517   1.954   1.977
 4757SOL    HW215171   1.604   2.013   2.102
 4758SOL     OW15172   3.638   5.754   5.114
 4758SOL    HW115173   3.717   5.694   5.101
 4758SOL    HW215174   3.564   5.725   5.054
 4759SOL     OW15175   5.620   5.485   4.793
 4759SOL    HW115176   5.631   5.571   4.843
 4759SOL    HW215177   5.694   5.422   4.820
 4760SOL     OW15178   3.339   2.222   1.087
 4760SOL    HW115179   3.274   2.234   1.162
 4760SOL    HW215180   3.400   2.301   1.082
 4761SOL     OW15181   6.730   0.954   0.013
 4761SOL    HW115182   6.727   1.054   0.004
 4761SOL    HW215183   6.643   0.915   7.006
 4762SOL     OW15184   2.789   5.218   3.222
 4762SOL    HW115185   2.832   5.307   3.238
 4762SOL    HW215186   2.834   5.172   3.145
 4763SOL     OW15187   5.947   6.348   3.336
 4763SOL    HW115188   6.019   6.417   3.328
 4763SOL    HW215189   5.975   6.264   3.289
 4764SOL     OW15190   5.281   4.068   5.253
 4764SOL    HW115191   5.188   4.054   5.219
 4764SOL    HW215192   5.306   3.993   5.315
 4765SOL     OW15193   5.133   6.599   4.454
 4765SOL    HW115194   5.120   6.518   4.397
 4765SOL    HW215195   5.207   6.655   4.415
 4766SOL     OW15196   4.399   0.510   3.777
 4766SOL    HW115197   4.302   0.535   3.772
 4766SOL    HW215198   4.416   0.430   3.719
 4767SOL     OW15199   4.607   5.848   6.905
 4767SOL    HW115200   4.563   5.789   6.972
 4767SOL    HW215201   4.665   5.792   6.845
 4768SOL     OW15202   5.272   1.997   5.189
 4768SOL    HW115203   5.287   2.095   5.179
 4768SOL    HW215204   5.359   1.948   5.176
 4769SOL     OW15205   4.185   5.409   1.307
 4769SOL    HW115206   4.111   5.384   1.369
 4769SOL    HW215207   4.227   5.326   1.269
 4770SOL     OW15208   2.112   0.073   3.698
 4770SOL    HW115209   2.111   0.100   3.601
 4770SOL    HW215210   2.048   0.131   3.749
 4771SOL     OW15211   3.625   5.040   6.320
 4771SOL    HW115212   3.601   5.136   6.310
 4771SOL    HW215213   3.601   4.991   6.237
 4772SOL     OW15214   2.022   5.912   2.311
 4772SOL    HW115215   2.023   5.838   2.378
 4772SOL    HW215216   2.022   6.000   2.359
 4773SOL     OW15217   6.786   5.316   4.753
 4773SOL    HW115218   6.791   5.226   4.709
 4773SOL    HW215219   6.697   5.326   4.798
 4774SOL     OW15220   0.933   2.352   2.776
 4774SOL    HW115221   0.915   2.443   2.813
 4774SOL    HW215222   1.002   2.307   2.833
 4775SOL     OW15223   5.783   0.400   3.120
 4775SOL    HW115224   5.785   0.313   3.169
 4775SOL    HW215225   5.876   0.430   3.101
 4776SOL     OW15226   2.352   6.632   3.958
 4776SOL    HW115227   2.328   6.682   3.875
 4776SOL    HW215228   2.440   6.586   3.946
 4777SOL     OW15229   2.590   4.745   1.365
 4777SOL    HW115230   2.522   4.706   1.303
 4777SOL    HW215231   2.567   4.721   1.460
 4778SOL     OW15232   5.327   2.787   1.960
 4778SOL    HW115233   5.396   2.718   1.979
 4778SOL    HW215234   5.252   2.745   1.908
 4779SOL     OW15235   6.343   0.025   2.099
 4779SOL    HW115236   6.426   0.021   2.043
 4779SOL    HW215237   6.265   7.018   2.044
 4780SOL     OW15238   0.726   0.041   6.653
 4780SOL    HW115239   0.805   0.009   6.601
 4780SOL    HW215240   0.654   6.993   6.650
 4781SOL     OW15241   3.210   5.998   1.250
 4781SOL    HW115242   3.219   5.971   1.154
 4781SOL    HW215243   3.123   5.964   1.286
 4782SOL     OW15244   4.822   7.009   0.099
 4782SOL    HW115245   4.726   7.005   0.072
 4782SOL    HW215246   4.829   0.007   0.196
 4783SOL     OW15247   4.697   4.307   0.191
 4783SOL    HW115248   4.741   4.244   0.256
 4783SOL    HW215249   4.663   4.255   0.112
 4784SOL     OW15250   6.136   4.317   0.212
 4784SOL    HW115251   6.225   4.346   0.178
 4784SOL    HW215252   6.102   4.241   0.157
 4785SOL     OW15253   0.062   5.715   1.639
 4785SOL    HW115254   0.037   5.788   1.576
 4785SOL    HW215255   0.019   5.629   1.610
 4786SOL     OW15256   1.947   2.309   2.107
 4786SOL    HW115257   1.996   2.256   2.176
 4786SOL    HW215258   2.011   2.369   2.059
 4787SOL     OW15259   3.623   2.129   3.477
 4787SOL    HW115260   3.580   2.084   3.555
 4787SOL    HW215261   3.719   2.149   3.499
 4788SOL     OW15262   1.419   5.539   6.164
 4788SOL    HW115263   1.464   5.461   6.207
 4788SOL    HW215264   1.320   5.532   6.177
 4789SOL     OW15265   5.244   0.906   0.495
 4789SOL    HW115266   5.262   1.002   0.513
 4789SOL    HW215267   5.250   0.854   0.581
 4790SOL     OW15268   6.466   3.036   6.365
 4790SOL    HW115269   6.465   2.971   6.441
 4790SOL    HW215270   6.548   3.093   6.371
 4791SOL     OW15271   5.758   2.231   2.180
 4791SOL    HW115272   5.730   2.305   2.120
 4791SOL    HW215273   5.853   2.206   2.159
 4792SOL     OW15274   1.410   3.156   2.574
 4792SOL    HW115275   1.436   3.190   2.483
 4792SOL    HW215276   1.329   3.098   2.566
 4793SOL     OW15277   0.941   2.766   5.657
 4793SOL    HW115278   0.914   2.791   5.749
 4793SOL    HW215279   0.885   2.690   5.624
 4794SOL     OW15280   3.869   0.892   3.376
 4794SOL    HW115281   3.856   0.817   3.442
 4794SOL    HW215282   3.833   0.865   3.287
 4795SOL     OW15283   6.520   2.425   3.707
 4795SOL    HW115284   6.514   2.514   3.751
 4795SOL    HW215285   6.436   2.374   3.723
 4796SOL     OW15286   4.655   2.057   6.572
 4796SOL    HW115287   4.730   2.089   6.514
 4796SOL    HW215288   4.599   2.135   6.600
 4797SOL     OW15289   1.578   5.909   4.991
 4797SOL    HW115290   1.574   5.996   5.041
 4797SOL    HW215291   1.540   5.836   5.048
 4798SOL     OW15292   6.926   3.420   5.504
 4798SOL    HW115293   6.969   3.426   5.594
 4798SOL    HW215294   6.991   3.380   5.439
 4799SOL     OW15295   4.714   2.280   6.228
 4799SOL    HW115296   4.640   2.324   6.279
 4799SOL    HW215297   4.685   2.189   6.199
 4800SOL     OW15298   3.446   3.286   5.846
 4800SOL    HW115299   3.419   3.190   5.832
 4800SOL    HW215300   3.474   3.325   5.758
 4801SOL     OW15301   2.227   2.394   0.115
 4801SOL    HW115302   2.263   2.418   0.025
 4801SOL    HW215303   2.295   2.341   0.165
 4802SOL     OW15304   1.173   6.625   2.521
 4802SOL    HW115305   1.231   6.564   2.574
 4802SOL    HW215306   1.215   6.715   2.516
 4803SOL     OW15307   1.156   6.650   0.508
 4803SOL    HW115308   1.172   6.572   0.447
 4803SOL    HW215309   1.069   6.692   0.485
 4804SOL     OW15310   4.320   4.863   6.329
 4804SOL    HW115311   4.397   4.814   6.370
 4804SOL    HW215312   4.304   4.948   6.379
 4805SOL     OW15313   6.975   6.475   1.631
 4805SOL    HW115314   6.983   6.415   1.551
 4805SOL    HW215315   0.027   6.541   1.631
 4806SOL     OW15316   0.221   3.821   3.564
 4806SOL    HW115317   0.283   3.808   3.487
 4806SOL    HW215318   0.132   3.850   3.531
 4807SOL     OW15319   1.175   5.176   0.657
 4807SOL    HW115320   1.248   5.130   0.707
 4807SOL    HW215321   1.086   5.138   0.682
 4808SOL     OW15322   6.220   3.921   6.933
 4808SOL    HW115323   6.185   3.839   6.887
 4808SOL    HW215324   6.298   3.895   6.990
 4809SOL     OW15325   3.488   3.686   6.768
 4809SOL    HW115326   3.562   3.627   6.737
 4809SOL    HW215327   3.410   3.630   6.796
 4810SOL     OW15328   1.295   4.378   2.323
 4810SOL    HW115329   1.373   4.423   2.280
 4810SOL    HW215330   1.215   4.387   2.263
 4811SOL     OW15331   2.342   4.559   2.341
 4811SOL    HW115332   2.288   4.625   2.289
 4811SOL    HW215333   2.379   4.490   2.279
 4812SOL     OW15334   7.003   5.194   5.464
 4812SOL    HW115335   6.942   5.153   5.396
 4812SOL    HW215336   0.057   5.133   5.481
 4813SOL     OW15337   5.203   1.553   1.617
 4813SOL    HW115338   5.130   1.536   1.683
 4813SOL    HW215339   5.227   1.469   1.570
 4814SOL     OW15340   5.980   4.422   0.731
 4814SOL    HW115341   5.914   4.490   0.701
 4814SOL    HW215342   5.935   4.333   0.738
 4815SOL     OW15343   5.350   4.590   2.002
 4815SOL    HW115344   5.315   4.575   2.094
 4815SOL    HW215345   5.305   4.527   1.939
 4816SOL     OW15346   6.005   5.102   2.622
 4816SOL    HW115347   6.052   5.107   2.534
 4816SOL    HW215348   6.072   5.111   2.696
 4817SOL     OW15349   0.644   2.494   6.397
 4817SOL    HW115350   0.645   2.589   6.428
 4817SOL    HW215351   0.738   2.459   6.393
 4818SOL     OW15352   0.637   0.150   4.576
 4818SOL    HW115353   0.731   0.159   4.546
 4818SOL    HW215354   0.613   0.054   4.585
 4819SOL     OW15355   1.845   2.975   0.904
 4819SOL    HW115356   1.766   2.915   0.917
 4819SOL    HW215357   1.814   3.067   0.880
 4820SOL     OW15358   0.020   2.918   1.653
 4820SOL    HW115359   0.053   2.853   1.721
 4820SOL    HW215360   0.047   3.011   1.681
 4821SOL     OW15361   0.506   6.050   2.982
 4821SOL    HW115362   0.474   6.119   3.047
 4821SOL    HW215363   0.564   5.984   3.028
 4822SOL     OW15364   1.292   3.452   4.308
 4822SOL    HW115365   1.213   3.484   4.254
 4822SOL    HW215366   1.339   3.531   4.347
 4823SOL     OW15367   1.967   2.188   3.093
 4823SOL    HW115368   2.028   2.256   3.052
 4823SOL    HW215369   1.892   2.168   3.030
 4824SOL     OW15370   5.452   1.949   5.565
 4824SOL    HW115371   5.531   1.907   5.521
 4824SOL    HW215372   5.384   1.879   5.587
 4825SOL     OW15373   1.426   2.076   4.259
 4825SOL    HW115374   1.333   2.091   4.228
 4825SOL    HW215375   1.462   2.159   4.301
 4826SOL     OW15376   5.407   0.650   0.616
 4826SOL    HW115377   5.371   0.584   0.682
 4826SOL    HW215378   5.441   0.730   0.665
 4827SOL     OW15379   5.909   2.294   0.311
 4827SOL    HW115380   5.989   2.298   0.371
 4827SOL    HW215381   5.936   2.265   0.220
 4828SOL     OW15382   4.765   0.586   1.272
 4828SOL    HW115383   4.761   0.515   1.342
 4828SOL    HW215384   4.749   0.544   1.182
 4829SOL     OW15385   4.348   6.877   6.518
 4829SOL    HW115386   4.395   6.870   6.430
 4829SOL    HW215387   4.358   6.970   6.553
 4830SOL     OW15388   3.845   5.989   4.366
 4830SOL    HW115389   3.880   5.962   4.455
 4830SOL    HW215390   3.904   5.952   4.294
 4831SOL     OW15391   2.664   5.314   5.145
 4831SOL    HW115392   2.757   5.347   5.135
 4831SOL    HW215393   2.599   5.386   5.121
 4832SOL     OW15394   3.143   3.009   4.387
 4832SOL    HW115395   3.198   3.091   4.402
 4832SOL    HW215396   3.128   2.963   4.474
 4833SOL     OW15397   5.646   2.038   2.939
 4833SOL    HW115398   5.608   2.068   2.851
 4833SOL    HW215399   5.617   2.101   3.011
 4834SOL     OW15400   2.430   6.066   2.286
 4834SOL    HW115401   2.389   5.976   2.269
 4834SOL    HW215402   2.502   6.083   2.218
 4835SOL     OW15403   6.073   2.968   5.891
 4835SOL    HW115404   6.073   2.924   5.801
 4835SOL    HW215405   6.153   2.937   5.943
 4836SOL     OW15406   5.172   1.175   5.201
 4836SOL    HW115407   5.244   1.186   5.133
 4836SOL    HW215408   5.209   1.191   5.292
 4837SOL     OW15409   6.664   3.651   2.946
 4837SOL    HW115410   6.720   3.641   2.864
 4837SOL    HW215411   6.654   3.562   2.991
 4838SOL     OW15412   2.240   5.470   6.694
 4838SOL    HW115413   2.187   5.491   6.777
 4838SOL    HW215414   2.177   5.455   6.618
 4839SOL     OW15415   1.491   3.578   0.053
 4839SOL    HW115416   1.552   3.548   7.003
 4839SOL    HW215417   1.521   3.540   0.141
 4840SOL     OW15418   5.787   4.019   5.478
 4840SOL    HW115419   5.826   3.992   5.566
 4840SOL    HW215420   5.778   3.939   5.419
 4841SOL     OW15421   3.609   5.629   2.845
 4841SOL    HW115422   3.618   5.623   2.746
 4841SOL    HW215423   3.645   5.716   2.877
 4842SOL     OW15424   2.933   5.506   2.947
 4842SOL    HW115425   2.849   5.553   2.973
 4842SOL    HW215426   2.925   5.474   2.852
 4843SOL     OW15427   6.324   2.378   1.939
 4843SOL    HW115428   6.291   2.438   1.866
 4843SOL    HW215429   6.360   2.433   2.015
 4844SOL     OW15430   0.845   4.020   5.512
 4844SOL    HW115431   0.829   3.994   5.607
 4844SOL    HW215432   0.941   4.046   5.500
 4845SOL     OW15433   4.493   5.016   5.190
 4845SOL    HW115434   4.524   4.995   5.282
 4845SOL    HW215435   4.513   5.112   5.168
 4846SOL     OW15436   0.189   1.959   3.365
 4846SOL    HW115437   0.125   1.951   3.289
 4846SOL    HW215438   0.139   1.968   3.451
 4847SOL     OW15439   2.760   1.065   5.231
 4847SOL    HW115440   2.831   1.045   5.163
 4847SOL    HW215441   2.701   0.985   5.240
 4848SOL     OW15442   2.689   1.231   4.124
 4848SOL    HW115443   2.707   1.133   4.133
 4848SOL    HW215444   2.651   1.249   4.033
 4849SOL     OW15445   1.986   0.067   0.537
 4849SOL    HW115446   1.892   0.083   0.569
 4849SOL    HW215447   2.019   7.003   0.574
 4850SOL     OW15448   4.370   0.567   1.702
 4850SOL    HW115449   4.469   0.561   1.692
 4850SOL    HW215450   4.347   0.608   1.790
 4851SOL     OW15451   4.028   5.866   6.502
 4851SOL    HW115452   4.076   5.829   6.582
 4851SOL    HW215453   3.985   5.791   6.452
 4852SOL     OW15454   3.219   5.882   4.582
 4852SOL    HW115455   3.155   5.920   4.515
 4852SOL    HW215456   3.232   5.948   4.657
 4853SOL     OW15457   3.855   1.247   3.188
 4853SOL    HW115458   3.823   1.185   3.116
 4853SOL    HW215459   3.802   1.232   3.271
 4854SOL     OW15460   5.276   6.696   2.150
 4854SOL    HW115461   5.283   6.748   2.236
 4854SOL    HW215462   5.287   6.758   2.073
 4855SOL     OW15463   6.636   3.397   4.902
 4855SOL    HW115464   6.704   3.468   4.885
 4855SOL    HW215465   6.548   3.440   4.923
 4856SOL     OW15466   0.404   2.859   2.448
 4856SOL    HW115467   0.488   2.821   2.410
 4856SOL    HW215468   0.344   2.784   2.477
 4857SOL     OW15469   3.485   2.060   3.736
 4857SOL    HW115470   3.399   2.104   3.762
 4857SOL    HW215471   3.562   2.120   3.759
 4858SOL     OW15472   1.358   0.082   4.616
 4858SOL    HW115473   1.337   0.131   4.531
 4858SOL    HW215474   1.333   7.009   4.606
 4859SOL     OW15475   1.586   4.812   1.332
 4859SOL    HW115476   1.521   4.888   1.344
 4859SOL    HW215477   1.655   4.838   1.264
 4860SOL     OW15478   4.150   4.433   0.472
 4860SOL    HW115479   4.100   4.362   0.420
 4860SOL    HW215480   4.108   4.522   0.455
 4861SOL     OW15481   6.128   5.148   6.121
 4861SOL    HW115482   6.113   5.171   6.025
 4861SOL    HW215483   6.226   5.145   6.140
 4862SOL     OW15484   2.890   5.004   4.743
 4862SOL    HW115485   2.941   5.076   4.696
 4862SOL    HW215486   2.864   5.036   4.834
 4863SOL     OW15487   4.916   3.217   2.696
 4863SOL    HW115488   4.884   3.125   2.718
 4863SOL    HW215489   4.920   3.228   2.597
 4864SOL     OW15490   2.869   1.755   1.856
 4864SOL    HW115491   2.946   1.737   1.918
 4864SOL    HW215492   2.901   1.753   1.761
 4865SOL     OW15493   2.675   4.955   5.908
 4865SOL    HW115494   2.626   4.932   5.824
 4865SOL    HW215495   2.626   4.918   5.986
 4866SOL     OW15496   5.912   4.820   1.656
 4866SOL    HW115497   5.949   4.862   1.739
 4866SOL    HW215498   5.820   4.785   1.674
 4867SOL     OW15499   4.827   5.633   3.537
 4867SOL    HW115500   4.899   5.646   3.470
 4867SOL    HW215501   4.864   5.644   3.629
 4868SOL     OW15502   0.849   5.630   1.473
 4868SOL    HW115503   0.751   5.621   1.455
 4868SOL    HW215504   0.870   5.595   1.564
 4869SOL     OW15505   6.590   2.068   0.962
 4869SOL    HW115506   6.611   2.096   1.056
 4869SOL    HW215507   6.613   2.142   0.899
 4870SOL     OW15508   4.349   5.677   1.717
 4870SOL    HW115509   4.385   5.632   1.636
 4870SOL    HW215510   4.276   5.740   1.691
 4871SOL     OW15511   1.637   1.367   3.126
 4871SOL    HW115512   1.540   1.386   3.113
 4871SOL    HW215513   1.677   1.336   3.040
 4872SOL     OW15514   1.147   0.224   3.343
 4872SOL    HW115515   1.212   0.282   3.294
 4872SOL    HW215516   1.194   0.141   3.374
 4873SOL     OW15517   0.151   5.165   4.572
 4873SOL    HW115518   0.106   5.141   4.658
 4873SOL    HW215519   0.155   5.084   4.513
 4874SOL     OW15520   5.694   3.759   2.380
 4874SOL    HW115521   5.599   3.787   2.393
 4874SOL    HW215522   5.696   3.671   2.332
 4875SOL     OW15523   5.328   2.282   1.188
 4875SOL    HW115524   5.419   2.265   1.149
 4875SOL    HW215525   5.269   2.322   1.118
 4876SOL     OW15526   5.716   0.241   5.721
 4876SOL    HW115527   5.726   0.279   5.629
 4876SOL    HW215528   5.776   0.291   5.784
 4877SOL     OW15529   6.887   1.539   1.232
 4877SOL    HW115530   6.839   1.499   1.310
 4877SOL    HW215531   6.936   1.621   1.261
 4878SOL     OW15532   0.365   1.576   2.155
 4878SOL    HW115533   0.369   1.673   2.131
 4878SOL    HW215534   0.437   1.555   2.221
 4879SOL     OW15535   4.536   4.715   2.965
 4879SOL    HW115536   4.538   4.732   2.866
 4879SOL    HW215537   4.534   4.617   2.982
 4880SOL     OW15538   5.214   2.250   0.122
 4880SOL    HW115539   5.310   2.234   0.142
 4880SOL    HW215540   5.173   2.166   0.086
 4881SOL     OW15541   2.854   6.552   6.351
 4881SOL    HW115542   2.825   6.514   6.263
 4881SOL    HW215543   2.787   6.531   6.421
 4882SOL     OW15544   6.144   1.628   5.563
 4882SOL    HW115545   6.238   1.597   5.574
 4882SOL    HW215546   6.142   1.727   5.555
 4883SOL     OW15547   5.331   4.639   2.299
 4883SOL    HW115548   5.381   4.607   2.379
 4883SOL    HW215549   5.381   4.714   2.255
 4884SOL     OW15550   4.575   0.070   1.689
 4884SOL    HW115551   4.674   0.058   1.690
 4884SOL    HW215552   4.532   7.021   1.745
 4885SOL     OW15553   2.104   6.404   1.916
 4885SOL    HW115554   2.012   6.369   1.934
 4885SOL    HW215555   2.134   6.460   1.993
 4886SOL     OW15556   0.224   6.520   6.636
 4886SOL    HW115557   0.240   6.450   6.706
 4886SOL    HW215558   0.298   6.587   6.639
 4887SOL     OW15559   6.817   2.214   3.413
 4887SOL    HW115560   6.788   2.178   3.324
 4887SOL    HW215561   6.827   2.138   3.477
 4888SOL     OW15562   1.713   6.943   3.638
 4888SOL    HW115563   1.773   6.954   3.558
 4888SOL    HW215564   1.768   6.929   3.720
 4889SOL     OW15565   0.268   1.982   0.175
 4889SOL    HW115566   0.236   1.887   0.184
 4889SOL    HW215567   0.195   2.038   0.137
 4890SOL     OW15568   0.714   1.559   4.243
 4890SOL    HW115569   0.709   1.520   4.335
 4890SOL    HW215570   0.673   1.496   4.178
 4891SOL     OW15571   0.914   5.270   0.065
 4891SOL    HW115572   1.008   5.268   0.031
 4891SOL    HW215573   0.911   5.230   0.157
 4892SOL     OW15574   1.271   5.856   2.903
 4892SOL    HW115575   1.318   5.835   2.817
 4892SOL    HW215576   1.178   5.885   2.883
 4893SOL     OW15577   6.583   4.439   6.948
 4893SOL    HW115578   6.617   4.507   7.013
 4893SOL    HW215579   6.575   4.480   6.858
 4894SOL     OW15580   2.139   0.137   2.766
 4894SOL    HW115581   2.202   0.123   2.842
 4894SOL    HW215582   2.107   0.232   2.765
 4895SOL     OW15583   0.716   3.796   1.083
 4895SOL    HW115584   0.767   3.876   1.050
 4895SOL    HW215585   0.759   3.713   1.048
 4896SOL     OW15586   3.347   5.459   3.320
 4896SOL    HW115587   3.314   5.385   3.262
 4896SOL    HW215588   3.415   5.424   3.384
 4897SOL     OW15589   3.834   4.948   6.532
 4897SOL    HW115590   3.803   5.010   6.604
 4897SOL    HW215591   3.768   4.948   6.456
 4898SOL     OW15592   5.468   2.221   5.644
 4898SOL    HW115593   5.395   2.252   5.704
 4898SOL    HW215594   5.466   2.121   5.638
 4899SOL     OW15595   6.304   4.892   2.613
 4899SOL    HW115596   6.380   4.834   2.644
 4899SOL    HW215597   6.321   4.987   2.639
 4900SOL     OW15598   0.066   6.562   5.830
 4900SOL    HW115599   0.157   6.522   5.837
 4900SOL    HW215600   7.019   6.490   5.837
 4901SOL     OW15601   2.227   6.989   4.374
 4901SOL    HW115602   2.275   6.918   4.322
 4901SOL    HW215603   2.265   0.056   4.350
 4902SOL     OW15604   0.983   3.544   2.774
 4902SOL    HW115605   1.021   3.460   2.735
 4902SOL    HW215606   1.039   3.573   2.851
 4903SOL     OW15607   3.988   6.048   6.744
 4903SOL    HW115608   3.968   6.136   6.787
 4903SOL    HW215609   4.048   6.063   6.665
 4904SOL     OW15610   2.253   5.504   4.358
 4904SOL    HW115611   2.177   5.479   4.297
 4904SOL    HW215612   2.337   5.513   4.304
 4905SOL     OW15613   4.582   2.066   2.205
 4905SOL    HW115614   4.592   2.147   2.147
 4905SOL    HW215615   4.666   2.013   2.203
 4906SOL     OW15616   4.599   6.970   0.334
 4906SOL    HW115617   4.509   6.980   0.291
 4906SOL    HW215618   4.625   6.874   0.337
 4907SOL     OW15619   4.021   6.299   2.982
 4907SOL    HW115620   4.029   6.227   3.051
 4907SOL    HW215621   3.941   6.282   2.925
 4908SOL     OW15622   3.995   5.789   6.835
 4908SOL    HW115623   3.984   5.755   6.928
 4908SOL    HW215624   3.997   5.889   6.836
 4909SOL     OW15625   6.062   0.784   6.144
 4909SOL    HW115626   6.095   0.770   6.050
 4909SOL    HW215627   5.976   0.835   6.141
 4910SOL     OW15628   5.236   0.392   5.617
 4910SOL    HW115629   5.316   0.442   5.582
 4910SOL    HW215630   5.266   0.314   5.670
 4911SOL     OW15631   6.744   1.952   5.898
 4911SOL    HW115632   6.712   2.047   5.891
 4911SOL    HW215633   6.723   1.904   5.812
 4912SOL     OW15634   4.979   1.160   1.733
 4912SOL    HW115635   4.920   1.233   1.699
 4912SOL    HW215636   5.008   1.102   1.657
 4913SOL     OW15637   3.146   4.033   3.927
 4913SOL    HW115638   3.233   4.071   3.895
 4913SOL    HW215639   3.114   3.965   3.861
 4914SOL     OW15640   3.174   1.193   4.503
 4914SOL    HW115641   3.147   1.215   4.597
 4914SOL    HW215642   3.136   1.261   4.440
 4915SOL     OW15643   4.423   6.758   3.922
 4915SOL    HW115644   4.456   6.664   3.913
 4915SOL    HW215645   4.413   6.780   4.019
 4916SOL     OW15646   2.455   1.958   2.959
 4916SOL    HW115647   2.461   2.039   2.901
 4916SOL    HW215648   2.370   1.960   3.011
 4917SOL     OW15649   1.428   4.183   0.608
 4917SOL    HW115650   1.366   4.106   0.626
 4917SOL    HW215651   1.499   4.155   0.544
 4918SOL     OW15652   2.603   0.395   2.764
 4918SOL    HW115653   2.635   0.456   2.692
 4918SOL    HW215654   2.669   0.321   2.777
 4919SOL     OW15655   1.689   2.245   2.993
 4919SOL    HW115656   1.659   2.259   2.898
 4919SOL    HW215657   1.742   2.325   3.023
 4920SOL     OW15658   4.307   0.271   0.084
 4920SOL    HW115659   4.220   0.316   0.105
 4920SOL    HW215660   4.382   0.336   0.094
 4921SOL     OW15661   2.211   3.764   1.800
 4921SOL    HW115662   2.255   3.675   1.790
 4921SOL    HW215663   2.221   3.796   1.895
 4922SOL     OW15664   1.203   3.256   5.284
 4922SOL    HW115665   1.181   3.160   5.303
 4922SOL    HW215666   1.152   3.286   5.204
 4923SOL     OW15667   5.003   0.268   1.866
 4923SOL    HW115668   5.076   0.241   1.928
 4923SOL    HW215669   4.934   0.322   1.916
 4924SOL     OW15670   2.027   3.241   4.757
 4924SOL    HW115671   2.045   3.202   4.847
 4924SOL    HW215672   2.090   3.202   4.690
 4925SOL     OW15673   5.715   6.137   1.180
 4925SOL    HW115674   5.707   6.232   1.150
 4925SOL    HW215675   5.717   6.077   1.100
 4926SOL     OW15676   5.285   2.895   1.658
 4926SOL    HW115677   5.228   2.886   1.739
 4926SOL    HW215678   5.274   2.987   1.620
 4927SOL     OW15679   4.004   3.101   3.062
 4927SOL    HW115680   3.974   3.074   2.970
 4927SOL    HW215681   4.060   3.029   3.101
 4928SOL     OW15682   0.424   6.757   6.452
 4928SOL    HW115683   0.446   6.709   6.367
 4928SOL    HW215684   0.329   6.789   6.448
 4929SOL     OW15685   1.458   4.426   5.073
 4929SOL    HW115686   1.466   4.334   5.035
 4929SOL    HW215687   1.375   4.433   5.128
 4930SOL     OW15688   0.727   1.344   0.290
 4930SOL    HW115689   0.699   1.291   0.209
 4930SOL    HW215690   0.789   1.289   0.346
 4931SOL     OW15691   0.765   0.567   6.970
 4931SOL    HW115692   0.709   0.544   6.891
 4931SOL    HW215693   0.831   0.494   6.987
 4932SOL     OW15694   2.150   3.047   1.869
 4932SOL    HW115695   2.105   3.103   1.940
 4932SOL    HW215696   2.192   3.107   1.801
 4933SOL     OW15697   2.463   0.915   4.489
 4933SOL    HW115698   2.401   0.853   4.536
 4933SOL    HW215699   2.416   0.956   4.410
 4934SOL     OW15700   0.995   5.108   4.387
 4934SOL    HW115701   1.048   5.191   4.402
 4934SOL    HW215702   0.998   5.051   4.470
 4935SOL     OW15703   1.219   0.965   6.659
 4935SOL    HW115704   1.256   1.042   6.712
 4935SOL    HW215705   1.123   0.951   6.684
 4936SOL     OW15706   2.666   5.843   1.444
 4936SOL    HW115707   2.680   5.867   1.348
 4936SOL    HW215708   2.720   5.762   1.466
 4937SOL     OW15709   0.781   3.727   5.927
 4937SOL    HW115710   0.783   3.763   6.020
 4937SOL    HW215711   0.731   3.640   5.925
 4938SOL     OW15712   3.126   4.868   2.074
 4938SOL    HW115713   3.052   4.824   2.125
 4938SOL    HW215714   3.159   4.947   2.126
 4939SOL     OW15715   1.147   2.380   1.961
 4939SOL    HW115716   1.234   2.340   1.989
 4939SOL    HW215717   1.127   2.355   1.866
 4940SOL     OW15718   0.116   1.765   5.034
 4940SOL    HW115719   0.199   1.821   5.033
 4940SOL    HW215720   0.046   1.807   4.977
 4941SOL     OW15721   3.868   2.628   5.306
 4941SOL    HW115722   3.900   2.644   5.399
 4941SOL    HW215723   3.946   2.610   5.246
 4942SOL     OW15724   5.663   2.957   3.559
 4942SOL    HW115725   5.679   2.965   3.461
 4942SOL    HW215726   5.718   3.026   3.607
 4943SOL     OW15727   5.848   3.951   6.471
 4943SOL    HW115728   5.906   4.017   6.518
 4943SOL    HW215729   5.875   3.858   6.498
 4944SOL     OW15730   2.124   4.558   0.532
 4944SOL    HW115731   2.049   4.575   0.596
 4944SOL    HW215732   2.211   4.570   0.579
 4945SOL     OW15733   1.575   1.021   5.059
 4945SOL    HW115734   1.601   1.117   5.067
 4945SOL    HW215735   1.577   0.994   4.962
 4946SOL     OW15736   0.711   4.556   6.819
 4946SOL    HW115737   0.753   4.528   6.906
 4946SOL    HW215738   0.738   4.650   6.798
 4947SOL     OW15739   2.841   0.985   2.071
 4947SOL    HW115740   2.845   0.919   2.147
 4947SOL    HW215741   2.799   0.941   1.992
 4948SOL     OW15742   1.695   2.474   2.627
 4948SOL    HW115743   1.736   2.529   2.701
 4948SOL    HW215744   1.659   2.535   2.556
 4949SOL     OW15745   6.287   3.910   5.907
 4949SOL    HW115746   6.303   4.006   5.885
 4949SOL    HW215747   6.202   3.901   5.959
 4950SOL     OW15748   2.038   3.825   5.072
 4950SOL    HW115749   1.958   3.886   5.070
 4950SOL    HW215750   2.107   3.863   5.133
 4951SOL     OW15751   5.990   6.342   4.020
 4951SOL    HW115752   6.019   6.436   4.039
 4951SOL    HW215753   5.908   6.343   3.964
 4952SOL     OW15754   6.780   0.298   6.619
 4952SOL    HW115755   6.761   0.374   6.680
 4952SOL    HW215756   6.834   0.331   6.541
 4953SOL     OW15757   2.181   1.680   4.000
 4953SOL    HW115758   2.275   1.685   4.034
 4953SOL    HW215759   2.162   1.761   3.944
 4954SOL     OW15760   2.196   3.973   6.071
 4954SOL    HW115761   2.123   4.006   6.131
 4954SOL    HW215762   2.171   3.991   5.976
 4955SOL     OW15763   3.482   5.158   6.974
 4955SOL    HW115764   3.491   5.146   6.875
 4955SOL    HW215765   3.475   5.069   7.018
 4956SOL     OW15766   3.095   0.686   5.611
 4956SOL    HW115767   3.182   0.697   5.658
 4956SOL    HW215768   3.038   0.620   5.661
 4957SOL     OW15769   5.966   3.575   0.253
 4957SOL    HW115770   5.872   3.581   0.286
 4957SOL    HW215771   6.017   3.509   0.309
 4958SOL     OW15772   1.824   6.223   5.694
 4958SOL    HW115773   1.817   6.123   5.689
 4958SOL    HW215774   1.781   6.254   5.779
 4959SOL     OW15775   6.726   1.797   1.209
 4959SOL    HW115776   6.643   1.774   1.160
 4959SOL    HW215777   6.795   1.830   1.145
 4960SOL     OW15778   4.061   4.882   3.598
 4960SOL    HW115779   3.963   4.897   3.610
 4960SOL    HW215780   4.077   4.839   3.509
 4961SOL     OW15781   3.209   0.750   6.573
 4961SOL    HW115782   3.199   0.650   6.571
 4961SOL    HW215783   3.118   0.792   6.580
 4962SOL     OW15784   5.411   2.768   0.703
 4962SOL    HW115785   5.397   2.798   0.797
 4962SOL    HW215786   5.480   2.825   0.659
 4963SOL     OW15787   1.836   5.733   1.246
 4963SOL    HW115788   1.842   5.823   1.290
 4963SOL    HW215789   1.906   5.727   1.174
 4964SOL     OW15790   1.922   6.596   5.146
 4964SOL    HW115791   1.991   6.579   5.076
 4964SOL    HW215792   1.847   6.648   5.107
 4965SOL     OW15793   0.720   6.849   2.950
 4965SOL    HW115794   0.693   6.770   3.004
 4965SOL    HW215795   0.778   6.909   3.005
 4966SOL     OW15796   1.936   6.554   4.484
 4966SOL    HW115797   1.898   6.467   4.451
 4966SOL    HW215798   1.916   6.564   4.582
 4967SOL     OW15799   3.270   5.210   6.467
 4967SOL    HW115800   3.245   5.248   6.378
 4967SOL    HW215801   3.225   5.121   6.479
 4968SOL     OW15802   0.417   0.940   3.921
 4968SOL    HW115803   0.469   0.953   4.005
 4968SOL    HW215804   0.400   0.842   3.907
 4969SOL     OW15805   0.322   6.270   2.358
 4969SOL    HW115806   0.391   6.340   2.376
 4969SOL    HW215807   0.285   6.282   2.267
 4970SOL     OW15808   2.374   0.720   1.540
 4970SOL    HW115809   2.403   0.640   1.487
 4970SOL    HW215810   2.335   0.788   1.479
 4971SOL     OW15811   5.906   6.050   2.852
 4971SOL    HW115812   5.840   6.042   2.778
 4971SOL    HW215813   5.950   5.961   2.866
 4972SOL     OW15814   1.328   4.338   0.408
 4972SOL    HW115815   1.383   4.290   0.476
 4972SOL    HW215816   1.266   4.273   0.364
 4973SOL     OW15817   0.576   0.240   1.545
 4973SOL    HW115818   0.577   0.140   1.538
 4973SOL    HW215819   0.482   0.273   1.545
 4974SOL     OW15820   5.169   4.348   0.666
 4974SOL    HW115821   5.149   4.444   0.688
 4974SOL    HW215822   5.248   4.318   0.719
 4975SOL     OW15823   5.366   4.083   0.779
 4975SOL    HW115824   5.408   4.057   0.866
 4975SOL    HW215825   5.269   4.057   0.780
 4976SOL     OW15826   1.507   0.310   4.742
 4976SOL    HW115827   1.465   0.227   4.707
 4976SOL    HW215828   1.466   0.390   4.698
 4977SOL     OW15829   3.309   3.722   7.001
 4977SOL    HW115830   3.295   3.632   6.960
 4977SOL    HW215831   3.406   3.744   7.001
 4978SOL     OW15832   5.147   4.761   5.155
 4978SOL    HW115833   5.170   4.828   5.226
 4978SOL    HW215834   5.155   4.669   5.193
 4979SOL     OW15835   0.341   6.548   0.048
 4979SOL    HW115836   0.241   6.545   0.049
 4979SOL    HW215837   0.373   6.552   6.977
 4980SOL     OW15838   5.659   4.717   2.388
 4980SOL    HW115839   5.682   4.693   2.293
 4980SOL    HW215840   5.605   4.643   2.428
 4981SOL     OW15841   3.361   6.092   1.849
 4981SOL    HW115842   3.313   6.041   1.777
 4981SOL    HW215843   3.460   6.076   1.841
 4982SOL     OW15844   3.898   1.906   6.721
 4982SOL    HW115845   3.825   1.918   6.653
 4982SOL    HW215846   3.952   1.990   6.727
 4983SOL     OW15847   5.713   4.653   4.029
 4983SOL    HW115848   5.788   4.613   4.082
 4983SOL    HW215849   5.750   4.720   3.964
 4984SOL     OW15850   4.499   4.425   2.972
 4984SOL    HW115851   4.487   4.414   2.874
 4984SOL    HW215852   4.427   4.376   3.021
 4985SOL     OW15853   5.114   6.109   2.589
 4985SOL    HW115854   5.017   6.086   2.587
 4985SOL    HW215855   5.159   6.072   2.507
 4986SOL     OW15856   6.620   4.955   0.835
 4986SOL    HW115857   6.609   4.970   0.737
 4986SOL    HW215858   6.542   4.902   0.869
 4987SOL     OW15859   1.369   6.169   2.738
 4987SOL    HW115860   1.408   6.216   2.816
 4987SOL    HW215861   1.270   6.183   2.736
 4988SOL     OW15862   6.340   0.972   3.326
 4988SOL    HW115863   6.349   0.905   3.252
 4988SOL    HW215864   6.258   0.953   3.380
 4989SOL     OW15865   4.913   0.506   1.695
 4989SOL    HW115866   4.924   0.430   1.631
 4989SOL    HW215867   4.999   0.522   1.743
 4990SOL     OW15868   3.565   1.656   6.737
 4990SOL    HW115869   3.483   1.600   6.726
 4990SOL    HW215870   3.607   1.637   6.826
 4991SOL     OW15871   6.922   5.603   4.186
 4991SOL    HW115872   6.895   5.696   4.161
 4991SOL    HW215873   6.878   5.577   4.272
 4992SOL     OW15874   5.946   1.490   3.063
 4992SOL    HW115875   5.884   1.559   3.025
 4992SOL    HW215876   5.975   1.429   2.989
 4993SOL     OW15877   3.929   6.584   4.873
 4993SOL    HW115878   3.864   6.518   4.910
 4993SOL    HW215879   3.890   6.676   4.877
 4994SOL     OW15880   2.509   5.619   4.868
 4994SOL    HW115881   2.472   5.533   4.903
 4994SOL    HW215882   2.444   5.693   4.886
 4995SOL     OW15883   0.862   1.064   5.045
 4995SOL    HW115884   0.930   1.001   5.083
 4995SOL    HW215885   0.869   1.153   5.091
 4996SOL     OW15886   6.721   1.355   3.729
 4996SOL    HW115887   6.690   1.288   3.662
 4996SOL    HW215888   6.731   1.444   3.684
 4997SOL     OW15889   3.707   2.564   1.199
 4997SOL    HW115890   3.664   2.598   1.283
 4997SOL    HW215891   3.730   2.641   1.140
 4998SOL     OW15892   1.749   3.566   4.007
 4998SOL    HW115893   1.714   3.473   4.016
 4998SOL    HW215894   1.681   3.631   4.041
 4999SOL     OW15895   0.172   3.289   4.945
 4999SOL    HW115896   0.145   3.224   5.016
 4999SOL    HW215897   0.138   3.380   4.968
 5000SOL     OW15898   3.165   6.562   3.267
 5000SOL    HW115899   3.104   6.483   3.278
 5000SOL    HW215900   3.115   6.636   3.224
 5001SOL     OW15901   0.636   5.501   2.451
 5001SOL    HW115902   0.690   5.474   2.531
 5001SOL    HW215903   0.545   5.529   2.481
 5002SOL     OW15904   0.442   5.265   1.922
 5002SOL    HW115905   0.400   5.349   1.887
 5002SOL    HW215906   0.542   5.271   1.915
 5003SOL     OW15907   4.126   6.629   2.675
 5003SOL    HW115908   4.108   6.712   2.727
 5003SOL    HW215909   4.109   6.646   2.578
 5004SOL     OW15910   2.238   4.770   5.479
 5004SOL    HW115911   2.235   4.727   5.389
 5004SOL    HW215912   2.166   4.733   5.537
 5005SOL     OW15913   2.725   3.273   6.625
 5005SOL    HW115914   2.685   3.269   6.533
 5005SOL    HW215915   2.780   3.356   6.634
 5006SOL     OW15916   5.876   1.055   2.276
 5006SOL    HW115917   5.812   0.993   2.229
 5006SOL    HW215918   5.915   1.119   2.210
 5007SOL     OW15919   6.955   0.525   1.458
 5007SOL    HW115920   6.857   0.514   1.442
 5007SOL    HW215921   6.998   0.562   1.376
 5008SOL     OW15922   6.141   5.480   1.174
 5008SOL    HW115923   6.138   5.577   1.154
 5008SOL    HW215924   6.078   5.459   1.249
 5009SOL     OW15925   0.570   2.374   0.327
 5009SOL    HW115926   0.548   2.465   0.291
 5009SOL    HW215927   0.662   2.375   0.366
 5010SOL     OW15928   4.280   2.599   0.852
 5010SOL    HW115929   4.206   2.533   0.868
 5010SOL    HW215930   4.353   2.582   0.918
 5011SOL     OW15931   2.243   3.967   1.399
 5011SOL    HW115932   2.186   3.928   1.472
 5011SOL    HW215933   2.206   3.941   1.310
 5012SOL     OW15934   6.541   2.584   5.391
 5012SOL    HW115935   6.508   2.653   5.326
 5012SOL    HW215936   6.463   2.542   5.438
 5013SOL     OW15937   5.491   0.897   6.279
 5013SOL    HW115938   5.517   0.946   6.362
 5013SOL    HW215939   5.508   0.956   6.199
 5014SOL     OW15940   6.370   4.367   0.107
 5014SOL    HW115941   6.344   4.405   0.018
 5014SOL    HW215942   6.470   4.364   0.115
 5015SOL     OW15943   4.852   1.005   4.707
 5015SOL    HW115944   4.779   1.005   4.776
 5015SOL    HW215945   4.826   0.945   4.631
 5016SOL     OW15946   0.843   2.962   4.772
 5016SOL    HW115947   0.785   3.007   4.839
 5016SOL    HW215948   0.803   2.874   4.746
 5017SOL     OW15949   1.770   2.002   1.196
 5017SOL    HW115950   1.837   2.056   1.247
 5017SOL    HW215951   1.680   2.045   1.204
 5018SOL     OW15952   1.124   5.091   2.813
 5018SOL    HW115953   1.062   5.023   2.774
 5018SOL    HW215954   1.190   5.120   2.743
 5019SOL     OW15955   2.361   6.403   5.874
 5019SOL    HW115956   2.372   6.304   5.871
 5019SOL    HW215957   2.376   6.442   5.783
 5020SOL     OW15958   6.817   6.997   5.582
 5020SOL    HW115959   6.855   6.948   5.503
 5020SOL    HW215960   6.775   0.059   5.552
 5021SOL     OW15961   1.247   1.197   0.952
 5021SOL    HW115962   1.217   1.102   0.953
 5021SOL    HW215963   1.261   1.228   1.046
 5022SOL     OW15964   0.955   2.307   2.159
 5022SOL    HW115965   0.889   2.233   2.170
 5022SOL    HW215966   1.015   2.287   2.081
 5023SOL     OW15967   0.118   4.173   1.559
 5023SOL    HW115968   0.158   4.250   1.509
 5023SOL    HW215969   0.192   4.118   1.599
 5024SOL     OW15970   5.730   5.127   0.987
 5024SOL    HW115971   5.824   5.160   0.992
 5024SOL    HW215972   5.668   5.205   0.983
 5025SOL     OW15973   4.261   2.320   3.901
 5025SOL    HW115974   4.209   2.320   3.986
 5025SOL    HW215975   4.265   2.227   3.864
 5026SOL     OW15976   6.996   5.573   5.156
 5026SOL    HW115977   6.972   5.568   5.253
 5026SOL    HW215978   7.011   5.481   5.121
 5027SOL     OW15979   6.120   7.016   1.953
 5027SOL    HW115980   6.145   0.036   1.866
 5027SOL    HW215981   6.028   0.021   1.980
 5028SOL     OW15982   6.741   1.991   3.237
 5028SOL    HW115983   6.781   1.941   3.314
 5028SOL    HW215984   6.642   1.998   3.249
 5029SOL     OW15985   6.302   2.496   2.391
 5029SOL    HW115986   6.350   2.575   2.430
 5029SOL    HW215987   6.256   2.446   2.464
 5030SOL     OW15988   0.009   5.864   6.558
 5030SOL    HW115989   0.047   5.774   6.578
 5030SOL    HW215990   0.057   5.904   6.480
 5031SOL     OW15991   6.403   1.552   5.640
 5031SOL    HW115992   6.423   1.492   5.717
 5031SOL    HW215993   6.467   1.532   5.565
 5032SOL     OW15994   3.137   1.427   5.983
 5032SOL    HW115995   3.149   1.331   6.007
 5032SOL    HW215996   3.040   1.445   5.964
 5033SOL     OW15997   1.900   0.237   6.929
 5033SOL    HW115998   1.910   0.243   6.830
 5033SOL    HW215999   1.968   0.296   6.973
 5034SOL     OW16000   6.059   6.870   3.576
 5034SOL    HW116001   6.042   6.781   3.618
 5034SOL    HW216002   6.096   6.856   3.484
 5035SOL     OW16003   0.376   3.922   5.287
 5035SOL    HW116004   0.439   3.988   5.247
 5035SOL    HW216005   0.299   3.908   5.225
 5036SOL     OW16006   6.868   4.856   0.060
 5036SOL    HW116007   6.873   4.938   0.002
 5036SOL    HW216008   6.773   4.837   0.083
 5037SOL     OW16009   4.826   4.789   1.597
 5037SOL    HW116010   4.892   4.824   1.663
 5037SOL    HW216011   4.856   4.813   1.504
 5038SOL     OW16012   3.862   2.997   4.655
 5038SOL    HW116013   3.800   2.948   4.716
 5038SOL    HW216014   3.843   2.970   4.560
 5039SOL     OW16015   1.992   3.246   5.330
 5039SOL    HW116016   1.925   3.193   5.382
 5039SOL    HW216017   2.058   3.184   5.288
 5040SOL     OW16018   0.976   6.564   5.335
 5040SOL    HW116019   0.957   6.662   5.337
 5040SOL    HW216020   0.908   6.516   5.390
 5041SOL     OW16021   1.271   1.737   1.788
 5041SOL    HW116022   1.300   1.648   1.823
 5041SOL    HW216023   1.322   1.758   1.705
 5042SOL     OW16024   6.813   3.181   0.387
 5042SOL    HW116025   6.745   3.122   0.341
 5042SOL    HW216026   6.888   3.200   0.324
 5043SOL     OW16027   4.563   0.653   6.953
 5043SOL    HW116028   4.552   0.723   6.882
 5043SOL    HW216029   4.659   0.646   6.978
 5044SOL     OW16030   0.853   5.822   0.976
 5044SOL    HW116031   0.797   5.839   0.895
 5044SOL    HW216032   0.950   5.831   0.952
 5045SOL     OW16033   6.251   6.030   6.161
 5045SOL    HW116034   6.185   5.989   6.224
 5045SOL    HW216035   6.225   6.008   6.067
 5046SOL     OW16036   3.385   3.789   3.318
 5046SOL    HW116037   3.422   3.718   3.258
 5046SOL    HW216038   3.426   3.877   3.295
 5047SOL     OW16039   1.871   4.364   2.867
 5047SOL    HW116040   1.780   4.372   2.826
 5047SOL    HW216041   1.879   4.431   2.941
 5048SOL     OW16042   1.490   1.082   3.832
 5048SOL    HW116043   1.580   1.105   3.793
 5048SOL    HW216044   1.428   1.055   3.758
 5049SOL     OW16045   4.914   1.368   0.125
 5049SOL    HW116046   4.840   1.435   0.119
 5049SOL    HW216047   4.878   1.276   0.110
 5050SOL     OW16048   1.442   0.943   0.108
 5050SOL    HW116049   1.498   0.994   0.043
 5050SOL    HW216050   1.421   0.853   0.070
 5051SOL     OW16051   4.734   4.450   1.335
 5051SOL    HW116052   4.801   4.467   1.407
 5051SOL    HW216053   4.762   4.371   1.281
 5052SOL     OW16054   3.015   1.469   5.604
 5052SOL    HW116055   2.938   1.498   5.548
 5052SOL    HW216056   3.029   1.370   5.592
 5053SOL     OW16057   0.992   4.894   3.414
 5053SOL    HW116058   1.061   4.943   3.361
 5053SOL    HW216059   1.017   4.896   3.511
 5054SOL     OW16060   2.587   5.130   4.574
 5054SOL    HW116061   2.670   5.123   4.518
 5054SOL    HW216062   2.589   5.217   4.624
 5055SOL     OW16063   0.627   2.380   5.716
 5055SOL    HW116064   0.577   2.466   5.711
 5055SOL    HW216065   0.586   2.322   5.787
 5056SOL     OW16066   5.453   4.079   6.069
 5056SOL    HW116067   5.404   4.145   6.012
 5056SOL    HW216068   5.456   4.113   6.164
 5057SOL     OW16069   6.901   6.769   3.331
 5057SOL    HW116070   6.975   6.787   3.265
 5057SOL    HW216071   6.821   6.823   3.306
 5058SOL     OW16072   3.648   3.478   5.882
 5058SOL    HW116073   3.565   3.422   5.886
 5058SOL    HW216074   3.623   3.573   5.865
 5059SOL     OW16075   0.087   0.866   3.461
 5059SOL    HW116076   0.008   0.895   3.514
 5059SOL    HW216077   0.157   0.938   3.462
 5060SOL     OW16078   0.462   2.865   6.191
 5060SOL    HW116079   0.508   2.923   6.258
 5060SOL    HW216080   0.513   2.780   6.180
 5061SOL     OW16081   4.957   2.542   0.838
 5061SOL    HW116082   4.934   2.577   0.747
 5061SOL    HW216083   4.879   2.556   0.900
 5062SOL     OW16084   5.996   0.080   2.512
 5062SOL    HW116085   6.078   0.114   2.558
 5062SOL    HW216086   6.021   0.043   2.423
 5063SOL     OW16087   0.537   6.986   2.418
 5063SOL    HW116088   0.628   7.020   2.441
 5063SOL    HW216089   0.469   0.034   2.438
 5064SOL     OW16090   4.999   3.605   1.099
 5064SOL    HW116091   4.992   3.592   1.000
 5064SOL    HW216092   5.056   3.685   1.118
 5065SOL     OW16093   2.874   0.514   5.663
 5065SOL    HW116094   2.820   0.510   5.579
 5065SOL    HW216095   2.940   0.439   5.663
 5066SOL     OW16096   5.081   4.508   2.359
 5066SOL    HW116097   5.013   4.576   2.331
 5066SOL    HW216098   5.173   4.543   2.338
 5067SOL     OW16099   4.913   1.393   0.875
 5067SOL    HW116100   4.942   1.464   0.811
 5067SOL    HW216101   4.813   1.385   0.874
 5068SOL     OW16102   2.756   4.450   1.118
 5068SOL    HW116103   2.782   4.545   1.104
 5068SOL    HW216104   2.684   4.445   1.188
 5069SOL     OW16105   1.383   4.208   3.657
 5069SOL    HW116106   1.438   4.283   3.695
 5069SOL    HW216107   1.441   4.149   3.602
 5070SOL     OW16108   5.192   3.368   3.779
 5070SOL    HW116109   5.251   3.376   3.859
 5070SOL    HW216110   5.097   3.375   3.806
 5071SOL     OW16111   4.895   2.114   4.603
 5071SOL    HW116112   4.911   2.108   4.702
 5071SOL    HW216113   4.819   2.054   4.578
 5072SOL     OW16114   0.861   6.518   0.780
 5072SOL    HW116115   0.898   6.611   0.781
 5072SOL    HW216116   0.853   6.484   0.874
 5073SOL     OW16117   6.520   6.552   3.071
 5073SOL    HW116118   6.532   6.453   3.083
 5073SOL    HW216119   6.590   6.586   3.007
 5074SOL     OW16120   3.527   3.016   6.812
 5074SOL    HW116121   3.560   2.999   6.905
 5074SOL    HW216122   3.479   2.935   6.778
 5075SOL     OW16123   0.612   2.272   6.229
 5075SOL    HW116124   0.688   2.207   6.220
 5075SOL    HW216125   0.638   2.345   6.293
 5076SOL     OW16126   3.234   0.731   0.802
 5076SOL    HW116127   3.284   0.812   0.774
 5076SOL    HW216128   3.148   0.726   0.751
 5077SOL     OW16129   0.057   2.633   4.600
 5077SOL    HW116130   0.079   2.538   4.625
 5077SOL    HW216131   0.109   2.695   4.658
 5078SOL     OW16132   1.009   2.055   3.758
 5078SOL    HW116133   1.101   2.056   3.799
 5078SOL    HW216134   0.997   1.969   3.707
 5079SOL     OW16135   2.625   4.726   6.181
 5079SOL    HW116136   2.718   4.745   6.213
 5079SOL    HW216137   2.566   4.804   6.201
 5080SOL     OW16138   5.808   6.628   5.455
 5080SOL    HW116139   5.813   6.557   5.526
 5080SOL    HW216140   5.712   6.646   5.434
 5081SOL     OW16141   4.080   3.380   3.376
 5081SOL    HW116142   4.138   3.408   3.453
 5081SOL    HW216143   4.019   3.307   3.406
 5082SOL     OW16144   5.940   5.158   5.489
 5082SOL    HW116145   5.926   5.100   5.569
 5082SOL    HW216146   6.018   5.125   5.437
 5083SOL     OW16147   1.752   6.353   2.703
 5083SOL    HW116148   1.690   6.348   2.624
 5083SOL    HW216149   1.765   6.262   2.741
 5084SOL     OW16150   1.165   4.929   4.746
 5084SOL    HW116151   1.100   4.882   4.686
 5084SOL    HW216152   1.215   4.861   4.800
 5085SOL     OW16153   5.582   2.358   6.610
 5085SOL    HW116154   5.541   2.290   6.672
 5085SOL    HW216155   5.672   2.385   6.645
 5086SOL     OW16156   6.713   5.421   4.046
 5086SOL    HW116157   6.809   5.417   4.019
 5086SOL    HW216158   6.703   5.380   4.137
 5087SOL     OW16159   6.565   5.739   3.610
 5087SOL    HW116160   6.609   5.747   3.521
 5087SOL    HW216161   6.492   5.808   3.617
 5088SOL     OW16162   5.523   1.717   4.761
 5088SOL    HW116163   5.452   1.786   4.748
 5088SOL    HW216164   5.585   1.717   4.683
 5089SOL     OW16165   5.976   3.597   2.996
 5089SOL    HW116166   6.028   3.667   2.948
 5089SOL    HW216167   5.996   3.600   3.094
 5090SOL     OW16168   1.968   4.046   2.043
 5090SOL    HW116169   1.995   4.109   1.970
 5090SOL    HW216170   1.918   3.969   2.004
 5091SOL     OW16171   1.042   6.044   3.156
 5091SOL    HW116172   1.046   5.946   3.176
 5091SOL    HW216173   1.111   6.092   3.210
 5092SOL     OW16174   3.121   2.659   1.099
 5092SOL    HW116175   3.216   2.644   1.127
 5092SOL    HW216176   3.060   2.603   1.155
 5093SOL     OW16177   1.956   1.361   1.541
 5093SOL    HW116178   2.040   1.333   1.588
 5093SOL    HW216179   1.937   1.299   1.466
 5094SOL     OW16180   0.933   6.869   4.587
 5094SOL    HW116181   0.872   6.864   4.509
 5094SOL    HW216182   0.880   6.867   4.672
 5095SOL     OW16183   1.002   1.523   4.202
 5095SOL    HW116184   0.902   1.523   4.200
 5095SOL    HW216185   1.036   1.616   4.191
 5096SOL     OW16186   4.473   4.093   0.596
 5096SOL    HW116187   4.482   4.035   0.677
 5096SOL    HW216188   4.523   4.051   0.520
 5097SOL     OW16189   2.196   0.360   6.555
 5097SOL    HW116190   2.264   0.405   6.612
 5097SOL    HW216191   2.226   0.360   6.460
 5098SOL     OW16192   0.758   0.449   1.545
 5098SOL    HW116193   0.685   0.387   1.574
 5098SOL    HW216194   0.785   0.427   1.451
 5099SOL     OW16195   1.050   0.634   6.305
 5099SOL    HW116196   1.147   0.637   6.282
 5099SOL    HW216197   1.008   0.554   6.261
 5100SOL     OW16198   4.570   6.448   5.832
 5100SOL    HW116199   4.543   6.514   5.902
 5100SOL    HW216200   4.657   6.476   5.791
 5101SOL     OW16201   4.866   6.639   0.124
 5101SOL    HW116202   4.784   6.611   0.075
 5101SOL    HW216203   4.840   6.680   0.212
 5102SOL     OW16204   5.943   0.528   5.659
 5102SOL    HW116205   5.843   0.523   5.656
 5102SOL    HW216206   5.980   0.509   5.569
 5103SOL     OW16207   0.220   1.051   4.381
 5103SOL    HW116208   0.209   1.022   4.476
 5103SOL    HW216209   0.235   1.149   4.377
 5104SOL     OW16210   1.738   6.408   1.800
 5104SOL    HW116211   1.791   6.356   1.734
 5104SOL    HW216212   1.768   6.385   1.893
 5105SOL     OW16213   4.028   3.543   0.265
 5105SOL    HW116214   3.982   3.536   0.354
 5105SOL    HW216215   4.049   3.638   0.246
 5106SOL     OW16216   3.400   0.481   2.252
 5106SOL    HW116217   3.488   0.473   2.205
 5106SOL    HW216218   3.331   0.429   2.202
 5107SOL     OW16219   3.340   0.883   0.509
 5107SOL    HW116220   3.408   0.877   0.581
 5107SOL    HW216221   3.369   0.827   0.431
 5108SOL     OW16222   2.976   3.345   3.629
 5108SOL    HW116223   2.943   3.354   3.723
 5108SOL    HW216224   2.899   3.337   3.567
 5109SOL     OW16225   0.774   1.614   1.199
 5109SOL    HW116226   0.838   1.643   1.127
 5109SOL    HW216227   0.825   1.565   1.271
 5110SOL     OW16228   0.974   6.993   6.563
 5110SOL    HW116229   1.033   6.923   6.604
 5110SOL    HW216230   0.948   6.964   6.471
 5111SOL     OW16231   0.459   1.500   6.162
 5111SOL    HW116232   0.532   1.485   6.229
 5111SOL    HW216233   0.471   1.437   6.085
 5112SOL     OW16234   0.613   6.995   3.284
 5112SOL    HW116235   0.707   6.974   3.311
 5112SOL    HW216236   0.610   0.063   3.243
 5113SOL     OW16237   1.416   6.859   1.209
 5113SOL    HW116238   1.448   6.886   1.299
 5113SOL    HW216239   1.477   6.789   1.172
 5114SOL     OW16240   3.465   3.154   0.397
 5114SOL    HW116241   3.413   3.134   0.480
 5114SOL    HW216242   3.467   3.073   0.338
 5115SOL     OW16243   1.725   4.409   5.298
 5115SOL    HW116244   1.668   4.446   5.225
 5115SOL    HW216245   1.781   4.334   5.262
 5116SOL     OW16246   5.548   6.245   6.150
 5116SOL    HW116247   5.594   6.333   6.162
 5116SOL    HW216248   5.605   6.172   6.187
 5117SOL     OW16249   2.005   4.488   3.865
 5117SOL    HW116250   2.099   4.485   3.901
 5117SOL    HW216251   1.959   4.570   3.899
 5118SOL     OW16252   5.093   6.164   0.383
 5118SOL    HW116253   5.073   6.129   0.474
 5118SOL    HW216254   5.071   6.261   0.378
 5119SOL     OW16255   5.024   0.737   1.487
 5119SOL    HW116256   4.935   0.693   1.492
 5119SOL    HW216257   5.092   0.679   1.531
 5120SOL     OW16258   5.927   1.476   3.563
 5120SOL    HW116259   6.011   1.456   3.513
 5120SOL    HW216260   5.876   1.391   3.577
 5121SOL     OW16261   1.563   2.741   6.717
 5121SOL    HW116262   1.578   2.645   6.740
 5121SOL    HW216263   1.505   2.784   6.786
 5122SOL     OW16264   3.074   0.843   4.176
 5122SOL    HW116265   3.108   0.794   4.096
 5122SOL    HW216266   3.102   0.795   4.259
 5123SOL     OW16267   5.531   3.424   4.552
 5123SOL    HW116268   5.582   3.451   4.470
 5123SOL    HW216269   5.481   3.339   4.533
 5124SOL     OW16270   2.574   5.196   6.598
 5124SOL    HW116271   2.494   5.150   6.560
 5124SOL    HW216272   2.544   5.262   6.667
 5125SOL     OW16273   6.854   3.358   4.603
 5125SOL    HW116274   6.772   3.407   4.572
 5125SOL    HW216275   6.922   3.358   4.530
 5126SOL     OW16276   6.126   5.091   5.322
 5126SOL    HW116277   6.150   5.168   5.262
 5126SOL    HW216278   6.101   5.012   5.266
 5127SOL     OW16279   5.848   3.955   0.418
 5127SOL    HW116280   5.945   3.949   0.442
 5127SOL    HW216281   5.798   3.883   0.466
 5128SOL     OW16282   1.125   0.262   0.160
 5128SOL    HW116283   1.222   0.265   0.185
 5128SOL    HW216284   1.083   0.180   0.198
 5129SOL     OW16285   4.839   1.340   2.624
 5129SOL    HW116286   4.749   1.297   2.615
 5129SOL    HW216287   4.910   1.271   2.611
 5130SOL     OW16288   1.267   5.890   4.747
 5130SOL    HW116289   1.225   5.936   4.669
 5130SOL    HW216290   1.319   5.810   4.715
 5131SOL     OW16291   3.107   4.850   3.508
 5131SOL    HW116292   3.147   4.913   3.442
 5131SOL    HW216293   3.170   4.775   3.526
 5132SOL     OW16294   3.719   1.189   6.197
 5132SOL    HW116295   3.694   1.207   6.102
 5132SOL    HW216296   3.693   1.268   6.253
 5133SOL     OW16297   3.147   5.328   6.221
 5133SOL    HW116298   3.178   5.279   6.140
 5133SOL    HW216299   3.154   5.426   6.206
 5134SOL     OW16300   6.447   0.266   2.231
 5134SOL    HW116301   6.404   0.191   2.181
 5134SOL    HW216302   6.460   0.344   2.170
 5135SOL     OW16303   6.422   3.783   2.958
 5135SOL    HW116304   6.508   3.731   2.962
 5135SOL    HW216305   6.417   3.832   2.871
 5136SOL     OW16306   6.481   1.809   5.695
 5136SOL    HW116307   6.487   1.836   5.598
 5136SOL    HW216308   6.478   1.710   5.702
 5137SOL     OW16309   5.080   2.922   5.191
 5137SOL    HW116310   4.982   2.906   5.201
 5137SOL    HW216311   5.126   2.906   5.278
 5138SOL     OW16312   3.346   3.867   3.761
 5138SOL    HW116313   3.379   3.961   3.755
 5138SOL    HW216314   3.323   3.846   3.857
 5139SOL     OW16315   1.155   0.291   4.905
 5139SOL    HW116316   1.091   0.270   4.978
 5139SOL    HW216317   1.134   0.380   4.866
 5140SOL     OW16318   3.898   1.443   6.235
 5140SOL    HW116319   3.974   1.436   6.171
 5140SOL    HW216320   3.882   1.355   6.278
 5141SOL     OW16321   6.199   2.491   0.987
 5141SOL    HW116322   6.251   2.553   1.045
 5141SOL    HW216323   6.161   2.542   0.910
 5142SOL     OW16324   6.109   6.977   4.611
 5142SOL    HW116325   6.123   6.973   4.709
 5142SOL    HW216326   6.155   6.900   4.567
 5143SOL     OW16327   1.197   4.080   4.925
 5143SOL    HW116328   1.162   4.049   5.013
 5143SOL    HW216329   1.184   4.009   4.857
 5144SOL     OW16330   2.028   3.931   6.766
 5144SOL    HW116331   1.961   4.005   6.756
 5144SOL    HW216332   2.090   3.932   6.688
 5145SOL     OW16333   3.590   6.039   6.309
 5145SOL    HW116334   3.495   6.034   6.279
 5145SOL    HW216335   3.593   6.071   6.404
 5146SOL     OW16336   3.823   3.984   5.539
 5146SOL    HW116337   3.891   4.057   5.536
 5146SOL    HW216338   3.735   4.021   5.567
 5147SOL     OW16339   5.622   4.385   3.406
 5147SOL    HW116340   5.707   4.365   3.357
 5147SOL    HW216341   5.566   4.449   3.353
 5148SOL     OW16342   0.494   0.267   2.176
 5148SOL    HW116343   0.402   0.275   2.215
 5148SOL    HW216344   0.562   0.289   2.247
 5149SOL     OW16345   5.569   4.921   4.502
 5149SOL    HW116346   5.634   4.883   4.568
 5149SOL    HW216347   5.478   4.881   4.517
 5150SOL     OW16348   1.529   4.505   3.676
 5150SOL    HW116349   1.563   4.599   3.685
 5150SOL    HW216350   1.476   4.497   3.591
 5151SOL     OW16351   5.694   4.325   1.699
 5151SOL    HW116352   5.774   4.284   1.656
 5151SOL    HW216353   5.705   4.325   1.799
 5152SOL     OW16354   1.345   5.830   6.973
 5152SOL    HW116355   1.263   5.886   6.958
 5152SOL    HW216356   1.426   5.887   6.962
 5153SOL     OW16357   1.515   1.577   0.564
 5153SOL    HW116358   1.524   1.479   0.577
 5153SOL    HW216359   1.431   1.596   0.512
 5154SOL     OW16360   1.394   2.940   6.843
 5154SOL    HW116361   1.427   3.025   6.886
 5154SOL    HW216362   1.296   2.949   6.824
 5155SOL     OW16363   2.713   1.859   0.496
 5155SOL    HW116364   2.725   1.900   0.586
 5155SOL    HW216365   2.797   1.872   0.442
 5156SOL     OW16366   5.525   5.092   4.859
 5156SOL    HW116367   5.464   5.016   4.837
 5156SOL    HW216368   5.473   5.177   4.860
 5157SOL     OW16369   3.125   1.731   1.936
 5157SOL    HW116370   3.173   1.818   1.923
 5157SOL    HW216371   3.187   1.665   1.977
 5158SOL     OW16372   3.100   2.319   1.212
 5158SOL    HW116373   3.048   2.393   1.256
 5158SOL    HW216374   3.049   2.285   1.133
 5159SOL     OW16375   6.138   3.956   6.292
 5159SOL    HW116376   6.053   3.936   6.340
 5159SOL    HW216377   6.155   3.885   6.223
 5160SOL     OW16378   6.422   6.319   3.312
 5160SOL    HW116379   6.345   6.314   3.375
 5160SOL    HW216380   6.394   6.286   3.222
 5161SOL     OW16381   1.217   3.577   0.087
 5161SOL    HW116382   1.303   3.580   0.036
 5161SOL    HW216383   1.236   3.552   0.182
 5162SOL     OW16384   0.701   5.341   2.108
 5162SOL    HW116385   0.702   5.281   2.188
 5162SOL    HW216386   0.656   5.427   2.131
 5163SOL     OW16387   3.407   6.456   1.093
 5163SOL    HW116388   3.465   6.417   1.022
 5163SOL    HW216389   3.316   6.415   1.087
 5164SOL     OW16390   2.614   3.039   0.443
 5164SOL    HW116391   2.661   2.995   0.366
 5164SOL    HW216392   2.666   3.023   0.527
 5165SOL     OW16393   0.900   4.084   6.763
 5165SOL    HW116394   0.981   4.065   6.708
 5165SOL    HW216395   0.866   4.175   6.742
 5166SOL     OW16396   1.500   5.639   2.207
 5166SOL    HW116397   1.415   5.692   2.197
 5166SOL    HW216398   1.565   5.667   2.137
 5167SOL     OW16399   6.194   4.244   5.264
 5167SOL    HW116400   6.127   4.260   5.192
 5167SOL    HW216401   6.189   4.148   5.293
 5168SOL     OW16402   4.399   2.034   2.390
 5168SOL    HW116403   4.311   2.054   2.348
 5168SOL    HW216404   4.472   2.048   2.322
 5169SOL     OW16405   4.711   1.644   4.011
 5169SOL    HW116406   4.741   1.707   3.940
 5169SOL    HW216407   4.783   1.577   4.030
 5170SOL     OW16408   1.442   3.839   5.977
 5170SOL    HW116409   1.352   3.802   6.001
 5170SOL    HW216410   1.501   3.764   5.946
 5171SOL     OW16411   1.393   4.994   5.401
 5171SOL    HW116412   1.418   4.939   5.481
 5171SOL    HW216413   1.332   4.941   5.342
 5172SOL     OW16414   1.459   5.051   3.895
 5172SOL    HW116415   1.429   5.093   3.810
 5172SOL    HW216416   1.470   5.121   3.966
 5173SOL     OW16417   4.314   3.780   5.993
 5173SOL    HW116418   4.281   3.708   6.054
 5173SOL    HW216419   4.414   3.780   5.992
 5174SOL     OW16420   1.813   6.865   3.912
 5174SOL    HW116421   1.842   6.904   3.999
 5174SOL    HW216422   1.746   6.792   3.929
 5175SOL     OW16423   2.813   4.410   6.329
 5175SOL    HW116424   2.889   4.348   6.351
 5175SOL    HW216425   2.791   4.402   6.232
 5176SOL     OW16426   5.519   5.571   6.139
 5176SOL    HW116427   5.566   5.657   6.157
 5176SOL    HW216428   5.454   5.584   6.063
 5177SOL     OW16429   5.404   6.860   1.191
 5177SOL    HW116430   5.436   6.918   1.116
 5177SOL    HW216431   5.348   6.786   1.154
 5178SOL     OW16432   0.184   4.564   1.661
 5178SOL    HW116433   0.194   4.507   1.742
 5178SOL    HW216434   0.207   4.659   1.684
 5179SOL     OW16435   4.982   4.322   3.381
 5179SOL    HW116436   4.964   4.419   3.399
 5179SOL    HW216437   4.895   4.276   3.360
 5180SOL     OW16438   3.112   6.798   1.166
 5180SOL    HW116439   3.202   6.754   1.166
 5180SOL    HW216440   3.118   6.886   1.212
 5181SOL     OW16441   0.366   0.406   0.077
 5181SOL    HW116442   0.443   0.468   0.091
 5181SOL    HW216443   0.294   0.453   0.026
 5182SOL     OW16444   4.447   4.568   2.053
 5182SOL    HW116445   4.510   4.490   2.045
 5182SOL    HW216446   4.362   4.538   2.096
 5183SOL     OW16447   4.124   2.072   3.081
 5183SOL    HW116448   4.174   1.990   3.052
 5183SOL    HW216449   4.033   2.046   3.113
 5184SOL     OW16450   2.085   2.474   3.029
 5184SOL    HW116451   2.143   2.409   2.980
 5184SOL    HW216452   2.121   2.566   3.018
 5185SOL     OW16453   4.925   0.267   3.112
 5185SOL    HW116454   4.869   0.254   3.030
 5185SOL    HW216455   4.989   0.343   3.098
 5186SOL     OW16456   5.621   2.731   5.728
 5186SOL    HW116457   5.613   2.751   5.826
 5186SOL    HW216458   5.617   2.632   5.714
 5187SOL     OW16459   2.327   5.381   4.783
 5187SOL    HW116460   2.282   5.340   4.704
 5187SOL    HW216461   2.313   5.322   4.863
 5188SOL     OW16462   7.000   6.170   1.500
 5188SOL    HW116463   6.910   6.202   1.470
 5188SOL    HW216464   7.009   6.072   1.479
 5189SOL     OW16465   5.732   6.168   6.973
 5189SOL    HW116466   5.634   6.161   6.951
 5189SOL    HW216467   5.743   6.181   0.049
 5190SOL     OW16468   1.690   2.904   2.453
 5190SOL    HW116469   1.590   2.896   2.458
 5190SOL    HW216470   1.715   2.998   2.433
 5191SOL     OW16471   3.051   5.918   2.748
 5191SOL    HW116472   3.026   5.968   2.831
 5191SOL    HW216473   3.066   5.983   2.674
 5192SOL     OW16474   2.088   5.825   1.502
 5192SOL    HW116475   2.118   5.915   1.534
 5192SOL    HW216476   2.001   5.801   1.545
 5193SOL     OW16477   5.146   0.045   6.872
 5193SOL    HW116478   5.113   6.999   6.937
 5193SOL    HW216479   5.240   0.025   6.847
 5194SOL     OW16480   2.811   1.714   6.473
 5194SOL    HW116481   2.849   1.678   6.387
 5194SOL    HW216482   2.797   1.638   6.537
 5195SOL     OW16483   0.890   0.562   3.864
 5195SOL    HW116484   0.921   0.620   3.789
 5195SOL    HW216485   0.912   0.467   3.844
 5196SOL     OW16486   4.439   6.658   2.523
 5196SOL    HW116487   4.362   6.597   2.544
 5196SOL    HW216488   4.444   6.672   2.424
 5197SOL     OW16489   1.666   3.603   6.215
 5197SOL    HW116490   1.596   3.600   6.286
 5197SOL    HW216491   1.681   3.510   6.179
 5198SOL     OW16492   4.467   5.326   3.165
 5198SOL    HW116493   4.503   5.328   3.258
 5198SOL    HW216494   4.476   5.417   3.124
 5199SOL     OW16495   0.510   5.430   0.950
 5199SOL    HW116496   0.466   5.374   0.880
 5199SOL    HW216497   0.484   5.526   0.938
 5200SOL     OW16498   0.190   3.823   4.902
 5200SOL    HW116499   0.228   3.736   4.933
 5200SOL    HW216500   0.139   3.865   4.977
 5201SOL     OW16501   0.419   6.659   3.656
 5201SOL    HW116502   0.497   6.607   3.690
 5201SOL    HW216503   0.409   6.743   3.708
 5202SOL     OW16504   6.572   2.591   6.072
 5202SOL    HW116505   6.602   2.503   6.109
 5202SOL    HW216506   6.619   2.665   6.121
 5203SOL     OW16507   1.549   2.339   6.982
 5203SOL    HW116508   1.600   2.268   6.934
 5203SOL    HW216509   1.481   2.296   0.019
 5204SOL     OW16510   4.069   5.177   0.549
 5204SOL    HW116511   4.131   5.224   0.487
 5204SOL    HW216512   4.115   5.161   0.637
 5205SOL     OW16513   1.810   6.793   1.119
 5205SOL    HW116514   1.876   6.737   1.068
 5205SOL    HW216515   1.718   6.755   1.108
 5206SOL     OW16516   0.585   4.407   6.314
 5206SOL    HW116517   0.515   4.371   6.251
 5206SOL    HW216518   0.673   4.412   6.266
 5207SOL     OW16519   1.119   4.891   4.210
 5207SOL    HW116520   1.174   4.851   4.282
 5207SOL    HW216521   1.096   4.986   4.234
 5208SOL     OW16522   3.771   1.123   0.656
 5208SOL    HW116523   3.869   1.133   0.640
 5208SOL    HW216524   3.720   1.174   0.587
 5209SOL     OW16525   5.921   5.713   4.270
 5209SOL    HW116526   5.875   5.800   4.291
 5209SOL    HW216527   5.909   5.650   4.347
 5210SOL     OW16528   5.559   3.476   5.668
 5210SOL    HW116529   5.535   3.507   5.761
 5210SOL    HW216530   5.490   3.508   5.604
 5211SOL     OW16531   3.489   3.061   4.078
 5211SOL    HW116532   3.506   3.049   3.980
 5211SOL    HW216533   3.417   2.998   4.107
 5212SOL     OW16534   6.630   2.254   1.170
 5212SOL    HW116535   6.709   2.313   1.180
 5212SOL    HW216536   6.613   2.206   1.256
 5213SOL     OW16537   5.095   1.949   0.061
 5213SOL    HW116538   5.039   1.955   0.143
 5213SOL    HW216539   5.150   1.865   0.064
 5214SOL     OW16540   5.279   1.119   6.585
 5214SOL    HW116541   5.353   1.135   6.650
 5214SOL    HW216542   5.215   1.053   6.623
 5215SOL     OW16543   5.369   5.469   3.018
 5215SOL    HW116544   5.362   5.568   3.011
 5215SOL    HW216545   5.285   5.432   3.058
 5216SOL     OW16546   4.918   6.132   1.179
 5216SOL    HW116547   4.904   6.036   1.203
 5216SOL    HW216548   4.939   6.139   1.081
 5217SOL     OW16549   3.069   5.097   4.214
 5217SOL    HW116550   2.997   5.030   4.193
 5217SOL    HW216551   3.131   5.058   4.282
 5218SOL     OW16552   1.711   0.329   3.555
 5218SOL    HW116553   1.745   0.293   3.468
 5218SOL    HW216554   1.780   0.313   3.626
 5219SOL     OW16555   3.725   0.274   6.741
 5219SOL    HW116556   3.800   0.339   6.746
 5219SOL    HW216557   3.751   0.197   6.683
 5220SOL     OW16558   1.460   5.414   2.770
 5220SOL    HW116559   1.398   5.471   2.717
 5220SOL    HW216560   1.427   5.406   2.864
 5221SOL     OW16561   5.572   2.346   4.605
 5221SOL    HW116562   5.619   2.296   4.533
 5221SOL    HW216563   5.480   2.308   4.617
 5222SOL     OW16564   2.846   0.061   4.502
 5222SOL    HW116565   2.918   0.001   4.537
 5222SOL    HW216566   2.872   0.094   4.411
 5223SOL     OW16567   4.547   0.779   1.291
 5223SOL    HW116568   4.613   0.730   1.234
 5223SOL    HW216569   4.459   0.733   1.287
 5224SOL     OW16570   0.442   1.632   3.407
 5224SOL    HW116571   0.486   1.705   3.355
 5224SOL    HW216572   0.362   1.669   3.453
 5225SOL     OW16573   6.787   0.712   3.181
 5225SOL    HW116574   6.724   0.774   3.135
 5225SOL    HW216575   6.862   0.764   3.222
 5226SOL     OW16576   0.443   6.117   5.409
 5226SOL    HW116577   0.407   6.203   5.446
 5226SOL    HW216578   0.368   6.053   5.393
 5227SOL     OW16579   1.219   4.716   4.403
 5227SOL    HW116580   1.249   4.668   4.320
 5227SOL    HW216581   1.268   4.679   4.482
 5228SOL     OW16582   6.473   2.703   0.227
 5228SOL    HW116583   6.527   2.782   0.257
 5228SOL    HW216584   6.476   2.632   0.296
 5229SOL     OW16585   1.751   4.388   6.824
 5229SOL    HW116586   1.830   4.441   6.796
 5229SOL    HW216587   1.732   4.405   6.921
 5230SOL     OW16588   0.318   0.111   0.595
 5230SOL    HW116589   0.398   0.133   0.651
 5230SOL    HW216590   0.348   0.070   0.509
 5231SOL     OW16591   3.089   3.274   4.728
 5231SOL    HW116592   3.018   3.234   4.670
 5231SOL    HW216593   3.083   3.373   4.724
 5232SOL     OW16594   3.101   1.943   6.466
 5232SOL    HW116595   3.007   1.977   6.465
 5232SOL    HW216596   3.165   2.018   6.447
 5233SOL     OW16597   6.818   0.047   1.326
 5233SOL    HW116598   6.868   0.133   1.322
 5233SOL    HW216599   6.843   7.021   1.410
 5234SOL     OW16600   3.009   0.144   6.606
 5234SOL    HW116601   2.933   0.083   6.583
 5234SOL    HW216602   3.095   0.096   6.592
 5235SOL     OW16603   1.840   2.879   1.397
 5235SOL    HW116604   1.766   2.941   1.370
 5235SOL    HW216605   1.813   2.785   1.377
 5236SOL     OW16606   5.596   2.823   1.768
 5236SOL    HW116607   5.561   2.881   1.842
 5236SOL    HW216608   5.520   2.794   1.710
 5237SOL     OW16609   2.532   1.775   5.447
 5237SOL    HW116610   2.534   1.688   5.398
 5237SOL    HW216611   2.561   1.848   5.385
 5238SOL     OW16612   2.170   5.228   0.093
 5238SOL    HW116613   2.171   5.128   0.085
 5238SOL    HW216614   2.209   5.254   0.182
 5239SOL     OW16615   3.561   3.756   3.540
 5239SOL    HW116616   3.610   3.680   3.497
 5239SOL    HW216617   3.472   3.768   3.496
 5240SOL     OW16618   3.093   2.363   5.781
 5240SOL    HW116619   3.123   2.317   5.864
 5240SOL    HW216620   3.088   2.297   5.706
 5241SOL     OW16621   1.447   6.203   6.569
 5241SOL    HW116622   1.359   6.159   6.586
 5241SOL    HW216623   1.444   6.298   6.600
 5242SOL     OW16624   6.277   6.746   5.125
 5242SOL    HW116625   6.347   6.803   5.082
 5242SOL    HW216626   6.289   6.748   5.224
 5243SOL     OW16627   1.723   6.327   1.349
 5243SOL    HW116628   1.690   6.234   1.363
 5243SOL    HW216629   1.692   6.385   1.424
 5244SOL     OW16630   4.269   3.821   5.733
 5244SOL    HW116631   4.185   3.875   5.728
 5244SOL    HW216632   4.298   3.813   5.829
 5245SOL     OW16633   4.362   4.064   6.204
 5245SOL    HW116634   4.324   4.107   6.122
 5245SOL    HW216635   4.362   3.964   6.191
 5246SOL     OW16636   6.133   4.202   2.584
 5246SOL    HW116637   6.200   4.276   2.592
 5246SOL    HW216638   6.043   4.237   2.610
 5247SOL     OW16639   1.622   6.162   0.630
 5247SOL    HW116640   1.717   6.133   0.640
 5247SOL    HW216641   1.563   6.106   0.689
 5248SOL     OW16642   5.734   0.466   6.131
 5248SOL    HW116643   5.791   0.448   6.212
 5248SOL    HW216644   5.779   0.429   6.050
 5249SOL     OW16645   0.678   5.842   4.977
 5249SOL    HW116646   0.721   5.754   4.992
 5249SOL    HW216647   0.578   5.832   4.981
 5250SOL     OW16648   6.698   1.487   5.812
 5250SOL    HW116649   6.749   1.403   5.795
 5250SOL    HW216650   6.727   1.558   5.748
 5251SOL     OW16651   0.167   2.680   1.262
 5251SOL    HW116652   0.157   2.630   1.176
 5251SOL    HW216653   0.236   2.635   1.319
 5252SOL     OW16654   2.153   5.623   0.762
 5252SOL    HW116655   2.143   5.537   0.812
 5252SOL    HW216656   2.210   5.609   0.681
 5253SOL     OW16657   5.449   3.745   5.145
 5253SOL    HW116658   5.522   3.773   5.082
 5253SOL    HW216659   5.374   3.705   5.092
 5254SOL     OW16660   5.698   1.745   3.614
 5254SOL    HW116661   5.608   1.742   3.571
 5254SOL    HW216662   5.734   1.653   3.623
 5255SOL     OW16663   4.064   0.291   4.707
 5255SOL    HW116664   4.100   0.355   4.776
 5255SOL    HW216665   4.098   0.199   4.726
 5256SOL     OW16666   5.078   1.195   3.195
 5256SOL    HW116667   5.044   1.179   3.102
 5256SOL    HW216668   5.104   1.107   3.236
 5257SOL     OW16669   4.241   0.244   2.239
 5257SOL    HW116670   4.299   0.290   2.172
 5257SOL    HW216671   4.152   0.224   2.198
 5258SOL     OW16672   5.026   4.193   1.398
 5258SOL    HW116673   5.000   4.264   1.332
 5258SOL    HW216674   4.985   4.214   1.487
 5259SOL     OW16675   4.568   6.557   1.227
 5259SOL    HW116676   4.553   6.548   1.128
 5259SOL    HW216677   4.480   6.552   1.275
 5260SOL     OW16678   5.339   2.895   0.955
 5260SOL    HW116679   5.357   2.810   1.003
 5260SOL    HW216680   5.268   2.947   1.003
 5261SOL     OW16681   1.200   2.630   5.936
 5261SOL    HW116682   1.255   2.581   6.005
 5261SOL    HW216683   1.122   2.573   5.910
 5262SOL     OW16684   2.603   0.042   3.065
 5262SOL    HW116685   2.625   0.036   3.162
 5262SOL    HW216686   2.683   0.016   3.010
 5263SOL     OW16687   0.880   0.199   6.155
 5263SOL    HW116688   0.849   0.126   6.094
 5263SOL    HW216689   0.893   0.163   6.247
 5264SOL     OW16690   6.127   1.106   1.698
 5264SOL    HW116691   6.086   1.063   1.617
 5264SOL    HW216692   6.174   1.037   1.752
 5265SOL     OW16693   4.895   4.421   2.539
 5265SOL    HW116694   4.976   4.437   2.484
 5265SOL    HW216695   4.918   4.364   2.618
 5266SOL     OW16696   2.295   6.485   1.440
 5266SOL    HW116697   2.371   6.509   1.379
 5266SOL    HW216698   2.300   6.542   1.523
 5267SOL     OW16699   4.494   4.373   5.792
 5267SOL    HW116700   4.495   4.284   5.748
 5267SOL    HW216701   4.524   4.363   5.887
 5268SOL     OW16702   6.969   5.566   5.418
 5268SOL    HW116703   6.939   5.489   5.475
 5268SOL    HW216704   0.041   5.588   5.441
 5269SOL     OW16705   2.294   5.904   3.891
 5269SOL    HW116706   2.314   5.997   3.921
 5269SOL    HW216707   2.281   5.845   3.971
 5270SOL     OW16708   4.334   1.813   1.738
 5270SOL    HW116709   4.262   1.799   1.671
 5270SOL    HW216710   4.303   1.878   1.808
 5271SOL     OW16711   4.713   5.265   4.507
 5271SOL    HW116712   4.658   5.261   4.424
 5271SOL    HW216713   4.771   5.184   4.512
 5272SOL     OW16714   1.168   5.777   3.837
 5272SOL    HW116715   1.128   5.700   3.788
 5272SOL    HW216716   1.262   5.754   3.864
 5273SOL     OW16717   1.304   3.029   3.277
 5273SOL    HW116718   1.394   3.012   3.318
 5273SOL    HW216719   1.240   2.960   3.308
 5274SOL     OW16720   6.078   4.745   2.718
 5274SOL    HW116721   6.157   4.801   2.692
 5274SOL    HW216722   6.068   4.670   2.652
 5275SOL     OW16723   2.920   1.284   6.249
 5275SOL    HW116724   2.915   1.377   6.212
 5275SOL    HW216725   2.985   1.230   6.195
 5276SOL     OW16726   0.244   6.265   0.821
 5276SOL    HW116727   0.158   6.215   0.815
 5276SOL    HW216728   0.259   6.317   0.737
 5277SOL     OW16729   1.792   2.669   2.848
 5277SOL    HW116730   1.853   2.741   2.817
 5277SOL    HW216731   1.796   2.661   2.948
 5278SOL     OW16732   5.257   6.949   5.363
 5278SOL    HW116733   5.331   7.017   5.370
 5278SOL    HW216734   5.203   6.950   5.448
 5279SOL     OW16735   1.572   6.136   6.951
 5279SOL    HW116736   1.491   6.187   6.922
 5279SOL    HW216737   1.641   6.139   6.880
 5280SOL     OW16738   3.711   5.564   5.429
 5280SOL    HW116739   3.665   5.480   5.401
 5280SOL    HW216740   3.775   5.592   5.357
 5281SOL     OW16741   1.719   1.514   3.990
 5281SOL    HW116742   1.665   1.431   3.977
 5281SOL    HW216743   1.747   1.551   3.901
 5282SOL     OW16744   1.702   0.316   2.169
 5282SOL    HW116745   1.627   0.372   2.204
 5282SOL    HW216746   1.686   0.297   2.072
 5283SOL     OW16747   1.546   0.589   3.036
 5283SOL    HW116748   1.606   0.657   2.993
 5283SOL    HW216749   1.466   0.575   2.979
 5284SOL     OW16750   4.645   2.731   3.426
 5284SOL    HW116751   4.619   2.698   3.516
 5284SOL    HW216752   4.673   2.827   3.432
 5285SOL     OW16753   0.554   3.493   4.141
 5285SOL    HW116754   0.503   3.552   4.079
 5285SOL    HW216755   0.559   3.535   4.231
 5286SOL     OW16756   6.659   3.297   1.103
 5286SOL    HW116757   6.570   3.323   1.142
 5286SOL    HW216758   6.644   3.250   1.016
 5287SOL     OW16759   2.989   5.618   1.389
 5287SOL    HW116760   2.897   5.593   1.419
 5287SOL    HW216761   3.019   5.556   1.317
 5288SOL     OW16762   3.585   0.293   2.858
 5288SOL    HW116763   3.587   0.197   2.829
 5288SOL    HW216764   3.604   0.299   2.956
 5289SOL     OW16765   2.212   5.593   5.889
 5289SOL    HW116766   2.248   5.504   5.917
 5289SOL    HW216767   2.284   5.643   5.840
 5290SOL     OW16768   1.749   3.482   5.591
 5290SOL    HW116769   1.716   3.507   5.500
 5290SOL    HW216770   1.820   3.545   5.620
 5291SOL     OW16771   3.164   4.539   6.264
 5291SOL    HW116772   3.262   4.553   6.273
 5291SOL    HW216773   3.132   4.580   6.179
 5292SOL     OW16774   6.123   4.532   5.769
 5292SOL    HW116775   6.032   4.506   5.736
 5292SOL    HW216776   6.190   4.511   5.698
 5293SOL     OW16777   2.425   6.722   4.913
 5293SOL    HW116778   2.426   6.721   4.813
 5293SOL    HW216779   2.518   6.709   4.947
 5294SOL     OW16780   4.870   2.017   5.484
 5294SOL    HW116781   4.900   1.924   5.462
 5294SOL    HW216782   4.898   2.040   5.577
 5295SOL     OW16783   4.128   1.227   3.162
 5295SOL    HW116784   4.036   1.259   3.184
 5295SOL    HW216785   4.177   1.297   3.109
 5296SOL     OW16786   3.256   4.165   0.016
 5296SOL    HW116787   3.165   4.153   6.999
 5296SOL    HW216788   3.325   4.154   6.967
 5297SOL     OW16789   1.451   3.715   0.370
 5297SOL    HW116790   1.458   3.617   0.356
 5297SOL    HW216791   1.419   3.734   0.463
 5298SOL     OW16792   1.466   6.024   0.271
 5298SOL    HW116793   1.548   6.075   0.248
 5298SOL    HW216794   1.390   6.053   0.213
 5299SOL     OW16795   2.572   2.575   0.629
 5299SOL    HW116796   2.520   2.659   0.642
 5299SOL    HW216797   2.537   2.504   0.690
 5300SOL     OW16798   0.449   5.693   0.935
 5300SOL    HW116799   0.520   5.699   1.005
 5300SOL    HW216800   0.450   5.776   0.879
 5301SOL     OW16801   4.040   1.664   6.263
 5301SOL    HW116802   4.004   1.741   6.211
 5301SOL    HW216803   3.976   1.587   6.258
 5302SOL     OW16804   5.966   5.416   3.213
 5302SOL    HW116805   5.935   5.452   3.301
 5302SOL    HW216806   5.938   5.321   3.204
 5303SOL     OW16807   0.399   5.111   4.686
 5303SOL    HW116808   0.315   5.157   4.655
 5303SOL    HW216809   0.397   5.016   4.657
 5304SOL     OW16810   5.950   0.385   0.534
 5304SOL    HW116811   5.984   0.342   0.617
 5304SOL    HW216812   5.881   0.454   0.557
 5305SOL     OW16813   0.761   5.021   3.365
 5305SOL    HW116814   0.844   4.964   3.368
 5305SOL    HW216815   0.703   4.992   3.289
 5306SOL     OW16816   0.992   4.533   5.166
 5306SOL    HW116817   0.950   4.485   5.089
 5306SOL    HW216818   0.983   4.632   5.153
 5307SOL     OW16819   3.802   1.388   0.093
 5307SOL    HW116820   3.846   1.474   0.120
 5307SOL    HW216821   3.728   1.407   0.029
 5308SOL     OW16822   1.236   4.477   2.590
 5308SOL    HW116823   1.305   4.549   2.596
 5308SOL    HW216824   1.252   4.423   2.508
 5309SOL     OW16825   3.964   4.836   1.809
 5309SOL    HW116826   3.917   4.764   1.759
 5309SOL    HW216827   3.903   4.873   1.880
 5310SOL     OW16828   6.120   3.615   2.002
 5310SOL    HW116829   6.189   3.583   2.067
 5310SOL    HW216830   6.030   3.612   2.046
 5311SOL     OW16831   6.647   0.158   0.046
 5311SOL    HW116832   6.623   0.139   6.974
 5311SOL    HW216833   6.566   0.190   0.095
 5312SOL     OW16834   1.132   5.424   1.593
 5312SOL    HW116835   1.116   5.474   1.678
 5312SOL    HW216836   1.046   5.381   1.564
 5313SOL     OW16837   1.182   2.884   6.072
 5313SOL    HW116838   1.117   2.862   6.144
 5313SOL    HW216839   1.186   2.810   6.005
 5314SOL     OW16840   4.059   6.660   0.480
 5314SOL    HW116841   4.124   6.724   0.522
 5314SOL    HW216842   3.973   6.708   0.461
 5315SOL     OW16843   4.898   3.678   1.983
 5315SOL    HW116844   4.912   3.703   1.887
 5315SOL    HW216845   4.801   3.661   1.999
 5316SOL     OW16846   1.018   3.375   5.072
 5316SOL    HW116847   0.992   3.460   5.026
 5316SOL    HW216848   0.939   3.334   5.117
 5317SOL     OW16849   5.753   1.707   5.021
 5317SOL    HW116850   5.716   1.632   5.077
 5317SOL    HW216851   5.780   1.672   4.931
 5318SOL     OW16852   0.682   2.627   0.479
 5318SOL    HW116853   0.737   2.709   0.464
 5318SOL    HW216854   0.596   2.635   0.428
 5319SOL     OW16855   4.513   5.947   0.223
 5319SOL    HW116856   4.533   5.849   0.232
 5319SOL    HW216857   4.561   5.984   0.144
 5320SOL     OW16858   4.460   4.713   0.478
 5320SOL    HW116859   4.472   4.783   0.549
 5320SOL    HW216860   4.508   4.742   0.395
 5321SOL     OW16861   2.122   5.028   4.461
 5321SOL    HW116862   2.172   4.943   4.479
 5321SOL    HW216863   2.024   5.007   4.451
 5322SOL     OW16864   5.636   5.899   6.684
 5322SOL    HW116865   5.547   5.915   6.726
 5322SOL    HW216866   5.674   5.986   6.652
 5323SOL     OW16867   4.245   1.307   6.479
 5323SOL    HW116868   4.240   1.266   6.388
 5323SOL    HW216869   4.289   1.397   6.473
 5324SOL     OW16870   3.149   2.260   0.828
 5324SOL    HW116871   3.233   2.283   0.878
 5324SOL    HW216872   3.156   2.168   0.791
 5325SOL     OW16873   4.643   0.401   4.292
 5325SOL    HW116874   4.699   0.388   4.210
 5325SOL    HW216875   4.684   0.350   4.368
 5326SOL     OW16876   6.525   5.266   3.086
 5326SOL    HW116877   6.529   5.225   2.995
 5326SOL    HW216878   6.469   5.349   3.082
 5327SOL     OW16879   5.549   2.565   5.374
 5327SOL    HW116880   5.490   2.542   5.452
 5327SOL    HW216881   5.534   2.660   5.347
 5328SOL     OW16882   3.627   3.237   5.023
 5328SOL    HW116883   3.623   3.302   5.099
 5328SOL    HW216884   3.637   3.144   5.059
 5329SOL     OW16885   0.122   4.225   6.126
 5329SOL    HW116886   0.100   4.188   6.036
 5329SOL    HW216887   0.089   4.164   6.198
 5330SOL     OW16888   4.103   3.807   6.623
 5330SOL    HW116889   4.076   3.714   6.644
 5330SOL    HW216890   4.183   3.832   6.678
 5331SOL     OW16891   5.468   1.176   6.760
 5331SOL    HW116892   5.518   1.232   6.693
 5331SOL    HW216893   5.521   1.170   6.845
 5332SOL     OW16894   0.486   2.820   1.383
 5332SOL    HW116895   0.424   2.858   1.451
 5332SOL    HW216896   0.460   2.726   1.363
 5333SOL     OW16897   0.679   0.477   3.116
 5333SOL    HW116898   0.634   0.557   3.156
 5333SOL    HW216899   0.745   0.440   3.182
 5334SOL     OW16900   3.056   6.735   4.021
 5334SOL    HW116901   2.958   6.741   4.037
 5334SOL    HW216902   3.106   6.769   4.101
 5335SOL     OW16903   6.761   6.204   0.994
 5335SOL    HW116904   6.666   6.208   0.964
 5335SOL    HW216905   6.792   6.296   1.018
 5336SOL     OW16906   1.643   3.192   3.241
 5336SOL    HW116907   1.637   3.135   3.322
 5336SOL    HW216908   1.722   3.253   3.249
 5337SOL     OW16909   5.166   4.101   1.131
 5337SOL    HW116910   5.072   4.132   1.142
 5337SOL    HW216911   5.226   4.181   1.120
 5338SOL     OW16912   6.009   1.619   0.258
 5338SOL    HW116913   5.940   1.679   0.298
 5338SOL    HW216914   6.063   1.670   0.192
 5339SOL     OW16915   6.626   2.042   3.912
 5339SOL    HW116916   6.668   2.120   3.959
 5339SOL    HW216917   6.689   1.964   3.916
 5340SOL     OW16918   4.638   4.332   0.947
 5340SOL    HW116919   4.585   4.334   0.862
 5340SOL    HW216920   4.586   4.283   1.017
 5341SOL     OW16921   3.351   2.870   6.169
 5341SOL    HW116922   3.265   2.826   6.194
 5341SOL    HW216923   3.356   2.881   6.070
 5342SOL     OW16924   3.225   6.690   4.270
 5342SOL    HW116925   3.305   6.648   4.314
 5342SOL    HW216926   3.152   6.699   4.337
 5343SOL     OW16927   3.809   4.055   4.195
 5343SOL    HW116928   3.709   4.054   4.197
 5343SOL    HW216929   3.845   4.030   4.285
 5344SOL     OW16930   2.242   3.013   2.953
 5344SOL    HW116931   2.297   3.082   2.904
 5344SOL    HW216932   2.175   2.974   2.890
 5345SOL     OW16933   4.049   6.131   1.474
 5345SOL    HW116934   3.998   6.051   1.444
 5345SOL    HW216935   4.125   6.148   1.412
 5346SOL     OW16936   3.131   6.180   4.188
 5346SOL    HW116937   3.110   6.270   4.149
 5346SOL    HW216938   3.108   6.109   4.122
 5347SOL     OW16939   0.709   2.361   1.981
 5347SOL    HW116940   0.767   2.346   1.900
 5347SOL    HW216941   0.704   2.277   2.034
 5348SOL     OW16942   6.923   2.568   1.013
 5348SOL    HW116943   7.020   2.564   0.987
 5348SOL    HW216944   6.912   2.525   1.103
 5349SOL     OW16945   1.558   2.481   0.228
 5349SOL    HW116946   1.630   2.527   0.281
 5349SOL    HW216947   1.592   2.458   0.137
 5350SOL     OW16948   2.147   0.245   5.476
 5350SOL    HW116949   2.111   0.256   5.384
 5350SOL    HW216950   2.246   0.258   5.475
 5351SOL     OW16951   5.855   5.844   1.731
 5351SOL    HW116952   5.849   5.855   1.632
 5351SOL    HW216953   5.858   5.934   1.775
 5352SOL     OW16954   2.263   5.176   3.287
 5352SOL    HW116955   2.207   5.222   3.219
 5352SOL    HW216956   2.359   5.180   3.259
 5353SOL     OW16957   3.980   5.239   3.564
 5353SOL    HW116958   4.031   5.323   3.552
 5353SOL    HW216959   4.021   5.185   3.637
 5354SOL     OW16960   2.791   5.311   1.805
 5354SOL    HW116961   2.723   5.319   1.877
 5354SOL    HW216962   2.833   5.221   1.807
 5355SOL     OW16963   5.649   3.194   3.315
 5355SOL    HW116964   5.583   3.127   3.281
 5355SOL    HW216965   5.741   3.167   3.287
 5356SOL     OW16966   5.426   4.262   1.689
 5356SOL    HW116967   5.523   4.284   1.677
 5356SOL    HW216968   5.416   4.164   1.706
 5357SOL     OW16969   4.479   6.213   0.249
 5357SOL    HW116970   4.438   6.233   0.160
 5357SOL    HW216971   4.506   6.117   0.253
 5358SOL     OW16972   4.343   1.465   0.117
 5358SOL    HW116973   4.412   1.516   0.066
 5358SOL    HW216974   4.252   1.502   0.096
 5359SOL     OW16975   1.648   1.996   6.479
 5359SOL    HW116976   1.594   1.939   6.542
 5359SOL    HW216977   1.617   2.091   6.485
 5360SOL     OW16978   4.624   6.543   5.428
 5360SOL    HW116979   4.694   6.514   5.362
 5360SOL    HW216980   4.562   6.467   5.445
 5361SOL     OW16981   2.374   0.776   5.283
 5361SOL    HW116982   2.313   0.720   5.339
 5361SOL    HW216983   2.321   0.841   5.230
 5362SOL     OW16984   5.842   4.960   3.336
 5362SOL    HW116985   5.792   5.035   3.292
 5362SOL    HW216986   5.928   4.994   3.372
 5363SOL     OW16987   0.179   7.022   6.581
 5363SOL    HW116988   0.221   6.997   6.669
 5363SOL    HW216989   0.220   0.083   6.547
 5364SOL     OW16990   6.186   6.081   1.781
 5364SOL    HW116991   6.259   6.133   1.825
 5364SOL    HW216992   6.099   6.098   1.828
 5365SOL     OW16993   3.323   3.476   6.855
 5365SOL    HW116994   3.400   3.421   6.888
 5365SOL    HW216995   3.270   3.421   6.790
 5366SOL     OW16996   5.243   5.866   1.702
 5366SOL    HW116997   5.322   5.865   1.641
 5366SOL    HW216998   5.161   5.841   1.652
 5367SOL     OW16999   0.734   6.159   0.531
 5367SOL    HW117000   0.727   6.061   0.548
 5367SOL    HW217001   0.828   6.189   0.545
 5368SOL     OW17002   5.521   0.472   3.107
 5368SOL    HW117003   5.618   0.453   3.117
 5368SOL    HW217004   5.505   0.571   3.115
 5369SOL     OW17005   2.652   6.948   2.172
 5369SOL    HW117006   2.593   6.952   2.252
 5369SOL    HW217007   2.689   0.016   2.153
 5370SOL     OW17008   4.372   2.962   1.521
 5370SOL    HW117009   4.320   2.877   1.512
 5370SOL    HW217010   4.448   2.948   1.584
 5371SOL     OW17011   1.582   3.867   4.584
 5371SOL    HW117012   1.645   3.796   4.615
 5371SOL    HW217013   1.624   3.917   4.508
 5372SOL     OW17014   2.666   5.796   3.338
 5372SOL    HW117015   2.611   5.879   3.336
 5372SOL    HW217016   2.643   5.742   3.419
 5373SOL     OW17017   3.822   6.075   4.075
 5373SOL    HW117018   3.800   5.997   4.017
 5373SOL    HW217019   3.760   6.075   4.155
 5374SOL     OW17020   1.165   3.753   6.618
 5374SOL    HW117021   1.126   3.698   6.544
 5374SOL    HW217022   1.122   3.729   6.705
 5375SOL     OW17023   1.997   5.116   4.713
 5375SOL    HW117024   2.025   5.158   4.799
 5375SOL    HW217025   2.076   5.075   4.668
 5376SOL     OW17026   1.747   3.249   0.851
 5376SOL    HW117027   1.657   3.275   0.885
 5376SOL    HW217028   1.773   3.309   0.775
 5377SOL     OW17029   0.381   6.994   1.945
 5377SOL    HW117030   0.421   0.054   1.905
 5377SOL    HW217031   0.433   6.968   2.026
 5378SOL     OW17032   0.147   0.355   2.139
 5378SOL    HW117033   0.058   0.352   2.183
 5378SOL    HW217034   0.211   0.408   2.195
 5379SOL     OW17035   1.934   5.287   4.935
 5379SOL    HW117036   1.872   5.328   4.868
 5379SOL    HW217037   1.891   5.288   5.025
 5380SOL     OW17038   2.225   1.977   3.070
 5380SOL    HW117039   2.143   1.924   3.093
 5380SOL    HW217040   2.206   2.034   2.990
 5381SOL     OW17041   6.507   4.033   1.156
 5381SOL    HW117042   6.557   3.951   1.184
 5381SOL    HW217043   6.476   4.082   1.236
 5382SOL     OW17044   3.241   0.320   2.093
 5382SOL    HW117045   3.316   0.255   2.076
 5382SOL    HW217046   3.155   0.270   2.097
 5383SOL     OW17047   2.277   2.660   5.431
 5383SOL    HW117048   2.340   2.731   5.399
 5383SOL    HW217049   2.202   2.650   5.365
 5384SOL     OW17050   5.770   7.006   4.825
 5384SOL    HW117051   5.827   6.966   4.753
 5384SOL    HW217052   5.746   6.935   4.891
 5385SOL     OW17053   2.958   3.311   4.107
 5385SOL    HW117054   3.012   3.363   4.173
 5385SOL    HW217055   2.929   3.225   4.150
 5386SOL     OW17056   4.930   6.962   4.348
 5386SOL    HW117057   4.884   6.878   4.379
 5386SOL    HW217058   4.905   6.981   4.254
 5387SOL     OW17059   2.651   6.316   3.862
 5387SOL    HW117060   2.657   6.216   3.850
 5387SOL    HW217061   2.570   6.350   3.815
 5388SOL     OW17062   6.723   0.039   4.263
 5388SOL    HW117063   6.672   6.978   4.242
 5388SOL    HW217064   6.815   0.015   4.292
 5389SOL     OW17065   4.528   1.171   1.767
 5389SOL    HW117066   4.586   1.218   1.701
 5389SOL    HW217067   4.534   1.217   1.856
 5390SOL     OW17068   4.720   4.254   3.378
 5390SOL    HW117069   4.696   4.162   3.348
 5390SOL    HW217070   4.678   4.273   3.466
 5391SOL     OW17071   1.898   2.176   1.357
 5391SOL    HW117072   1.935   2.110   1.422
 5391SOL    HW217073   1.974   2.227   1.316
 5392SOL     OW17074   5.542   3.284   1.543
 5392SOL    HW117075   5.599   3.365   1.556
 5392SOL    HW217076   5.450   3.303   1.577
 5393SOL     OW17077   5.352   6.926   6.728
 5393SOL    HW117078   5.328   6.853   6.792
 5393SOL    HW217079   5.300   6.914   6.644
 5394SOL     OW17080   6.576   4.885   6.590
 5394SOL    HW117081   6.561   4.887   6.491
 5394SOL    HW217082   6.548   4.972   6.630
 5395SOL     OW17083   4.354   0.732   1.909
 5395SOL    HW117084   4.368   0.814   1.854
 5395SOL    HW217085   4.428   0.724   1.976
 5396SOL     OW17086   4.877   4.943   2.723
 5396SOL    HW117087   4.845   4.961   2.816
 5396SOL    HW217088   4.938   4.864   2.724
 5397SOL     OW17089   6.696   2.636   1.786
 5397SOL    HW117090   6.753   2.582   1.848
 5397SOL    HW217091   6.638   2.575   1.732
 5398SOL     OW17092   3.367   2.072   2.948
 5398SOL    HW117093   3.327   2.129   2.876
 5398SOL    HW217094   3.460   2.046   2.921
 5399SOL     OW17095   2.465   5.421   0.582
 5399SOL    HW117096   2.486   5.369   0.665
 5399SOL    HW217097   2.380   5.472   0.596
 5400SOL     OW17098   2.609   4.278   0.610
 5400SOL    HW117099   2.629   4.252   0.515
 5400SOL    HW217100   2.603   4.196   0.666
 5401SOL     OW17101   5.715   3.484   1.597
 5401SOL    HW117102   5.810   3.451   1.598
 5401SOL    HW217103   5.716   3.584   1.583
 5402SOL     OW17104   2.190   4.853   1.803
 5402SOL    HW117105   2.250   4.776   1.825
 5402SOL    HW217106   2.098   4.833   1.837
 5403SOL     OW17107   6.028   2.285   6.046
 5403SOL    HW117108   6.114   2.266   5.998
 5403SOL    HW217109   6.024   2.231   6.130
 5404SOL     OW17110   1.073   0.723   2.984
 5404SOL    HW117111   1.002   0.691   2.920
 5404SOL    HW217112   1.037   0.720   3.077
 5405SOL     OW17113   6.157   6.097   6.995
 5405SOL    HW117114   6.078   6.072   6.939
 5405SOL    HW217115   6.177   6.023   0.036
 5406SOL     OW17116   2.832   0.502   6.900
 5406SOL    HW117117   2.827   0.489   6.999
 5406SOL    HW217118   2.740   0.515   6.863
 5407SOL     OW17119   4.325   3.199   1.320
 5407SOL    HW117120   4.383   3.139   1.265
 5407SOL    HW217121   4.308   3.157   1.409
 5408SOL     OW17122   3.209   1.334   6.453
 5408SOL    HW117123   3.143   1.392   6.500
 5408SOL    HW217124   3.239   1.380   6.369
 5409SOL     OW17125   6.011   1.282   3.959
 5409SOL    HW117126   6.032   1.356   4.022
 5409SOL    HW217127   6.004   1.318   3.866
 5410SOL     OW17128   1.975   3.044   1.566
 5410SOL    HW117129   2.025   3.111   1.511
 5410SOL    HW217130   1.953   2.964   1.509
 5411SOL     OW17131   6.644   5.356   5.719
 5411SOL    HW117132   6.736   5.353   5.757
 5411SOL    HW217133   6.642   5.418   5.641
 5412SOL     OW17134   4.203   0.601   7.007
 5412SOL    HW117135   4.300   0.587   6.987
 5412SOL    HW217136   4.162   0.660   6.938
 5413SOL     OW17137   2.050   0.778   1.265
 5413SOL    HW117138   2.121   0.839   1.300
 5413SOL    HW217139   1.961   0.808   1.299
 5414SOL     OW17140   5.904   3.237   4.790
 5414SOL    HW117141   5.830   3.260   4.854
 5414SOL    HW217142   5.940   3.146   4.813
 5415SOL     OW17143   1.530   6.100   1.578
 5415SOL    HW117144   1.467   6.178   1.566
 5415SOL    HW217145   1.562   6.070   1.488
 5416SOL     OW17146   4.420   4.428   6.397
 5416SOL    HW117147   4.339   4.389   6.441
 5416SOL    HW217148   4.392   4.483   6.318
 5417SOL     OW17149   4.050   6.652   5.351
 5417SOL    HW117150   4.102   6.728   5.390
 5417SOL    HW217151   4.106   6.606   5.282
 5418SOL     OW17152   4.176   6.698   4.279
 5418SOL    HW117153   4.230   6.703   4.364
 5418SOL    HW217154   4.165   6.602   4.253
 5419SOL     OW17155   3.212   4.996   0.215
 5419SOL    HW117156   3.146   4.939   0.166
 5419SOL    HW217157   3.176   5.089   0.224
 5420SOL     OW17158   1.358   2.264   1.672
 5420SOL    HW117159   1.411   2.308   1.745
 5420SOL    HW217160   1.418   2.202   1.621
 5421SOL     OW17161   2.065   3.593   2.524
 5421SOL    HW117162   2.087   3.588   2.622
 5421SOL    HW217163   1.974   3.632   2.512
 5422SOL     OW17164   0.698   5.687   6.920
 5422SOL    HW117165   0.630   5.727   6.981
 5422SOL    HW217166   0.696   5.588   6.928
 5423SOL     OW17167   5.434   2.592   6.762
 5423SOL    HW117168   5.435   2.519   6.694
 5423SOL    HW217169   5.519   2.591   6.814
 5424SOL     OW17170   4.919   3.220   4.130
 5424SOL    HW117171   4.896   3.166   4.211
 5424SOL    HW217172   4.906   3.165   4.048
 5425SOL     OW17173   4.211   1.417   4.183
 5425SOL    HW117174   4.297   1.389   4.227
 5425SOL    HW217175   4.200   1.516   4.193
 5426SOL     OW17176   6.329   5.109   4.029
 5426SOL    HW117177   6.420   5.150   4.030
 5426SOL    HW217178   6.289   5.113   4.121
 5427SOL     OW17179   4.833   4.881   0.418
 5427SOL    HW117180   4.902   4.893   0.347
 5427SOL    HW217181   4.877   4.879   0.507
 5428SOL     OW17182   0.032   0.351   1.872
 5428SOL    HW117183   0.095   0.403   1.815
 5428SOL    HW217184   0.063   0.355   1.967
 5429SOL     OW17185   1.048   1.830   6.047
 5429SOL    HW117186   1.142   1.823   6.079
 5429SOL    HW217187   0.991   1.871   6.118
 5430SOL     OW17188   0.956   3.447   5.714
 5430SOL    HW117189   0.858   3.433   5.698
 5430SOL    HW217190   1.008   3.407   5.639
 5431SOL     OW17191   3.670   5.808   6.983
 5431SOL    HW117192   3.574   5.837   6.988
 5431SOL    HW217193   3.687   5.737   0.028
 5432SOL     OW17194   4.617   6.565   6.596
 5432SOL    HW117195   4.681   6.604   6.530
 5432SOL    HW217196   4.567   6.490   6.553
 5433SOL     OW17197   0.396   1.586   4.010
 5433SOL    HW117198   0.364   1.669   4.056
 5433SOL    HW217199   0.403   1.512   4.076
 5434SOL     OW17200   3.760   0.919   4.755
 5434SOL    HW117201   3.847   0.967   4.757
 5434SOL    HW217202   3.688   0.977   4.793
 5435SOL     OW17203   5.226   1.307   1.798
 5435SOL    HW117204   5.143   1.266   1.761
 5435SOL    HW217205   5.305   1.270   1.750
 5436SOL     OW17206   4.961   3.790   4.236
 5436SOL    HW117207   5.015   3.763   4.156
 5436SOL    HW217208   4.888   3.723   4.251
 5437SOL     OW17209   2.924   5.026   6.294
 5437SOL    HW117210   2.915   5.081   6.211
 5437SOL    HW217211   2.880   5.075   6.371
 5438SOL     OW17212   5.670   4.137   2.923
 5438SOL    HW117213   5.695   4.093   3.009
 5438SOL    HW217214   5.697   4.234   2.926
 5439SOL     OW17215   1.104   2.697   1.042
 5439SOL    HW117216   1.091   2.599   1.058
 5439SOL    HW217217   1.187   2.712   0.989
 5440SOL     OW17218   0.507   0.518   2.067
 5440SOL    HW117219   0.537   0.518   1.972
 5440SOL    HW217220   0.517   0.426   2.105
 5441SOL     OW17221   4.892   2.417   3.164
 5441SOL    HW117222   4.901   2.347   3.094
 5441SOL    HW217223   4.889   2.507   3.121
 5442SOL     OW17224   3.433   6.378   3.548
 5442SOL    HW117225   3.507   6.420   3.495
 5442SOL    HW217226   3.345   6.399   3.505
 5443SOL     OW17227   2.882   0.646   3.579
 5443SOL    HW117228   2.838   0.665   3.666
 5443SOL    HW217229   2.919   0.731   3.540
 5444SOL     OW17230   1.576   0.710   4.090
 5444SOL    HW117231   1.619   0.765   4.162
 5444SOL    HW217232   1.615   0.618   4.091
 5445SOL     OW17233   5.388   4.041   4.382
 5445SOL    HW117234   5.378   4.014   4.286
 5445SOL    HW217235   5.405   3.959   4.438
 5446SOL     OW17236   6.469   4.954   4.854
 5446SOL    HW117237   6.542   4.965   4.922
 5446SOL    HW217238   6.489   4.873   4.798
 5447SOL     OW17239   2.339   1.503   6.753
 5447SOL    HW117240   2.308   1.410   6.774
 5447SOL    HW217241   2.388   1.540   6.831
 5448SOL     OW17242   5.187   3.036   4.549
 5448SOL    HW117243   5.090   3.015   4.562
 5448SOL    HW217244   5.234   2.955   4.514
 5449SOL     OW17245   1.499   2.473   6.740
 5449SOL    HW117246   1.568   2.421   6.690
 5449SOL    HW217247   1.500   2.447   6.837
 5450SOL     OW17248   1.826   0.644   2.184
 5450SOL    HW117249   1.881   0.722   2.212
 5450SOL    HW217250   1.778   0.665   2.099
 5451SOL     OW17251   1.292   6.015   3.774
 5451SOL    HW117252   1.390   6.008   3.758
 5451SOL    HW217253   1.254   5.924   3.792
 5452SOL     OW17254   2.172   4.182   6.878
 5452SOL    HW117255   2.152   4.239   6.957
 5452SOL    HW217256   2.098   4.116   6.865
 5453SOL     OW17257   5.219   4.164   2.010
 5453SOL    HW117258   5.142   4.107   1.981
 5453SOL    HW217259   5.302   4.108   2.013
 5454SOL     OW17260   0.413   3.844   6.022
 5454SOL    HW117261   0.385   3.765   5.969
 5454SOL    HW217262   0.429   3.922   5.961
 5455SOL     OW17263   6.232   2.996   0.810
 5455SOL    HW117264   6.180   3.078   0.790
 5455SOL    HW217265   6.328   3.020   0.823
 5456SOL     OW17266   3.033   0.359   6.779
 5456SOL    HW117267   3.003   0.285   6.719
 5456SOL    HW217268   2.952   0.403   6.820
 5457SOL     OW17269   6.365   2.286   6.732
 5457SOL    HW117270   6.420   2.364   6.762
 5457SOL    HW217271   6.275   2.319   6.703
 5458SOL     OW17272   1.081   4.442   0.571
 5458SOL    HW117273   1.079   4.532   0.529
 5458SOL    HW217274   1.149   4.385   0.525
 5459SOL     OW17275   1.802   4.060   0.090
 5459SOL    HW117276   1.776   3.968   0.120
 5459SOL    HW217277   1.761   4.127   0.151
 5460SOL     OW17278   3.726   0.812   3.165
 5460SOL    HW117279   3.753   0.806   3.069
 5460SOL    HW217280   3.634   0.850   3.172
 5461SOL     OW17281   5.859   0.396   5.893
 5461SOL    HW117282   5.929   0.327   5.910
 5461SOL    HW217283   5.903   0.485   5.879
 5462SOL     OW17284   0.452   6.940   0.061
 5462SOL    HW117285   0.419   6.920   0.153
 5462SOL    HW217286   0.478   0.013   0.055
 5463SOL     OW17287   6.978   1.980   0.759
 5463SOL    HW117288   7.003   2.062   0.707
 5463SOL    HW217289   6.931   2.006   0.843
 5464SOL     OW17290   1.269   1.170   4.094
 5464SOL    HW117291   1.296   1.074   4.105
 5464SOL    HW217292   1.170   1.178   4.106
 5465SOL     OW17293   3.505   6.719   3.572
 5465SOL    HW117294   3.532   6.712   3.668
 5465SOL    HW217295   3.408   6.697   3.563
 5466SOL     OW17296   5.383   3.076   5.337
 5466SOL    HW117297   5.292   3.063   5.297
 5466SOL    HW217298   5.387   3.165   5.383
 5467SOL     OW17299   5.114   2.751   3.126
 5467SOL    HW117300   5.181   2.814   3.087
 5467SOL    HW217301   5.151   2.712   3.210
 5468SOL     OW17302   5.886   2.593   4.458
 5468SOL    HW117303   5.848   2.561   4.545
 5468SOL    HW217304   5.893   2.516   4.395
 5469SOL     OW17305   3.839   6.389   6.054
 5469SOL    HW117306   3.813   6.482   6.026
 5469SOL    HW217307   3.805   6.371   6.146
 5470SOL     OW17308   3.120   6.095   2.992
 5470SOL    HW117309   3.080   6.183   3.017
 5470SOL    HW217310   3.154   6.048   3.073
 5471SOL     OW17311   5.010   0.136   2.422
 5471SOL    HW117312   5.017   0.104   2.517
 5471SOL    HW217313   5.085   0.200   2.403
 5472SOL     OW17314   4.594   3.788   6.019
 5472SOL    HW117315   4.652   3.708   6.010
 5472SOL    HW217316   4.570   3.801   6.115
 5473SOL     OW17317   0.252   3.090   1.995
 5473SOL    HW117318   0.263   3.182   1.956
 5473SOL    HW217319   0.267   3.022   1.924
 5474SOL     OW17320   1.469   5.041   4.613
 5474SOL    HW117321   1.444   4.945   4.617
 5474SOL    HW217322   1.401   5.095   4.662
 5475SOL     OW17323   2.334   3.091   1.566
 5475SOL    HW117324   2.271   3.160   1.603
 5475SOL    HW217325   2.398   3.064   1.638
 5476SOL     OW17326   1.538   4.379   5.554
 5476SOL    HW117327   1.546   4.470   5.513
 5476SOL    HW217328   1.625   4.330   5.541
 5477SOL     OW17329   2.620   4.692   3.427
 5477SOL    HW117330   2.708   4.734   3.408
 5477SOL    HW217331   2.547   4.751   3.390
 5478SOL     OW17332   3.651   5.251   4.839
 5478SOL    HW117333   3.552   5.263   4.826
 5478SOL    HW217334   3.673   5.154   4.832
 5479SOL     OW17335   4.755   1.516   6.624
 5479SOL    HW117336   4.673   1.482   6.577
 5479SOL    HW217337   4.785   1.448   6.691
 5480SOL     OW17338   6.458   4.552   3.096
 5480SOL    HW117339   6.371   4.539   3.145
 5480SOL    HW217340   6.525   4.592   3.159
 5481SOL     OW17341   4.243   1.664   4.307
 5481SOL    HW117342   4.326   1.716   4.285
 5481SOL    HW217343   4.196   1.707   4.383
 5482SOL     OW17344   3.563   4.444   1.596
 5482SOL    HW117345   3.581   4.509   1.671
 5482SOL    HW217346   3.504   4.487   1.528
 5483SOL     OW17347   0.515   1.946   5.709
 5483SOL    HW117348   0.610   1.976   5.724
 5483SOL    HW217349   0.476   1.995   5.632
 5484SOL     OW17350   3.848   1.423   4.437
 5484SOL    HW117351   3.916   1.355   4.408
 5484SOL    HW217352   3.816   1.474   4.357
 5485SOL     OW17353   4.819   0.420   5.575
 5485SOL    HW117354   4.851   0.416   5.480
 5485SOL    HW217355   4.863   0.347   5.628
 5486SOL     OW17356   2.325   5.905   5.225
 5486SOL    HW117357   2.408   5.850   5.232
 5486SOL    HW217358   2.257   5.855   5.170
 5487SOL     OW17359   3.947   2.879   6.579
 5487SOL    HW117360   3.880   2.920   6.640
 5487SOL    HW217361   4.039   2.899   6.613
 5488SOL     OW17362   5.838   6.945   1.021
 5488SOL    HW117363   5.888   0.008   1.029
 5488SOL    HW217364   5.852   6.890   1.103
 5489SOL     OW17365   0.311   3.931   1.388
 5489SOL    HW117366   0.355   4.019   1.410
 5489SOL    HW217367   0.354   3.893   1.306
 5490SOL     OW17368   2.689   0.573   2.585
 5490SOL    HW117369   2.742   0.535   2.509
 5490SOL    HW217370   2.669   0.669   2.566
 5491SOL     OW17371   0.796   2.785   0.177
 5491SOL    HW117372   0.787   2.693   0.141
 5491SOL    HW217373   0.726   2.844   0.135
 5492SOL     OW17374   0.821   3.523   6.974
 5492SOL    HW117375   0.902   3.581   6.971
 5492SOL    HW217376   0.847   3.428   6.955
 5493SOL     OW17377   3.597   3.243   3.772
 5493SOL    HW117378   3.632   3.154   3.804
 5493SOL    HW217379   3.660   3.315   3.800
 5494SOL     OW17380   6.801   3.695   5.281
 5494SOL    HW117381   6.743   3.613   5.279
 5494SOL    HW217382   6.897   3.668   5.284
 5495SOL     OW17383   5.972   0.965   1.504
 5495SOL    HW117384   6.029   0.943   1.425
 5495SOL    HW217385   5.910   1.041   1.481
 5496SOL     OW17386   4.186   0.797   3.404
 5496SOL    HW117387   4.239   0.772   3.485
 5496SOL    HW217388   4.178   0.897   3.398
 5497SOL     OW17389   1.000   1.431   5.367
 5497SOL    HW117390   1.037   1.523   5.382
 5497SOL    HW217391   1.074   1.369   5.340
 5498SOL     OW17392   0.292   5.176   2.114
 5498SOL    HW117393   0.357   5.183   2.038
 5498SOL    HW217394   0.237   5.093   2.104
 5499SOL     OW17395   0.951   0.750   4.417
 5499SOL    HW117396   0.860   0.784   4.441
 5499SOL    HW217397   0.947   0.707   4.327
 5500SOL     OW17398   0.660   1.032   6.676
 5500SOL    HW117399   0.616   1.025   6.587
 5500SOL    HW217400   0.641   0.949   6.729
 5501SOL     OW17401   3.694   2.137   0.666
 5501SOL    HW117402   3.775   2.080   0.676
 5501SOL    HW217403   3.612   2.080   0.672
 5502SOL     OW17404   5.315   3.554   6.149
 5502SOL    HW117405   5.306   3.486   6.221
 5502SOL    HW217406   5.380   3.624   6.177
 5503SOL     OW17407   6.875   4.331   0.452
 5503SOL    HW117408   6.939   4.309   0.378
 5503SOL    HW217409   6.791   4.278   0.439
 5504SOL     OW17410   4.649   1.180   5.206
 5504SOL    HW117411   4.599   1.094   5.201
 5504SOL    HW217412   4.684   1.204   5.115
 5505SOL     OW17413   2.081   4.718   3.093
 5505SOL    HW117414   2.119   4.641   3.042
 5505SOL    HW217415   2.134   4.732   3.177
 5506SOL     OW17416   0.255   3.216   0.704
 5506SOL    HW117417   0.179   3.230   0.641
 5506SOL    HW217418   0.222   3.163   0.783
 5507SOL     OW17419   3.453   0.692   5.079
 5507SOL    HW117420   3.391   0.762   5.045
 5507SOL    HW217421   3.544   0.705   5.040
 5508SOL     OW17422   0.912   1.178   0.411
 5508SOL    HW117423   0.971   1.215   0.482
 5508SOL    HW217424   0.932   1.081   0.398
 5509SOL     OW17425   1.126   6.079   0.436
 5509SOL    HW117426   1.087   6.161   0.393
 5509SOL    HW217427   1.074   5.998   0.407
 5510SOL     OW17428   4.414   5.485   6.807
 5510SOL    HW117429   4.513   5.490   6.793
 5510SOL    HW217430   4.367   5.498   6.720
 5511SOL     OW17431   1.748   1.209   4.830
 5511SOL    HW117432   1.717   1.158   4.750
 5511SOL    HW217433   1.832   1.258   4.807
 5512SOL     OW17434   3.842   1.435   0.805
 5512SOL    HW117435   3.824   1.442   0.707
 5512SOL    HW217436   3.941   1.435   0.821
 5513SOL     OW17437   3.713   5.377   6.175
 5513SOL    HW117438   3.677   5.445   6.111
 5513SOL    HW217439   3.643   5.358   6.245
 5514SOL     OW17440   3.404   0.603   4.634
 5514SOL    HW117441   3.383   0.528   4.572
 5514SOL    HW217442   3.496   0.591   4.672
 5515SOL     OW17443   1.386   5.686   1.822
 5515SOL    HW117444   1.398   5.750   1.745
 5515SOL    HW217445   1.377   5.593   1.787
 5516SOL     OW17446   2.377   2.751   4.646
 5516SOL    HW117447   2.356   2.767   4.549
 5516SOL    HW217448   2.455   2.689   4.653
 5517SOL     OW17449   2.020   3.580   1.864
 5517SOL    HW117450   2.019   3.680   1.864
 5517SOL    HW217451   2.090   3.548   1.928
 5518SOL     OW17452   6.284   5.027   5.759
 5518SOL    HW117453   6.269   4.928   5.749
 5518SOL    HW217454   6.207   5.068   5.806
 5519SOL     OW17455   6.049   3.369   3.148
 5519SOL    HW117456   5.993   3.342   3.070
 5519SOL    HW217457   5.995   3.424   3.211
 5520SOL     OW17458   5.330   6.837   2.378
 5520SOL    HW117459   5.423   6.810   2.403
 5520SOL    HW217460   5.266   6.766   2.408
 5521SOL     OW17461   5.788   6.254   1.597
 5521SOL    HW117462   5.828   6.176   1.551
 5521SOL    HW217463   5.762   6.323   1.529
 5522SOL     OW17464   6.349   5.388   1.036
 5522SOL    HW117465   6.355   5.288   1.030
 5522SOL    HW217466   6.264   5.413   1.082
 5523SOL     OW17467   4.158   1.157   2.066
 5523SOL    HW117468   4.217   1.201   1.998
 5523SOL    HW217469   4.190   1.182   2.158
 5524SOL     OW17470   3.393   0.029   4.874
 5524SOL    HW117471   3.402   0.123   4.842
 5524SOL    HW217472   3.406   0.026   4.973
 5525SOL     OW17473   1.318   2.368   0.119
 5525SOL    HW117474   1.268   2.365   0.205
 5525SOL    HW217475   1.350   2.461   0.102
 5526SOL     OW17476   5.129   4.926   3.083
 5526SOL    HW117477   5.179   5.012   3.092
 5526SOL    HW217478   5.038   4.944   3.047
 5527SOL     OW17479   4.946   3.799   3.359
 5527SOL    HW117480   4.923   3.748   3.442
 5527SOL    HW217481   4.993   3.738   3.295
 5528SOL     OW17482   2.173   0.705   1.022
 5528SOL    HW117483   2.123   0.722   1.107
 5528SOL    HW217484   2.165   0.609   0.997
 5529SOL     OW17485   3.253   6.983   4.315
 5529SOL    HW117486   3.315   0.023   4.269
 5529SOL    HW217487   3.232   6.906   4.255
 5530SOL     OW17488   6.008   1.911   1.552
 5530SOL    HW117489   6.086   1.924   1.613
 5530SOL    HW217490   5.947   1.840   1.590
 5531SOL     OW17491   3.968   3.483   1.673
 5531SOL    HW117492   3.908   3.406   1.651
 5531SOL    HW217493   4.041   3.452   1.734
 5532SOL     OW17494   1.380   3.157   0.810
 5532SOL    HW117495   1.349   3.063   0.811
 5532SOL    HW217496   1.338   3.208   0.886
 5533SOL     OW17497   5.065   1.073   3.660
 5533SOL    HW117498   5.093   1.072   3.756
 5533SOL    HW217499   4.967   1.055   3.654
 5534SOL     OW17500   0.993   1.268   6.623
 5534SOL    HW117501   0.950   1.182   6.650
 5534SOL    HW217502   1.045   1.255   6.539
 5535SOL     OW17503   0.728   1.042   2.948
 5535SOL    HW117504   0.776   1.083   2.870
 5535SOL    HW217505   0.794   0.999   3.009
 5536SOL     OW17506   4.416   0.573   4.336
 5536SOL    HW117507   4.335   0.526   4.370
 5536SOL    HW217508   4.490   0.506   4.322
 5537SOL     OW17509   3.686   0.976   2.730
 5537SOL    HW117510   3.594   0.951   2.758
 5537SOL    HW217511   3.690   1.075   2.714
 5538SOL     OW17512   3.757   6.243   5.096
 5538SOL    HW117513   3.703   6.161   5.080
 5538SOL    HW217514   3.728   6.315   5.032
 5539SOL     OW17515   1.496   3.769   1.510
 5539SOL    HW117516   1.434   3.722   1.573
 5539SOL    HW217517   1.502   3.865   1.537
 5540SOL     OW17518   5.029   4.677   4.210
 5540SOL    HW117519   4.980   4.684   4.297
 5540SOL    HW217520   5.090   4.755   4.200
 5541SOL     OW17521   5.245   0.348   6.641
 5541SOL    HW117522   5.259   0.400   6.726
 5541SOL    HW217523   5.311   0.274   6.636
 5542SOL     OW17524   4.226   3.126   6.200
 5542SOL    HW117525   4.232   3.173   6.111
 5542SOL    HW217526   4.159   3.052   6.194
 5543SOL     OW17527   5.461   3.565   6.413
 5543SOL    HW117528   5.406   3.579   6.495
 5543SOL    HW217529   5.473   3.652   6.365
 5544SOL     OW17530   5.195   6.887   6.484
 5544SOL    HW117531   5.256   6.893   6.405
 5544SOL    HW217532   5.116   6.946   6.468
 5545SOL     OW17533   3.881   1.619   2.776
 5545SOL    HW117534   3.907   1.706   2.735
 5545SOL    HW217535   3.804   1.633   2.839
 5546SOL     OW17536   1.194   5.461   5.393
 5546SOL    HW117537   1.152   5.372   5.376
 5546SOL    HW217538   1.241   5.492   5.311
 5547SOL     OW17539   2.636   5.998   4.927
 5547SOL    HW117540   2.724   6.045   4.916
 5547SOL    HW217541   2.597   5.980   4.837
 5548SOL     OW17542   6.540   3.651   5.919
 5548SOL    HW117543   6.550   3.678   5.823
 5548SOL    HW217544   6.449   3.612   5.934
 5549SOL     OW17545   3.665   4.692   0.054
 5549SOL    HW117546   3.696   4.730   0.141
 5549SOL    HW217547   3.615   4.607   0.070
 5550SOL     OW17548   2.729   5.550   2.120
 5550SOL    HW117549   2.697   5.626   2.177
 5550SOL    HW217550   2.811   5.510   2.161
 5551SOL     OW17551   1.687   0.369   2.861
 5551SOL    HW117552   1.786   0.363   2.848
 5551SOL    HW217553   1.656   0.461   2.834
 5552SOL     OW17554   0.221   1.712   0.225
 5552SOL    HW117555   0.155   1.637   0.227
 5552SOL    HW217556   0.289   1.694   0.153
 5553SOL     OW17557   4.171   6.798   6.822
 5553SOL    HW117558   4.199   6.874   6.881
 5553SOL    HW217559   4.165   6.829   6.727
 5554SOL     OW17560   2.949   2.616   5.755
 5554SOL    HW117561   2.853   2.612   5.727
 5554SOL    HW217562   2.996   2.533   5.726
 5555SOL     OW17563   0.597   5.825   3.512
 5555SOL    HW117564   0.503   5.825   3.547
 5555SOL    HW217565   0.652   5.759   3.563
 5556SOL     OW17566   0.658   2.352   4.810
 5556SOL    HW117567   0.618   2.384   4.724
 5556SOL    HW217568   0.721   2.277   4.791
 5557SOL     OW17569   2.739   5.658   4.065
 5557SOL    HW117570   2.818   5.599   4.081
 5557SOL    HW217571   2.678   5.614   3.998
 5558SOL     OW17572   5.154   2.864   4.937
 5558SOL    HW117573   5.081   2.807   4.899
 5558SOL    HW217574   5.131   2.888   5.031
 5559SOL     OW17575   2.289   0.221   1.018
 5559SOL    HW117576   2.364   0.231   1.084
 5559SOL    HW217577   2.320   0.167   0.940
 5560SOL     OW17578   6.988   0.322   2.808
 5560SOL    HW117579   6.998   0.227   2.781
 5560SOL    HW217580   6.891   0.342   2.825
 5561SOL     OW17581   1.386   3.206   4.237
 5561SOL    HW117582   1.335   3.290   4.255
 5561SOL    HW217583   1.357   3.168   4.149
 5562SOL     OW17584   1.778   2.877   6.040
 5562SOL    HW117585   1.734   2.837   6.120
 5562SOL    HW217586   1.792   2.806   5.971
 5563SOL     OW17587   4.463   6.246   2.045
 5563SOL    HW117588   4.522   6.254   1.965
 5563SOL    HW217589   4.517   6.216   2.124
 5564SOL     OW17590   5.370   3.696   1.789
 5564SOL    HW117591   5.338   3.729   1.877
 5564SOL    HW217592   5.388   3.773   1.728
 5565SOL     OW17593   4.197   2.547   5.554
 5565SOL    HW117594   4.131   2.480   5.587
 5565SOL    HW217595   4.186   2.633   5.606
 5566SOL     OW17596   1.636   5.493   0.968
 5566SOL    HW117597   1.586   5.441   0.899
 5566SOL    HW217598   1.595   5.585   0.976
 5567SOL     OW17599   1.906   5.361   1.304
 5567SOL    HW117600   1.879   5.436   1.364
 5567SOL    HW217601   1.876   5.274   1.343
 5568SOL     OW17602   4.638   2.117   0.771
 5568SOL    HW117603   4.600   2.190   0.827
 5568SOL    HW217604   4.724   2.085   0.810
 5569SOL     OW17605   3.964   1.426   1.613
 5569SOL    HW117606   3.874   1.405   1.575
 5569SOL    HW217607   4.034   1.411   1.544
 5570SOL     OW17608   6.029   4.913   5.170
 5570SOL    HW117609   6.034   4.940   5.073
 5570SOL    HW217610   6.006   4.816   5.177
 5571SOL     OW17611   0.442   5.647   0.624
 5571SOL    HW117612   0.366   5.686   0.573
 5571SOL    HW217613   0.421   5.650   0.722
 5572SOL     OW17614   4.135   2.335   6.424
 5572SOL    HW117615   4.043   2.354   6.390
 5572SOL    HW217616   4.143   2.366   6.519
 5573SOL     OW17617   1.217   3.878   0.292
 5573SOL    HW117618   1.197   3.836   0.203
 5573SOL    HW217619   1.242   3.806   0.357
 5574SOL     OW17620   0.375   6.965   4.759
 5574SOL    HW117621   0.348   0.022   4.705
 5574SOL    HW217622   0.421   6.899   4.699
 5575SOL     OW17623   1.540   0.917   0.850
 5575SOL    HW117624   1.560   0.930   0.947
 5575SOL    HW217625   1.533   0.820   0.830
 5576SOL     OW17626   5.780   5.353   0.799
 5576SOL    HW117627   5.865   5.316   0.837
 5576SOL    HW217628   5.783   5.348   0.700
 5577SOL     OW17629   1.970   3.272   5.668
 5577SOL    HW117630   2.055   3.299   5.623
 5577SOL    HW217631   1.892   3.311   5.618
 5578SOL     OW17632   3.728   2.302   6.988
 5578SOL    HW117633   3.722   2.235   0.039
 5578SOL    HW217634   3.658   2.372   7.002
 5579SOL     OW17635   5.034   3.637   6.798
 5579SOL    HW117636   4.981   3.722   6.799
 5579SOL    HW217637   5.030   3.596   6.708
 5580SOL     OW17638   4.980   1.702   0.503
 5580SOL    HW117639   5.055   1.765   0.483
 5580SOL    HW217640   4.995   1.660   0.593
 5581SOL     OW17641   2.100   0.654   6.552
 5581SOL    HW117642   2.186   0.645   6.602
 5581SOL    HW217643   2.024   0.636   6.613
 5582SOL     OW17644   3.304   3.800   4.034
 5582SOL    HW117645   3.226   3.737   4.028
 5582SOL    HW217646   3.270   3.894   4.041
 5583SOL     OW17647   3.303   6.850   2.273
 5583SOL    HW117648   3.270   6.822   2.182
 5583SOL    HW217649   3.392   6.895   2.263
 5584SOL     OW17650   5.903   4.026   3.445
 5584SOL    HW117651   5.860   4.115   3.427
 5584SOL    HW217652   5.916   4.015   3.543
 5585SOL     OW17653   6.282   0.401   3.527
 5585SOL    HW117654   6.319   0.321   3.480
 5585SOL    HW217655   6.353   0.442   3.583
 5586SOL     OW17656   2.257   1.813   6.220
 5586SOL    HW117657   2.279   1.858   6.133
 5586SOL    HW217658   2.303   1.859   6.295
 5587SOL     OW17659   4.086   0.739   3.164
 5587SOL    HW117660   4.124   0.758   3.255
 5587SOL    HW217661   3.987   0.726   3.170
 5588SOL     OW17662   2.271   0.120   5.139
 5588SOL    HW117663   2.248   0.143   5.045
 5588SOL    HW217664   2.297   0.023   5.143
 5589SOL     OW17665   4.887   2.767   6.018
 5589SOL    HW117666   4.959   2.835   6.012
 5589SOL    HW217667   4.874   2.740   6.113
 5590SOL     OW17668   6.491   6.121   4.580
 5590SOL    HW117669   6.416   6.127   4.646
 5590SOL    HW217670   6.574   6.090   4.625
 5591SOL     OW17671   6.059   0.789   0.286
 5591SOL    HW117672   6.005   0.714   0.248
 5591SOL    HW217673   6.083   0.853   0.214
 5592SOL     OW17674   1.345   4.159   2.545
 5592SOL    HW117675   1.347   4.207   2.458
 5592SOL    HW217676   1.252   4.164   2.583
 5593SOL     OW17677   0.799   2.910   5.912
 5593SOL    HW117678   0.705   2.939   5.899
 5593SOL    HW217679   0.859   2.962   5.851
 5594SOL     OW17680   2.241   0.162   0.123
 5594SOL    HW117681   2.325   0.170   0.178
 5594SOL    HW217682   2.248   0.083   0.063
 5595SOL     OW17683   6.516   1.024   5.619
 5595SOL    HW117684   6.577   0.990   5.691
 5595SOL    HW217685   6.443   1.078   5.661
 5596SOL     OW17686   5.093   0.532   2.501
 5596SOL    HW117687   5.050   0.586   2.429
 5596SOL    HW217688   5.186   0.565   2.517
 5597SOL     OW17689   5.927   1.259   6.327
 5597SOL    HW117690   6.008   1.268   6.269
 5597SOL    HW217691   5.862   1.196   6.284
 5598SOL     OW17692   5.332   1.617   4.020
 5598SOL    HW117693   5.297   1.527   3.992
 5598SOL    HW217694   5.426   1.608   4.052
 5599SOL     OW17695   5.451   3.661   1.466
 5599SOL    HW117696   5.421   3.636   1.375
 5599SOL    HW217697   5.415   3.596   1.533
 5600SOL     OW17698   1.672   0.629   2.784
 5600SOL    HW117699   1.605   0.633   2.709
 5600SOL    HW217700   1.748   0.691   2.764
 5601SOL     OW17701   5.180   2.901   5.742
 5601SOL    HW117702   5.265   2.953   5.753
 5601SOL    HW217703   5.115   2.929   5.813
 5602SOL     OW17704   0.802   2.238   3.493
 5602SOL    HW117705   0.850   2.245   3.581
 5602SOL    HW217706   0.830   2.314   3.434
 5603SOL     OW17707   4.492   2.480   4.991
 5603SOL    HW117708   4.545   2.557   4.953
 5603SOL    HW217709   4.399   2.510   5.011
 5604SOL     OW17710   0.995   0.020   4.316
 5604SOL    HW117711   0.982   0.075   4.398
 5604SOL    HW217712   1.012   0.080   4.238
 5605SOL     OW17713   1.921   6.970   4.153
 5605SOL    HW117714   1.830   6.987   4.191
 5605SOL    HW217715   1.958   6.886   4.191
 5606SOL     OW17716   4.683   1.620   0.635
 5606SOL    HW117717   4.667   1.561   0.714
 5606SOL    HW217718   4.779   1.615   0.608
 5607SOL     OW17719   6.158   2.392   2.603
 5607SOL    HW117720   6.098   2.458   2.559
 5607SOL    HW217721   6.119   2.363   2.690
 5608SOL     OW17722   5.607   1.035   3.749
 5608SOL    HW117723   5.607   0.942   3.712
 5608SOL    HW217724   5.689   1.049   3.804
 5609SOL     OW17725   5.620   6.643   1.027
 5609SOL    HW117726   5.525   6.665   1.008
 5609SOL    HW217727   5.679   6.692   0.962
 5610SOL     OW17728   5.735   4.476   6.870
 5610SOL    HW117729   5.652   4.421   6.877
 5610SOL    HW217730   5.715   4.570   6.897
 5611SOL     OW17731   0.519   5.050   1.470
 5611SOL    HW117732   0.434   5.101   1.463
 5611SOL    HW217733   0.523   4.982   1.397
 5612SOL     OW17734   3.118   1.300   0.807
 5612SOL    HW117735   3.147   1.229   0.744
 5612SOL    HW217736   3.025   1.329   0.785
 5613SOL     OW17737   6.940   5.531   4.706
 5613SOL    HW117738   6.880   5.452   4.720
 5613SOL    HW217739   6.926   5.597   4.779
 5614SOL     OW17740   5.820   1.940   4.808
 5614SOL    HW117741   5.729   1.971   4.778
 5614SOL    HW217742   5.845   1.987   4.893
 5615SOL     OW17743   6.759   2.445   2.312
 5615SOL    HW117744   6.726   2.517   2.252
 5615SOL    HW217745   6.744   2.471   2.407
 5616SOL     OW17746   1.778   3.138   3.523
 5616SOL    HW117747   1.846   3.072   3.557
 5616SOL    HW217748   1.819   3.229   3.519
 5617SOL     OW17749   2.008   5.316   5.868
 5617SOL    HW117750   1.963   5.248   5.810
 5617SOL    HW217751   2.105   5.293   5.877
 5618SOL     OW17752   0.007   5.224   4.206
 5618SOL    HW117753   0.023   5.128   4.226
 5618SOL    HW217754   0.066   5.281   4.263
 5619SOL     OW17755   3.706   3.368   4.367
 5619SOL    HW117756   3.747   3.459   4.366
 5619SOL    HW217757   3.643   3.359   4.290
 5620SOL     OW17758   4.154   4.501   5.581
 5620SOL    HW117759   4.180   4.462   5.492
 5620SOL    HW217760   4.074   4.559   5.569
 5621SOL     OW17761   1.618   2.812   4.851
 5621SOL    HW117762   1.579   2.890   4.899
 5621SOL    HW217763   1.642   2.741   4.918
 5622SOL     OW17764   4.717   5.348   5.069
 5622SOL    HW117765   4.717   5.437   5.023
 5622SOL    HW217766   4.670   5.281   5.012
 5623SOL     OW17767   4.397   6.058   4.162
 5623SOL    HW117768   4.321   6.116   4.132
 5623SOL    HW217769   4.371   6.010   4.246
 5624SOL     OW17770   0.176   5.649   4.333
 5624SOL    HW117771   0.101   5.642   4.268
 5624SOL    HW217772   0.161   5.587   4.410
 5625SOL     OW17773   1.383   5.640   4.666
 5625SOL    HW117774   1.465   5.674   4.620
 5625SOL    HW217775   1.404   5.555   4.714
 5626SOL     OW17776   2.109   3.941   4.172
 5626SOL    HW117777   2.060   3.857   4.145
 5626SOL    HW217778   2.150   3.928   4.262
 5627SOL     OW17779   1.600   5.617   0.631
 5627SOL    HW117780   1.592   5.636   0.729
 5627SOL    HW217781   1.673   5.671   0.592
 5628SOL     OW17782   2.832   2.939   0.602
 5628SOL    HW117783   2.800   2.982   0.686
 5628SOL    HW217784   2.882   2.855   0.625
 5629SOL     OW17785   4.857   3.868   1.196
 5629SOL    HW117786   4.927   3.796   1.190
 5629SOL    HW217787   4.769   3.831   1.166
 5630SOL     OW17788   1.470   4.186   6.218
 5630SOL    HW117789   1.429   4.150   6.134
 5630SOL    HW217790   1.453   4.122   6.293
 5631SOL     OW17791   4.136   0.827   2.079
 5631SOL    HW117792   4.209   0.787   2.023
 5631SOL    HW217793   4.126   0.924   2.056
 5632SOL     OW17794   6.076   0.604   5.878
 5632SOL    HW117795   6.159   0.549   5.879
 5632SOL    HW217796   6.027   0.588   5.792
 5633SOL     OW17797   0.530   4.608   5.630
 5633SOL    HW117798   0.561   4.591   5.724
 5633SOL    HW217799   0.462   4.539   5.604
 5634SOL     OW17800   2.854   5.868   6.058
 5634SOL    HW117801   2.795   5.826   5.989
 5634SOL    HW217802   2.859   5.808   6.138
 5635SOL     OW17803   2.820   6.967   6.541
 5635SOL    HW117804   2.724   6.972   6.568
 5635SOL    HW217805   2.849   6.871   6.542
 5636SOL     OW17806   6.280   0.902   5.528
 5636SOL    HW117807   6.361   0.960   5.540
 5636SOL    HW217808   6.221   0.943   5.458
 5637SOL     OW17809   4.959   6.157   4.640
 5637SOL    HW117810   4.990   6.188   4.730
 5637SOL    HW217811   4.998   6.216   4.569
 5638SOL     OW17812   5.329   5.881   1.008
 5638SOL    HW117813   5.270   5.807   0.977
 5638SOL    HW217814   5.299   5.911   1.098
 5639SOL     OW17815   1.485   7.017   1.475
 5639SOL    HW117816   1.561   7.003   1.539
 5639SOL    HW217817   1.508   0.070   1.413
 5640SOL     OW17818   2.374   6.284   3.100
 5640SOL    HW117819   2.375   6.236   3.012
 5640SOL    HW217820   2.332   6.374   3.087
 5641SOL     OW17821   1.448   5.399   4.771
 5641SOL    HW117822   1.414   5.306   4.786
 5641SOL    HW217823   1.515   5.422   4.842
 5642SOL     OW17824   0.856   4.785   6.228
 5642SOL    HW117825   0.810   4.816   6.311
 5642SOL    HW217826   0.833   4.846   6.152
 5643SOL     OW17827   3.930   2.139   4.691
 5643SOL    HW117828   4.013   2.178   4.732
 5643SOL    HW217829   3.917   2.176   4.600
 5644SOL     OW17830   5.229   1.336   4.822
 5644SOL    HW117831   5.151   1.381   4.866
 5644SOL    HW217832   5.263   1.393   4.747
 5645SOL     OW17833   5.061   5.206   2.078
 5645SOL    HW117834   5.132   5.137   2.089
 5645SOL    HW217835   5.014   5.219   2.165
 5646SOL     OW17836   0.298   5.875   3.835
 5646SOL    HW117837   0.212   5.927   3.832
 5646SOL    HW217838   0.353   5.906   3.912
 5647SOL     OW17839   6.495   5.823   6.958
 5647SOL    HW117840   6.479   5.840   0.033
 5647SOL    HW217841   6.545   5.900   6.919
 5648SOL     OW17842   2.093   1.627   3.013
 5648SOL    HW117843   2.190   1.642   2.996
 5648SOL    HW217844   2.059   1.696   3.076
 5649SOL     OW17845   2.024   0.517   4.743
 5649SOL    HW117846   1.984   0.560   4.662
 5649SOL    HW217847   2.034   0.419   4.728
 5650SOL     OW17848   0.057   4.763   0.937
 5650SOL    HW117849   0.016   4.834   0.880
 5650SOL    HW217850   0.023   4.771   1.031
 5651SOL     OW17851   0.380   1.728   1.651
 5651SOL    HW117852   0.416   1.646   1.695
 5651SOL    HW217853   0.294   1.754   1.696
 5652SOL     OW17854   5.472   5.811   1.521
 5652SOL    HW117855   5.537   5.841   1.452
 5652SOL    HW217856   5.398   5.760   1.477
 5653SOL     OW17857   6.720   6.043   5.938
 5653SOL    HW117858   6.671   6.131   5.943
 5653SOL    HW217859   6.703   5.991   6.022
 5654SOL     OW17860   0.205   0.384   5.975
 5654SOL    HW117861   0.277   0.365   5.908
 5654SOL    HW217862   0.149   0.461   5.943
 5655SOL     OW17863   1.441   3.413   3.834
 5655SOL    HW117864   1.368   3.353   3.868
 5655SOL    HW217865   1.529   3.380   3.866
 5656SOL     OW17866   3.016   4.171   0.835
 5656SOL    HW117867   3.006   4.202   0.930
 5656SOL    HW217868   2.956   4.225   0.776
 5657SOL     OW17869   5.215   6.783   1.402
 5657SOL    HW117870   5.159   6.845   1.457
 5657SOL    HW217871   5.281   6.836   1.348
 5658SOL     OW17872   3.133   6.717   5.588
 5658SOL    HW117873   3.143   6.751   5.494
 5658SOL    HW217874   3.224   6.704   5.628
 5659SOL     OW17875   2.977   3.175   2.995
 5659SOL    HW117876   2.911   3.112   2.954
 5659SOL    HW217877   3.013   3.134   3.079
 5660SOL     OW17878   5.583   0.212   0.679
 5660SOL    HW117879   5.667   0.156   0.681
 5660SOL    HW217880   5.580   0.269   0.761
 5661SOL     OW17881   6.941   6.445   5.102
 5661SOL    HW117882   7.004   6.431   5.026
 5661SOL    HW217883   6.992   6.445   5.188
 5662SOL     OW17884   2.527   4.597   3.926
 5662SOL    HW117885   2.519   4.580   3.828
 5662SOL    HW217886   2.618   4.633   3.946
 5663SOL     OW17887   1.196   4.145   0.292
 5663SOL    HW117888   1.098   4.162   0.279
 5663SOL    HW217889   1.214   4.048   0.281
 5664SOL     OW17890   0.128   4.843   3.252
 5664SOL    HW117891   0.156   4.751   3.228
 5664SOL    HW217892   0.208   4.904   3.250
 5665SOL     OW17893   1.582   2.533   6.447
 5665SOL    HW117894   1.638   2.545   6.365
 5665SOL    HW217895   1.557   2.622   6.484
 5666SOL     OW17896   4.335   5.674   0.947
 5666SOL    HW117897   4.238   5.649   0.942
 5666SOL    HW217898   4.389   5.594   0.973
 5667SOL     OW17899   0.352   5.003   3.304
 5667SOL    HW117900   0.418   4.948   3.355
 5667SOL    HW217901   0.379   5.099   3.308
 5668SOL     OW17902   4.490   1.470   6.496
 5668SOL    HW117903   4.414   1.531   6.475
 5668SOL    HW217904   4.530   1.435   6.411
 5669SOL     OW17905   0.224   5.046   5.510
 5669SOL    HW117906   0.308   4.999   5.486
 5669SOL    HW217907   0.165   4.985   5.563
 5670SOL     OW17908   0.257   3.277   3.356
 5670SOL    HW117909   0.196   3.314   3.426
 5670SOL    HW217910   0.341   3.331   3.353
 5671SOL     OW17911   2.321   6.415   6.155
 5671SOL    HW117912   2.222   6.408   6.170
 5671SOL    HW217913   2.342   6.399   6.058
 5672SOL     OW17914   4.943   3.697   5.893
 5672SOL    HW117915   4.903   3.788   5.894
 5672SOL    HW217916   4.872   3.629   5.913
 5673SOL     OW17917   0.357   0.146   2.517
 5673SOL    HW117918   0.320   0.237   2.538
 5673SOL    HW217919   0.282   0.083   2.498
 5674SOL     OW17920   0.226   3.911   1.680
 5674SOL    HW117921   0.234   3.913   1.581
 5674SOL    HW217922   0.167   3.835   1.707
 5675SOL     OW17923   4.437   2.697   5.330
 5675SOL    HW117924   4.502   2.739   5.394
 5675SOL    HW217925   4.354   2.753   5.326
 5676SOL     OW17926   1.706   0.489   0.975
 5676SOL    HW117927   1.640   0.536   0.918
 5676SOL    HW217928   1.738   0.407   0.928
 5677SOL     OW17929   6.822   2.215   3.006
 5677SOL    HW117930   6.745   2.203   3.068
 5677SOL    HW217931   6.788   2.242   2.915
 5678SOL     OW17932   3.451   6.467   2.637
 5678SOL    HW117933   3.540   6.482   2.679
 5678SOL    HW217934   3.379   6.480   2.705
 5679SOL     OW17935   1.345   6.961   4.877
 5679SOL    HW117936   1.270   6.902   4.908
 5679SOL    HW217937   1.311   0.001   4.807
 5680SOL     OW17938   1.662   5.368   6.867
 5680SOL    HW117939   1.611   5.287   6.895
 5680SOL    HW217940   1.599   5.443   6.850
 5681SOL     OW17941   0.593   3.025   6.371
 5681SOL    HW117942   0.622   3.067   6.285
 5681SOL    HW217943   0.617   3.086   6.447
 5682SOL     OW17944   1.541   3.008   5.400
 5682SOL    HW117945   1.633   3.020   5.436
 5682SOL    HW217946   1.503   2.922   5.435
 5683SOL     OW17947   3.681   2.470   6.106
 5683SOL    HW117948   3.761   2.492   6.162
 5683SOL    HW217949   3.705   2.474   6.009
 5684SOL     OW17950   3.955   3.202   4.267
 5684SOL    HW117951   3.912   3.119   4.231
 5684SOL    HW217952   3.885   3.260   4.310
 5685SOL     OW17953   0.573   4.702   1.984
 5685SOL    HW117954   0.530   4.774   2.039
 5685SOL    HW217955   0.515   4.621   1.982
 5686SOL     OW17956   3.563   0.261   0.372
 5686SOL    HW117957   3.491   0.224   0.314
 5686SOL    HW217958   3.523   0.300   0.455
 5687SOL     OW17959   6.510   3.967   4.907
 5687SOL    HW117960   6.596   3.929   4.942
 5687SOL    HW217961   6.514   4.066   4.909
 5688SOL     OW17962   6.244   1.820   0.870
 5688SOL    HW117963   6.298   1.770   0.937
 5688SOL    HW217964   6.150   1.829   0.903
 5689SOL     OW17965   4.430   1.600   0.544
 5689SOL    HW117966   4.518   1.633   0.577
 5689SOL    HW217967   4.397   1.660   0.472
 5690SOL     OW17968   3.417   6.038   0.655
 5690SOL    HW117969   3.399   6.069   0.749
 5690SOL    HW217970   3.486   6.098   0.613
 5691SOL     OW17971   2.678   6.165   2.079
 5691SOL    HW117972   2.641   6.083   2.037
 5691SOL    HW217973   2.701   6.232   2.008
 5692SOL     OW17974   6.459   1.950   6.328
 5692SOL    HW117975   6.473   1.967   6.426
 5692SOL    HW217976   6.542   1.973   6.278
 5693SOL     OW17977   5.012   2.648   2.313
 5693SOL    HW117978   5.037   2.645   2.410
 5693SOL    HW217979   4.922   2.689   2.303
 5694SOL     OW17980   0.674   1.257   3.399
 5694SOL    HW117981   0.666   1.324   3.473
 5694SOL    HW217982   0.587   1.251   3.350
 5695SOL     OW17983   1.198   2.174   3.180
 5695SOL    HW117984   1.289   2.135   3.164
 5695SOL    HW217985   1.209   2.270   3.208
 5696SOL     OW17986   3.178   1.128   4.802
 5696SOL    HW117987   3.152   1.224   4.813
 5696SOL    HW217988   3.275   1.122   4.779
 5697SOL     OW17989   6.911   2.374   1.225
 5697SOL    HW117990   6.992   2.316   1.214
 5697SOL    HW217991   6.930   2.446   1.293
 5698SOL     OW17992   0.356   2.156   2.053
 5698SOL    HW117993   0.318   2.240   2.091
 5698SOL    HW217994   0.322   2.143   1.960
 5699SOL     OW17995   6.119   1.993   3.721
 5699SOL    HW117996   6.095   1.898   3.699
 5699SOL    HW217997   6.192   1.993   3.790
 5700SOL     OW17998   0.502   6.533   4.524
 5700SOL    HW117999   0.561   6.582   4.588
 5700SOL    HW218000   0.529   6.436   4.520
 5701SOL     OW18001   0.347   5.595   3.294
 5701SOL    HW118002   0.418   5.654   3.255
 5701SOL    HW218003   0.271   5.652   3.327
 5702SOL     OW18004   1.997   7.006   6.360
 5702SOL    HW118005   2.007   6.907   6.370
 5702SOL    HW218006   2.006   0.009   6.264
 5703SOL     OW18007   4.937   5.168   7.020
 5703SOL    HW118008   4.895   5.167   0.087
 5703SOL    HW218009   4.967   5.076   6.995
 5704SOL     OW18010   4.426   5.638   3.064
 5704SOL    HW118011   4.526   5.644   3.052
 5704SOL    HW218012   4.384   5.723   3.035
 5705SOL     OW18013   6.421   1.040   0.726
 5705SOL    HW118014   6.516   1.031   0.754
 5705SOL    HW218015   6.364   1.055   0.807
 5706SOL     OW18016   1.617   1.395   0.008
 5706SOL    HW118017   1.647   1.467   0.071
 5706SOL    HW218018   1.656   1.411   6.940
 5707SOL     OW18019   1.058   0.228   6.454
 5707SOL    HW118020   1.047   0.162   6.528
 5707SOL    HW218021   1.112   0.187   6.381
 5708SOL     OW18022   5.412   7.020   2.183
 5708SOL    HW118023   5.511   7.006   2.172
 5708SOL    HW218024   5.383   6.981   2.270
 5709SOL     OW18025   0.490   6.234   3.175
 5709SOL    HW118026   0.459   6.261   3.266
 5709SOL    HW218027   0.472   6.309   3.111
 5710SOL     OW18028   2.622   3.580   5.848
 5710SOL    HW118029   2.685   3.521   5.898
 5710SOL    HW218030   2.645   3.579   5.751
 5711SOL     OW18031   4.657   0.664   3.660
 5711SOL    HW118032   4.565   0.626   3.666
 5711SOL    HW218033   4.723   0.601   3.701
 5712SOL     OW18034   0.790   6.872   5.407
 5712SOL    HW118035   0.889   6.887   5.396
 5712SOL    HW218036   0.773   6.826   5.494
 5713SOL     OW18037   0.755   2.313   1.423
 5713SOL    HW118038   0.844   2.267   1.426
 5713SOL    HW218039   0.686   2.256   1.468
 5714SOL     OW18040   1.242   6.708   6.711
 5714SOL    HW118041   1.338   6.734   6.722
 5714SOL    HW218042   1.236   6.611   6.688
 5715SOL     OW18043   1.196   6.096   3.506
 5715SOL    HW118044   1.136   6.016   3.514
 5715SOL    HW218045   1.215   6.132   3.597
 5716SOL     OW18046   1.111   4.068   5.438
 5716SOL    HW118047   1.066   4.032   5.356
 5716SOL    HW218048   1.167   4.147   5.414
 5717SOL     OW18049   1.891   4.912   0.633
 5717SOL    HW118050   1.841   4.849   0.691
 5717SOL    HW218051   1.987   4.913   0.659
 5718SOL     OW18052   1.464   4.453   0.081
 5718SOL    HW118053   1.460   4.439   7.005
 5718SOL    HW218054   1.373   4.471   0.116
 5719SOL     OW18055   3.010   1.025   5.854
 5719SOL    HW118056   2.950   1.105   5.858
 5719SOL    HW218057   3.002   0.982   5.764
 5720SOL     OW18058   0.477   5.206   4.928
 5720SOL    HW118059   0.480   5.131   4.994
 5720SOL    HW218060   0.429   5.176   4.846
 5721SOL     OW18061   0.944   3.212   0.183
 5721SOL    HW118062   0.992   3.250   0.104
 5721SOL    HW218063   0.846   3.207   0.164
 5722SOL     OW18064   5.203   0.881   4.938
 5722SOL    HW118065   5.299   0.875   4.963
 5722SOL    HW218066   5.183   0.812   4.868
 5723SOL     OW18067   4.486   4.880   0.702
 5723SOL    HW118068   4.469   4.965   0.652
 5723SOL    HW218069   4.441   4.884   0.791
 5724SOL     OW18070   4.058   2.552   5.828
 5724SOL    HW118071   4.132   2.585   5.887
 5724SOL    HW218072   4.019   2.629   5.777
 5725SOL     OW18073   5.051   5.702   3.396
 5725SOL    HW118074   5.125   5.717   3.331
 5725SOL    HW218075   5.007   5.790   3.417
 5726SOL     OW18076   6.376   3.594   4.210
 5726SOL    HW118077   6.292   3.540   4.205
 5726SOL    HW218078   6.454   3.532   4.221
 5727SOL     OW18079   5.639   3.462   3.235
 5727SOL    HW118080   5.622   3.365   3.256
 5727SOL    HW218081   5.595   3.485   3.148
 5728SOL     OW18082   5.558   1.348   6.558
 5728SOL    HW118083   5.606   1.343   6.470
 5728SOL    HW218084   5.487   1.419   6.554
 5729SOL     OW18085   0.532   1.784   0.888
 5729SOL    HW118086   0.600   1.812   0.955
 5729SOL    HW218087   0.521   1.684   0.890
 5730SOL     OW18088   3.908   5.319   5.601
 5730SOL    HW118089   3.848   5.388   5.642
 5730SOL    HW218090   3.912   5.239   5.661
 5731SOL     OW18091   1.119   6.377   3.989
 5731SOL    HW118092   1.196   6.323   4.022
 5731SOL    HW218093   1.071   6.327   3.917
 5732SOL     OW18094   5.872   4.725   4.340
 5732SOL    HW118095   5.903   4.661   4.270
 5732SOL    HW218096   5.869   4.818   4.302
 5733SOL     OW18097   3.561   0.992   6.491
 5733SOL    HW118098   3.556   0.894   6.469
 5733SOL    HW218099   3.647   1.012   6.538
 5734SOL     OW18100   1.112   0.296   5.377
 5734SOL    HW118101   1.067   0.230   5.438
 5734SOL    HW218102   1.050   0.318   5.301
 5735SOL     OW18103   3.689   1.308   2.101
 5735SOL    HW118104   3.772   1.253   2.114
 5735SOL    HW218105   3.609   1.249   2.107
 5736SOL     OW18106   5.328   4.761   6.373
 5736SOL    HW118107   5.245   4.811   6.398
 5736SOL    HW218108   5.331   4.749   6.274
 5737SOL     OW18109   5.326   6.350   0.985
 5737SOL    HW118110   5.326   6.266   0.930
 5737SOL    HW218111   5.278   6.333   1.071
 5738SOL     OW18112   3.510   1.347   6.524
 5738SOL    HW118113   3.445   1.423   6.531
 5738SOL    HW218114   3.603   1.381   6.537
 5739SOL     OW18115   1.646   6.808   5.577
 5739SOL    HW118116   1.699   6.730   5.543
 5739SOL    HW218117   1.670   6.826   5.672
 5740SOL     OW18118   4.861   3.858   0.850
 5740SOL    HW118119   4.788   3.873   0.918
 5740SOL    HW218120   4.876   3.760   0.839
 5741SOL     OW18121   0.522   3.937   3.652
 5741SOL    HW118122   0.437   3.948   3.599
 5741SOL    HW218123   0.504   3.958   3.748
 5742SOL     OW18124   3.892   6.842   3.752
 5742SOL    HW118125   3.847   6.921   3.710
 5742SOL    HW218126   3.975   6.873   3.799
 5743SOL     OW18127   3.598   4.636   6.085
 5743SOL    HW118128   3.628   4.552   6.041
 5743SOL    HW218129   3.540   4.614   6.163
 5744SOL     OW18130   6.606   0.876   3.083
 5744SOL    HW118131   6.655   0.945   3.030
 5744SOL    HW218132   6.549   0.922   3.152
 5745SOL     OW18133   2.494   1.750   3.747
 5745SOL    HW118134   2.433   1.688   3.796
 5745SOL    HW218135   2.486   1.734   3.648
 5746SOL     OW18136   4.020   0.297   3.499
 5746SOL    HW118137   4.119   0.295   3.487
 5746SOL    HW218138   3.997   0.271   3.593
 5747SOL     OW18139   0.639   6.198   2.217
 5747SOL    HW118140   0.663   6.176   2.312
 5747SOL    HW218141   0.686   6.135   2.155
 5748SOL     OW18142   0.880   6.928   0.706
 5748SOL    HW118143   0.936   6.861   0.756
 5748SOL    HW218144   0.785   6.919   0.733
 5749SOL     OW18145   1.925   6.944   5.151
 5749SOL    HW118146   1.860   6.889   5.098
 5749SOL    HW218147   2.014   6.943   5.105
 5750SOL     OW18148   6.380   4.673   5.492
 5750SOL    HW118149   6.337   4.709   5.409
 5750SOL    HW218150   6.459   4.617   5.468
 5751SOL     OW18151   1.345   3.618   4.650
 5751SOL    HW118152   1.444   3.619   4.663
 5751SOL    HW218153   1.318   3.535   4.601
 5752SOL     OW18154   5.756   0.112   1.403
 5752SOL    HW118155   5.738   0.029   1.457
 5752SOL    HW218156   5.777   0.087   1.309
 5753SOL     OW18157   3.234   3.847   4.879
 5753SOL    HW118158   3.170   3.775   4.908
 5753SOL    HW218159   3.186   3.914   4.823
 5754SOL     OW18160   1.141   6.090   2.364
 5754SOL    HW118161   1.237   6.077   2.390
 5754SOL    HW218162   1.114   6.184   2.383
 5755SOL     OW18163   1.558   2.082   6.076
 5755SOL    HW118164   1.540   2.179   6.095
 5755SOL    HW218165   1.649   2.058   6.110
 5756SOL     OW18166   6.885   0.423   2.544
 5756SOL    HW118167   6.860   0.506   2.594
 5756SOL    HW218168   6.848   0.344   2.591
 5757SOL     OW18169   0.627   5.428   3.874
 5757SOL    HW118170   0.527   5.423   3.877
 5757SOL    HW218171   0.659   5.509   3.923
 5758SOL     OW18172   2.245   0.412   3.682
 5758SOL    HW118173   2.214   0.355   3.606
 5758SOL    HW218174   2.240   0.509   3.656
 5759SOL     OW18175   4.837   0.045   1.787
 5759SOL    HW118176   4.810   7.019   1.870
 5759SOL    HW218177   4.915   0.104   1.808
 5760SOL     OW18178   6.576   3.060   2.119
 5760SOL    HW118179   6.514   3.000   2.069
 5760SOL    HW218180   6.658   3.009   2.147
 5761SOL     OW18181   5.289   5.882   4.888
 5761SOL    HW118182   5.333   5.913   4.973
 5761SOL    HW218183   5.226   5.807   4.909
 5762SOL     OW18184   4.546   4.499   0.293
 5762SOL    HW118185   4.610   4.436   0.249
 5762SOL    HW218186   4.553   4.589   0.250
 5763SOL     OW18187   5.607   6.269   0.546
 5763SOL    HW118188   5.606   6.366   0.524
 5763SOL    HW218189   5.644   6.217   0.469
 5764SOL     OW18190   4.172   5.526   3.751
 5764SOL    HW118191   4.218   5.611   3.776
 5764SOL    HW218192   4.124   5.490   3.831
 5765SOL     OW18193   6.824   3.732   0.465
 5765SOL    HW118194   6.917   3.695   0.467
 5765SOL    HW218195   6.803   3.774   0.554
 5766SOL     OW18196   2.169   2.302   4.635
 5766SOL    HW118197   2.173   2.375   4.567
 5766SOL    HW218198   2.182   2.341   4.726
 5767SOL     OW18199   2.756   0.042   6.794
 5767SOL    HW118200   2.700   6.983   6.810
 5767SOL    HW218201   2.824   0.022   6.723
 5768SOL     OW18202   6.976   6.739   3.587
 5768SOL    HW118203   6.944   6.773   3.498
 5768SOL    HW218204   0.012   6.659   3.573
 5769SOL     OW18205   3.049   5.650   5.077
 5769SOL    HW118206   3.047   5.695   5.166
 5769SOL    HW218207   2.989   5.570   5.079
 5770SOL     OW18208   0.275   6.292   6.804
 5770SOL    HW118209   0.290   6.212   6.747
 5770SOL    HW218210   0.193   6.279   6.860
 5771SOL     OW18211   1.947   0.362   4.290
 5771SOL    HW118212   1.914   0.434   4.350
 5771SOL    HW218213   1.904   0.275   4.315
 5772SOL     OW18214   4.485   1.317   1.312
 5772SOL    HW118215   4.446   1.227   1.290
 5772SOL    HW218216   4.450   1.348   1.400
 5773SOL     OW18217   4.165   0.676   2.589
 5773SOL    HW118218   4.216   0.592   2.607
 5773SOL    HW218219   4.067   0.655   2.580
 5774SOL     OW18220   1.906   0.579   4.494
 5774SOL    HW118221   1.822   0.631   4.477
 5774SOL    HW218222   1.978   0.613   4.433
 5775SOL     OW18223   1.122   6.639   2.928
 5775SOL    HW118224   1.199   6.574   2.923
 5775SOL    HW218225   1.152   6.729   2.897
 5776SOL     OW18226   1.422   0.333   3.460
 5776SOL    HW118227   1.478   0.405   3.419
 5776SOL    HW218228   1.466   0.300   3.544
 5777SOL     OW18229   0.986   0.301   3.821
 5777SOL    HW118230   1.056   0.271   3.756
 5777SOL    HW218231   1.017   0.282   3.914
 5778SOL     OW18232   1.852   0.857   0.142
 5778SOL    HW118233   1.784   0.847   0.215
 5778SOL    HW218234   1.873   0.768   0.103
 5779SOL     OW18235   4.399   2.518   0.346
 5779SOL    HW118236   4.364   2.537   0.438
 5779SOL    HW218237   4.368   2.589   0.283
 5780SOL     OW18238   5.064   6.289   4.404
 5780SOL    HW118239   4.978   6.275   4.355
 5780SOL    HW218240   5.122   6.208   4.393
 5781SOL     OW18241   6.284   4.899   4.275
 5781SOL    HW118242   6.277   4.976   4.339
 5781SOL    HW218243   6.341   4.828   4.316
 5782SOL     OW18244   1.286   1.679   0.388
 5782SOL    HW118245   1.262   1.743   0.316
 5782SOL    HW218246   1.287   1.726   0.476
 5783SOL     OW18247   1.111   0.686   2.478
 5783SOL    HW118248   1.128   0.732   2.391
 5783SOL    HW218249   1.064   0.749   2.540
 5784SOL     OW18250   0.791   6.425   5.491
 5784SOL    HW118251   0.824   6.331   5.496
 5784SOL    HW218252   0.702   6.433   5.538
 5785SOL     OW18253   1.574   1.806   0.032
 5785SOL    HW118254   1.491   1.857   0.056
 5785SOL    HW218255   1.598   1.824   6.960
 5786SOL     OW18256   6.788   4.646   0.652
 5786SOL    HW118257   6.807   4.676   0.558
 5786SOL    HW218258   6.690   4.633   0.664
 5787SOL     OW18259   2.094   2.641   5.220
 5787SOL    HW118260   2.125   2.673   5.130
 5787SOL    HW218261   2.049   2.552   5.211
 5788SOL     OW18262   3.044   1.343   2.384
 5788SOL    HW118263   3.065   1.437   2.409
 5788SOL    HW218264   3.097   1.318   2.302
 5789SOL     OW18265   3.360   4.382   6.666
 5789SOL    HW118266   3.280   4.419   6.619
 5789SOL    HW218267   3.392   4.448   6.734
 5790SOL     OW18268   1.844   4.042   4.150
 5790SOL    HW118269   1.944   4.043   4.148
 5790SOL    HW218270   1.810   3.996   4.068
 5791SOL     OW18271   4.088   0.531   1.919
 5791SOL    HW118272   4.147   0.611   1.912
 5791SOL    HW218273   4.007   0.553   1.974
 5792SOL     OW18274   6.928   2.814   2.777
 5792SOL    HW118275   0.001   2.824   2.749
 5792SOL    HW218276   6.918   2.732   2.833
 5793SOL     OW18277   5.696   0.759   3.958
 5793SOL    HW118278   5.712   0.827   4.030
 5793SOL    HW218279   5.597   0.748   3.944
 5794SOL     OW18280   3.828   2.381   1.041
 5794SOL    HW118281   3.785   2.291   1.046
 5794SOL    HW218282   3.786   2.443   1.108
 5795SOL     OW18283   6.408   5.753   6.484
 5795SOL    HW118284   6.404   5.786   6.579
 5795SOL    HW218285   6.365   5.663   6.479
 5796SOL     OW18286   3.831   0.770   6.842
 5796SOL    HW118287   3.927   0.764   6.866
 5796SOL    HW218288   3.789   0.847   6.890
 5797SOL     OW18289   4.644   1.862   5.389
 5797SOL    HW118290   4.698   1.930   5.439
 5797SOL    HW218291   4.568   1.832   5.446
 5798SOL     OW18292   0.676   4.846   4.798
 5798SOL    HW118293   0.690   4.748   4.814
 5798SOL    HW218294   0.584   4.861   4.762
 5799SOL     OW18295   5.588   1.345   3.630
 5799SOL    HW118296   5.522   1.419   3.641
 5799SOL    HW218297   5.545   1.259   3.656
 5800SOL     OW18298   5.774   6.072   0.885
 5800SOL    HW118299   5.861   6.112   0.914
 5800SOL    HW218300   5.709   6.146   0.865
 5801SOL     OW18301   1.527   2.525   4.252
 5801SOL    HW118302   1.449   2.473   4.285
 5801SOL    HW218303   1.610   2.469   4.258
 5802SOL     OW18304   0.891   4.527   1.037
 5802SOL    HW118305   0.957   4.549   0.964
 5802SOL    HW218306   0.800   4.517   0.997
 5803SOL     OW18307   1.252   4.525   1.954
 5803SOL    HW118308   1.277   4.614   1.914
 5803SOL    HW218309   1.317   4.502   2.026
 5804SOL     OW18310   0.140   5.066   3.952
 5804SOL    HW118311   0.154   5.089   3.856
 5804SOL    HW218312   0.190   5.130   4.010
 5805SOL     OW18313   2.546   3.260   5.970
 5805SOL    HW118314   2.637   3.229   5.998
 5805SOL    HW218315   2.496   3.184   5.929
 5806SOL     OW18316   6.966   6.075   5.821
 5806SOL    HW118317   6.869   6.064   5.843
 5806SOL    HW218318   7.015   6.108   5.902
 5807SOL     OW18319   0.938   3.732   1.926
 5807SOL    HW118320   0.889   3.701   2.007
 5807SOL    HW218321   0.985   3.654   1.883
 5808SOL     OW18322   5.927   4.519   4.151
 5808SOL    HW118323   5.937   4.453   4.077
 5808SOL    HW218324   6.013   4.526   4.203
 5809SOL     OW18325   0.029   1.940   4.764
 5809SOL    HW118326   6.960   1.906   4.781
 5809SOL    HW218327   0.059   1.911   4.673
 5810SOL     OW18328   3.845   1.536   3.961
 5810SOL    HW118329   3.800   1.594   3.893
 5810SOL    HW218330   3.875   1.451   3.918
 5811SOL     OW18331   2.965   0.065   5.781
 5811SOL    HW118332   2.907   0.131   5.828
 5811SOL    HW218333   3.012   0.110   5.705
 5812SOL     OW18334   5.997   1.497   4.130
 5812SOL    HW118335   5.970   1.586   4.092
 5812SOL    HW218336   5.997   1.502   4.229
 5813SOL     OW18337   1.662   1.615   0.808
 5813SOL    HW118338   1.609   1.642   0.727
 5813SOL    HW218339   1.650   1.683   0.880
 5814SOL     OW18340   6.303   4.928   1.298
 5814SOL    HW118341   6.383   4.930   1.359
 5814SOL    HW218342   6.264   4.836   1.299
 5815SOL     OW18343   4.503   2.390   4.051
 5815SOL    HW118344   4.418   2.379   3.999
 5815SOL    HW218345   4.545   2.300   4.064
 5816SOL     OW18346   4.833   5.864   0.203
 5816SOL    HW118347   4.789   5.934   0.148
 5816SOL    HW218348   4.926   5.892   0.225
 5817SOL     OW18349   5.500   3.623   5.951
 5817SOL    HW118350   5.415   3.595   5.994
 5817SOL    HW218351   5.575   3.564   5.983
 5818SOL     OW18352   6.521   5.853   4.904
 5818SOL    HW118353   6.589   5.785   4.879
 5818SOL    HW218354   6.470   5.881   4.822
 5819SOL     OW18355   4.249   6.694   6.189
 5819SOL    HW118356   4.154   6.726   6.192
 5819SOL    HW218357   4.257   6.608   6.239
 5820SOL     OW18358   4.630   6.029   3.994
 5820SOL    HW118359   4.598   5.962   3.927
 5820SOL    HW218360   4.557   6.050   4.058
 5821SOL     OW18361   0.176   6.980   2.455
 5821SOL    HW118362   0.194   7.005   2.360
 5821SOL    HW218363   0.084   6.942   2.462
 5822SOL     OW18364   0.466   2.497   2.482
 5822SOL    HW118365   0.514   2.524   2.565
 5822SOL    HW218366   0.468   2.398   2.472
 5823SOL     OW18367   0.693   1.324   6.019
 5823SOL    HW118368   0.748   1.332   6.102
 5823SOL    HW218369   0.750   1.343   5.940
 5824SOL     OW18370   6.909   5.077   2.280
 5824SOL    HW118371   6.922   5.087   2.378
 5824SOL    HW218372   6.919   5.166   2.236
 5825SOL     OW18373   2.412   2.430   5.417
 5825SOL    HW118374   2.354   2.510   5.407
 5825SOL    HW218375   2.367   2.350   5.376
 5826SOL     OW18376   6.844   5.228   5.086
 5826SOL    HW118377   6.815   5.277   5.004
 5826SOL    HW218378   6.942   5.241   5.100
 5827SOL     OW18379   2.185   4.879   4.792
 5827SOL    HW118380   2.285   4.884   4.796
 5827SOL    HW218381   2.157   4.832   4.708
 5828SOL     OW18382   6.808   2.774   1.572
 5828SOL    HW118383   6.871   2.846   1.602
 5828SOL    HW218384   6.777   2.721   1.651
 5829SOL     OW18385   2.395   1.676   2.961
 5829SOL    HW118386   2.354   1.689   2.871
 5829SOL    HW218387   2.461   1.750   2.978
 5830SOL     OW18388   4.884   0.123   5.442
 5830SOL    HW118389   4.785   0.138   5.441
 5830SOL    HW218390   4.922   0.157   5.529
 5831SOL     OW18391   0.058   0.630   4.195
 5831SOL    HW118392   0.040   0.635   4.097
 5831SOL    HW218393   7.019   0.563   4.237
 5832SOL     OW18394   3.878   4.532   5.878
 5832SOL    HW118395   3.939   4.585   5.936
 5832SOL    HW218396   3.806   4.491   5.935
 5833SOL     OW18397   4.029   3.303   4.952
 5833SOL    HW118398   4.025   3.274   4.857
 5833SOL    HW218399   4.111   3.358   4.967
 5834SOL     OW18400   6.403   3.028   0.390
 5834SOL    HW118401   6.485   2.997   0.343
 5834SOL    HW218402   6.363   2.952   0.441
 5835SOL     OW18403   4.931   3.618   3.558
 5835SOL    HW118404   5.026   3.588   3.552
 5835SOL    HW218405   4.903   3.620   3.654
 5836SOL     OW18406   2.681   6.638   2.656
 5836SOL    HW118407   2.597   6.631   2.710
 5836SOL    HW218408   2.670   6.588   2.570
 5837SOL     OW18409   4.399   5.133   5.804
 5837SOL    HW118410   4.443   5.095   5.885
 5837SOL    HW218411   4.469   5.170   5.742
 5838SOL     OW18412   2.868   1.474   5.960
 5838SOL    HW118413   2.922   1.552   5.925
 5838SOL    HW218414   2.775   1.504   5.978
 5839SOL     OW18415   0.234   2.011   2.790
 5839SOL    HW118416   0.257   1.941   2.857
 5839SOL    HW218417   0.317   2.046   2.747
 5840SOL     OW18418   1.148   5.197   6.575
 5840SOL    HW118419   1.138   5.206   6.674
 5840SOL    HW218420   1.072   5.142   6.539
 5841SOL     OW18421   5.191   1.502   2.566
 5841SOL    HW118422   5.248   1.559   2.625
 5841SOL    HW218423   5.098   1.540   2.563
 5842SOL     OW18424   4.903   3.013   1.248
 5842SOL    HW118425   4.827   3.051   1.300
 5842SOL    HW218426   4.954   2.949   1.305
 5843SOL     OW18427   2.199   3.893   2.467
 5843SOL    HW118428   2.131   3.822   2.485
 5843SOL    HW218429   2.184   3.930   2.375
 5844SOL     OW18430   0.978   0.157   5.614
 5844SOL    HW118431   0.882   0.135   5.633
 5844SOL    HW218432   1.028   0.073   5.592
 5845SOL     OW18433   0.994   0.281   2.780
 5845SOL    HW118434   0.906   0.238   2.798
 5845SOL    HW218435   0.980   0.362   2.723
 5846SOL     OW18436   6.792   3.058   3.691
 5846SOL    HW118437   6.841   3.127   3.746
 5846SOL    HW218438   6.791   3.087   3.595
 5847SOL     OW18439   1.666   1.928   1.622
 5847SOL    HW118440   1.740   1.956   1.683
 5847SOL    HW218441   1.663   1.828   1.617
 5848SOL     OW18442   2.516   5.108   3.169
 5848SOL    HW118443   2.480   5.130   3.078
 5848SOL    HW218444   2.578   5.181   3.199
 5849SOL     OW18445   0.252   0.032   6.827
 5849SOL    HW118446   0.174   0.055   6.886
 5849SOL    HW218447   0.334   0.075   6.863
 5850SOL     OW18448   0.424   3.774   2.594
 5850SOL    HW118449   0.421   3.684   2.552
 5850SOL    HW218450   0.330   3.808   2.606
 5851SOL     OW18451   4.961   3.209   2.998
 5851SOL    HW118452   5.028   3.144   2.961
 5851SOL    HW218453   4.950   3.285   2.934
 5852SOL     OW18454   5.034   6.415   2.844
 5852SOL    HW118455   4.937   6.432   2.860
 5852SOL    HW218456   5.061   6.330   2.889
 5853SOL     OW18457   3.171   5.351   4.234
 5853SOL    HW118458   3.130   5.260   4.243
 5853SOL    HW218459   3.255   5.345   4.180
 5854SOL     OW18460   5.614   4.679   5.437
 5854SOL    HW118461   5.623   4.612   5.362
 5854SOL    HW218462   5.531   4.659   5.489
 5855SOL     OW18463   0.176   0.625   5.191
 5855SOL    HW118464   0.098   0.624   5.254
 5855SOL    HW218465   0.257   0.659   5.239
 5856SOL     OW18466   1.793   5.885   3.965
 5856SOL    HW118467   1.816   5.913   3.872
 5856SOL    HW218468   1.872   5.844   4.008
 5857SOL     OW18469   6.127   2.847   5.635
 5857SOL    HW118470   6.218   2.809   5.655
 5857SOL    HW218471   6.059   2.774   5.639
 5858SOL     OW18472   2.374   2.362   1.846
 5858SOL    HW118473   2.455   2.322   1.804
 5858SOL    HW218474   2.344   2.304   1.922
 5859SOL     OW18475   5.338   6.653   1.634
 5859SOL    HW118476   5.325   6.737   1.687
 5859SOL    HW218477   5.289   6.661   1.547
 5860SOL     OW18478   1.803   3.293   2.028
 5860SOL    HW118479   1.804   3.345   1.943
 5860SOL    HW218480   1.891   3.247   2.041
 5861SOL     OW18481   4.753   1.745   4.765
 5861SOL    HW118482   4.815   1.765   4.841
 5861SOL    HW218483   4.663   1.721   4.801
 5862SOL     OW18484   4.763   5.155   3.185
 5862SOL    HW118485   4.668   5.139   3.210
 5862SOL    HW218486   4.823   5.121   3.258
 5863SOL     OW18487   3.044   0.925   4.532
 5863SOL    HW118488   3.089   1.014   4.532
 5863SOL    HW218489   3.107   0.856   4.497
 5864SOL     OW18490   4.213   3.541   1.862
 5864SOL    HW118491   4.264   3.530   1.777
 5864SOL    HW218492   4.208   3.453   1.910
 5865SOL     OW18493   6.113   0.181   5.241
 5865SOL    HW118494   6.173   0.252   5.203
 5865SOL    HW218495   6.166   0.097   5.255
 5866SOL     OW18496   4.631   5.464   0.211
 5866SOL    HW118497   4.665   5.551   0.246
 5866SOL    HW218498   4.671   5.446   0.121
 5867SOL     OW18499   0.096   3.789   0.876
 5867SOL    HW118500   0.158   3.747   0.942
 5867SOL    HW218501   0.053   3.870   0.916
 5868SOL     OW18502   0.109   0.773   5.563
 5868SOL    HW118503   0.058   0.712   5.503
 5868SOL    HW218504   0.087   0.868   5.540
 5869SOL     OW18505   3.063   5.705   3.102
 5869SOL    HW118506   3.043   5.619   3.053
 5869SOL    HW218507   2.996   5.717   3.176
 5870SOL     OW18508   5.261   6.075   4.380
 5870SOL    HW118509   5.270   6.013   4.459
 5870SOL    HW218510   5.352   6.105   4.351
 5871SOL     OW18511   3.572   2.889   0.052
 5871SOL    HW118512   3.523   2.890   0.140
 5871SOL    HW218513   3.665   2.855   0.066
 5872SOL     OW18514   4.038   5.718   0.075
 5872SOL    HW118515   3.992   5.680   0.155
 5872SOL    HW218516   4.135   5.729   0.094
 5873SOL     OW18517   2.466   2.659   0.956
 5873SOL    HW118518   2.397   2.648   1.028
 5873SOL    HW218519   2.448   2.593   0.883
 5874SOL     OW18520   2.999   3.292   1.068
 5874SOL    HW118521   2.913   3.328   1.103
 5874SOL    HW218522   3.009   3.196   1.096
 5875SOL     OW18523   3.436   0.827   1.164
 5875SOL    HW118524   3.381   0.909   1.179
 5875SOL    HW218525   3.532   0.853   1.149
 5876SOL     OW18526   2.525   3.260   0.347
 5876SOL    HW118527   2.540   3.241   0.249
 5876SOL    HW218528   2.563   3.185   0.401
 5877SOL     OW18529   0.307   6.689   1.019
 5877SOL    HW118530   0.298   6.757   0.946
 5877SOL    HW218531   0.240   6.616   1.004
 5878SOL     OW18532   5.281   5.149   3.082
 5878SOL    HW118533   5.379   5.166   3.083
 5878SOL    HW218534   5.233   5.227   3.122
 5879SOL     OW18535   2.647   3.984   6.413
 5879SOL    HW118536   2.548   3.989   6.420
 5879SOL    HW218537   2.676   4.010   6.321
 5880SOL     OW18538   4.690   4.285   6.779
 5880SOL    HW118539   4.612   4.347   6.766
 5880SOL    HW218540   4.770   4.323   6.733
 5881SOL     OW18541   1.066   0.233   2.018
 5881SOL    HW118542   1.063   0.332   2.029
 5881SOL    HW218543   1.130   0.194   2.084
 5882SOL     OW18544   1.252   6.476   5.903
 5882SOL    HW118545   1.233   6.381   5.930
 5882SOL    HW218546   1.300   6.477   5.815
 5883SOL     OW18547   0.478   1.513   0.859
 5883SOL    HW118548   0.432   1.439   0.907
 5883SOL    HW218549   0.470   1.500   0.760
 5884SOL     OW18550   5.608   1.130   4.757
 5884SOL    HW118551   5.603   1.038   4.795
 5884SOL    HW218552   5.528   1.146   4.698
 5885SOL     OW18553   0.998   5.870   1.424
 5885SOL    HW118554   0.958   5.782   1.449
 5885SOL    HW218555   0.926   5.938   1.414
 5886SOL     OW18556   0.980   3.181   3.484
 5886SOL    HW118557   0.884   3.180   3.455
 5886SOL    HW218558   1.019   3.272   3.466
 5887SOL     OW18559   2.811   2.147   1.814
 5887SOL    HW118560   2.888   2.114   1.761
 5887SOL    HW218561   2.841   2.219   1.876
 5888SOL     OW18562   2.358   6.782   1.224
 5888SOL    HW118563   2.400   6.699   1.185
 5888SOL    HW218564   2.298   6.824   1.155
 5889SOL     OW18565   6.683   1.129   0.730
 5889SOL    HW118566   6.646   1.179   0.652
 5889SOL    HW218567   6.745   1.058   0.698
 5890SOL     OW18568   1.625   6.646   2.762
 5890SOL    HW118569   1.618   6.607   2.670
 5890SOL    HW218570   1.567   6.595   2.825
 5891SOL     OW18571   2.082   4.050   0.207
 5891SOL    HW118572   2.137   3.981   0.158
 5891SOL    HW218573   1.989   4.049   0.171
 5892SOL     OW18574   0.214   5.089   1.679
 5892SOL    HW118575   0.221   5.124   1.773
 5892SOL    HW218576   0.237   4.992   1.677
 5893SOL     OW18577   1.962   4.738   1.879
 5893SOL    HW118578   1.892   4.783   1.824
 5893SOL    HW218579   1.989   4.652   1.835
 5894SOL     OW18580   0.751   5.381   5.406
 5894SOL    HW118581   0.788   5.411   5.318
 5894SOL    HW218582   0.708   5.291   5.395
 5895SOL     OW18583   6.380   4.078   3.587
 5895SOL    HW118584   6.349   4.164   3.545
 5895SOL    HW218585   6.301   4.018   3.601
 5896SOL     OW18586   5.299   1.331   1.178
 5896SOL    HW118587   5.203   1.333   1.205
 5896SOL    HW218588   5.315   1.255   1.115
 5897SOL     OW18589   3.587   1.268   1.847
 5897SOL    HW118590   3.608   1.171   1.847
 5897SOL    HW218591   3.618   1.309   1.933
 5898SOL     OW18592   2.639   1.561   5.731
 5898SOL    HW118593   2.672   1.556   5.825
 5898SOL    HW218594   2.548   1.602   5.730
 5899SOL     OW18595   6.948   5.459   6.352
 5899SOL    HW118596   6.977   5.470   6.257
 5899SOL    HW218597   6.899   5.541   6.381
 5900SOL     OW18598   6.939   5.326   3.087
 5900SOL    HW118599   6.944   5.227   3.097
 5900SOL    HW218600   6.984   5.369   3.166
 5901SOL     OW18601   2.531   1.025   0.368
 5901SOL    HW118602   2.434   1.013   0.350
 5901SOL    HW218603   2.577   1.054   0.284
 5902SOL     OW18604   5.933   3.287   5.288
 5902SOL    HW118605   5.835   3.287   5.268
 5902SOL    HW218606   5.958   3.200   5.330
 5903SOL     OW18607   5.003   2.920   6.911
 5903SOL    HW118608   5.033   2.853   6.844
 5903SOL    HW218609   4.990   2.875   7.000
 5904SOL     OW18610   1.162   4.217   0.902
 5904SOL    HW118611   1.149   4.264   0.989
 5904SOL    HW218612   1.193   4.283   0.833
 5905SOL     OW18613   5.937   0.890   3.723
 5905SOL    HW118614   6.003   0.888   3.798
 5905SOL    HW218615   5.931   0.800   3.681
 5906SOL     OW18616   4.975   1.743   5.480
 5906SOL    HW118617   4.927   1.699   5.404
 5906SOL    HW218618   4.956   1.694   5.564
 5907SOL     OW18619   1.358   0.232   0.282
 5907SOL    HW118620   1.366   0.148   0.336
 5907SOL    HW218621   1.410   0.305   0.326
 5908SOL     OW18622   5.344   3.880   6.948
 5908SOL    HW118623   5.292   3.796   6.962
 5908SOL    HW218624   5.394   3.874   6.861
 5909SOL     OW18625   0.184   5.222   6.538
 5909SOL    HW118626   0.087   5.236   6.518
 5909SOL    HW218627   0.203   5.125   6.548
 5910SOL     OW18628   0.907   4.867   0.149
 5910SOL    HW118629   0.912   4.943   0.213
 5910SOL    HW218630   0.989   4.865   0.092
 5911SOL     OW18631   0.268   5.618   5.896
 5911SOL    HW118632   0.309   5.677   5.966
 5911SOL    HW218633   0.261   5.524   5.932
 5912SOL     OW18634   6.039   3.223   6.417
 5912SOL    HW118635   5.942   3.224   6.392
 5912SOL    HW218636   6.056   3.148   6.481
 5913SOL     OW18637   2.011   2.880   5.723
 5913SOL    HW118638   1.925   2.843   5.690
 5913SOL    HW218639   2.045   2.823   5.798
 5914SOL     OW18640   2.828   5.065   7.011
 5914SOL    HW118641   2.880   5.149   6.996
 5914SOL    HW218642   2.742   5.087   0.034
 5915SOL     OW18643   5.848   3.604   2.053
 5915SOL    HW118644   5.788   3.657   1.993
 5915SOL    HW218645   5.801   3.585   2.139
 5916SOL     OW18646   4.474   0.524   5.743
 5916SOL    HW118647   4.556   0.556   5.694
 5916SOL    HW218648   4.449   0.591   5.813
 5917SOL     OW18649   3.913   3.552   3.256
 5917SOL    HW118650   3.822   3.561   3.295
 5917SOL    HW218651   3.963   3.479   3.304
 5918SOL     OW18652   2.170   3.767   4.802
 5918SOL    HW118653   2.072   3.764   4.825
 5918SOL    HW218654   2.219   3.817   4.873
 5919SOL     OW18655   3.304   2.198   6.612
 5919SOL    HW118656   3.385   2.188   6.555
 5919SOL    HW218657   3.222   2.200   6.554
 5920SOL     OW18658   3.900   6.313   6.820
 5920SOL    HW118659   3.950   6.396   6.796
 5920SOL    HW218660   3.837   6.333   6.895
 5921SOL     OW18661   3.618   5.273   5.432
 5921SOL    HW118662   3.707   5.272   5.388
 5921SOL    HW218663   3.587   5.179   5.448
 5922SOL     OW18664   6.149   5.103   3.815
 5922SOL    HW118665   6.086   5.179   3.797
 5922SOL    HW218666   6.210   5.129   3.890
 5923SOL     OW18667   6.400   1.201   2.859
 5923SOL    HW118668   6.337   1.123   2.865
 5923SOL    HW218669   6.396   1.254   2.943
 5924SOL     OW18670   6.003   2.958   4.905
 5924SOL    HW118671   6.093   2.913   4.907
 5924SOL    HW218672   5.957   2.943   4.992
 5925SOL     OW18673   4.485   6.475   2.967
 5925SOL    HW118674   4.526   6.566   2.974
 5925SOL    HW218675   4.402   6.480   2.911
 5926SOL     OW18676   3.524   5.235   2.120
 5926SOL    HW118677   3.503   5.138   2.109
 5926SOL    HW218678   3.440   5.285   2.140
 5927SOL     OW18679   2.118   4.370   2.272
 5927SOL    HW118680   2.196   4.326   2.228
 5927SOL    HW218681   2.147   4.417   2.355
 5928SOL     OW18682   3.459   0.148   2.070
 5928SOL    HW118683   3.497   0.103   2.150
 5928SOL    HW218684   3.448   0.082   1.996
 5929SOL     OW18685   0.500   6.376   5.729
 5929SOL    HW118686   0.572   6.307   5.737
 5929SOL    HW218687   0.441   6.354   5.652
 5930SOL     OW18688   6.455   1.654   3.829
 5930SOL    HW118689   6.456   1.592   3.907
 5930SOL    HW218690   6.538   1.640   3.774
 5931SOL     OW18691   5.836   4.838   2.797
 5931SOL    HW118692   5.776   4.760   2.812
 5931SOL    HW218693   5.923   4.806   2.758
 5932SOL     OW18694   2.778   5.990   1.039
 5932SOL    HW118695   2.695   6.034   1.005
 5932SOL    HW218696   2.819   5.935   0.967
 5933SOL     OW18697   6.804   4.749   2.606
 5933SOL    HW118698   6.890   4.720   2.563
 5933SOL    HW218699   6.754   4.808   2.542
 5934SOL     OW18700   3.355   4.137   3.759
 5934SOL    HW118701   3.339   4.135   3.661
 5934SOL    HW218702   3.443   4.180   3.778
 5935SOL     OW18703   4.079   3.550   4.328
 5935SOL    HW118704   4.133   3.484   4.274
 5935SOL    HW218705   4.072   3.517   4.422
 5936SOL     OW18706   4.743   3.496   6.305
 5936SOL    HW118707   4.665   3.510   6.367
 5936SOL    HW218708   4.805   3.574   6.311
 5937SOL     OW18709   0.435   4.302   1.753
 5937SOL    HW118710   0.451   4.242   1.675
 5937SOL    HW218711   0.337   4.321   1.761
 5938SOL     OW18712   1.461   5.207   4.142
 5938SOL    HW118713   1.552   5.248   4.154
 5938SOL    HW218714   1.421   5.189   4.231
 5939SOL     OW18715   3.139   0.320   3.073
 5939SOL    HW118716   3.082   0.334   3.154
 5939SOL    HW218717   3.102   0.375   2.998
 5940SOL     OW18718   4.219   6.496   2.359
 5940SOL    HW118719   4.214   6.445   2.274
 5940SOL    HW218720   4.162   6.578   2.352
 5941SOL     OW18721   6.250   4.305   2.062
 5941SOL    HW118722   6.261   4.240   1.986
 5941SOL    HW218723   6.256   4.256   2.149
 5942SOL     OW18724   4.993   2.496   0.127
 5942SOL    HW118725   4.985   2.541   0.215
 5942SOL    HW218726   5.082   2.515   0.087
 5943SOL     OW18727   3.565   5.447   0.030
 5943SOL    HW118728   3.540   5.355   0.059
 5943SOL    HW218729   3.556   5.455   6.954
 5944SOL     OW18730   5.425   1.725   1.678
 5944SOL    HW118731   5.353   1.657   1.668
 5944SOL    HW218732   5.455   1.727   1.774
 5945SOL     OW18733   0.187   5.348   5.331
 5945SOL    HW118734   0.248   5.399   5.391
 5945SOL    HW218735   0.112   5.308   5.385
 5946SOL     OW18736   3.471   3.278   5.558
 5946SOL    HW118737   3.462   3.178   5.565
 5946SOL    HW218738   3.565   3.305   5.579
 5947SOL     OW18739   3.778   3.435   1.920
 5947SOL    HW118740   3.817   3.486   1.997
 5947SOL    HW218741   3.789   3.488   1.836
 5948SOL     OW18742   4.224   5.460   3.475
 5948SOL    HW118743   4.322   5.468   3.454
 5948SOL    HW218744   4.204   5.507   3.560
 5949SOL     OW18745   3.813   4.096   1.006
 5949SOL    HW118746   3.746   4.147   0.953
 5949SOL    HW218747   3.893   4.077   0.948
 5950SOL     OW18748   5.183   2.898   5.435
 5950SOL    HW118749   5.280   2.916   5.450
 5950SOL    HW218750   5.134   2.903   5.523
 5951SOL     OW18751   0.601   5.961   5.209
 5951SOL    HW118752   0.613   5.911   5.295
 5951SOL    HW218753   0.622   5.901   5.132
 5952SOL     OW18754   6.147   6.189   3.796
 5952SOL    HW118755   6.121   6.249   3.871
 5952SOL    HW218756   6.082   6.199   3.721
 5953SOL     OW18757   6.854   2.935   5.674
 5953SOL    HW118758   6.932   2.964   5.618
 5953SOL    HW218759   6.823   3.011   5.730
 5954SOL     OW18760   6.741   4.806   5.373
 5954SOL    HW118761   6.645   4.831   5.386
 5954SOL    HW218762   6.774   4.756   5.453
 5955SOL     OW18763   5.769   6.273   2.384
 5955SOL    HW118764   5.697   6.281   2.452
 5955SOL    HW218765   5.778   6.178   2.355
 5956SOL     OW18766   3.168   1.966   0.803
 5956SOL    HW118767   3.170   1.895   0.733
 5956SOL    HW218768   3.191   1.926   0.892
 5957SOL     OW18769   4.720   0.418   5.943
 5957SOL    HW118770   4.642   0.410   5.880
 5957SOL    HW218771   4.721   0.338   6.004
 5958SOL     OW18772   5.904   7.003   2.935
 5958SOL    HW118773   5.990   0.018   2.899
 5958SOL    HW218774   5.914   6.904   2.946
 5959SOL     OW18775   3.426   1.472   5.690
 5959SOL    HW118776   3.512   1.518   5.713
 5959SOL    HW218777   3.352   1.539   5.684
 5960SOL     OW18778   3.381   6.834   4.724
 5960SOL    HW118779   3.286   6.802   4.733
 5960SOL    HW218780   3.388   6.926   4.764
 5961SOL     OW18781   4.515   1.204   4.059
 5961SOL    HW118782   4.501   1.263   4.139
 5961SOL    HW218783   4.527   1.110   4.090
 5962SOL     OW18784   5.067   5.816   2.162
 5962SOL    HW118785   5.101   5.729   2.197
 5962SOL    HW218786   4.991   5.799   2.099
 5963SOL     OW18787   3.569   2.962   4.789
 5963SOL    HW118788   3.490   3.019   4.813
 5963SOL    HW218789   3.554   2.920   4.700
 5964SOL     OW18790   0.307   5.148   5.788
 5964SOL    HW118791   0.225   5.118   5.739
 5964SOL    HW218792   0.369   5.195   5.725
 5965SOL     OW18793   1.935   2.067   5.932
 5965SOL    HW118794   1.884   2.152   5.916
 5965SOL    HW218795   1.892   2.017   6.008
 5966SOL     OW18796   3.125   5.312   5.899
 5966SOL    HW118797   3.177   5.397   5.885
 5966SOL    HW218798   3.163   5.239   5.842
 5967SOL     OW18799   4.288   6.298   1.859
 5967SOL    HW118800   4.193   6.268   1.858
 5967SOL    HW218801   4.342   6.237   1.918
 5968SOL     OW18802   5.828   1.565   3.311
 5968SOL    HW118803   5.837   1.515   3.398
 5968SOL    HW218804   5.902   1.537   3.249
 5969SOL     OW18805   6.685   1.872   5.141
 5969SOL    HW118806   6.696   1.783   5.184
 5969SOL    HW218807   6.731   1.942   5.196
 5970SOL     OW18808   0.310   4.757   2.307
 5970SOL    HW118809   0.256   4.737   2.226
 5970SOL    HW218810   0.364   4.676   2.332
 5971SOL     OW18811   2.170   0.810   3.006
 5971SOL    HW118812   2.124   0.871   2.941
 5971SOL    HW218813   2.104   0.776   3.073
 5972SOL     OW18814   4.327   6.376   0.422
 5972SOL    HW118815   4.388   6.315   0.370
 5972SOL    HW218816   4.376   6.459   0.446
 5973SOL     OW18817   1.769   5.157   2.727
 5973SOL    HW118818   1.799   5.062   2.727
 5973SOL    HW218819   1.763   5.191   2.821
 5974SOL     OW18820   5.531   4.161   6.317
 5974SOL    HW118821   5.534   4.079   6.375
 5974SOL    HW218822   5.621   4.206   6.319
 5975SOL     OW18823   3.513   2.428   1.069
 5975SOL    HW118824   3.585   2.448   1.136
 5975SOL    HW218825   3.513   2.499   0.998
 5976SOL     OW18826   2.766   3.567   5.324
 5976SOL    HW118827   2.701   3.497   5.294
 5976SOL    HW218828   2.717   3.652   5.341
 5977SOL     OW18829   1.846   4.659   1.613
 5977SOL    HW118830   1.888   4.586   1.667
 5977SOL    HW218831   1.813   4.623   1.526
 5978SOL     OW18832   5.457   4.991   3.382
 5978SOL    HW118833   5.534   5.044   3.349
 5978SOL    HW218834   5.469   4.971   3.480
 5979SOL     OW18835   6.567   0.909   2.585
 5979SOL    HW118836   6.652   0.857   2.590
 5979SOL    HW218837   6.505   0.880   2.657
 5980SOL     OW18838   3.822   3.428   6.485
 5980SOL    HW118839   3.741   3.467   6.528
 5980SOL    HW218840   3.820   3.447   6.387
 5981SOL     OW18841   6.376   1.693   2.263
 5981SOL    HW118842   6.359   1.595   2.271
 5981SOL    HW218843   6.293   1.738   2.231
 5982SOL     OW18844   6.037   2.120   6.740
 5982SOL    HW118845   5.939   2.119   6.761
 5982SOL    HW218846   6.060   2.204   6.692
 5983SOL     OW18847   2.707   1.634   4.285
 5983SOL    HW118848   2.787   1.578   4.302
 5983SOL    HW218849   2.735   1.725   4.256
 5984SOL     OW18850   6.920   0.177   4.812
 5984SOL    HW118851   6.978   0.138   4.883
 5984SOL    HW218852   6.925   0.120   4.730
 5985SOL     OW18853   5.415   3.184   4.538
 5985SOL    HW118854   5.447   3.157   4.447
 5985SOL    HW218855   5.327   3.139   4.556
 5986SOL     OW18856   2.995   3.423   4.410
 5986SOL    HW118857   3.088   3.434   4.443
 5986SOL    HW218858   2.938   3.496   4.447
 5987SOL     OW18859   4.457   1.731   4.771
 5987SOL    HW118860   4.363   1.738   4.805
 5987SOL    HW218861   4.456   1.727   4.671
 5988SOL     OW18862   4.501   5.894   4.742
 5988SOL    HW118863   4.403   5.913   4.750
 5988SOL    HW218864   4.516   5.796   4.750
 5989SOL     OW18865   2.869   5.492   6.712
 5989SOL    HW118866   2.901   5.398   6.703
 5989SOL    HW218867   2.809   5.514   6.634
 5990SOL     OW18868   4.056   4.084   0.882
 5990SOL    HW118869   4.148   4.123   0.885
 5990SOL    HW218870   4.029   4.069   0.787
 5991SOL     OW18871   4.315   4.803   5.156
 5991SOL    HW118872   4.370   4.885   5.139
 5991SOL    HW218873   4.224   4.816   5.118
 5992SOL     OW18874   3.723   0.970   4.083
 5992SOL    HW118875   3.710   0.871   4.075
 5992SOL    HW218876   3.813   0.995   4.049
 5993SOL     OW18877   3.839   6.785   5.651
 5993SOL    HW118878   3.860   6.690   5.630
 5993SOL    HW218879   3.753   6.789   5.703
 5994SOL     OW18880   6.170   2.030   2.425
 5994SOL    HW118881   6.226   2.109   2.401
 5994SOL    HW218882   6.073   2.050   2.406
 5995SOL     OW18883   6.367   4.764   2.049
 5995SOL    HW118884   6.281   4.812   2.069
 5995SOL    HW218885   6.350   4.666   2.047
 5996SOL     OW18886   0.931   5.200   0.322
 5996SOL    HW118887   0.922   5.148   0.407
 5996SOL    HW218888   0.889   5.290   0.334
 5997SOL     OW18889   0.836   6.630   2.569
 5997SOL    HW118890   0.918   6.597   2.523
 5997SOL    HW218891   0.838   6.602   2.665
 5998SOL     OW18892   5.793   3.266   2.220
 5998SOL    HW118893   5.847   3.290   2.140
 5998SOL    HW218894   5.782   3.167   2.226
 5999SOL     OW18895   0.830   2.337   2.523
 5999SOL    HW118896   0.830   2.238   2.507
 5999SOL    HW218897   0.877   2.356   2.609
 6000SOL     OW18898   4.145   5.874   1.717
 6000SOL    HW118899   4.180   5.942   1.653
 6000SOL    HW218900   4.049   5.855   1.697
 6001SOL     OW18901   0.774   4.110   5.905
 6001SOL    HW118902   0.761   4.206   5.881
 6001SOL    HW218903   0.804   4.102   6.000
 6002SOL     OW18904   0.489   6.468   1.371
 6002SOL    HW118905   0.473   6.544   1.309
 6002SOL    HW218906   0.404   6.418   1.387
 6003SOL     OW18907   6.242   2.353   4.433
 6003SOL    HW118908   6.336   2.333   4.460
 6003SOL    HW218909   6.204   2.423   4.494
 6004SOL     OW18910   0.315   4.393   3.182
 6004SOL    HW118911   0.312   4.344   3.095
 6004SOL    HW218912   0.410   4.408   3.210
 6005SOL     OW18913   3.915   5.186   4.485
 6005SOL    HW118914   3.944   5.273   4.523
 6005SOL    HW218915   3.990   5.146   4.432
 6006SOL     OW18916   4.249   6.539   6.978
 6006SOL    HW118917   4.172   6.500   0.004
 6006SOL    HW218918   4.216   6.598   6.904
 6007SOL     OW18919   4.851   3.327   3.740
 6007SOL    HW118920   4.829   3.261   3.811
 6007SOL    HW218921   4.844   3.420   3.776
 6008SOL     OW18922   2.223   5.797   6.358
 6008SOL    HW118923   2.322   5.805   6.350
 6008SOL    HW218924   2.182   5.806   6.267
 6009SOL     OW18925   3.106   1.414   4.853
 6009SOL    HW118926   3.014   1.443   4.824
 6009SOL    HW218927   3.163   1.494   4.869
 6010SOL     OW18928   1.960   4.258   1.874
 6010SOL    HW118929   2.020   4.278   1.798
 6010SOL    HW218930   1.963   4.334   1.940
 6011SOL     OW18931   5.041   2.546   2.070
 6011SOL    HW118932   4.979   2.468   2.064
 6011SOL    HW218933   5.041   2.581   2.164
 6012SOL     OW18934   6.669   1.703   0.799
 6012SOL    HW118935   6.673   1.796   0.763
 6012SOL    HW218936   6.635   1.641   0.729
 6013SOL     OW18937   5.229   1.600   3.149
 6013SOL    HW118938   5.265   1.652   3.072
 6013SOL    HW218939   5.248   1.503   3.136
 6014SOL     OW18940   4.549   1.806   0.898
 6014SOL    HW118941   4.596   1.754   0.827
 6014SOL    HW218942   4.616   1.834   0.968
 6015SOL     OW18943   5.769   2.280   5.693
 6015SOL    HW118944   5.672   2.268   5.674
 6015SOL    HW218945   5.785   2.370   5.732
 6016SOL     OW18946   0.402   1.464   0.127
 6016SOL    HW118947   0.492   1.506   0.119
 6016SOL    HW218948   0.374   1.427   0.038
 6017SOL     OW18949   6.384   5.154   2.574
 6017SOL    HW118950   6.324   5.198   2.507
 6017SOL    HW218951   6.456   5.104   2.527
 6018SOL     OW18952   3.600   2.579   0.033
 6018SOL    HW118953   3.529   2.649   0.017
 6018SOL    HW218954   3.690   2.620   0.019
 6019SOL     OW18955   5.120   1.763   4.033
 6019SOL    HW118956   5.154   1.857   4.026
 6019SOL    HW218957   5.197   1.701   4.046
 6020SOL     OW18958   1.398   6.061   2.481
 6020SOL    HW118959   1.437   5.969   2.494
 6020SOL    HW218960   1.369   6.097   2.570
 6021SOL     OW18961   3.853   6.937   2.563
 6021SOL    HW118962   3.776   6.880   2.535
 6021SOL    HW218963   3.897   6.976   2.481
 6022SOL     OW18964   4.417   0.723   4.560
 6022SOL    HW118965   4.420   0.650   4.492
 6022SOL    HW218966   4.322   0.748   4.577
 6023SOL     OW18967   6.373   1.569   3.233
 6023SOL    HW118968   6.289   1.623   3.240
 6023SOL    HW218969   6.426   1.599   3.154
 6024SOL     OW18970   0.790   4.473   2.940
 6024SOL    HW118971   0.712   4.411   2.942
 6024SOL    HW218972   0.875   4.420   2.950
 6025SOL     OW18973   4.060   0.416   2.443
 6025SOL    HW118974   4.054   0.346   2.515
 6025SOL    HW218975   4.153   0.418   2.407
 6026SOL     OW18976   0.204   4.361   4.478
 6026SOL    HW118977   0.299   4.373   4.449
 6026SOL    HW218978   0.195   4.275   4.529
 6027SOL     OW18979   2.163   4.057   5.533
 6027SOL    HW118980   2.104   4.004   5.595
 6027SOL    HW218981   2.170   4.009   5.445
 6028SOL     OW18982   1.135   3.754   6.903
 6028SOL    HW118983   1.146   3.682   6.970
 6028SOL    HW218984   1.071   3.823   6.938
 6029SOL     OW18985   2.301   6.624   6.485
 6029SOL    HW118986   2.248   6.539   6.489
 6029SOL    HW218987   2.361   6.622   6.405
 6030SOL     OW18988   2.155   0.365   3.073
 6030SOL    HW118989   2.093   0.292   3.046
 6030SOL    HW218990   2.223   0.380   3.001
 6031SOL     OW18991   4.177   5.326   4.220
 6031SOL    HW118992   4.206   5.269   4.297
 6031SOL    HW218993   4.149   5.268   4.144
 6032SOL     OW18994   1.814   3.433   2.876
 6032SOL    HW118995   1.793   3.517   2.927
 6032SOL    HW218996   1.747   3.421   2.803
 6033SOL     OW18997   2.436   2.565   2.749
 6033SOL    HW118998   2.458   2.573   2.846
 6033SOL    HW218999   2.336   2.567   2.738
 6034SOL     OW19000   1.922   5.861   4.895
 6034SOL    HW119001   2.022   5.855   4.898
 6034SOL    HW219002   1.888   5.897   4.982
 6035SOL     OW19003   6.357   1.966   3.874
 6035SOL    HW119004   6.449   2.005   3.872
 6035SOL    HW219005   6.363   1.867   3.865
 6036SOL     OW19006   0.509   6.938   4.320
 6036SOL    HW119007   0.470   7.000   4.252
 6036SOL    HW219008   0.609   6.934   4.309
 6037SOL     OW19009   4.731   5.393   6.071
 6037SOL    HW119010   4.734   5.485   6.031
 6037SOL    HW219011   4.641   5.352   6.055
 6038SOL     OW19012   1.031   3.254   6.279
 6038SOL    HW119013   1.127   3.270   6.257
 6038SOL    HW219014   0.980   3.240   6.194
 6039SOL     OW19015   3.584   2.855   3.422
 6039SOL    HW119016   3.604   2.868   3.325
 6039SOL    HW219017   3.668   2.864   3.475
 6040SOL     OW19018   0.476   2.222   6.505
 6040SOL    HW119019   0.543   2.221   6.579
 6040SOL    HW219020   0.410   2.149   6.519
 6041SOL     OW19021   2.295   1.546   6.229
 6041SOL    HW119022   2.261   1.503   6.313
 6041SOL    HW219023   2.279   1.645   6.233
 6042SOL     OW19024   5.611   5.135   1.959
 6042SOL    HW119025   5.526   5.142   2.010
 6042SOL    HW219026   5.659   5.223   1.960
 6043SOL     OW19027   1.192   5.277   5.007
 6043SOL    HW119028   1.128   5.212   5.048
 6043SOL    HW219029   1.141   5.356   4.972
 6044SOL     OW19030   1.090   2.459   1.185
 6044SOL    HW119031   1.059   2.364   1.176
 6044SOL    HW219032   1.095   2.483   1.282
 6045SOL     OW19033   5.921   5.827   0.880
 6045SOL    HW119034   5.838   5.882   0.890
 6045SOL    HW219035   5.900   5.731   0.895
 6046SOL     OW19036   2.319   2.143   0.766
 6046SOL    HW119037   2.371   2.228   0.755
 6046SOL    HW219038   2.319   2.093   0.679
 6047SOL     OW19039   6.604   1.572   3.389
 6047SOL    HW119040   6.511   1.560   3.354
 6047SOL    HW219041   6.608   1.655   3.445
 6048SOL     OW19042   4.754   6.579   3.229
 6048SOL    HW119043   4.759   6.555   3.132
 6048SOL    HW219044   4.672   6.539   3.270
 6049SOL     OW19045   5.082   3.997   6.179
 6049SOL    HW119046   5.103   3.899   6.167
 6049SOL    HW219047   5.156   4.041   6.229
 6050SOL     OW19048   3.993   3.558   5.772
 6050SOL    HW119049   4.078   3.597   5.736
 6050SOL    HW219050   3.915   3.613   5.743
 6051SOL     OW19051   2.908   2.282   3.893
 6051SOL    HW119052   2.953   2.361   3.852
 6051SOL    HW219053   2.855   2.234   3.823
 6052SOL     OW19054   6.640   6.573   0.061
 6052SOL    HW119055   6.656   6.664   0.099
 6052SOL    HW219056   6.541   6.554   0.061
 6053SOL     OW19057   3.906   0.579   6.490
 6053SOL    HW119058   3.920   0.514   6.416
 6053SOL    HW219059   3.916   0.532   6.578
 6054SOL     OW19060   2.036   4.196   0.636
 6054SOL    HW119061   2.098   4.151   0.572
 6054SOL    HW219062   2.024   4.138   0.717
 6055SOL     OW19063   6.231   1.003   6.395
 6055SOL    HW119064   6.288   1.085   6.390
 6055SOL    HW219065   6.269   0.932   6.334
 6056SOL     OW19066   5.449   2.591   4.732
 6056SOL    HW119067   5.461   2.687   4.705
 6056SOL    HW219068   5.477   2.580   4.827
 6057SOL     OW19069   5.112   2.412   4.311
 6057SOL    HW119070   5.017   2.413   4.342
 6057SOL    HW219071   5.173   2.408   4.390
 6058SOL     OW19072   5.170   2.526   2.583
 6058SOL    HW119073   5.184   2.503   2.679
 6058SOL    HW219074   5.234   2.475   2.526
 6059SOL     OW19075   4.578   5.205   5.587
 6059SOL    HW119076   4.637   5.133   5.550
 6059SOL    HW219077   4.609   5.294   5.553
 6060SOL     OW19078   3.533   3.682   5.672
 6060SOL    HW119079   3.519   3.735   5.588
 6060SOL    HW219080   3.487   3.727   5.748
 6061SOL     OW19081   3.469   2.588   0.463
 6061SOL    HW119082   3.376   2.611   0.435
 6061SOL    HW219083   3.525   2.671   0.465
 6062SOL     OW19084   2.568   1.127   4.588
 6062SOL    HW119085   2.657   1.096   4.620
 6062SOL    HW219086   2.517   1.049   4.551
 6063SOL     OW19087   3.961   1.608   6.513
 6063SOL    HW119088   3.999   1.640   6.426
 6063SOL    HW219089   4.035   1.592   6.578
 6064SOL     OW19090   2.562   5.844   2.819
 6064SOL    HW119091   2.617   5.882   2.745
 6064SOL    HW219092   2.565   5.905   2.898
 6065SOL     OW19093   5.589   6.927   1.778
 6065SOL    HW119094   5.507   6.949   1.830
 6065SOL    HW219095   5.641   6.857   1.827
 6066SOL     OW19096   4.042   1.700   0.510
 6066SOL    HW119097   3.994   1.695   0.598
 6066SOL    HW219098   3.990   1.649   0.441
 6067SOL     OW19099   5.685   1.910   6.618
 6067SOL    HW119100   5.648   1.831   6.668
 6067SOL    HW219101   5.683   1.890   6.520
 6068SOL     OW19102   6.069   3.551   4.586
 6068SOL    HW119103   6.047   3.522   4.679
 6068SOL    HW219104   6.043   3.480   4.522
 6069SOL     OW19105   0.491   3.571   5.757
 6069SOL    HW119106   0.508   3.638   5.685
 6069SOL    HW219107   0.395   3.544   5.757
 6070SOL     OW19108   2.960   1.701   5.792
 6070SOL    HW119109   2.951   1.639   5.714
 6070SOL    HW219110   3.056   1.708   5.819
 6071SOL     OW19111   4.618   6.030   5.207
 6071SOL    HW119112   4.571   5.945   5.184
 6071SOL    HW219113   4.551   6.104   5.216
 6072SOL     OW19114   1.148   0.989   2.129
 6072SOL    HW119115   1.182   0.997   2.035
 6072SOL    HW219116   1.117   1.079   2.160
 6073SOL     OW19117   6.786   3.455   0.315
 6073SOL    HW119118   6.823   3.362   0.313
 6073SOL    HW219119   6.808   3.497   0.403
 6074SOL     OW19120   1.207   6.880   4.561
 6074SOL    HW119121   1.245   6.857   4.472
 6074SOL    HW219122   1.107   6.883   4.555
 6075SOL     OW19123   6.939   2.181   6.266
 6075SOL    HW119124   6.998   2.256   6.297
 6075SOL    HW219125   6.971   2.095   6.304
 6076SOL     OW19126   2.307   6.869   5.144
 6076SOL    HW119127   2.334   6.842   5.236
 6076SOL    HW219128   2.324   6.793   5.081
 6077SOL     OW19129   4.886   5.605   2.130
 6077SOL    HW119130   4.924   5.582   2.040
 6077SOL    HW219131   4.912   5.535   2.196
 6078SOL     OW19132   3.830   4.901   2.292
 6078SOL    HW119133   3.842   4.870   2.386
 6078SOL    HW219134   3.855   4.828   2.229
 6079SOL     OW19135   3.019   3.280   6.826
 6079SOL    HW119136   2.987   3.185   6.828
 6079SOL    HW219137   3.027   3.315   6.919
 6080SOL     OW19138   0.643   1.484   2.255
 6080SOL    HW119139   0.707   1.530   2.195
 6080SOL    HW219140   0.645   1.527   2.346
 6081SOL     OW19141   6.679   3.734   4.625
 6081SOL    HW119142   6.721   3.806   4.568
 6081SOL    HW219143   6.597   3.700   4.580
 6082SOL     OW19144   3.748   1.278   3.582
 6082SOL    HW119145   3.711   1.223   3.507
 6082SOL    HW219146   3.717   1.372   3.572
 6083SOL     OW19147   1.039   5.809   6.333
 6083SOL    HW119148   1.006   5.898   6.302
 6083SOL    HW219149   1.135   5.817   6.362
 6084SOL     OW19150   6.985   5.407   3.989
 6084SOL    HW119151   6.998   5.318   4.032
 6084SOL    HW219152   6.971   5.476   4.059
 6085SOL     OW19153   6.946   4.226   6.991
 6085SOL    HW119154   0.008   4.271   6.964
 6085SOL    HW219155   6.902   4.280   0.040
 6086SOL     OW19156   3.330   1.680   5.361
 6086SOL    HW119157   3.426   1.657   5.374
 6086SOL    HW219158   3.282   1.600   5.325
 6087SOL     OW19159   5.596   6.793   0.508
 6087SOL    HW119160   5.571   6.828   0.599
 6087SOL    HW219161   5.674   6.845   0.473
 6088SOL     OW19162   0.136   6.370   4.365
 6088SOL    HW119163   0.212   6.405   4.311
 6088SOL    HW219164   0.050   6.410   4.332
 6089SOL     OW19165   0.013   4.009   1.266
 6089SOL    HW119166   0.066   4.093   1.281
 6089SOL    HW219167   6.976   3.993   1.344
 6090SOL     OW19168   1.350   6.495   6.288
 6090SOL    HW119169   1.313   6.457   6.203
 6090SOL    HW219170   1.347   6.595   6.284
 6091SOL     OW19171   1.195   1.488   2.143
 6091SOL    HW119172   1.274   1.542   2.114
 6091SOL    HW219173   1.130   1.546   2.192
 6092SOL     OW19174   2.619   0.620   3.146
 6092SOL    HW119175   2.664   0.574   3.069
 6092SOL    HW219176   2.617   0.559   3.225
 6093SOL     OW19177   1.531   2.761   2.740
 6093SOL    HW119178   1.626   2.729   2.749
 6093SOL    HW219179   1.522   2.852   2.781
 6094SOL     OW19180   2.780   1.119   1.076
 6094SOL    HW119181   2.715   1.046   1.051
 6094SOL    HW219182   2.867   1.102   1.030
 6095SOL     OW19183   4.797   2.612   6.990
 6095SOL    HW119184   4.703   2.600   7.020
 6095SOL    HW219185   4.859   2.570   0.034
 6096SOL     OW19186   6.039   0.812   4.196
 6096SOL    HW119187   5.965   0.811   4.263
 6096SOL    HW219188   6.114   0.754   4.229
 6097SOL     OW19189   1.757   0.182   2.653
 6097SOL    HW119190   1.723   0.219   2.739
 6097SOL    HW219191   1.794   0.256   2.597
 6098SOL     OW19192   1.437   2.113   5.752
 6098SOL    HW119193   1.473   2.206   5.759
 6098SOL    HW219194   1.499   2.049   5.797
 6099SOL     OW19195   5.758   5.938   5.871
 6099SOL    HW119196   5.663   5.948   5.842
 6099SOL    HW219197   5.813   6.010   5.829
 6100SOL     OW19198   5.749   2.917   6.135
 6100SOL    HW119199   5.817   2.892   6.204
 6100SOL    HW219200   5.776   3.002   6.091
 6101SOL     OW19201   6.339   2.039   5.684
 6101SOL    HW119202   6.274   2.001   5.618
 6101SOL    HW219203   6.394   1.965   5.723
 6102SOL     OW19204   3.888   0.957   4.344
 6102SOL    HW119205   3.840   0.982   4.260
 6102SOL    HW219206   3.962   0.893   4.323
 6103SOL     OW19207   6.814   1.112   4.069
 6103SOL    HW119208   6.748   1.079   4.002
 6103SOL    HW219209   6.906   1.084   4.041
 6104SOL     OW19210   6.373   1.669   6.392
 6104SOL    HW119211   6.406   1.759   6.365
 6104SOL    HW219212   6.279   1.657   6.360
 6105SOL     OW19213   3.038   6.301   5.863
 6105SOL    HW119214   3.093   6.326   5.783
 6105SOL    HW219215   2.967   6.370   5.878
 6106SOL     OW19216   1.932   4.901   5.848
 6106SOL    HW119217   2.010   4.857   5.803
 6106SOL    HW219218   1.944   4.898   5.947
 6107SOL     OW19219   2.766   5.308   4.223
 6107SOL    HW119220   2.834   5.367   4.180
 6107SOL    HW219221   2.721   5.358   4.297
 6108SOL     OW19222   0.778   1.952   3.495
 6108SOL    HW119223   0.764   1.900   3.411
 6108SOL    HW219224   0.857   2.013   3.484
 6109SOL     OW19225   4.940   2.882   0.148
 6109SOL    HW119226   4.996   2.923   0.220
 6109SOL    HW219227   4.843   2.903   0.164
 6110SOL     OW19228   2.952   2.997   6.914
 6110SOL    HW119229   2.874   2.935   6.907
 6110SOL    HW219230   3.005   2.974   6.996
 6111SOL     OW19231   1.615   4.860   2.451
 6111SOL    HW119232   1.539   4.880   2.512
 6111SOL    HW219233   1.688   4.815   2.502
 6112SOL     OW19234   2.533   1.856   3.260
 6112SOL    HW119235   2.468   1.845   3.184
 6112SOL    HW219236   2.488   1.906   3.335
 6113SOL     OW19237   0.210   0.953   6.623
 6113SOL    HW119238   0.164   0.893   6.689
 6113SOL    HW219239   0.269   0.899   6.563
 6114SOL     OW19240   4.888   4.839   1.338
 6114SOL    HW119241   4.822   4.849   1.263
 6114SOL    HW219242   4.946   4.920   1.341
 6115SOL     OW19243   5.307   5.750   2.806
 6115SOL    HW119244   5.218   5.782   2.774
 6115SOL    HW219245   5.380   5.795   2.755
 6116SOL     OW19246   2.541   1.169   1.486
 6116SOL    HW119247   2.453   1.214   1.498
 6116SOL    HW219248   2.590   1.211   1.410
 6117SOL     OW19249   0.133   0.032   5.301
 6117SOL    HW119250   0.104   0.089   5.224
 6117SOL    HW219251   0.143   0.089   5.383
 6118SOL     OW19252   0.238   2.036   1.501
 6118SOL    HW119253   0.198   1.983   1.576
 6118SOL    HW219254   0.261   1.976   1.425
 6119SOL     OW19255   6.833   4.222   4.087
 6119SOL    HW119256   6.897   4.145   4.091
 6119SOL    HW219257   6.884   4.307   4.098
 6120SOL     OW19258   3.154   6.912   3.821
 6120SOL    HW119259   3.094   6.919   3.741
 6120SOL    HW219260   3.117   6.846   3.886
 6121SOL     OW19261   6.699   2.517   4.726
 6121SOL    HW119262   6.629   2.523   4.797
 6121SOL    HW219263   6.693   2.596   4.666
 6122SOL     OW19264   3.400   6.293   2.036
 6122SOL    HW119265   3.313   6.283   2.085
 6122SOL    HW219266   3.409   6.220   1.968
 6123SOL     OW19267   6.706   0.568   1.367
 6123SOL    HW119268   6.639   0.503   1.330
 6123SOL    HW219269   6.695   0.656   1.322
 6124SOL     OW19270   3.148   6.786   5.319
 6124SOL    HW119271   3.121   6.708   5.263
 6124SOL    HW219272   3.157   6.867   5.262
 6125SOL     OW19273   2.600   5.394   1.239
 6125SOL    HW119274   2.517   5.430   1.281
 6125SOL    HW219275   2.624   5.450   1.159
 6126SOL     OW19276   5.455   5.925   3.802
 6126SOL    HW119277   5.515   5.850   3.829
 6126SOL    HW219278   5.385   5.939   3.872
 6127SOL     OW19279   2.244   6.897   1.462
 6127SOL    HW119280   2.156   6.856   1.486
 6127SOL    HW219281   2.287   6.844   1.389
 6128SOL     OW19282   6.655   2.923   0.278
 6128SOL    HW119283   6.629   2.981   0.201
 6128SOL    HW219284   6.750   2.893   0.267
 6129SOL     OW19285   6.257   4.238   3.393
 6129SOL    HW119286   6.263   4.322   3.339
 6129SOL    HW219287   6.259   4.159   3.332
 6130SOL     OW19288   6.549   2.823   4.852
 6130SOL    HW119289   6.601   2.739   4.864
 6130SOL    HW219290   6.608   2.893   4.812
 6131SOL     OW19291   6.829   1.444   5.410
 6131SOL    HW119292   6.751   1.385   5.433
 6131SOL    HW219293   6.877   1.405   5.332
 6132SOL     OW19294   3.760   0.769   1.305
 6132SOL    HW119295   3.856   0.775   1.334
 6132SOL    HW219296   3.751   0.807   1.213
 6133SOL     OW19297   0.628   2.353   2.873
 6133SOL    HW119298   0.574   2.271   2.854
 6133SOL    HW219299   0.640   2.406   2.790
 6134SOL     OW19300   4.479   3.416   6.723
 6134SOL    HW119301   4.567   3.367   6.725
 6134SOL    HW219302   4.419   3.380   6.794
 6135SOL     OW19303   6.076   6.996   2.276
 6135SOL    HW119304   6.093   0.021   2.190
 6135SOL    HW219305   6.162   6.980   2.323
 6136SOL     OW19306   0.609   1.765   2.737
 6136SOL    HW119307   0.582   1.860   2.720
 6136SOL    HW219308   0.688   1.763   2.798
 6137SOL     OW19309   3.892   0.662   5.609
 6137SOL    HW119310   3.954   0.732   5.646
 6137SOL    HW219311   3.798   0.683   5.635
 6138SOL     OW19312   3.627   6.774   2.517
 6138SOL    HW119313   3.539   6.798   2.559
 6138SOL    HW219314   3.635   6.675   2.511
 6139SOL     OW19315   2.289   2.975   4.343
 6139SOL    HW119316   2.373   3.028   4.330
 6139SOL    HW219317   2.266   2.927   4.258
 6140SOL     OW19318   0.753   6.466   1.453
 6140SOL    HW119319   0.774   6.394   1.518
 6140SOL    HW219320   0.654   6.468   1.436
 6141SOL     OW19321   5.804   5.999   5.066
 6141SOL    HW119322   5.857   6.072   5.021
 6141SOL    HW219323   5.771   5.934   4.997
 6142SOL     OW19324   0.135   5.159   0.394
 6142SOL    HW119325   0.087   5.072   0.407
 6142SOL    HW219326   0.071   5.235   0.406
 6143SOL     OW19327   5.899   4.798   6.846
 6143SOL    HW119328   5.941   4.708   6.832
 6143SOL    HW219329   5.970   4.865   6.869
 6144SOL     OW19330   6.686   4.930   2.446
 6144SOL    HW119331   6.758   4.951   2.379
 6144SOL    HW219332   6.608   4.889   2.399
 6145SOL     OW19333   5.034   6.291   3.801
 6145SOL    HW119334   5.050   6.385   3.830
 6145SOL    HW219335   4.937   6.269   3.808
 6146SOL     OW19336   4.308   0.886   3.659
 6146SOL    HW119337   4.408   0.879   3.666
 6146SOL    HW219338   4.274   0.936   3.738
 6147SOL     OW19339   1.695   4.509   3.231
 6147SOL    HW119340   1.744   4.463   3.305
 6147SOL    HW219341   1.625   4.569   3.269
 6148SOL     OW19342   6.921   0.346   4.593
 6148SOL    HW119343   6.929   0.305   4.684
 6148SOL    HW219344   6.832   0.321   4.553
 6149SOL     OW19345   3.514   4.940   3.273
 6149SOL    HW119346   3.570   4.943   3.190
 6149SOL    HW219347   3.514   4.847   3.310
 6150SOL     OW19348   4.251   5.146   6.568
 6150SOL    HW119349   4.176   5.206   6.595
 6150SOL    HW219350   4.328   5.200   6.535
 6151SOL     OW19351   6.750   3.919   4.435
 6151SOL    HW119352   6.719   3.933   4.341
 6151SOL    HW219353   6.839   3.962   4.447
 6152SOL     OW19354   4.999   4.568   5.553
 6152SOL    HW119355   5.057   4.562   5.472
 6152SOL    HW219356   5.007   4.660   5.593
 6153SOL     OW19357   4.809   3.952   1.715
 6153SOL    HW119358   4.824   3.853   1.710
 6153SOL    HW219359   4.713   3.972   1.698
 6154SOL     OW19360   4.962   1.433   1.993
 6154SOL    HW119361   4.896   1.360   1.976
 6154SOL    HW219362   4.972   1.489   1.911
 6155SOL     OW19363   1.408   2.751   3.858
 6155SOL    HW119364   1.431   2.697   3.777
 6155SOL    HW219365   1.479   2.741   3.927
 6156SOL     OW19366   4.725   5.048   2.356
 6156SOL    HW119367   4.710   4.953   2.382
 6156SOL    HW219368   4.637   5.096   2.355
 6157SOL     OW19369   1.295   1.768   3.696
 6157SOL    HW119370   1.373   1.775   3.634
 6157SOL    HW219371   1.316   1.815   3.782
 6158SOL     OW19372   4.902   0.656   6.874
 6158SOL    HW119373   4.926   0.609   6.789
 6158SOL    HW219374   4.962   0.625   6.948
 6159SOL     OW19375   4.665   1.516   0.195
 6159SOL    HW119376   4.613   1.593   0.232
 6159SOL    HW219377   4.666   1.441   0.261
 6160SOL     OW19378   5.848   5.785   0.499
 6160SOL    HW119379   5.931   5.809   0.550
 6160SOL    HW219380   5.775   5.762   0.564
 6161SOL     OW19381   5.676   2.197   6.056
 6161SOL    HW119382   5.665   2.296   6.054
 6161SOL    HW219383   5.768   2.173   6.025
 6162SOL     OW19384   1.032   5.450   4.833
 6162SOL    HW119385   0.952   5.392   4.817
 6162SOL    HW219386   1.060   5.493   4.747
 6163SOL     OW19387   5.380   5.522   1.189
 6163SOL    HW119388   5.425   5.574   1.117
 6163SOL    HW219389   5.399   5.563   1.278
 6164SOL     OW19390   1.722   3.108   1.731
 6164SOL    HW119391   1.819   3.108   1.752
 6164SOL    HW219392   1.696   3.021   1.689
 6165SOL     OW19393   3.599   6.130   6.849
 6165SOL    HW119394   3.696   6.109   6.830
 6165SOL    HW219395   3.561   6.061   6.910
 6166SOL     OW19396   3.839   1.145   5.236
 6166SOL    HW119397   3.849   1.201   5.154
 6166SOL    HW219398   3.749   1.161   5.277
 6167SOL     OW19399   0.428   4.907   2.111
 6167SOL    HW119400   0.411   4.861   2.198
 6167SOL    HW219401   0.342   4.919   2.062
 6168SOL     OW19402   0.189   3.811   0.621
 6168SOL    HW119403   0.150   3.796   0.713
 6168SOL    HW219404   0.289   3.810   0.627
 6169SOL     OW19405   1.015   3.089   2.035
 6169SOL    HW119406   0.965   3.094   2.121
 6169SOL    HW219407   1.043   2.994   2.018
 6170SOL     OW19408   0.255   2.972   5.410
 6170SOL    HW119409   0.267   2.904   5.338
 6170SOL    HW219410   0.339   3.027   5.417
 6171SOL     OW19411   0.430   1.813   0.622
 6171SOL    HW119412   0.340   1.768   0.624
 6171SOL    HW219413   0.475   1.801   0.710
 6172SOL     OW19414   0.651   2.540   2.668
 6172SOL    HW119415   0.637   2.624   2.721
 6172SOL    HW219416   0.742   2.544   2.625
 6173SOL     OW19417   6.841   5.531   2.936
 6173SOL    HW119418   6.898   5.608   2.967
 6173SOL    HW219419   6.859   5.452   2.995
 6174SOL     OW19420   4.443   4.817   3.473
 6174SOL    HW119421   4.487   4.864   3.397
 6174SOL    HW219422   4.361   4.867   3.501
 6175SOL     OW19423   3.423   0.878   4.522
 6175SOL    HW119424   3.521   0.859   4.525
 6175SOL    HW219425   3.373   0.802   4.564
 6176SOL     OW19426   4.482   3.404   5.331
 6176SOL    HW119427   4.542   3.437   5.258
 6176SOL    HW219428   4.508   3.311   5.356
 6177SOL     OW19429   5.004   1.861   1.898
 6177SOL    HW119430   5.103   1.865   1.917
 6177SOL    HW219431   4.965   1.952   1.907
 6178SOL     OW19432   4.792   4.132   1.977
 6178SOL    HW119433   4.825   4.058   1.919
 6178SOL    HW219434   4.767   4.210   1.920
 6179SOL     OW19435   6.675   4.465   1.529
 6179SOL    HW119436   6.616   4.507   1.460
 6179SOL    HW219437   6.754   4.523   1.546
 6180SOL     OW19438   3.415   4.687   0.595
 6180SOL    HW119439   3.440   4.692   0.499
 6180SOL    HW219440   3.415   4.592   0.625
 6181SOL     OW19441   4.967   6.071   6.005
 6181SOL    HW119442   4.972   6.126   6.088
 6181SOL    HW219443   5.048   6.013   5.997
 6182SOL     OW19444   4.276   2.318   0.211
 6182SOL    HW119445   4.336   2.360   0.280
 6182SOL    HW219446   4.332   2.285   0.135
 6183SOL     OW19447   1.705   2.365   1.469
 6183SOL    HW119448   1.781   2.313   1.430
 6183SOL    HW219449   1.685   2.330   1.561
 6184SOL     OW19450   2.824   0.472   6.173
 6184SOL    HW119451   2.881   0.493   6.093
 6184SOL    HW219452   2.772   0.553   6.198
 6185SOL     OW19453   2.797   4.218   5.713
 6185SOL    HW119454   2.850   4.136   5.735
 6185SOL    HW219455   2.774   4.218   5.616
 6186SOL     OW19456   0.087   1.763   2.150
 6186SOL    HW119457   0.053   1.701   2.079
 6186SOL    HW219458   0.075   1.722   2.240
 6187SOL     OW19459   4.640   2.704   4.872
 6187SOL    HW119460   4.612   2.677   4.780
 6187SOL    HW219461   4.731   2.665   4.892
 6188SOL     OW19462   1.545   1.630   5.512
 6188SOL    HW119463   1.539   1.616   5.413
 6188SOL    HW219464   1.640   1.645   5.538
 6189SOL     OW19465   4.002   5.448   2.675
 6189SOL    HW119466   3.974   5.491   2.589
 6189SOL    HW219467   4.025   5.520   2.741
 6190SOL     OW19468   6.356   3.451   5.840
 6190SOL    HW119469   6.369   3.468   5.743
 6190SOL    HW219470   6.327   3.357   5.855
 6191SOL     OW19471   2.212   3.048   5.570
 6191SOL    HW119472   2.177   3.141   5.555
 6191SOL    HW219473   2.135   2.985   5.579
 6192SOL     OW19474   2.220   2.139   6.147
 6192SOL    HW119475   2.317   2.148   6.125
 6192SOL    HW219476   2.166   2.149   6.064
 6193SOL     OW19477   4.845   5.567   0.537
 6193SOL    HW119478   4.893   5.480   0.525
 6193SOL    HW219479   4.907   5.643   0.520
 6194SOL     OW19480   6.610   0.885   6.519
 6194SOL    HW119481   6.621   0.955   6.448
 6194SOL    HW219482   6.700   0.849   6.544
 6195SOL     OW19483   5.649   6.792   4.946
 6195SOL    HW119484   5.582   6.835   5.007
 6195SOL    HW219485   5.708   6.731   4.999
 6196SOL     OW19486   5.408   4.310   3.183
 6196SOL    HW119487   5.415   4.213   3.208
 6196SOL    HW219488   5.312   4.336   3.177
 6197SOL     OW19489   2.337   5.104   2.920
 6197SOL    HW119490   2.238   5.118   2.912
 6197SOL    HW219491   2.385   5.179   2.875
 6198SOL     OW19492   5.948   6.241   6.819
 6198SOL    HW119493   6.006   6.305   6.869
 6198SOL    HW219494   5.864   6.226   6.871
 6199SOL     OW19495   0.636   0.911   0.602
 6199SOL    HW119496   0.558   0.925   0.663
 6199SOL    HW219497   0.624   0.967   0.520
 6200SOL     OW19498   1.115   0.973   2.571
 6200SOL    HW119499   1.032   0.929   2.605
 6200SOL    HW219500   1.126   1.063   2.613
 6201SOL     OW19501   0.684   4.486   4.335
 6201SOL    HW119502   0.734   4.572   4.325
 6201SOL    HW219503   0.722   4.418   4.273
 6202SOL     OW19504   6.149   1.728   3.261
 6202SOL    HW119505   6.165   1.786   3.342
 6202SOL    HW219506   6.060   1.751   3.221
 6203SOL     OW19507   5.974   5.660   1.895
 6203SOL    HW119508   5.936   5.750   1.875
 6203SOL    HW219509   6.066   5.654   1.857
 6204SOL     OW19510   1.351   6.105   4.899
 6204SOL    HW119511   1.366   6.019   4.850
 6204SOL    HW219512   1.432   6.129   4.952
 6205SOL     OW19513   4.733   4.962   2.085
 6205SOL    HW119514   4.767   5.012   2.165
 6205SOL    HW219515   4.658   4.902   2.112
 6206SOL     OW19516   4.519   2.026   3.738
 6206SOL    HW119517   4.453   1.967   3.785
 6206SOL    HW219518   4.575   2.073   3.806
 6207SOL     OW19519   1.608   6.078   4.041
 6207SOL    HW119520   1.555   6.089   4.125
 6207SOL    HW219521   1.681   6.011   4.056
 6208SOL     OW19522   3.409   2.343   5.937
 6208SOL    HW119523   3.500   2.363   5.973
 6208SOL    HW219524   3.394   2.395   5.854
 6209SOL     OW19525   3.237   4.365   1.127
 6209SOL    HW119526   3.242   4.360   1.227
 6209SOL    HW219527   3.150   4.326   1.096
 6210SOL     OW19528   5.161   3.932   3.037
 6210SOL    HW119529   5.258   3.949   3.019
 6210SOL    HW219530   5.151   3.843   3.082
 6211SOL     OW19531   4.386   5.569   5.883
 6211SOL    HW119532   4.349   5.591   5.793
 6211SOL    HW219533   4.406   5.471   5.888
 6212SOL     OW19534   2.398   4.584   4.486
 6212SOL    HW119535   2.407   4.505   4.425
 6212SOL    HW219536   2.466   4.578   4.559
 6213SOL     OW19537   5.157   6.581   0.603
 6213SOL    HW119538   5.220   6.584   0.681
 6213SOL    HW219539   5.165   6.666   0.550
 6214SOL     OW19540   5.387   5.600   5.892
 6214SOL    HW119541   5.288   5.590   5.885
 6214SOL    HW219542   5.422   5.642   5.809
 6215SOL     OW19543   5.107   3.159   6.550
 6215SOL    HW119544   5.041   3.220   6.506
 6215SOL    HW219545   5.067   3.069   6.562
 6216SOL     OW19546   6.337   2.889   3.094
 6216SOL    HW119547   6.244   2.896   3.057
 6216SOL    HW219548   6.354   2.795   3.121
 6217SOL     OW19549   0.432   4.452   2.029
 6217SOL    HW119550   0.453   4.407   2.116
 6217SOL    HW219551   0.424   4.382   1.957
 6218SOL     OW19552   4.733   6.376   0.348
 6218SOL    HW119553   4.700   6.469   0.332
 6218SOL    HW219554   4.685   6.312   0.289
 6219SOL     OW19555   1.757   0.823   5.016
 6219SOL    HW119556   1.694   0.900   5.029
 6219SOL    HW219557   1.720   0.760   4.947
 6220SOL     OW19558   3.355   0.727   0.301
 6220SOL    HW119559   3.410   0.683   0.229
 6220SOL    HW219560   3.330   0.659   0.370
 6221SOL     OW19561   6.384   6.127   6.574
 6221SOL    HW119562   6.423   6.180   6.649
 6221SOL    HW219563   6.457   6.080   6.525
 6222SOL     OW19564   5.816   1.318   2.363
 6222SOL    HW119565   5.839   1.396   2.306
 6222SOL    HW219566   5.823   1.234   2.309
 6223SOL     OW19567   0.802   5.201   3.970
 6223SOL    HW119568   0.722   5.242   3.926
 6223SOL    HW219569   0.774   5.158   4.056
 6224SOL     OW19570   4.273   0.690   6.221
 6224SOL    HW119571   4.241   0.632   6.296
 6224SOL    HW219572   4.279   0.635   6.137
 6225SOL     OW19573   3.980   1.211   6.488
 6225SOL    HW119574   4.076   1.242   6.492
 6225SOL    HW219575   3.973   1.133   6.425
 6226SOL     OW19576   1.509   1.487   3.646
 6226SOL    HW119577   1.504   1.496   3.745
 6226SOL    HW219578   1.489   1.392   3.620
 6227SOL     OW19579   3.084   4.659   5.336
 6227SOL    HW119580   3.014   4.615   5.279
 6227SOL    HW219581   3.171   4.657   5.287
 6228SOL     OW19582   1.161   2.655   3.807
 6228SOL    HW119583   1.251   2.691   3.830
 6228SOL    HW219584   1.099   2.731   3.784
 6229SOL     OW19585   6.823   3.181   4.961
 6229SOL    HW119586   6.884   3.160   5.037
 6229SOL    HW219587   6.807   3.280   4.957
 6230SOL     OW19588   0.694   1.293   3.027
 6230SOL    HW119589   0.748   1.313   3.108
 6230SOL    HW219590   0.699   1.195   3.006
 6231SOL     OW19591   5.464   4.383   0.146
 6231SOL    HW119592   5.499   4.477   0.150
 6231SOL    HW219593   5.392   4.372   0.214
 6232SOL     OW19594   6.228   0.806   0.728
 6232SOL    HW119595   6.270   0.763   0.648
 6232SOL    HW219596   6.221   0.905   0.712
 6233SOL     OW19597   0.095   3.457   1.975
 6233SOL    HW119598   0.127   3.485   1.885
 6233SOL    HW219599   0.118   3.527   2.043
 6234SOL     OW19600   0.188   0.460   4.584
 6234SOL    HW119601   0.147   0.368   4.583
 6234SOL    HW219602   0.245   0.472   4.503
 6235SOL     OW19603   6.980   0.627   2.044
 6235SOL    HW119604   6.990   0.646   2.141
 6235SOL    HW219605   7.005   0.709   1.992
 6236SOL     OW19606   0.586   3.710   0.462
 6236SOL    HW119607   0.665   3.700   0.402
 6236SOL    HW219608   0.526   3.781   0.426
 6237SOL     OW19609   3.608   6.717   0.583
 6237SOL    HW119610   3.516   6.722   0.545
 6237SOL    HW219611   3.605   6.673   0.673
 6238SOL     OW19612   3.230   6.642   3.546
 6238SOL    HW119613   3.164   6.614   3.615
 6238SOL    HW219614   3.206   6.600   3.458
 6239SOL     OW19615   3.507   6.800   1.806
 6239SOL    HW119616   3.604   6.788   1.828
 6239SOL    HW219617   3.466   6.712   1.783
 6240SOL     OW19618   2.879   3.912   5.053
 6240SOL    HW119619   2.835   3.890   5.140
 6240SOL    HW219620   2.812   3.952   4.990
 6241SOL     OW19621   3.680   0.152   3.940
 6241SOL    HW119622   3.671   0.053   3.949
 6241SOL    HW219623   3.665   0.179   3.845
 6242SOL     OW19624   2.459   2.212   2.836
 6242SOL    HW119625   2.519   2.292   2.842
 6242SOL    HW219626   2.427   2.200   2.742
 6243SOL     OW19627   6.703   0.663   5.627
 6243SOL    HW119628   6.700   0.695   5.722
 6243SOL    HW219629   6.730   0.739   5.568
 6244SOL     OW19630   4.755   4.078   2.541
 6244SOL    HW119631   4.844   4.053   2.578
 6244SOL    HW219632   4.751   4.055   2.444
 6245SOL     OW19633   0.836   4.825   2.091
 6245SOL    HW119634   0.766   4.894   2.109
 6245SOL    HW219635   0.832   4.798   1.995
 6246SOL     OW19636   1.617   6.853   4.805
 6246SOL    HW119637   1.624   6.820   4.711
 6246SOL    HW219638   1.523   6.884   4.823
 6247SOL     OW19639   0.479   5.234   3.651
 6247SOL    HW119640   0.561   5.185   3.618
 6247SOL    HW219641   0.459   5.310   3.589
 6248SOL     OW19642   4.116   3.114   6.878
 6248SOL    HW119643   4.076   3.078   6.962
 6248SOL    HW219644   4.057   3.184   6.839
 6249SOL     OW19645   0.055   2.472   1.612
 6249SOL    HW119646   0.021   2.497   1.522
 6249SOL    HW219647   7.023   2.398   1.650
 6250SOL     OW19648   0.204   6.975   0.824
 6250SOL    HW119649   0.143   7.010   0.753
 6250SOL    HW219650   0.298   7.004   0.806
 6251SOL     OW19651   3.214   6.611   4.790
 6251SOL    HW119652   3.118   6.630   4.770
 6251SOL    HW219653   3.226   6.512   4.801
 6252SOL     OW19654   2.430   5.012   6.817
 6252SOL    HW119655   2.489   5.043   6.892
 6252SOL    HW219656   2.457   5.059   6.733
 6253SOL     OW19657   2.692   4.792   4.484
 6253SOL    HW119658   2.633   4.866   4.517
 6253SOL    HW219659   2.652   4.704   4.509
 6254SOL     OW19660   0.757   5.870   0.730
 6254SOL    HW119661   0.756   5.840   0.634
 6254SOL    HW219662   0.666   5.902   0.757
 6255SOL     OW19663   1.981   2.360   0.943
 6255SOL    HW119664   1.903   2.316   0.899
 6255SOL    HW219665   1.952   2.448   0.982
 6256SOL     OW19666   4.743   5.891   2.645
 6256SOL    HW119667   4.712   5.811   2.695
 6256SOL    HW219668   4.694   5.897   2.557
 6257SOL     OW19669   4.386   3.533   0.678
 6257SOL    HW119670   4.286   3.535   0.681
 6257SOL    HW219671   4.418   3.445   0.713
 6258SOL     OW19672   3.865   6.976   6.040
 6258SOL    HW119673   3.779   6.982   5.989
 6258SOL    HW219674   3.930   6.920   5.989
 6259SOL     OW19675   1.039   0.813   5.762
 6259SOL    HW119676   1.084   0.734   5.804
 6259SOL    HW219677   1.086   0.896   5.790
 6260SOL     OW19678   1.597   0.808   0.301
 6260SOL    HW119679   1.606   0.727   0.243
 6260SOL    HW219680   1.523   0.866   0.267
 6261SOL     OW19681   5.230   0.195   1.579
 6261SOL    HW119682   5.293   0.124   1.545
 6261SOL    HW219683   5.268   0.237   1.661
 6262SOL     OW19684   6.679   6.126   2.705
 6262SOL    HW119685   6.724   6.147   2.618
 6262SOL    HW219686   6.678   6.027   2.718
 6263SOL     OW19687   6.958   6.526   4.533
 6263SOL    HW119688   6.898   6.495   4.608
 6263SOL    HW219689   0.012   6.577   4.570
 6264SOL     OW19690   0.852   6.826   1.192
 6264SOL    HW119691   0.805   6.783   1.115
 6264SOL    HW219692   0.888   6.755   1.253
 6265SOL     OW19693   3.762   3.166   0.730
 6265SOL    HW119694   3.834   3.221   0.772
 6265SOL    HW219695   3.787   3.148   0.635
 6266SOL     OW19696   3.424   6.214   3.193
 6266SOL    HW119697   3.415   6.312   3.207
 6266SOL    HW219698   3.339   6.168   3.221
 6267SOL     OW19699   1.383   6.353   5.267
 6267SOL    HW119700   1.370   6.428   5.203
 6267SOL    HW219701   1.300   6.297   5.271
 6268SOL     OW19702   3.935   0.290   2.218
 6268SOL    HW119703   3.851   0.325   2.177
 6268SOL    HW219704   3.955   0.339   2.302
 6269SOL     OW19705   5.589   5.956   1.339
 6269SOL    HW119706   5.638   6.021   1.281
 6269SOL    HW219707   5.531   6.005   1.403
 6270SOL     OW19708   0.850   6.468   0.130
 6270SOL    HW119709   0.814   6.408   0.059
 6270SOL    HW219710   0.804   6.449   0.217
 6271SOL     OW19711   5.662   2.805   6.560
 6271SOL    HW119712   5.649   2.726   6.500
 6271SOL    HW219713   5.580   2.818   6.616
 6272SOL     OW19714   6.769   0.501   6.386
 6272SOL    HW119715   6.819   0.580   6.351
 6272SOL    HW219716   6.783   0.423   6.325
 6273SOL     OW19717   0.177   6.383   2.609
 6273SOL    HW119718   0.188   6.328   2.691
 6273SOL    HW219719   0.243   6.354   2.540
 6274SOL     OW19720   2.999   6.406   4.935
 6274SOL    HW119721   2.964   6.345   5.006
 6274SOL    HW219722   3.090   6.377   4.908
 6275SOL     OW19723   2.591   6.051   0.538
 6275SOL    HW119724   2.673   5.999   0.515
 6275SOL    HW219725   2.558   6.100   0.457
 6276SOL     OW19726   3.462   5.769   3.109
 6276SOL    HW119727   3.525   5.806   3.041
 6276SOL    HW219728   3.508   5.696   3.161
 6277SOL     OW19729   4.859   1.824   1.569
 6277SOL    HW119730   4.886   1.865   1.656
 6277SOL    HW219731   4.940   1.789   1.522
 6278SOL     OW19732   3.329   6.934   5.897
 6278SOL    HW119733   3.234   6.909   5.918
 6278SOL    HW219734   3.351   6.907   5.803
 6279SOL     OW19735   3.093   5.475   1.165
 6279SOL    HW119736   3.184   5.435   1.165
 6279SOL    HW219737   3.051   5.462   1.075
 6280SOL     OW19738   6.198   1.963   6.884
 6280SOL    HW119739   6.143   2.021   6.824
 6280SOL    HW219740   6.288   1.948   6.843
 6281SOL     OW19741   5.997   4.175   4.343
 6281SOL    HW119742   5.996   4.199   4.246
 6281SOL    HW219743   6.063   4.232   4.391
 6282SOL     OW19744   6.849   3.834   5.685
 6282SOL    HW119745   6.887   3.838   5.777
 6282SOL    HW219746   6.750   3.817   5.690
 6283SOL     OW19747   0.907   5.443   5.200
 6283SOL    HW119748   0.998   5.405   5.213
 6283SOL    HW219749   0.913   5.528   5.148
 6284SOL     OW19750   1.207   4.658   6.818
 6284SOL    HW119751   1.245   4.565   6.819
 6284SOL    HW219752   1.175   4.679   6.726
 6285SOL     OW19753   1.813   3.717   3.458
 6285SOL    HW119754   1.812   3.698   3.556
 6285SOL    HW219755   1.907   3.737   3.429
 6286SOL     OW19756   0.226   3.586   4.520
 6286SOL    HW119757   0.276   3.502   4.497
 6286SOL    HW219758   0.286   3.648   4.570
 6287SOL     OW19759   4.005   4.554   5.302
 6287SOL    HW119760   4.072   4.485   5.274
 6287SOL    HW219761   4.037   4.645   5.275
 6288SOL     OW19762   4.088   3.562   6.978
 6288SOL    HW119763   3.999   3.593   6.946
 6288SOL    HW219764   4.085   3.546   0.054
 6289SOL     OW19765   2.620   4.283   6.677
 6289SOL    HW119766   2.702   4.237   6.644
 6289SOL    HW219767   2.634   4.382   6.673
 6290SOL     OW19768   6.116   5.368   6.553
 6290SOL    HW119769   6.073   5.459   6.557
 6290SOL    HW219770   6.079   5.318   6.475
 6291SOL     OW19771   3.294   2.998   3.048
 6291SOL    HW119772   3.393   3.013   3.044
 6291SOL    HW219773   3.250   3.047   2.972
 6292SOL     OW19774   1.884   2.231   4.725
 6292SOL    HW119775   1.912   2.139   4.753
 6292SOL    HW219776   1.962   2.279   4.684
 6293SOL     OW19777   4.667   1.392   0.437
 6293SOL    HW119778   4.732   1.404   0.512
 6293SOL    HW219779   4.574   1.400   0.472
 6294SOL     OW19780   3.551   1.160   3.729
 6294SOL    HW119781   3.575   1.130   3.821
 6294SOL    HW219782   3.634   1.188   3.680
 6295SOL     OW19783   5.223   5.173   4.667
 6295SOL    HW119784   5.172   5.220   4.594
 6295SOL    HW219785   5.290   5.236   4.706
 6296SOL     OW19786   0.628   3.485   5.976
 6296SOL    HW119787   0.566   3.507   5.901
 6296SOL    HW219788   0.575   3.466   6.059
 6297SOL     OW19789   6.161   0.285   4.704
 6297SOL    HW119790   6.076   0.303   4.753
 6297SOL    HW219791   6.153   0.199   4.654
 6298SOL     OW19792   5.418   4.149   6.695
 6298SOL    HW119793   5.418   4.177   6.791
 6298SOL    HW219794   5.503   4.102   6.674
 6299SOL     OW19795   5.021   2.780   2.633
 6299SOL    HW119796   4.923   2.788   2.649
 6299SOL    HW219797   5.054   2.692   2.667
 6300SOL     OW19798   4.241   0.878   6.564
 6300SOL    HW119799   4.263   0.884   6.467
 6300SOL    HW219800   4.250   0.968   6.607
 6301SOL     OW19801   3.144   6.462   6.818
 6301SOL    HW119802   3.164   6.433   6.911
 6301SOL    HW219803   3.107   6.555   6.819
 6302SOL     OW19804   2.316   1.563   5.969
 6302SOL    HW119805   2.284   1.548   6.062
 6302SOL    HW219806   2.343   1.659   5.959
 6303SOL     OW19807   1.171   6.533   5.542
 6303SOL    HW119808   1.243   6.602   5.534
 6303SOL    HW219809   1.114   6.535   5.460
 6304SOL     OW19810   4.002   1.070   3.559
 6304SOL    HW119811   3.969   1.018   3.481
 6304SOL    HW219812   4.101   1.081   3.552
 6305SOL     OW19813   6.526   5.538   6.064
 6305SOL    HW119814   6.444   5.577   6.021
 6305SOL    HW219815   6.582   5.612   6.101
 6306SOL     OW19816   0.711   3.972   3.960
 6306SOL    HW119817   0.758   4.057   3.939
 6306SOL    HW219818   0.749   3.933   4.044
 6307SOL     OW19819   3.901   3.946   3.653
 6307SOL    HW119820   3.945   3.922   3.739
 6307SOL    HW219821   3.939   3.890   3.579
 6308SOL     OW19822   0.178   2.280   5.679
 6308SOL    HW119823   0.099   2.328   5.719
 6308SOL    HW219824   0.210   2.330   5.599
 6309SOL     OW19825   0.790   6.844   4.342
 6309SOL    HW119826   0.860   6.911   4.316
 6309SOL    HW219827   0.814   6.755   4.302
 6310SOL     OW19828   1.561   6.808   3.290
 6310SOL    HW119829   1.658   6.819   3.270
 6310SOL    HW219830   1.509   6.804   3.204
 6311SOL     OW19831   5.085   0.984   6.685
 6311SOL    HW119832   5.125   0.949   6.770
 6311SOL    HW219833   4.993   0.947   6.674
 6312SOL     OW19834   2.967   6.739   6.514
 6312SOL    HW119835   2.919   6.667   6.463
 6312SOL    HW219836   3.039   6.779   6.457
 6313SOL     OW19837   5.579   6.274   3.089
 6313SOL    HW119838   5.605   6.323   3.172
 6313SOL    HW219839   5.483   6.246   3.096
 6314SOL     OW19840   3.130   6.974   1.372
 6314SOL    HW119841   3.113   0.016   1.446
 6314SOL    HW219842   3.184   6.897   1.406
 6315SOL     OW19843   1.894   2.645   4.415
 6315SOL    HW119844   1.924   2.716   4.478
 6315SOL    HW219845   1.891   2.683   4.322
 6316SOL     OW19846   4.485   1.836   5.646
 6316SOL    HW119847   4.543   1.795   5.716
 6316SOL    HW219848   4.485   1.936   5.656
 6317SOL     OW19849   5.260   4.359   2.594
 6317SOL    HW119850   5.263   4.456   2.616
 6317SOL    HW219851   5.204   4.311   2.662
 6318SOL     OW19852   6.519   0.268   6.553
 6318SOL    HW119853   6.615   0.297   6.545
 6318SOL    HW219854   6.485   0.242   6.463
 6319SOL     OW19855   5.960   2.487   4.842
 6319SOL    HW119856   5.878   2.518   4.794
 6319SOL    HW219857   6.041   2.518   4.792
 6320SOL     OW19858   0.873   0.963   3.625
 6320SOL    HW119859   0.806   0.958   3.699
 6320SOL    HW219860   0.907   0.871   3.605
 6321SOL     OW19861   5.146   2.768   0.593
 6321SOL    HW119862   5.244   2.760   0.610
 6321SOL    HW219863   5.102   2.817   0.670
 6322SOL     OW19864   2.311   1.489   0.411
 6322SOL    HW119865   2.286   1.426   0.338
 6322SOL    HW219866   2.409   1.511   0.403
 6323SOL     OW19867   2.793   3.059   1.313
 6323SOL    HW119868   2.875   3.116   1.302
 6323SOL    HW219869   2.818   2.973   1.357
 6324SOL     OW19870   4.624   1.446   0.836
 6324SOL    HW119871   4.558   1.380   0.800
 6324SOL    HW219872   4.599   1.472   0.929
 6325SOL     OW19873   1.628   2.629   2.428
 6325SOL    HW119874   1.644   2.726   2.447
 6325SOL    HW219875   1.560   2.621   2.355
 6326SOL     OW19876   4.568   4.725   5.586
 6326SOL    HW119877   4.537   4.632   5.606
 6326SOL    HW219878   4.635   4.754   5.654
 6327SOL     OW19879   0.353   2.120   3.691
 6327SOL    HW119880   0.422   2.131   3.620
 6327SOL    HW219881   0.394   2.080   3.773
 6328SOL     OW19882   4.951   4.210   5.871
 6328SOL    HW119883   5.045   4.180   5.854
 6328SOL    HW219884   4.908   4.148   5.937
 6329SOL     OW19885   1.013   2.834   5.069
 6329SOL    HW119886   1.094   2.874   5.026
 6329SOL    HW219887   1.040   2.766   5.137
 6330SOL     OW19888   5.741   0.681   3.373
 6330SOL    HW119889   5.799   0.736   3.434
 6330SOL    HW219890   5.775   0.587   3.371
 6331SOL     OW19891   6.157   3.028   4.662
 6331SOL    HW119892   6.190   2.934   4.673
 6331SOL    HW219893   6.203   3.087   4.729
 6332SOL     OW19894   1.815   1.593   1.258
 6332SOL    HW119895   1.834   1.613   1.354
 6332SOL    HW219896   1.895   1.550   1.217
 6333SOL     OW19897   4.863   0.035   0.407
 6333SOL    HW119898   4.882   0.130   0.435
 6333SOL    HW219899   4.766   0.015   0.422
 6334SOL     OW19900   2.397   1.851   1.693
 6334SOL    HW119901   2.495   1.869   1.698
 6334SOL    HW219902   2.352   1.892   1.772
 6335SOL     OW19903   5.401   1.072   0.968
 6335SOL    HW119904   5.325   1.137   0.962
 6335SOL    HW219905   5.413   1.043   1.062
 6336SOL     OW19906   6.839   4.760   5.959
 6336SOL    HW119907   6.820   4.858   5.962
 6336SOL    HW219908   6.925   4.744   5.910
 6337SOL     OW19909   4.268   5.817   5.009
 6337SOL    HW119910   4.252   5.773   4.920
 6337SOL    HW219911   4.204   5.893   5.020
 6338SOL     OW19912   3.180   2.154   4.312
 6338SOL    HW119913   3.279   2.135   4.314
 6338SOL    HW219914   3.148   2.154   4.218
 6339SOL     OW19915   0.629   3.329   2.639
 6339SOL    HW119916   0.605   3.232   2.638
 6339SOL    HW219917   0.679   3.352   2.555
 6340SOL     OW19918   2.815   3.778   1.319
 6340SOL    HW119919   2.722   3.761   1.287
 6340SOL    HW219920   2.829   3.731   1.406
 6341SOL     OW19921   1.109   3.665   3.613
 6341SOL    HW119922   1.183   3.704   3.666
 6341SOL    HW219923   1.050   3.738   3.579
 6342SOL     OW19924   2.270   0.931   1.371
 6342SOL    HW119925   2.285   0.996   1.296
 6342SOL    HW219926   2.263   0.981   1.457
 6343SOL     OW19927   3.822   6.225   0.163
 6343SOL    HW119928   3.826   6.143   0.105
 6343SOL    HW219929   3.772   6.297   0.115
 6344SOL     OW19930   5.884   2.793   4.062
 6344SOL    HW119931   5.888   2.693   4.058
 6344SOL    HW219932   5.898   2.823   4.156
 6345SOL     OW19933   5.034   3.438   1.983
 6345SOL    HW119934   5.022   3.418   1.886
 6345SOL    HW219935   4.987   3.524   2.005
 6346SOL     OW19936   0.020   4.014   5.593
 6346SOL    HW119937   6.974   3.944   5.612
 6346SOL    HW219938   6.998   4.093   5.552
 6347SOL     OW19939   2.660   2.314   2.314
 6347SOL    HW119940   2.636   2.388   2.251
 6347SOL    HW219941   2.636   2.340   2.407
 6348SOL     OW19942   0.441   1.846   5.966
 6348SOL    HW119943   0.477   1.876   6.055
 6348SOL    HW219944   0.509   1.865   5.895
 6349SOL     OW19945   1.431   0.218   6.976
 6349SOL    HW119946   1.446   0.135   0.006
 6349SOL    HW219947   1.370   0.279   0.004
 6350SOL     OW19948   0.973   4.870   2.719
 6350SOL    HW119949   0.963   4.772   2.700
 6350SOL    HW219950   0.933   4.890   2.808
 6351SOL     OW19951   6.603   4.219   3.618
 6351SOL    HW119952   6.534   4.147   3.628
 6351SOL    HW219953   6.660   4.223   3.701
 6352SOL     OW19954   2.657   0.623   4.264
 6352SOL    HW119955   2.710   0.708   4.271
 6352SOL    HW219956   2.611   0.606   4.351
 6353SOL     OW19957   2.439   5.329   0.042
 6353SOL    HW119958   2.484   5.385   0.112
 6353SOL    HW219959   2.341   5.323   0.061
 6354SOL     OW19960   4.756   5.256   2.933
 6354SOL    HW119961   4.764   5.200   3.016
 6354SOL    HW219962   4.672   5.232   2.885
 6355SOL     OW19963   2.570   4.963   0.667
 6355SOL    HW119964   2.542   4.940   0.574
 6355SOL    HW219965   2.612   5.054   0.667
 6356SOL     OW19966   5.048   4.923   6.943
 6356SOL    HW119967   5.020   4.903   6.849
 6356SOL    HW219968   5.043   4.839   6.997
 6357SOL     OW19969   5.639   1.931   1.234
 6357SOL    HW119970   5.679   1.959   1.146
 6357SOL    HW219971   5.585   2.006   1.271
 6358SOL     OW19972   0.602   1.534   6.692
 6358SOL    HW119973   0.567   1.622   6.658
 6358SOL    HW219974   0.702   1.536   6.692
 6359SOL     OW19975   6.246   6.932   0.661
 6359SOL    HW119976   6.238   6.847   0.609
 6359SOL    HW219977   6.337   6.939   0.701
 6360SOL     OW19978   6.964   2.741   3.758
 6360SOL    HW119979   6.897   2.723   3.687
 6360SOL    HW219980   6.933   2.817   3.815
 6361SOL     OW19981   0.416   0.927   0.389
 6361SOL    HW119982   0.361   1.011   0.382
 6361SOL    HW219983   0.432   0.890   0.297
 6362SOL     OW19984   1.106   6.299   6.481
 6362SOL    HW119985   1.171   6.372   6.499
 6362SOL    HW219986   1.027   6.336   6.431
 6363SOL     OW19987   2.619   5.235   3.603
 6363SOL    HW119988   2.643   5.332   3.590
 6363SOL    HW219989   2.686   5.191   3.662
 6364SOL     OW19990   2.293   2.314   4.896
 6364SOL    HW119991   2.370   2.371   4.925
 6364SOL    HW219992   2.214   2.331   4.955
 6365SOL     OW19993   6.316   5.615   4.704
 6365SOL    HW119994   6.339   5.712   4.691
 6365SOL    HW219995   6.220   5.600   4.678
 6366SOL     OW19996   5.962   6.683   4.363
 6366SOL    HW119997   5.916   6.621   4.426
 6366SOL    HW219998   6.056   6.698   4.394
 6367SOL     OW19999   3.069   1.753   2.872
 6367SOL    HW120000   2.999   1.691   2.839
 6367SOL    HW220001   3.054   1.844   2.833
 6368SOL     OW20002   4.482   4.475   4.068
 6368SOL    HW120003   4.390   4.438   4.053
 6368SOL    HW220004   4.513   4.449   4.160
 6369SOL     OW20005   2.459   5.913   5.903
 6369SOL    HW120006   2.551   5.875   5.914
 6369SOL    HW220007   2.403   5.849   5.851
 6370SOL     OW20008   5.232   3.779   3.433
 6370SOL    HW120009   5.182   3.721   3.368
 6370SOL    HW220010   5.199   3.873   3.426
 6371SOL     OW20011   5.641   3.780   1.922
 6371SOL    HW120012   5.590   3.707   1.875
 6371SOL    HW220013   5.664   3.852   1.856
 6372SOL     OW20014   0.281   0.980   2.758
 6372SOL    HW120015   0.369   0.940   2.733
 6372SOL    HW220016   0.295   1.073   2.791
 6373SOL     OW20017   5.587   4.092   1.482
 6373SOL    HW120018   5.591   4.150   1.400
 6373SOL    HW220019   5.494   4.055   1.492
 6374SOL     OW20020   4.682   3.140   0.401
 6374SOL    HW120021   4.656   3.106   0.492
 6374SOL    HW220022   4.692   3.063   0.338
 6375SOL     OW20023   0.488   2.513   2.203
 6375SOL    HW120024   0.574   2.462   2.193
 6375SOL    HW220025   0.472   2.533   2.299
 6376SOL     OW20026   4.718   0.651   5.641
 6376SOL    HW120027   4.784   0.705   5.693
 6376SOL    HW220028   4.756   0.561   5.620
 6377SOL     OW20029   6.977   0.595   6.575
 6377SOL    HW120030   6.882   0.575   6.549
 6377SOL    HW220031   0.015   0.556   6.506
 6378SOL     OW20032   5.072   5.875   2.801
 6378SOL    HW120033   4.995   5.876   2.737
 6378SOL    HW220034   5.042   5.839   2.889
 6379SOL     OW20035   1.880   5.561   5.913
 6379SOL    HW120036   1.935   5.478   5.920
 6379SOL    HW220037   1.853   5.592   6.004
 6380SOL     OW20038   0.590   3.547   4.755
 6380SOL    HW120039   0.687   3.546   4.729
 6380SOL    HW220040   0.564   3.456   4.787
 6381SOL     OW20041   3.887   2.935   0.452
 6381SOL    HW120042   3.845   3.026   0.447
 6381SOL    HW220043   3.978   2.938   0.410
 6382SOL     OW20044   2.715   1.897   1.234
 6382SOL    HW120045   2.687   1.841   1.312
 6382SOL    HW220046   2.738   1.837   1.157
 6383SOL     OW20047   1.880   2.921   2.677
 6383SOL    HW120048   1.824   2.931   2.595
 6383SOL    HW220049   1.841   2.977   2.750
 6384SOL     OW20050   5.901   2.502   2.267
 6384SOL    HW120051   5.821   2.503   2.208
 6384SOL    HW220052   5.983   2.520   2.212
 6385SOL     OW20053   6.753   3.845   0.985
 6385SOL    HW120054   6.774   3.779   0.912
 6385SOL    HW220055   6.836   3.896   1.008
 6386SOL     OW20056   2.054   3.850   0.602
 6386SOL    HW120057   2.062   3.791   0.683
 6386SOL    HW220058   2.094   3.939   0.623
 6387SOL     OW20059   5.978   1.175   0.234
 6387SOL    HW120060   5.907   1.233   0.193
 6387SOL    HW220061   5.935   1.107   0.293
 6388SOL     OW20062   6.519   5.160   2.828
 6388SOL    HW120063   6.464   5.161   2.744
 6388SOL    HW220064   6.602   5.108   2.813
 6389SOL     OW20065   1.551   6.916   0.206
 6389SOL    HW120066   1.566   6.994   0.266
 6389SOL    HW220067   1.473   6.934   0.146
 6390SOL     OW20068   6.263   0.679   0.438
 6390SOL    HW120069   6.355   0.700   0.403
 6390SOL    HW220070   6.196   0.731   0.385
 6391SOL     OW20071   0.892   0.996   5.440
 6391SOL    HW120072   0.990   1.014   5.430
 6391SOL    HW220073   0.850   1.069   5.493
 6392SOL     OW20074   3.735   5.853   3.258
 6392SOL    HW120075   3.693   5.763   3.254
 6392SOL    HW220076   3.681   5.912   3.319
 6393SOL     OW20077   5.714   6.681   1.860
 6393SOL    HW120078   5.752   6.678   1.767
 6393SOL    HW220079   5.620   6.647   1.858
 6394SOL     OW20080   0.856   4.927   0.884
 6394SOL    HW120081   0.883   5.020   0.906
 6394SOL    HW220082   0.760   4.913   0.910
 6395SOL     OW20083   0.379   4.073   2.622
 6395SOL    HW120084   0.322   3.994   2.600
 6395SOL    HW220085   0.375   4.090   2.720
 6396SOL     OW20086   7.010   3.411   6.739
 6396SOL    HW120087   0.000   3.371   6.648
 6396SOL    HW220088   6.919   3.387   6.773
 6397SOL     OW20089   6.345   2.335   3.032
 6397SOL    HW120090   6.388   2.347   2.943
 6397SOL    HW220091   6.319   2.240   3.045
 6398SOL     OW20092   1.358   6.261   1.380
 6398SOL    HW120093   1.402   6.311   1.305
 6398SOL    HW220094   1.343   6.166   1.352
 6399SOL     OW20095   1.938   0.276   6.609
 6399SOL    HW120096   1.999   0.333   6.553
 6399SOL    HW220097   1.848   0.319   6.614
 6400SOL     OW20098   1.546   6.144   3.385
 6400SOL    HW120099   1.616   6.111   3.322
 6400SOL    HW220100   1.463   6.168   3.335
 6401SOL     OW20101   4.239   4.668   3.043
 6401SOL    HW120102   4.280   4.634   3.128
 6401SOL    HW220103   4.311   4.701   2.982
 6402SOL     OW20104   1.322   3.932   3.663
 6402SOL    HW120105   1.315   4.031   3.669
 6402SOL    HW220106   1.414   3.904   3.689
 6403SOL     OW20107   5.665   6.365   4.911
 6403SOL    HW120108   5.685   6.349   5.007
 6403SOL    HW220109   5.610   6.449   4.902
 6404SOL     OW20110   3.912   0.927   2.579
 6404SOL    HW120111   3.916   0.830   2.603
 6404SOL    HW220112   3.826   0.966   2.611
 6405SOL     OW20113   5.411   1.569   3.585
 6405SOL    HW120114   5.320   1.556   3.545
 6405SOL    HW220115   5.404   1.633   3.662
 6406SOL     OW20116   0.897   2.595   2.911
 6406SOL    HW120117   0.995   2.618   2.915
 6406SOL    HW220118   0.843   2.677   2.932
 6407SOL     OW20119   1.825   6.321   3.612
 6407SOL    HW120120   1.818   6.399   3.675
 6407SOL    HW220121   1.911   6.326   3.562
 6408SOL     OW20122   0.070   0.711   1.259
 6408SOL    HW120123   0.107   0.804   1.270
 6408SOL    HW220124   0.020   0.705   1.173
 6409SOL     OW20125   6.434   4.841   4.042
 6409SOL    HW120126   6.421   4.742   4.042
 6409SOL    HW220127   6.364   4.884   4.099
 6410SOL     OW20128   2.471   1.326   5.690
 6410SOL    HW120129   2.550   1.384   5.706
 6410SOL    HW220130   2.499   1.230   5.691
 6411SOL     OW20131   0.170   3.165   1.714
 6411SOL    HW120132   0.158   3.209   1.625
 6411SOL    HW220133   0.267   3.161   1.736
 6412SOL     OW20134   3.305   0.763   6.997
 6412SOL    HW120135   3.388   0.732   0.020
 6412SOL    HW220136   3.251   0.684   6.968
 6413SOL     OW20137   4.299   5.060   4.533
 6413SOL    HW120138   4.291   5.011   4.446
 6413SOL    HW220139   4.290   5.158   4.517
 6414SOL     OW20140   0.727   6.822   0.114
 6414SOL    HW120141   0.643   6.868   0.085
 6414SOL    HW220142   0.708   6.762   0.191
 6415SOL     OW20143   1.366   3.391   2.869
 6415SOL    HW120144   1.406   3.467   2.818
 6415SOL    HW220145   1.338   3.423   2.960
 6416SOL     OW20146   3.245   0.018   6.581
 6416SOL    HW120147   3.307   0.003   6.658
 6416SOL    HW220148   3.250   6.964   6.518
 6417SOL     OW20149   4.907   2.107   0.832
 6417SOL    HW120150   4.873   2.176   0.897
 6417SOL    HW220151   4.972   2.150   0.769
 6418SOL     OW20152   4.519   4.490   1.791
 6418SOL    HW120153   4.498   4.544   1.872
 6418SOL    HW220154   4.504   4.393   1.810
 6419SOL     OW20155   1.033   6.683   6.550
 6419SOL    HW120156   1.048   6.717   6.458
 6419SOL    HW220157   1.113   6.703   6.607
 6420SOL     OW20158   1.356   2.729   4.215
 6420SOL    HW120159   1.424   2.656   4.222
 6420SOL    HW220160   1.398   2.816   4.240
 6421SOL     OW20161   5.462   0.486   1.421
 6421SOL    HW120162   5.441   0.485   1.323
 6421SOL    HW220163   5.498   0.397   1.448
 6422SOL     OW20164   0.033   2.462   5.470
 6422SOL    HW120165   7.004   2.547   5.482
 6422SOL    HW220166   7.011   2.405   5.401
 6423SOL     OW20167   2.957   5.806   4.389
 6423SOL    HW120168   3.018   5.769   4.319
 6423SOL    HW220169   2.973   5.904   4.399
 6424SOL     OW20170   0.544   3.212   4.827
 6424SOL    HW120171   0.458   3.167   4.806
 6424SOL    HW220172   0.593   3.160   4.897
 6425SOL     OW20173   0.038   5.570   2.487
 6425SOL    HW120174   6.962   5.570   2.471
 6425SOL    HW220175   0.086   5.579   2.400
 6426SOL     OW20176   4.649   4.821   4.719
 6426SOL    HW120177   4.577   4.793   4.783
 6426SOL    HW220178   4.736   4.781   4.747
 6427SOL     OW20179   2.959   3.782   2.969
 6427SOL    HW120180   2.960   3.754   3.065
 6427SOL    HW220181   2.896   3.724   2.918
 6428SOL     OW20182   5.006   2.236   0.557
 6428SOL    HW120183   4.987   2.264   0.463
 6428SOL    HW220184   5.087   2.285   0.591
 6429SOL     OW20185   2.006   0.832   5.126
 6429SOL    HW120186   1.910   0.837   5.100
 6429SOL    HW220187   2.051   0.760   5.073
 6430SOL     OW20188   6.978   0.638   5.372
 6430SOL    HW120189   6.939   0.547   5.376
 6430SOL    HW220190   6.905   0.706   5.371
 6431SOL     OW20191   4.873   5.395   3.262
 6431SOL    HW120192   4.845   5.314   3.210
 6431SOL    HW220193   4.852   5.477   3.210
 6432SOL     OW20194   3.483   3.852   6.424
 6432SOL    HW120195   3.409   3.796   6.388
 6432SOL    HW220196   3.537   3.799   6.490
 6433SOL     OW20197   3.048   5.258   6.981
 6433SOL    HW120198   3.062   5.259   0.057
 6433SOL    HW220199   3.132   5.286   6.935
 6434SOL     OW20200   3.132   5.952   6.464
 6434SOL    HW120201   3.042   5.979   6.430
 6434SOL    HW220202   3.202   5.977   6.396
 6435SOL     OW20203   5.972   0.189   0.904
 6435SOL    HW120204   6.058   0.167   0.859
 6435SOL    HW220205   5.971   0.286   0.929
 6436SOL     OW20206   0.779   3.929   3.475
 6436SOL    HW120207   0.795   3.834   3.449
 6436SOL    HW220208   0.702   3.933   3.539
 6437SOL     OW20209   0.874   1.328   5.141
 6437SOL    HW120210   0.830   1.396   5.082
 6437SOL    HW220211   0.915   1.374   5.220
 6438SOL     OW20212   0.218   5.444   6.697
 6438SOL    HW120213   0.226   5.369   6.631
 6438SOL    HW220214   0.180   5.408   6.783
 6439SOL     OW20215   6.713   0.691   3.740
 6439SOL    HW120216   6.769   0.746   3.679
 6439SOL    HW220217   6.617   0.703   3.717
 6440SOL     OW20218   2.339   0.587   6.713
 6440SOL    HW120219   2.438   0.588   6.704
 6440SOL    HW220220   2.314   0.549   6.802
 6441SOL     OW20221   0.342   0.649   3.332
 6441SOL    HW120222   0.312   0.689   3.419
 6441SOL    HW220223   0.440   0.663   3.320
 6442SOL     OW20224   2.394   2.026   4.868
 6442SOL    HW120225   2.322   1.988   4.809
 6442SOL    HW220226   2.352   2.059   4.953
 6443SOL     OW20227   3.701   2.070   0.378
 6443SOL    HW120228   3.746   2.089   0.466
 6443SOL    HW220229   3.629   2.138   0.363
 6444SOL     OW20230   0.043   2.796   5.464
 6444SOL    HW120231   0.135   2.819   5.432
 6444SOL    HW220232   7.000   2.813   5.391
 6445SOL     OW20233   3.126   3.396   3.241
 6445SOL    HW120234   3.217   3.413   3.279
 6445SOL    HW220235   3.105   3.299   3.250
 6446SOL     OW20236   1.869   2.245   6.482
 6446SOL    HW120237   1.785   2.289   6.450
 6446SOL    HW220238   1.885   2.162   6.429
 6447SOL     OW20239   6.724   4.243   1.353
 6447SOL    HW120240   6.762   4.284   1.436
 6447SOL    HW220241   6.762   4.289   1.272
 6448SOL     OW20242   4.876   5.565   1.711
 6448SOL    HW120243   4.778   5.560   1.733
 6448SOL    HW220244   4.929   5.533   1.789
 6449SOL     OW20245   2.351   5.788   1.257
 6449SOL    HW120246   2.302   5.833   1.332
 6449SOL    HW220247   2.371   5.693   1.283
 6450SOL     OW20248   0.492   3.932   0.848
 6450SOL    HW120249   0.503   3.840   0.812
 6450SOL    HW220250   0.445   3.929   0.936
 6451SOL     OW20251   3.520   1.879   0.031
 6451SOL    HW120252   3.594   1.937   0.064
 6451SOL    HW220253   3.512   1.888   6.954
 6452SOL     OW20254   5.328   3.731   2.618
 6452SOL    HW120255   5.370   3.790   2.549
 6452SOL    HW220256   5.244   3.774   2.651
 6453SOL     OW20257   3.556   6.961   0.830
 6453SOL    HW120258   3.547   6.970   0.731
 6453SOL    HW220259   3.580   0.027   0.869
 6454SOL     OW20260   6.847   1.833   2.679
 6454SOL    HW120261   6.805   1.742   2.681
 6454SOL    HW220262   6.946   1.824   2.668
 6455SOL     OW20263   6.482   4.779   2.938
 6455SOL    HW120264   6.471   4.751   2.842
 6455SOL    HW220265   6.481   4.697   2.996
 6456SOL     OW20266   0.821   1.183   2.731
 6456SOL    HW120267   0.873   1.175   2.646
 6456SOL    HW220268   0.723   1.185   2.710
 6457SOL     OW20269   5.177   6.878   1.784
 6457SOL    HW120270   5.106   6.933   1.740
 6457SOL    HW220271   5.250   6.938   1.817
 6458SOL     OW20272   1.311   5.129   4.376
 6458SOL    HW120273   1.242   5.180   4.427
 6458SOL    HW220274   1.391   5.115   4.435
 6459SOL     OW20275   5.840   2.782   3.013
 6459SOL    HW120276   5.893   2.801   2.931
 6459SOL    HW220277   5.889   2.716   3.070
 6460SOL     OW20278   6.629   5.367   5.227
 6460SOL    HW120279   6.708   5.321   5.189
 6460SOL    HW220280   6.545   5.325   5.191
 6461SOL     OW20281   3.459   4.448   0.685
 6461SOL    HW120282   3.425   4.375   0.745
 6461SOL    HW220283   3.554   4.469   0.708
 6462SOL     OW20284   1.880   3.740   4.466
 6462SOL    HW120285   1.872   3.838   4.484
 6462SOL    HW220286   1.975   3.711   4.481
 6463SOL     OW20287   5.284   0.455   0.747
 6463SOL    HW120288   5.244   0.389   0.684
 6463SOL    HW220289   5.218   0.476   0.820
 6464SOL     OW20290   1.051   6.286   4.897
 6464SOL    HW120291   1.114   6.237   4.957
 6464SOL    HW220292   1.084   6.281   4.802
 6465SOL     OW20293   5.704   2.480   2.057
 6465SOL    HW120294   5.731   2.477   1.961
 6465SOL    HW220295   5.614   2.523   2.064
 6466SOL     OW20296   6.705   2.570   6.426
 6466SOL    HW120297   6.754   2.633   6.487
 6466SOL    HW220298   6.755   2.483   6.422
 6467SOL     OW20299   3.308   1.062   0.907
 6467SOL    HW120300   3.231   1.023   0.957
 6467SOL    HW220301   3.354   1.131   0.964
 6468SOL     OW20302   4.189   6.246   0.631
 6468SOL    HW120303   4.102   6.203   0.606
 6468SOL    HW220304   4.196   6.334   0.585
 6469SOL     OW20305   3.106   2.225   4.059
 6469SOL    HW120306   3.192   2.212   4.011
 6469SOL    HW220307   3.034   2.249   3.993
 6470SOL     OW20308   6.671   2.398   0.442
 6470SOL    HW120309   6.625   2.349   0.517
 6470SOL    HW220310   6.603   2.450   0.390
 6471SOL     OW20311   0.774   6.681   5.030
 6471SOL    HW120312   0.715   6.683   5.110
 6471SOL    HW220313   0.838   6.604   5.038
 6472SOL     OW20314   6.559   6.406   2.583
 6472SOL    HW120315   6.587   6.375   2.492
 6472SOL    HW220316   6.563   6.329   2.647
 6473SOL     OW20317   1.988   1.590   4.150
 6473SOL    HW120318   1.899   1.616   4.112
 6473SOL    HW220319   2.061   1.622   4.089
 6474SOL     OW20320   4.305   5.206   5.520
 6474SOL    HW120321   4.401   5.211   5.492
 6474SOL    HW220322   4.300   5.192   5.619
 6475SOL     OW20323   5.624   5.153   3.248
 6475SOL    HW120324   5.595   5.169   3.153
 6475SOL    HW220325   5.667   5.235   3.284
 6476SOL     OW20326   3.655   2.197   6.740
 6476SOL    HW120327   3.674   2.201   6.838
 6476SOL    HW220328   3.664   2.289   6.701
 6477SOL     OW20329   6.840   5.872   1.014
 6477SOL    HW120330   6.811   5.887   1.108
 6477SOL    HW220331   6.767   5.900   0.951
 6478SOL     OW20332   2.507   5.798   1.687
 6478SOL    HW120333   2.536   5.849   1.606
 6478SOL    HW220334   2.587   5.758   1.732
 6479SOL     OW20335   3.486   5.734   4.340
 6479SOL    HW120336   3.419   5.682   4.394
 6479SOL    HW220337   3.498   5.825   4.381
 6480SOL     OW20338   2.143   0.747   0.143
 6480SOL    HW120339   2.128   0.659   0.189
 6480SOL    HW220340   2.065   0.767   0.084
 6481SOL     OW20341   3.138   2.385   1.672
 6481SOL    HW120342   3.147   2.363   1.769
 6481SOL    HW220343   3.044   2.414   1.654
 6482SOL     OW20344   6.956   2.375   5.829
 6482SOL    HW120345   6.949   2.422   5.917
 6482SOL    HW220346   6.879   2.401   5.771
 6483SOL     OW20347   1.363   5.615   4.307
 6483SOL    HW120348   1.299   5.688   4.287
 6483SOL    HW220349   1.353   5.542   4.239
 6484SOL     OW20350   2.984   1.400   2.850
 6484SOL    HW120351   3.023   1.331   2.911
 6484SOL    HW220352   2.938   1.470   2.905
 6485SOL     OW20353   2.314   6.545   5.108
 6485SOL    HW120354   2.402   6.581   5.075
 6485SOL    HW220355   2.240   6.601   5.071
 6486SOL     OW20356   0.887   4.929   2.973
 6486SOL    HW120357   0.799   4.968   2.946
 6486SOL    HW220358   0.920   4.975   3.055
 6487SOL     OW20359   1.144   5.270   4.558
 6487SOL    HW120360   1.148   5.369   4.546
 6487SOL    HW220361   1.191   5.244   4.642
 6488SOL     OW20362   4.795   5.559   4.907
 6488SOL    HW120363   4.821   5.655   4.897
 6488SOL    HW220364   4.867   5.501   4.869
 6489SOL     OW20365   3.769   2.967   6.139
 6489SOL    HW120366   3.781   3.058   6.177
 6489SOL    HW220367   3.699   2.969   6.068
 6490SOL     OW20368   2.220   1.820   6.659
 6490SOL    HW120369   2.180   1.900   6.704
 6490SOL    HW220370   2.179   1.809   6.568
 6491SOL     OW20371   2.193   6.865   1.029
 6491SOL    HW120372   2.139   6.935   1.074
 6491SOL    HW220373   2.133   6.792   0.995
 6492SOL     OW20374   3.398   4.164   4.120
 6492SOL    HW120375   3.467   4.176   4.049
 6492SOL    HW220376   3.437   4.109   4.195
 6493SOL     OW20377   1.420   4.583   6.338
 6493SOL    HW120378   1.434   4.505   6.399
 6493SOL    HW220379   1.477   4.572   6.256
 6494SOL     OW20380   5.779   6.544   2.474
 6494SOL    HW120381   5.793   6.466   2.413
 6494SOL    HW220382   5.861   6.558   2.530
 6495SOL     OW20383   6.599   0.132   4.636
 6495SOL    HW120384   6.623   0.182   4.553
 6495SOL    HW220385   6.562   0.196   4.704
 6496SOL     OW20386   4.866   6.764   1.558
 6496SOL    HW120387   4.934   6.837   1.558
 6496SOL    HW220388   4.882   6.703   1.637
 6497SOL     OW20389   0.517   1.604   1.315
 6497SOL    HW120390   0.600   1.610   1.259
 6497SOL    HW220391   0.509   1.511   1.350
 6498SOL     OW20392   1.043   4.354   4.337
 6498SOL    HW120393   1.039   4.396   4.428
 6498SOL    HW220394   1.054   4.255   4.346
 6499SOL     OW20395   5.333   3.910   4.115
 6499SOL    HW120396   5.290   3.833   4.069
 6499SOL    HW220397   5.263   3.978   4.139
 6500SOL     OW20398   0.795   3.784   2.367
 6500SOL    HW120399   0.714   3.732   2.340
 6500SOL    HW220400   0.851   3.729   2.429
 6501SOL     OW20401   0.124   1.761   1.016
 6501SOL    HW120402   0.064   1.721   0.947
 6501SOL    HW220403   0.215   1.776   0.976
 6502SOL     OW20404   6.498   3.612   1.419
 6502SOL    HW120405   6.419   3.578   1.367
 6502SOL    HW220406   6.467   3.681   1.484
 6503SOL     OW20407   6.491   2.350   5.704
 6503SOL    HW120408   6.422   2.412   5.741
 6503SOL    HW220409   6.462   2.317   5.614
 6504SOL     OW20410   5.124   6.642   6.512
 6504SOL    HW120411   5.101   6.627   6.608
 6504SOL    HW220412   5.138   6.739   6.495
 6505SOL     OW20413   5.735   6.635   0.104
 6505SOL    HW120414   5.807   6.626   0.173
 6505SOL    HW220415   5.684   6.720   0.120
 6506SOL     OW20416   0.028   3.662   3.791
 6506SOL    HW120417   6.974   3.622   3.739
 6506SOL    HW220418   0.095   3.698   3.727
 6507SOL     OW20419   3.508   5.326   6.353
 6507SOL    HW120420   3.513   5.424   6.372
 6507SOL    HW220421   3.451   5.281   6.421
 6508SOL     OW20422   1.670   6.507   2.188
 6508SOL    HW120423   1.589   6.493   2.131
 6508SOL    HW220424   1.664   6.597   2.232
 6509SOL     OW20425   4.065   1.401   5.152
 6509SOL    HW120426   3.985   1.459   5.136
 6509SOL    HW220427   4.097   1.362   5.066
 6510SOL     OW20428   4.539   6.152   6.059
 6510SOL    HW120429   4.467   6.221   6.052
 6510SOL    HW220430   4.607   6.167   5.988
 6511SOL     OW20431   3.764   1.009   5.820
 6511SOL    HW120432   3.803   1.015   5.728
 6511SOL    HW220433   3.828   0.961   5.880
 6512SOL     OW20434   2.727   0.114   2.521
 6512SOL    HW120435   2.639   0.150   2.489
 6512SOL    HW220436   2.722   0.014   2.526
 6513SOL     OW20437   2.658   5.531   4.364
 6513SOL    HW120438   2.611   5.502   4.448
 6513SOL    HW220439   2.730   5.596   4.388
 6514SOL     OW20440   6.082   0.586   5.327
 6514SOL    HW120441   6.177   0.597   5.358
 6514SOL    HW220442   6.039   0.675   5.321
 6515SOL     OW20443   2.162   4.476   2.515
 6515SOL    HW120444   2.190   4.426   2.597
 6515SOL    HW220445   2.242   4.493   2.457
 6516SOL     OW20446   6.931   3.176   1.839
 6516SOL    HW120447   6.858   3.158   1.773
 6516SOL    HW220448   7.019   3.183   1.790
 6517SOL     OW20449   6.862   1.958   1.048
 6517SOL    HW120450   6.933   2.016   1.087
 6517SOL    HW220451   6.777   2.011   1.040
 6518SOL     OW20452   6.854   0.895   2.221
 6518SOL    HW120453   6.879   0.975   2.277
 6518SOL    HW220454   6.924   0.881   2.151
 6519SOL     OW20455   0.565   0.714   3.177
 6519SOL    HW120456   0.660   0.743   3.178
 6519SOL    HW220457   0.508   0.786   3.137
 6520SOL     OW20458   0.245   5.907   6.804
 6520SOL    HW120459   0.228   5.966   6.725
 6520SOL    HW220460   0.190   5.824   6.796
 6521SOL     OW20461   1.738   2.927   3.127
 6521SOL    HW120462   1.708   2.996   3.192
 6521SOL    HW220463   1.660   2.896   3.073
 6522SOL     OW20464   2.880   4.465   5.600
 6522SOL    HW120465   2.826   4.495   5.521
 6522SOL    HW220466   2.838   4.383   5.640
 6523SOL     OW20467   5.549   0.243   0.288
 6523SOL    HW120468   5.478   0.248   0.359
 6523SOL    HW220469   5.546   0.152   0.245
 6524SOL     OW20470   2.715   2.408   1.754
 6524SOL    HW120471   2.786   2.451   1.810
 6524SOL    HW220472   2.708   2.311   1.778
 6525SOL     OW20473   1.888   5.188   3.388
 6525SOL    HW120474   1.822   5.263   3.384
 6525SOL    HW220475   1.939   5.184   3.302
 6526SOL     OW20476   0.191   6.960   1.162
 6526SOL    HW120477   0.221   0.030   1.138
 6526SOL    HW220478   0.150   6.917   1.081
 6527SOL     OW20479   0.621   2.476   0.715
 6527SOL    HW120480   0.610   2.541   0.790
 6527SOL    HW220481   0.641   2.525   0.631
 6528SOL     OW20482   6.599   1.536   6.333
 6528SOL    HW120483   6.516   1.585   6.360
 6528SOL    HW220484   6.587   1.439   6.352
 6529SOL     OW20485   0.389   0.558   2.493
 6529SOL    HW120486   0.329   0.582   2.418
 6529SOL    HW220487   0.342   0.495   2.555
 6530SOL     OW20488   0.744   1.818   2.272
 6530SOL    HW120489   0.680   1.891   2.248
 6530SOL    HW220490   0.748   1.753   2.196
 6531SOL     OW20491   3.993   3.323   5.586
 6531SOL    HW120492   4.011   3.412   5.629
 6531SOL    HW220493   4.069   3.301   5.524
 6532SOL     OW20494   1.673   1.252   0.388
 6532SOL    HW120495   1.726   1.226   0.469
 6532SOL    HW220496   1.724   1.320   0.335
 6533SOL     OW20497   4.645   5.713   0.294
 6533SOL    HW120498   4.725   5.768   0.269
 6533SOL    HW220499   4.638   5.709   0.394
 6534SOL     OW20500   4.867   5.144   1.895
 6534SOL    HW120501   4.937   5.174   1.960
 6534SOL    HW220502   4.872   5.045   1.884
 6535SOL     OW20503   5.656   3.950   4.509
 6535SOL    HW120504   5.619   4.039   4.536
 6535SOL    HW220505   5.724   3.962   4.437
 6536SOL     OW20506   0.547   2.166   5.050
 6536SOL    HW120507   0.506   2.242   5.000
 6536SOL    HW220508   0.474   2.109   5.089
 6537SOL     OW20509   6.624   4.510   4.544
 6537SOL    HW120510   6.683   4.473   4.616
 6537SOL    HW220511   6.638   4.459   4.460
 6538SOL     OW20512   2.010   3.642   5.649
 6538SOL    HW120513   2.104   3.663   5.674
 6538SOL    HW220514   2.007   3.604   5.556
 6539SOL     OW20515   5.329   0.844   6.874
 6539SOL    HW120516   5.382   0.824   6.792
 6539SOL    HW220517   5.377   0.912   6.929
 6540SOL     OW20518   2.613   2.908   6.030
 6540SOL    HW120519   2.662   2.885   5.946
 6540SOL    HW220520   2.526   2.952   6.006
 6541SOL     OW20521   5.263   2.354   5.762
 6541SOL    HW120522   5.176   2.366   5.713
 6541SOL    HW220523   5.245   2.312   5.851
 6542SOL     OW20524   1.047   3.492   4.476
 6542SOL    HW120525   0.990   3.523   4.552
 6542SOL    HW220526   1.086   3.402   4.498
 6543SOL     OW20527   3.597   2.455   5.343
 6543SOL    HW120528   3.515   2.397   5.343
 6543SOL    HW220529   3.570   2.550   5.333
 6544SOL     OW20530   0.444   6.635   2.091
 6544SOL    HW120531   0.345   6.620   2.087
 6544SOL    HW220532   0.464   6.704   2.161
 6545SOL     OW20533   3.810   6.764   0.855
 6545SOL    HW120534   3.832   6.860   0.837
 6545SOL    HW220535   3.713   6.756   0.877
 6546SOL     OW20536   4.196   4.346   6.570
 6546SOL    HW120537   4.107   4.303   6.589
 6546SOL    HW220538   4.242   4.367   6.656
 6547SOL     OW20539   4.983   0.213   5.680
 6547SOL    HW120540   5.074   0.173   5.678
 6547SOL    HW220541   4.963   0.247   5.772
 6548SOL     OW20542   1.048   3.001   6.436
 6548SOL    HW120543   1.143   2.987   6.466
 6548SOL    HW220544   1.037   3.096   6.405
 6549SOL     OW20545   4.611   0.267   1.871
 6549SOL    HW120546   4.629   0.345   1.811
 6549SOL    HW220547   4.601   0.184   1.817
 6550SOL     OW20548   0.066   0.205   3.840
 6550SOL    HW120549   6.993   0.182   3.822
 6550SOL    HW220550   0.090   0.287   3.788
 6551SOL     OW20551   2.646   3.349   1.761
 6551SOL    HW120552   2.742   3.372   1.745
 6551SOL    HW220553   2.588   3.414   1.711
 6552SOL     OW20554   2.059   6.863   0.666
 6552SOL    HW120555   2.146   6.876   0.713
 6552SOL    HW220556   2.060   6.776   0.617
 6553SOL     OW20557   0.431   1.447   2.918
 6553SOL    HW120558   0.381   1.507   2.856
 6553SOL    HW220559   0.524   1.435   2.885
 6554SOL     OW20560   2.801   1.197   5.485
 6554SOL    HW120561   2.772   1.127   5.552
 6554SOL    HW220562   2.797   1.158   5.393
 6555SOL     OW20563   5.975   1.806   4.159
 6555SOL    HW120564   6.069   1.834   4.179
 6555SOL    HW220565   5.971   1.768   4.066
 6556SOL     OW20566   6.334   3.267   2.448
 6556SOL    HW120567   6.288   3.249   2.535
 6556SOL    HW220568   6.382   3.355   2.453
 6557SOL     OW20569   2.148   0.461   2.336
 6557SOL    HW120570   2.158   0.559   2.318
 6557SOL    HW220571   2.080   0.422   2.275
 6558SOL     OW20572   5.656   5.091   0.185
 6558SOL    HW120573   5.592   5.167   0.175
 6558SOL    HW220574   5.670   5.048   0.096
 6559SOL     OW20575   6.708   3.549   6.575
 6559SOL    HW120576   6.662   3.574   6.490
 6559SOL    HW220577   6.765   3.625   6.606
 6560SOL     OW20578   3.943   4.943   0.493
 6560SOL    HW120579   3.983   5.034   0.500
 6560SOL    HW220580   3.879   4.940   0.417
 6561SOL     OW20581   4.262   4.909   0.895
 6561SOL    HW120582   4.221   4.993   0.861
 6561SOL    HW220583   4.223   4.831   0.845
 6562SOL     OW20584   5.460   2.651   1.065
 6562SOL    HW120585   5.518   2.604   0.999
 6562SOL    HW220586   5.449   2.595   1.146
 6563SOL     OW20587   5.027   0.528   5.974
 6563SOL    HW120588   5.020   0.542   6.073
 6563SOL    HW220589   4.993   0.437   5.951
 6564SOL     OW20590   6.533   3.844   1.835
 6564SOL    HW120591   6.442   3.845   1.876
 6564SOL    HW220592   6.575   3.754   1.847
 6565SOL     OW20593   6.278   6.660   3.055
 6565SOL    HW120594   6.371   6.625   3.060
 6565SOL    HW220595   6.219   6.607   3.115
 6566SOL     OW20596   3.077   5.560   2.364
 6566SOL    HW120597   3.032   5.492   2.422
 6566SOL    HW220598   3.157   5.596   2.411
 6567SOL     OW20599   3.946   0.404   1.643
 6567SOL    HW120600   3.945   0.435   1.739
 6567SOL    HW220601   3.966   0.307   1.640
 6568SOL     OW20602   4.530   1.661   2.574
 6568SOL    HW120603   4.515   1.586   2.510
 6568SOL    HW220604   4.597   1.632   2.643
 6569SOL     OW20605   0.688   3.149   6.119
 6569SOL    HW120606   0.650   3.090   6.048
 6569SOL    HW220607   0.787   3.135   6.125
 6570SOL     OW20608   4.329   0.875   2.730
 6570SOL    HW120609   4.270   0.829   2.664
 6570SOL    HW220610   4.297   0.855   2.823
 6571SOL     OW20611   2.479   4.892   3.310
 6571SOL    HW120612   2.387   4.872   3.343
 6571SOL    HW220613   2.477   4.971   3.250
 6572SOL     OW20614   0.852   3.887   4.183
 6572SOL    HW120615   0.869   3.965   4.245
 6572SOL    HW220616   0.857   3.802   4.235
 6573SOL     OW20617   1.408   1.235   3.569
 6573SOL    HW120618   1.351   1.158   3.598
 6573SOL    HW220619   1.488   1.201   3.519
 6574SOL     OW20620   2.949   6.820   3.677
 6574SOL    HW120621   2.923   6.770   3.594
 6574SOL    HW220622   2.934   6.918   3.662
 6575SOL     OW20623   0.360   6.901   3.221
 6575SOL    HW120624   0.445   6.947   3.247
 6575SOL    HW220625   0.369   6.864   3.129
 6576SOL     OW20626   3.488   5.003   0.225
 6576SOL    HW120627   3.523   5.094   0.247
 6576SOL    HW220628   3.391   4.997   0.248
 6577SOL     OW20629   1.826   2.219   3.354
 6577SOL    HW120630   1.727   2.231   3.343
 6577SOL    HW220631   1.866   2.186   3.269
 6578SOL     OW20632   1.043   6.168   1.802
 6578SOL    HW120633   1.080   6.260   1.792
 6578SOL    HW220634   1.118   6.102   1.804
 6579SOL     OW20635   0.094   1.951   4.169
 6579SOL    HW120636   0.059   2.038   4.133
 6579SOL    HW220637   0.022   1.906   4.222
 6580SOL     OW20638   1.020   1.341   0.859
 6580SOL    HW120639   1.068   1.422   0.826
 6580SOL    HW220640   1.084   1.282   0.908
 6581SOL     OW20641   1.460   1.318   0.547
 6581SOL    HW120642   1.478   1.248   0.478
 6581SOL    HW220643   1.483   1.281   0.637
 6582SOL     OW20644   6.785   0.710   2.515
 6582SOL    HW120645   6.728   0.689   2.436
 6582SOL    HW220646   6.879   0.726   2.485
 6583SOL     OW20647   5.317   6.584   5.055
 6583SOL    HW120648   5.282   6.494   5.029
 6583SOL    HW220649   5.311   6.645   4.976
 6584SOL     OW20650   3.537   2.580   0.836
 6584SOL    HW120651   3.632   2.559   0.810
 6584SOL    HW220652   3.498   2.645   0.771
 6585SOL     OW20653   0.049   6.563   0.072
 6585SOL    HW120654   0.062   6.518   0.160
 6585SOL    HW220655   7.017   6.504   0.013
 6586SOL     OW20656   6.269   1.925   6.112
 6586SOL    HW120657   6.304   1.845   6.064
 6586SOL    HW220658   6.328   1.946   6.190
 6587SOL     OW20659   1.021   4.576   5.796
 6587SOL    HW120660   0.947   4.640   5.815
 6587SOL    HW220661   1.000   4.488   5.839
 6588SOL     OW20662   0.829   3.212   0.884
 6588SOL    HW120663   0.792   3.178   0.798
 6588SOL    HW220664   0.904   3.153   0.914
 6589SOL     OW20665   5.200   1.135   2.166
 6589SOL    HW120666   5.188   1.172   2.258
 6589SOL    HW220667   5.111   1.119   2.124
 6590SOL     OW20668   0.445   0.221   4.963
 6590SOL    HW120669   0.369   0.281   4.988
 6590SOL    HW220670   0.480   0.248   4.873
 6591SOL     OW20671   5.293   5.382   3.764
 6591SOL    HW120672   5.307   5.449   3.836
 6591SOL    HW220673   5.214   5.409   3.708
 6592SOL     OW20674   5.205   0.343   3.361
 6592SOL    HW120675   5.132   0.276   3.373
 6592SOL    HW220676   5.269   0.311   3.291
 6593SOL     OW20677   2.891   2.176   2.210
 6593SOL    HW120678   2.806   2.214   2.246
 6593SOL    HW220679   2.915   2.221   2.124
 6594SOL     OW20680   3.680   1.544   5.761
 6594SOL    HW120681   3.685   1.596   5.847
 6594SOL    HW220682   3.696   1.605   5.684
 6595SOL     OW20683   1.504   3.006   4.992
 6595SOL    HW120684   1.577   3.022   5.058
 6595SOL    HW220685   1.466   3.094   4.963
 6596SOL     OW20686   4.177   6.095   3.225
 6596SOL    HW120687   4.128   6.008   3.216
 6596SOL    HW220688   4.134   6.151   3.296
 6597SOL     OW20689   1.256   4.975   2.044
 6597SOL    HW120690   1.217   4.892   2.084
 6597SOL    HW220691   1.308   4.950   1.962
 6598SOL     OW20692   1.942   4.380   3.294
 6598SOL    HW120693   1.983   4.314   3.230
 6598SOL    HW220694   2.012   4.445   3.324
 6599SOL     OW20695   5.241   6.048   0.025
 6599SOL    HW120696   5.302   5.984   7.002
 6599SOL    HW220697   5.268   6.142   0.004
 6600SOL     OW20698   4.371   7.011   4.548
 6600SOL    HW120699   4.299   7.003   4.479
 6600SOL    HW220700   4.335   0.035   4.629
 6601SOL     OW20701   0.616   2.618   3.288
 6601SOL    HW120702   0.714   2.636   3.292
 6601SOL    HW220703   0.598   2.542   3.226
 6602SOL     OW20704   2.598   0.118   1.277
 6602SOL    HW120705   2.692   0.095   1.301
 6602SOL    HW220706   2.597   0.177   1.196
 6603SOL     OW20707   0.673   3.255   3.673
 6603SOL    HW120708   0.758   3.294   3.636
 6603SOL    HW220709   0.681   3.156   3.677
 6604SOL     OW20710   2.062   0.068   1.120
 6604SOL    HW120711   1.979   0.079   1.066
 6604SOL    HW220712   2.135   0.124   1.080
 6605SOL     OW20713   5.572   5.736   1.756
 6605SOL    HW120714   5.530   5.766   1.670
 6605SOL    HW220715   5.659   5.783   1.769
 6606SOL     OW20716   7.005   4.263   3.184
 6606SOL    HW120717   0.040   4.315   3.121
 6606SOL    HW220718   0.040   4.212   3.247
 6607SOL     OW20719   6.509   4.965   3.526
 6607SOL    HW120720   6.457   5.050   3.530
 6607SOL    HW220721   6.532   4.937   3.619
 6608SOL     OW20722   6.869   0.399   0.982
 6608SOL    HW120723   6.863   0.382   0.884
 6608SOL    HW220724   6.778   0.388   1.023
 6609SOL     OW20725   5.075   1.393   6.311
 6609SOL    HW120726   5.002   1.461   6.315
 6609SOL    HW220727   5.053   1.317   6.372
 6610SOL     OW20728   2.879   5.782   0.111
 6610SOL    HW120729   2.926   5.773   0.023
 6610SOL    HW220730   2.785   5.748   0.102
 6611SOL     OW20731   4.956   2.760   3.509
 6611SOL    HW120732   5.013   2.799   3.581
 6611SOL    HW220733   4.872   2.813   3.501
 6612SOL     OW20734   6.653   2.024   6.155
 6612SOL    HW120735   6.748   1.995   6.142
 6612SOL    HW220736   6.619   2.067   6.072
 6613SOL     OW20737   5.784   0.161   6.258
 6613SOL    HW120738   5.730   0.156   6.174
 6613SOL    HW220739   5.847   0.239   6.253
 6614SOL     OW20740   4.688   0.021   0.786
 6614SOL    HW120741   4.661   7.003   0.874
 6614SOL    HW220742   4.784   0.002   0.768
 6615SOL     OW20743   2.261   5.323   0.321
 6615SOL    HW120744   2.191   5.380   0.362
 6615SOL    HW220745   2.351   5.354   0.351
 6616SOL     OW20746   4.515   6.770   5.539
 6616SOL    HW120747   4.433   6.781   5.483
 6616SOL    HW220748   4.561   6.685   5.515
 6617SOL     OW20749   4.112   6.507   3.341
 6617SOL    HW120750   4.146   6.594   3.377
 6617SOL    HW220751   4.078   6.521   3.247
 6618SOL     OW20752   0.493   1.121   3.134
 6618SOL    HW120753   0.536   1.205   3.102
 6618SOL    HW220754   0.493   1.053   3.060
 6619SOL     OW20755   4.847   6.822   3.814
 6619SOL    HW120756   4.884   6.913   3.795
 6619SOL    HW220757   4.794   6.824   3.899
 6620SOL     OW20758   2.143   3.331   3.689
 6620SOL    HW120759   2.211   3.333   3.616
 6620SOL    HW220760   2.183   3.294   3.772
 6621SOL     OW20761   3.806   2.960   4.929
 6621SOL    HW120762   3.712   2.948   4.900
 6621SOL    HW220763   3.857   3.011   4.860
 6622SOL     OW20764   5.858   6.029   1.474
 6622SOL    HW120765   5.921   6.084   1.419
 6622SOL    HW220766   5.817   5.958   1.417
 6623SOL     OW20767   3.856   4.270   5.420
 6623SOL    HW120768   3.894   4.357   5.450
 6623SOL    HW220769   3.758   4.278   5.408
 6624SOL     OW20770   0.532   3.347   5.526
 6624SOL    HW120771   0.566   3.301   5.608
 6624SOL    HW220772   0.481   3.428   5.552
 6625SOL     OW20773   5.860   1.951   5.352
 6625SOL    HW120774   5.855   1.859   5.313
 6625SOL    HW220775   5.789   2.008   5.312
 6626SOL     OW20776   3.396   6.856   5.644
 6626SOL    HW120777   3.414   6.774   5.590
 6626SOL    HW220778   3.461   6.928   5.617
 6627SOL     OW20779   1.750   6.310   3.941
 6627SOL    HW120780   1.813   6.249   3.893
 6627SOL    HW220781   1.687   6.256   3.996
 6628SOL     OW20782   5.168   5.061   3.688
 6628SOL    HW120783   5.197   5.076   3.782
 6628SOL    HW220784   5.237   5.008   3.640
 6629SOL     OW20785   4.500   5.264   6.508
 6629SOL    HW120786   4.467   5.299   6.420
 6629SOL    HW220787   4.478   5.330   6.580
 6630SOL     OW20788   3.654   1.674   1.660
 6630SOL    HW120789   3.576   1.632   1.708
 6630SOL    HW220790   3.689   1.610   1.591
 6631SOL     OW20791   2.185   5.200   4.231
 6631SOL    HW120792   2.283   5.209   4.251
 6631SOL    HW220793   2.145   5.132   4.292
 6632SOL     OW20794   1.613   1.374   0.985
 6632SOL    HW120795   1.570   1.310   0.921
 6632SOL    HW220796   1.635   1.459   0.936
 6633SOL     OW20797   2.946   4.613   6.061
 6633SOL    HW120798   2.928   4.660   6.147
 6633SOL    HW220799   2.892   4.529   6.057
 6634SOL     OW20800   4.693   2.170   5.234
 6634SOL    HW120801   4.700   2.184   5.333
 6634SOL    HW220802   4.695   2.072   5.214
 6635SOL     OW20803   4.779   4.017   3.269
 6635SOL    HW120804   4.832   3.932   3.268
 6635SOL    HW220805   4.787   4.063   3.180
 6636SOL     OW20806   3.145   1.252   1.759
 6636SOL    HW120807   3.161   1.188   1.684
 6636SOL    HW220808   3.047   1.272   1.765
 6637SOL     OW20809   2.661   0.215   0.029
 6637SOL    HW120810   2.583   0.229   0.091
 6637SOL    HW220811   2.629   0.217   6.957
 6638SOL     OW20812   3.328   3.582   3.041
 6638SOL    HW120813   3.276   3.618   2.964
 6638SOL    HW220814   3.410   3.536   3.008
 6639SOL     OW20815   3.800   3.030   6.760
 6639SOL    HW120816   3.829   3.125   6.772
 6639SOL    HW220817   3.700   3.028   6.748
 6640SOL     OW20818   0.019   2.114   5.442
 6640SOL    HW120819   7.019   2.168   5.523
 6640SOL    HW220820   0.083   2.165   5.384
 6641SOL     OW20821   3.794   1.795   0.279
 6641SOL    HW120822   3.703   1.754   0.276
 6641SOL    HW220823   3.787   1.890   0.312
 6642SOL     OW20824   2.367   5.055   6.517
 6642SOL    HW120825   2.350   4.957   6.515
 6642SOL    HW220826   2.282   5.104   6.497
 6643SOL     OW20827   6.604   6.790   0.773
 6643SOL    HW120828   6.656   6.709   0.744
 6643SOL    HW220829   6.634   6.869   0.720
 6644SOL     OW20830   1.712   6.078   3.582
 6644SOL    HW120831   1.761   6.164   3.596
 6644SOL    HW220832   1.640   6.091   3.515
 6645SOL     OW20833   5.705   3.140   0.419
 6645SOL    HW120834   5.773   3.120   0.348
 6645SOL    HW220835   5.661   3.227   0.400
 6646SOL     OW20836   4.698   0.493   6.382
 6646SOL    HW120837   4.691   0.558   6.306
 6646SOL    HW220838   4.632   0.518   6.453
 6647SOL     OW20839   4.570   6.619   0.954
 6647SOL    HW120840   4.494   6.669   0.913
 6647SOL    HW220841   4.618   6.567   0.882
 6648SOL     OW20842   3.627   6.009   4.772
 6648SOL    HW120843   3.613   5.914   4.744
 6648SOL    HW220844   3.581   6.070   4.707
 6649SOL     OW20845   6.100   2.981   6.573
 6649SOL    HW120846   6.081   2.985   6.671
 6649SOL    HW220847   6.192   2.943   6.559
 6650SOL     OW20848   3.923   1.453   4.789
 6650SOL    HW120849   3.849   1.426   4.727
 6650SOL    HW220850   3.997   1.387   4.783
 6651SOL     OW20851   1.379   1.873   6.774
 6651SOL    HW120852   1.397   1.816   6.693
 6651SOL    HW220853   1.420   1.963   6.761
 6652SOL     OW20854   0.441   4.391   6.756
 6652SOL    HW120855   0.480   4.309   6.715
 6652SOL    HW220856   0.506   4.432   6.820
 6653SOL     OW20857   4.729   3.133   1.019
 6653SOL    HW120858   4.718   3.232   1.026
 6653SOL    HW220859   4.814   3.106   1.064
 6654SOL     OW20860   0.372   5.062   2.639
 6654SOL    HW120861   0.386   5.141   2.699
 6654SOL    HW220862   0.388   4.978   2.690
 6655SOL     OW20863   0.165   6.021   1.890
 6655SOL    HW120864   0.168   6.092   1.820
 6655SOL    HW220865   0.258   6.002   1.921
 6656SOL     OW20866   4.998   2.014   2.898
 6656SOL    HW120867   4.950   1.926   2.904
 6656SOL    HW220868   4.996   2.046   2.803
 6657SOL     OW20869   5.919   2.921   4.624
 6657SOL    HW120870   6.000   2.970   4.657
 6657SOL    HW220871   5.891   2.854   4.693
 6658SOL     OW20872   6.430   0.237   5.345
 6658SOL    HW120873   6.384   0.325   5.359
 6658SOL    HW220874   6.467   0.233   5.252
 6659SOL     OW20875   1.210   3.705   1.666
 6659SOL    HW120876   1.252   3.671   1.750
 6659SOL    HW220877   1.205   3.805   1.669
 6660SOL     OW20878   1.849   5.043   1.875
 6660SOL    HW120879   1.763   5.095   1.875
 6660SOL    HW220880   1.848   4.978   1.799
 6661SOL     OW20881   3.040   0.900   4.807
 6661SOL    HW120882   3.029   0.889   4.708
 6661SOL    HW220883   3.093   0.983   4.826
 6662SOL     OW20884   2.115   0.427   0.968
 6662SOL    HW120885   2.031   0.387   0.931
 6662SOL    HW220886   2.185   0.356   0.977
 6663SOL     OW20887   0.907   6.169   5.451
 6663SOL    HW120888   0.926   6.111   5.372
 6663SOL    HW220889   0.993   6.188   5.499
 6664SOL     OW20890   2.110   0.524   1.357
 6664SOL    HW120891   2.078   0.609   1.316
 6664SOL    HW220892   2.118   0.536   1.456
 6665SOL     OW20893   1.713   6.552   5.884
 6665SOL    HW120894   1.764   6.590   5.807
 6665SOL    HW220895   1.732   6.455   5.893
 6666SOL     OW20896   6.521   5.614   5.199
 6666SOL    HW120897   6.470   5.613   5.113
 6666SOL    HW220898   6.550   5.521   5.222
 6667SOL     OW20899   6.727   6.563   6.148
 6667SOL    HW120900   6.757   6.600   6.236
 6667SOL    HW220901   6.687   6.636   6.093
 6668SOL     OW20902   7.008   5.907   1.441
 6668SOL    HW120903   0.036   5.921   1.356
 6668SOL    HW220904   6.917   5.871   1.420
 6669SOL     OW20905   3.832   2.053   1.391
 6669SOL    HW120906   3.867   1.962   1.410
 6669SOL    HW220907   3.754   2.072   1.450
 6670SOL     OW20908   2.987   0.886   6.576
 6670SOL    HW120909   2.966   0.926   6.665
 6670SOL    HW220910   2.948   0.942   6.504
 6671SOL     OW20911   5.791   6.701   0.819
 6671SOL    HW120912   5.783   6.794   0.782
 6671SOL    HW220913   5.806   6.636   0.745
 6672SOL     OW20914   1.346   2.481   0.412
 6672SOL    HW120915   1.357   2.440   0.503
 6672SOL    HW220916   1.435   2.484   0.366
 6673SOL     OW20917   4.783   4.089   3.623
 6673SOL    HW120918   4.706   4.133   3.669
 6673SOL    HW220919   4.754   4.056   3.533
 6674SOL     OW20920   0.333   3.047   6.831
 6674SOL    HW120921   0.316   2.954   6.801
 6674SOL    HW220922   0.432   3.065   6.829
 6675SOL     OW20923   5.424   2.542   0.562
 6675SOL    HW120924   5.449   2.621   0.617
 6675SOL    HW220925   5.329   2.517   0.582
 6676SOL     OW20926   1.138   3.537   3.009
 6676SOL    HW120927   1.088   3.497   3.086
 6676SOL    HW220928   1.233   3.552   3.036
 6677SOL     OW20929   0.647   1.080   6.401
 6677SOL    HW120930   0.571   1.122   6.353
 6677SOL    HW220931   0.672   0.994   6.356
 6678SOL     OW20932   2.037   4.341   1.092
 6678SOL    HW120933   2.044   4.272   1.164
 6678SOL    HW220934   2.106   4.323   1.022
 6679SOL     OW20935   3.992   0.975   3.988
 6679SOL    HW120936   3.948   0.957   3.900
 6679SOL    HW220937   4.089   0.993   3.973
 6680SOL     OW20938   4.703   6.113   6.545
 6680SOL    HW120939   4.735   6.201   6.582
 6680SOL    HW220940   4.606   6.102   6.565
 6681SOL     OW20941   4.876   5.501   1.439
 6681SOL    HW120942   4.887   5.407   1.404
 6681SOL    HW220943   4.878   5.499   1.539
 6682SOL     OW20944   1.880   4.597   6.696
 6682SOL    HW120945   1.878   4.668   6.626
 6682SOL    HW220946   1.925   4.632   6.778
 6683SOL     OW20947   5.906   3.116   6.025
 6683SOL    HW120948   5.948   3.048   5.964
 6683SOL    HW220949   5.977   3.178   6.059
 6684SOL     OW20950   3.768   6.875   2.039
 6684SOL    HW120951   3.787   6.808   2.111
 6684SOL    HW220952   3.812   6.847   1.954
 6685SOL     OW20953   4.853   2.431   6.543
 6685SOL    HW120954   4.944   2.470   6.556
 6685SOL    HW220955   4.811   2.413   6.632
 6686SOL     OW20956   5.957   6.194   3.580
 6686SOL    HW120957   5.870   6.243   3.573
 6686SOL    HW220958   5.940   6.096   3.587
 6687SOL     OW20959   0.590   2.675   1.947
 6687SOL    HW120960   0.633   2.744   2.005
 6687SOL    HW220961   0.546   2.606   2.004
 6688SOL     OW20962   4.171   4.690   0.747
 6688SOL    HW120963   4.202   4.614   0.804
 6688SOL    HW220964   4.165   4.661   0.652
 6689SOL     OW20965   4.196   3.272   5.953
 6689SOL    HW120966   4.098   3.277   5.972
 6689SOL    HW220967   4.212   3.276   5.855
 6690SOL     OW20968   1.287   6.627   0.061
 6690SOL    HW120969   1.209   6.680   0.095
 6690SOL    HW220970   1.358   6.623   0.132
 6691SOL     OW20971   1.940   0.421   2.531
 6691SOL    HW120972   2.013   0.436   2.465
 6691SOL    HW220973   1.863   0.482   2.510
 6692SOL     OW20974   4.145   3.792   1.942
 6692SOL    HW120975   4.157   3.693   1.937
 6692SOL    HW220976   4.146   3.821   2.037
 6693SOL     OW20977   4.596   1.939   5.126
 6693SOL    HW120978   4.523   1.981   5.073
 6693SOL    HW220979   4.561   1.911   5.216
 6694SOL     OW20980   4.730   6.298   1.318
 6694SOL    HW120981   4.801   6.257   1.262
 6694SOL    HW220982   4.714   6.392   1.288
 6695SOL     OW20983   2.811   2.056   7.009
 6695SOL    HW120984   2.907   2.029   7.005
 6695SOL    HW220985   2.764   2.025   6.926
 6696SOL     OW20986   4.121   3.485   3.068
 6696SOL    HW120987   4.110   3.438   3.156
 6696SOL    HW220988   4.113   3.584   3.083
 6697SOL     OW20989   4.735   2.475   3.432
 6697SOL    HW120990   4.714   2.571   3.412
 6697SOL    HW220991   4.807   2.443   3.370
 6698SOL     OW20992   3.301   3.659   1.321
 6698SOL    HW120993   3.213   3.622   1.350
 6698SOL    HW220994   3.345   3.595   1.258
 6699SOL     OW20995   2.309   6.552   5.396
 6699SOL    HW120996   2.358   6.640   5.396
 6699SOL    HW220997   2.316   6.509   5.306
 6700SOL     OW20998   5.746   1.241   1.124
 6700SOL    HW120999   5.708   1.153   1.095
 6700SOL    HW221000   5.674   1.311   1.118
 6701SOL     OW21001   5.460   6.272   1.863
 6701SOL    HW121002   5.517   6.301   1.940
 6701SOL    HW221003   5.504   6.195   1.816
 6702SOL     OW21004   1.784   2.492   1.948
 6702SOL    HW121005   1.835   2.445   2.020
 6702SOL    HW221006   1.828   2.580   1.929
 6703SOL     OW21007   0.866   1.487   6.739
 6703SOL    HW121008   0.916   1.493   6.826
 6703SOL    HW221009   0.893   1.405   6.690
 6704SOL     OW21010   4.162   2.268   4.457
 6704SOL    HW121011   4.195   2.290   4.549
 6704SOL    HW221012   4.211   2.188   4.422
 6705SOL     OW21013   6.043   2.655   0.821
 6705SOL    HW121014   6.031   2.650   0.722
 6705SOL    HW221015   6.020   2.747   0.854
 6706SOL     OW21016   1.877   6.091   0.694
 6706SOL    HW121017   1.938   6.023   0.655
 6706SOL    HW221018   1.927   6.149   0.758
 6707SOL     OW21019   5.395   6.920   2.845
 6707SOL    HW121020   5.326   6.977   2.889
 6707SOL    HW221021   5.452   6.977   2.785
 6708SOL     OW21022   5.519   5.277   1.128
 6708SOL    HW121023   5.479   5.362   1.165
 6708SOL    HW221024   5.602   5.255   1.180
 6709SOL     OW21025   0.634   5.227   2.903
 6709SOL    HW121026   0.663   5.275   2.986
 6709SOL    HW221027   0.624   5.130   2.922
 6710SOL     OW21028   4.276   1.406   0.620
 6710SOL    HW121029   4.340   1.478   0.595
 6710SOL    HW221030   4.196   1.409   0.560
 6711SOL     OW21031   5.110   6.601   5.584
 6711SOL    HW121032   5.057   6.658   5.522
 6711SOL    HW221033   5.109   6.641   5.676
 6712SOL     OW21034   5.948   3.240   1.384
 6712SOL    HW121035   5.913   3.147   1.388
 6712SOL    HW221036   5.949   3.280   1.476
 6713SOL     OW21037   1.031   1.216   3.177
 6713SOL    HW121038   1.104   1.182   3.235
 6713SOL    HW221039   1.037   1.174   3.086
 6714SOL     OW21040   5.630   0.961   0.484
 6714SOL    HW121041   5.585   0.891   0.540
 6714SOL    HW221042   5.611   1.052   0.522
 6715SOL     OW21043   1.348   0.424   1.289
 6715SOL    HW121044   1.313   0.468   1.372
 6715SOL    HW221045   1.336   0.485   1.211
 6716SOL     OW21046   6.797   5.827   2.463
 6716SOL    HW121047   6.758   5.830   2.371
 6716SOL    HW221048   6.792   5.733   2.499
 6717SOL     OW21049   2.528   2.410   6.500
 6717SOL    HW121050   2.562   2.322   6.533
 6717SOL    HW221051   2.520   2.407   6.400
 6718SOL     OW21052   3.613   0.535   1.281
 6718SOL    HW121053   3.675   0.460   1.305
 6718SOL    HW221054   3.665   0.620   1.272
 6719SOL     OW21055   2.186   6.848   0.195
 6719SOL    HW121056   2.108   6.906   0.218
 6719SOL    HW221057   2.160   6.784   0.123
 6720SOL     OW21058   2.433   1.605   4.761
 6720SOL    HW121059   2.388   1.663   4.829
 6720SOL    HW221060   2.429   1.510   4.791
 6721SOL     OW21061   6.760   6.728   0.518
 6721SOL    HW121062   6.740   6.822   0.545
 6721SOL    HW221063   6.804   6.680   0.594
 6722SOL     OW21064   7.000   2.412   0.214
 6722SOL    HW121065   6.949   2.497   0.197
 6722SOL    HW221066   0.047   2.428   0.283
 6723SOL     OW21067   1.846   6.834   5.993
 6723SOL    HW121068   1.803   6.814   5.906
 6723SOL    HW221069   1.788   6.895   6.047
 6724SOL     OW21070   2.323   2.402   6.257
 6724SOL    HW121071   2.400   2.339   6.243
 6724SOL    HW221072   2.264   2.366   6.329
 6725SOL     OW21073   6.803   2.911   2.207
 6725SOL    HW121074   6.756   2.824   2.222
 6725SOL    HW221075   6.854   2.936   2.289
 6726SOL     OW21076   0.506   2.008   4.282
 6726SOL    HW121077   0.460   1.930   4.238
 6726SOL    HW221078   0.600   2.014   4.248
 6727SOL     OW21079   0.234   4.362   5.781
 6727SOL    HW121080   0.270   4.436   5.836
 6727SOL    HW221081   0.301   4.336   5.711
 6728SOL     OW21082   3.757   1.801   3.089
 6728SOL    HW121083   3.721   1.886   3.129
 6728SOL    HW221084   3.856   1.799   3.100
 6729SOL     OW21085   6.917   1.782   0.560
 6729SOL    HW121086   6.950   1.837   0.637
 6729SOL    HW221087   6.851   1.834   0.507
 6730SOL     OW21088   1.874   0.029   0.903
 6730SOL    HW121089   1.787   7.020   0.941
 6730SOL    HW221090   1.903   6.988   0.831
 6731SOL     OW21091   1.565   6.726   0.595
 6731SOL    HW121092   1.513   6.757   0.675
 6731SOL    HW221093   1.512   6.741   0.512
 6732SOL     OW21094   4.999   4.406   4.638
 6732SOL    HW121095   4.939   4.476   4.600
 6732SOL    HW221096   5.013   4.423   4.735
 6733SOL     OW21097   4.221   5.579   6.145
 6733SOL    HW121098   4.129   5.542   6.156
 6733SOL    HW221099   4.260   5.548   6.058
 6734SOL     OW21100   5.254   2.191   5.997
 6734SOL    HW121101   5.155   2.181   6.009
 6734SOL    HW221102   5.295   2.102   5.978
 6735SOL     OW21103   5.582   3.319   4.173
 6735SOL    HW121104   5.622   3.390   4.231
 6735SOL    HW221105   5.610   3.335   4.078
 6736SOL     OW21106   3.318   3.684   6.307
 6736SOL    HW121107   3.299   3.635   6.222
 6736SOL    HW221108   3.343   3.619   6.378
 6737SOL     OW21109   1.306   3.208   1.073
 6737SOL    HW121110   1.227   3.270   1.081
 6737SOL    HW221111   1.277   3.114   1.092
 6738SOL     OW21112   1.784   5.485   3.889
 6738SOL    HW121113   1.874   5.529   3.893
 6738SOL    HW221114   1.778   5.430   3.806
 6739SOL     OW21115   6.397   5.930   3.645
 6739SOL    HW121116   6.416   6.027   3.661
 6739SOL    HW221117   6.320   5.901   3.702
 6740SOL     OW21118   6.602   0.434   5.132
 6740SOL    HW121119   6.554   0.348   5.115
 6740SOL    HW221120   6.605   0.452   5.230
 6741SOL     OW21121   3.500   2.117   5.724
 6741SOL    HW121122   3.472   2.192   5.783
 6741SOL    HW221123   3.419   2.076   5.681
 6742SOL     OW21124   5.534   5.502   3.704
 6742SOL    HW121125   5.621   5.453   3.700
 6742SOL    HW221126   5.459   5.437   3.713
 6743SOL     OW21127   3.732   3.826   6.280
 6743SOL    HW121128   3.798   3.862   6.346
 6743SOL    HW221129   3.639   3.845   6.312
 6744SOL     OW21130   0.521   6.648   5.500
 6744SOL    HW121131   0.520   6.676   5.596
 6744SOL    HW221132   0.501   6.550   5.493
 6745SOL     OW21133   6.761   6.045   3.550
 6745SOL    HW121134   6.743   6.139   3.578
 6745SOL    HW221135   6.785   5.990   3.631
 6746SOL     OW21136   1.346   0.672   3.622
 6746SOL    HW121137   1.300   0.598   3.573
 6746SOL    HW221138   1.318   0.670   3.718
 6747SOL     OW21139   6.286   0.497   0.132
 6747SOL    HW121140   6.216   0.536   0.072
 6747SOL    HW221141   6.242   0.459   0.213
 6748SOL     OW21142   3.015   1.877   3.459
 6748SOL    HW121143   3.056   1.789   3.437
 6748SOL    HW221144   3.070   1.950   3.418
 6749SOL     OW21145   3.896   4.497   1.126
 6749SOL    HW121146   3.961   4.422   1.123
 6749SOL    HW221147   3.944   4.583   1.146
 6750SOL     OW21148   3.069   1.867   4.493
 6750SOL    HW121149   3.088   1.946   4.552
 6750SOL    HW221150   2.979   1.878   4.451
 6751SOL     OW21151   4.844   0.666   3.416
 6751SOL    HW121152   4.799   0.598   3.474
 6751SOL    HW221153   4.942   0.646   3.410
 6752SOL     OW21154   1.952   0.161   3.010
 6752SOL    HW121155   1.945   0.162   2.910
 6752SOL    HW221156   1.862   0.184   3.049
 6753SOL     OW21157   3.293   1.457   6.232
 6753SOL    HW121158   3.212   1.450   6.173
 6753SOL    HW221159   3.347   1.537   6.205
 6754SOL     OW21160   6.639   1.326   0.906
 6754SOL    HW121161   6.712   1.395   0.911
 6754SOL    HW221162   6.664   1.255   0.841
 6755SOL     OW21163   4.309   3.847   1.086
 6755SOL    HW121164   4.233   3.878   1.141
 6755SOL    HW221165   4.395   3.877   1.127
 6756SOL     OW21166   3.570   0.001   5.496
 6756SOL    HW121167   3.648   0.015   5.556
 6756SOL    HW221168   3.594   6.957   5.425
 6757SOL     OW21169   3.768   2.393   0.766
 6757SOL    HW121170   3.747   2.299   0.737
 6757SOL    HW221171   3.792   2.393   0.863
 6758SOL     OW21172   6.185   2.934   1.667
 6758SOL    HW121173   6.278   2.899   1.676
 6758SOL    HW221174   6.174   3.014   1.726
 6759SOL     OW21175   0.037   3.394   2.577
 6759SOL    HW121176   0.053   3.309   2.627
 6759SOL    HW221177   7.012   3.375   2.492
 6760SOL     OW21178   6.374   3.814   2.268
 6760SOL    HW121179   6.445   3.747   2.290
 6760SOL    HW221180   6.328   3.842   2.352
 6761SOL     OW21181   5.726   3.301   4.983
 6761SOL    HW121182   5.701   3.321   5.077
 6761SOL    HW221183   5.667   3.353   4.921
 6762SOL     OW21184   0.978   4.819   4.511
 6762SOL    HW121185   1.057   4.791   4.456
 6762SOL    HW221186   0.894   4.799   4.461
 6763SOL     OW21187   5.333   5.514   4.008
 6763SOL    HW121188   5.423   5.544   4.040
 6763SOL    HW221189   5.261   5.566   4.055
 6764SOL     OW21190   2.490   5.153   1.779
 6764SOL    HW121191   2.421   5.185   1.715
 6764SOL    HW221192   2.486   5.207   1.863
 6765SOL     OW21193   5.708   4.585   2.890
 6765SOL    HW121194   5.769   4.543   2.823
 6765SOL    HW221195   5.685   4.518   2.960
 6766SOL     OW21196   5.267   6.419   5.419
 6766SOL    HW121197   5.271   6.380   5.511
 6766SOL    HW221198   5.219   6.506   5.422
 6767SOL     OW21199   3.265   0.385   1.248
 6767SOL    HW121200   3.254   0.460   1.183
 6767SOL    HW221201   3.240   0.298   1.205
 6768SOL     OW21202   1.865   0.966   5.364
 6768SOL    HW121203   1.924   1.004   5.435
 6768SOL    HW221204   1.920   0.920   5.295
 6769SOL     OW21205   3.279   1.784   0.577
 6769SOL    HW121206   3.234   1.705   0.618
 6769SOL    HW221207   3.358   1.753   0.523
 6770SOL     OW21208   0.435   1.108   2.192
 6770SOL    HW121209   0.445   1.206   2.173
 6770SOL    HW221210   0.520   1.061   2.167
 6771SOL     OW21211   4.859   2.475   3.685
 6771SOL    HW121212   4.922   2.553   3.690
 6771SOL    HW221213   4.821   2.469   3.592
 6772SOL     OW21214   3.402   1.821   3.390
 6772SOL    HW121215   3.396   1.905   3.336
 6772SOL    HW221216   3.323   1.762   3.369
 6773SOL     OW21217   7.000   5.110   1.943
 6773SOL    HW121218   6.900   5.107   1.937
 6773SOL    HW221219   0.008   5.205   1.933
 6774SOL     OW21220   0.375   2.109   5.535
 6774SOL    HW121221   0.293   2.166   5.540
 6774SOL    HW221222   0.449   2.161   5.492
 6775SOL     OW21223   2.522   2.818   1.549
 6775SOL    HW121224   2.476   2.774   1.626
 6775SOL    HW221225   2.541   2.914   1.572
 6776SOL     OW21226   3.974   4.802   0.123
 6776SOL    HW121227   4.058   4.765   0.162
 6776SOL    HW221228   3.925   4.729   0.075
 6777SOL     OW21229   4.279   3.857   6.962
 6777SOL    HW121230   4.303   3.793   6.889
 6777SOL    HW221231   4.361   3.882   7.013
 6778SOL     OW21232   6.002   4.953   1.893
 6778SOL    HW121233   6.043   4.891   1.959
 6778SOL    HW221234   6.037   5.045   1.907
 6779SOL     OW21235   6.593   5.254   6.336
 6779SOL    HW121236   6.513   5.293   6.290
 6779SOL    HW221237   6.604   5.296   6.426
 6780SOL     OW21238   1.377   2.664   1.795
 6780SOL    HW121239   1.402   2.742   1.851
 6780SOL    HW221240   1.425   2.669   1.707
 6781SOL     OW21241   6.635   0.626   4.929
 6781SOL    HW121242   6.726   0.629   4.888
 6781SOL    HW221243   6.633   0.561   5.004
 6782SOL     OW21244   6.983   0.168   3.284
 6782SOL    HW121245   0.015   0.104   3.229
 6782SOL    HW221246   0.016   0.203   3.359
 6783SOL     OW21247   6.302   1.215   5.712
 6783SOL    HW121248   6.259   1.265   5.637
 6783SOL    HW221249   6.345   1.279   5.775
 6784SOL     OW21250   2.660   4.247   0.951
 6784SOL    HW121251   2.717   4.165   0.943
 6784SOL    HW221252   2.688   4.300   1.031
 6785SOL     OW21253   4.967   5.175   3.578
 6785SOL    HW121254   5.047   5.133   3.622
 6785SOL    HW221255   4.965   5.272   3.599
 6786SOL     OW21256   1.518   2.131   0.191
 6786SOL    HW121257   1.464   2.049   0.177
 6786SOL    HW221258   1.457   2.209   0.204
 6787SOL     OW21259   2.115   2.274   1.227
 6787SOL    HW121260   2.186   2.207   1.250
 6787SOL    HW221261   2.092   2.267   1.130
 6788SOL     OW21262   2.090   3.644   1.510
 6788SOL    HW121263   2.112   3.739   1.530
 6788SOL    HW221264   1.997   3.638   1.474
 6789SOL     OW21265   6.802   5.889   3.107
 6789SOL    HW121266   6.711   5.929   3.095
 6789SOL    HW221267   6.855   5.900   3.023
 6790SOL     OW21268   0.983   3.894   1.292
 6790SOL    HW121269   0.966   3.877   1.389
 6790SOL    HW221270   0.900   3.932   1.250
 6791SOL     OW21271   4.186   2.697   1.703
 6791SOL    HW121272   4.165   2.698   1.605
 6791SOL    HW221273   4.190   2.602   1.736
 6792SOL     OW21274   6.482   5.727   5.445
 6792SOL    HW121275   6.478   5.725   5.345
 6792SOL    HW221276   6.419   5.797   5.479
 6793SOL     OW21277   0.724   1.886   0.730
 6793SOL    HW121278   0.664   1.841   0.795
 6793SOL    HW221279   0.674   1.959   0.683
 6794SOL     OW21280   5.150   1.349   6.619
 6794SOL    HW121281   5.176   1.253   6.608
 6794SOL    HW221282   5.083   1.358   6.693
 6795SOL     OW21283   2.495   6.509   1.267
 6795SOL    HW121284   2.554   6.430   1.247
 6795SOL    HW221285   2.552   6.586   1.295
 6796SOL     OW21286   6.407   1.130   1.989
 6796SOL    HW121287   6.327   1.071   1.980
 6796SOL    HW221288   6.489   1.074   1.998
 6797SOL     OW21289   5.490   3.004   1.939
 6797SOL    HW121290   5.412   2.956   1.980
 6797SOL    HW221291   5.469   3.101   1.931
 6798SOL     OW21292   5.116   6.665   2.425
 6798SOL    HW121293   5.040   6.730   2.418
 6798SOL    HW221294   5.103   6.607   2.505
 6799SOL     OW21295   6.405   6.488   0.865
 6799SOL    HW121296   6.450   6.473   0.953
 6799SOL    HW221297   6.311   6.516   0.880
 6800SOL     OW21298   2.189   3.830   1.121
 6800SOL    HW121299   2.095   3.802   1.138
 6800SOL    HW221300   2.192   3.891   1.042
 6801SOL     OW21301   0.717   0.268   2.895
 6801SOL    HW121302   0.676   0.354   2.925
 6801SOL    HW221303   0.669   0.235   2.814
 6802SOL     OW21304   3.208   5.902   0.527
 6802SOL    HW121305   3.162   5.845   0.595
 6802SOL    HW221306   3.296   5.933   0.564
 6803SOL     OW21307   5.068   2.993   5.985
 6803SOL    HW121308   5.099   3.023   6.076
 6803SOL    HW221309   5.031   3.071   5.935
 6804SOL     OW21310   3.450   5.324   4.158
 6804SOL    HW121311   3.517   5.383   4.205
 6804SOL    HW221312   3.497   5.259   4.100
 6805SOL     OW21313   5.923   4.918   6.072
 6805SOL    HW121314   5.938   4.860   5.991
 6805SOL    HW221315   5.965   5.007   6.057
 6806SOL     OW21316   5.920   0.031   3.734
 6806SOL    HW121317   6.009   0.051   3.775
 6806SOL    HW221318   5.932   6.997   3.653
 6807SOL     OW21319   3.072   2.944   0.167
 6807SOL    HW121320   3.138   2.909   0.101
 6807SOL    HW221321   3.096   3.038   0.192
 6808SOL     OW21322   0.668   1.793   5.214
 6808SOL    HW121323   0.587   1.739   5.191
 6808SOL    HW221324   0.749   1.734   5.212
 6809SOL     OW21325   1.299   2.942   1.167
 6809SOL    HW121326   1.209   2.906   1.189
 6809SOL    HW221327   1.366   2.910   1.234
 6810SOL     OW21328   1.812   0.267   1.645
 6810SOL    HW121329   1.909   0.267   1.670
 6810SOL    HW221330   1.802   0.303   1.552
 6811SOL     OW21331   5.099   3.996   0.756
 6811SOL    HW121332   5.116   3.960   0.664
 6811SOL    HW221333   5.027   3.942   0.800
 6812SOL     OW21334   3.090   3.108   3.226
 6812SOL    HW121335   3.080   3.109   3.326
 6812SOL    HW221336   3.176   3.063   3.202
 6813SOL     OW21337   4.947   2.289   2.943
 6813SOL    HW121338   4.996   2.202   2.936
 6813SOL    HW221339   4.851   2.274   2.920
 6814SOL     OW21340   3.148   1.780   6.245
 6814SOL    HW121341   3.229   1.722   6.246
 6814SOL    HW221342   3.142   1.830   6.331
 6815SOL     OW21343   3.057   6.995   1.778
 6815SOL    HW121344   3.130   7.011   1.845
 6815SOL    HW221345   3.077   0.025   1.695
 6816SOL     OW21346   0.493   0.177   0.048
 6816SOL    HW121347   0.453   0.266   0.066
 6816SOL    HW221348   0.493   0.160   6.972
 6817SOL     OW21349   1.216   2.360   3.844
 6817SOL    HW121350   1.252   2.312   3.764
 6817SOL    HW221351   1.207   2.457   3.823
 6818SOL     OW21352   3.002   5.077   1.833
 6818SOL    HW121353   2.992   5.050   1.737
 6818SOL    HW221354   2.971   5.003   1.892
 6819SOL     OW21355   5.393   0.701   4.276
 6819SOL    HW121356   5.350   0.625   4.324
 6819SOL    HW221357   5.332   0.781   4.278
 6820SOL     OW21358   1.627   5.890   3.104
 6820SOL    HW121359   1.690   5.936   3.167
 6820SOL    HW221360   1.554   5.845   3.156
 6821SOL     OW21361   3.432   1.121   4.677
 6821SOL    HW121362   3.413   1.040   4.622
 6821SOL    HW221363   3.493   1.183   4.627
 6822SOL     OW21364   5.442   2.169   6.767
 6822SOL    HW121365   5.470   2.132   6.855
 6822SOL    HW221366   5.346   2.196   6.771
 6823SOL     OW21367   3.546   3.215   4.536
 6823SOL    HW121368   3.594   3.274   4.471
 6823SOL    HW221369   3.613   3.165   4.591
 6824SOL     OW21370   1.007   2.727   6.704
 6824SOL    HW121371   1.105   2.705   6.709
 6824SOL    HW221372   0.957   2.666   6.766
 6825SOL     OW21373   5.022   6.993   2.215
 6825SOL    HW121374   5.092   0.005   2.153
 6825SOL    HW221375   4.998   0.041   2.281
 6826SOL     OW21376   1.935   4.116   2.308
 6826SOL    HW121377   1.941   4.089   2.212
 6826SOL    HW221378   2.004   4.187   2.326
 6827SOL     OW21379   4.669   5.752   6.441
 6827SOL    HW121380   4.569   5.748   6.446
 6827SOL    HW221381   4.696   5.808   6.363
 6828SOL     OW21382   2.906   2.319   1.551
 6828SOL    HW121383   2.891   2.236   1.498
 6828SOL    HW221384   2.828   2.336   1.611
 6829SOL     OW21385   4.141   6.443   4.183
 6829SOL    HW121386   4.171   6.472   4.092
 6829SOL    HW221387   4.149   6.344   4.191
 6830SOL     OW21388   5.199   1.377   3.919
 6830SOL    HW121389   5.144   1.424   3.851
 6830SOL    HW221390   5.159   1.287   3.939
 6831SOL     OW21391   1.419   0.510   6.450
 6831SOL    HW121392   1.513   0.478   6.459
 6831SOL    HW221393   1.385   0.490   6.358
 6832SOL     OW21394   2.153   4.008   0.863
 6832SOL    HW121395   2.246   4.042   0.878
 6832SOL    HW221396   2.158   3.914   0.828
 6833SOL     OW21397   3.999   3.657   6.054
 6833SOL    HW121398   3.999   3.752   6.023
 6833SOL    HW221399   4.009   3.597   5.975
 6834SOL     OW21400   5.326   6.568   1.137
 6834SOL    HW121401   5.361   6.495   1.078
 6834SOL    HW221402   5.314   6.532   1.230
 6835SOL     OW21403   3.665   0.443   4.427
 6835SOL    HW121404   3.689   0.391   4.509
 6835SOL    HW221405   3.598   0.391   4.374
 6836SOL     OW21406   3.089   5.236   0.225
 6836SOL    HW121407   3.173   5.278   0.261
 6836SOL    HW221408   3.011   5.294   0.248
 6837SOL     OW21409   1.212   1.666   2.441
 6837SOL    HW121410   1.170   1.741   2.491
 6837SOL    HW221411   1.237   1.697   2.349
 6838SOL     OW21412   2.732   6.258   0.705
 6838SOL    HW121413   2.699   6.177   0.655
 6838SOL    HW221414   2.832   6.263   0.698
 6839SOL     OW21415   5.358   0.353   0.017
 6839SOL    HW121416   5.349   0.408   6.956
 6839SOL    HW221417   5.454   0.326   0.028
 6840SOL     OW21418   2.883   1.042   4.995
 6840SOL    HW121419   2.806   1.061   4.934
 6840SOL    HW221420   2.956   0.998   4.942
 6841SOL     OW21421   4.624   4.096   6.326
 6841SOL    HW121422   4.528   4.091   6.296
 6841SOL    HW221423   4.650   4.192   6.337
 6842SOL     OW21424   2.694   4.251   1.338
 6842SOL    HW121425   2.616   4.200   1.374
 6842SOL    HW221426   2.771   4.189   1.324
 6843SOL     OW21427   6.157   6.560   0.929
 6843SOL    HW121428   6.189   6.618   1.003
 6843SOL    HW221429   6.070   6.518   0.954
 6844SOL     OW21430   5.842   0.775   4.401
 6844SOL    HW121431   5.768   0.810   4.459
 6844SOL    HW221432   5.828   0.678   4.383
 6845SOL     OW21433   6.035   3.893   3.234
 6845SOL    HW121434   6.030   3.796   3.257
 6845SOL    HW221435   5.997   3.947   3.310
 6846SOL     OW21436   3.851   3.169   0.169
 6846SOL    HW121437   3.856   3.257   0.122
 6846SOL    HW221438   3.823   3.183   0.264
 6847SOL     OW21439   7.013   3.483   5.075
 6847SOL    HW121440   6.949   3.439   5.138
 6847SOL    HW221441   6.976   3.479   4.982
 6848SOL     OW21442   5.173   4.623   3.444
 6848SOL    HW121443   5.254   4.573   3.411
 6848SOL    HW221444   5.188   4.721   3.432
 6849SOL     OW21445   4.498   3.874   5.569
 6849SOL    HW121446   4.428   3.864   5.639
 6849SOL    HW221447   4.484   3.805   5.498
 6850SOL     OW21448   5.313   2.903   3.038
 6850SOL    HW121449   5.404   2.907   2.996
 6850SOL    HW221450   5.249   2.957   2.983
 6851SOL     OW21451   0.456   2.113   3.153
 6851SOL    HW121452   0.372   2.125   3.099
 6851SOL    HW221453   0.433   2.074   3.242
 6852SOL     OW21454   2.441   4.537   1.232
 6852SOL    HW121455   2.410   4.460   1.288
 6852SOL    HW221456   2.362   4.577   1.184
 6853SOL     OW21457   5.211   4.286   6.589
 6853SOL    HW121458   5.282   4.229   6.629
 6853SOL    HW221459   5.250   4.343   6.517
 6854SOL     OW21460   5.409   0.757   5.948
 6854SOL    HW121461   5.384   0.702   5.868
 6854SOL    HW221462   5.341   0.744   6.019
 6855SOL     OW21463   4.401   5.711   3.650
 6855SOL    HW121464   4.318   5.759   3.620
 6855SOL    HW221465   4.477   5.733   3.589
 6856SOL     OW21466   0.356   2.359   4.950
 6856SOL    HW121467   0.313   2.295   4.886
 6856SOL    HW221468   0.323   2.452   4.931
 6857SOL     OW21469   1.326   2.999   6.511
 6857SOL    HW121470   1.377   3.069   6.461
 6857SOL    HW221471   1.351   3.002   6.608
 6858SOL     OW21472   4.033   4.052   1.761
 6858SOL    HW121473   4.103   4.123   1.762
 6858SOL    HW221474   4.055   3.983   1.829
 6859SOL     OW21475   0.755   1.104   1.290
 6859SOL    HW121476   0.830   1.146   1.240
 6859SOL    HW221477   0.721   1.024   1.241
 6860SOL     OW21478   0.022   4.820   1.209
 6860SOL    HW121479   0.084   4.876   1.263
 6860SOL    HW221480   0.009   4.731   1.254
 6861SOL     OW21481   5.103   3.943   6.659
 6861SOL    HW121482   5.015   3.930   6.614
 6861SOL    HW221483   5.173   3.888   6.612
 6862SOL     OW21484   0.157   5.919   5.688
 6862SOL    HW121485   0.246   5.904   5.730
 6862SOL    HW221486   0.102   5.979   5.746
 6863SOL     OW21487   6.533   6.574   5.824
 6863SOL    HW121488   6.588   6.647   5.785
 6863SOL    HW221489   6.457   6.552   5.763
 6864SOL     OW21490   2.250   4.394   5.292
 6864SOL    HW121491   2.262   4.493   5.280
 6864SOL    HW221492   2.173   4.377   5.353
 6865SOL     OW21493   0.800   6.866   4.829
 6865SOL    HW121494   0.811   6.801   4.904
 6865SOL    HW221495   0.725   6.929   4.849
 6866SOL     OW21496   5.647   5.066   2.859
 6866SOL    HW121497   5.555   5.027   2.859
 6866SOL    HW221498   5.714   4.994   2.876
 6867SOL     OW21499   2.235   3.274   1.740
 6867SOL    HW121500   2.274   3.355   1.784
 6867SOL    HW221501   2.145   3.296   1.703
 6868SOL     OW21502   1.962   6.881   5.429
 6868SOL    HW121503   1.965   6.781   5.435
 6868SOL    HW221504   1.955   6.908   5.333
 6869SOL     OW21505   5.359   0.990   5.822
 6869SOL    HW121506   5.278   1.026   5.867
 6869SOL    HW221507   5.406   0.926   5.883
 6870SOL     OW21508   0.625   4.191   0.972
 6870SOL    HW121509   0.594   4.282   0.944
 6870SOL    HW221510   0.615   4.128   0.894
 6871SOL     OW21511   5.856   4.333   3.271
 6871SOL    HW121512   5.883   4.356   3.365
 6871SOL    HW221513   5.923   4.371   3.208
 6872SOL     OW21514   0.578   2.572   1.687
 6872SOL    HW121515   0.595   2.618   1.774
 6872SOL    HW221516   0.485   2.592   1.656
 6873SOL     OW21517   0.815   3.540   4.056
 6873SOL    HW121518   0.718   3.520   4.041
 6873SOL    HW221519   0.840   3.622   4.004
 6874SOL     OW21520   6.784   5.295   3.468
 6874SOL    HW121521   6.710   5.355   3.499
 6874SOL    HW221522   6.855   5.291   3.538
 6875SOL     OW21523   2.100   1.740   2.180
 6875SOL    HW121524   2.122   1.693   2.095
 6875SOL    HW221525   2.001   1.744   2.191
 6876SOL     OW21526   3.899   6.576   3.665
 6876SOL    HW121527   3.908   6.675   3.664
 6876SOL    HW221528   3.845   6.548   3.745
 6877SOL     OW21529   3.150   4.298   1.571
 6877SOL    HW121530   3.173   4.394   1.555
 6877SOL    HW221531   3.060   4.292   1.614
 6878SOL     OW21532   2.670   1.985   3.765
 6878SOL    HW121533   2.603   1.912   3.750
 6878SOL    HW221534   2.634   2.071   3.729
 6879SOL     OW21535   2.293   2.608   6.872
 6879SOL    HW121536   2.210   2.649   6.912
 6879SOL    HW221537   2.268   2.551   6.794
 6880SOL     OW21538   0.929   5.948   5.752
 6880SOL    HW121539   0.943   5.908   5.661
 6880SOL    HW221540   0.855   5.900   5.799
 6881SOL     OW21541   1.288   3.115   1.649
 6881SOL    HW121542   1.224   3.040   1.630
 6881SOL    HW221543   1.367   3.108   1.588
 6882SOL     OW21544   2.807   0.521   0.408
 6882SOL    HW121545   2.837   0.604   0.455
 6882SOL    HW221546   2.875   0.495   0.340
 6883SOL     OW21547   5.345   1.419   0.084
 6883SOL    HW121548   5.314   1.450   0.174
 6883SOL    HW221549   5.438   1.451   0.067
 6884SOL     OW21550   1.034   4.313   2.942
 6884SOL    HW121551   1.128   4.348   2.936
 6884SOL    HW221552   1.036   4.222   2.985
 6885SOL     OW21553   4.545   4.844   3.223
 6885SOL    HW121554   4.551   4.801   3.132
 6885SOL    HW221555   4.633   4.835   3.269
 6886SOL     OW21556   0.105   1.398   4.713
 6886SOL    HW121557   0.172   1.324   4.722
 6886SOL    HW221558   0.151   1.486   4.725
 6887SOL     OW21559   4.735   5.691   6.709
 6887SOL    HW121560   4.834   5.700   6.722
 6887SOL    HW221561   4.714   5.701   6.611
 6888SOL     OW21562   5.123   4.908   6.496
 6888SOL    HW121563   5.047   4.886   6.556
 6888SOL    HW221564   5.134   5.007   6.491
 6889SOL     OW21565   1.769   2.647   5.878
 6889SOL    HW121566   1.702   2.578   5.906
 6889SOL    HW221567   1.858   2.603   5.867
 6890SOL     OW21568   4.061   6.112   1.853
 6890SOL    HW121569   4.026   6.058   1.929
 6890SOL    HW221570   4.071   6.054   1.772
 6891SOL     OW21571   2.102   3.260   1.410
 6891SOL    HW121572   2.185   3.287   1.360
 6891SOL    HW221573   2.082   3.327   1.480
 6892SOL     OW21574   3.896   1.652   4.231
 6892SOL    HW121575   3.991   1.664   4.260
 6892SOL    HW221576   3.894   1.602   4.144
 6893SOL     OW21577   4.850   3.924   6.846
 6893SOL    HW121578   4.905   3.980   6.784
 6893SOL    HW221579   4.780   3.981   6.890
 6894SOL     OW21580   6.382   5.106   1.078
 6894SOL    HW121581   6.363   5.031   1.141
 6894SOL    HW221582   6.350   5.083   0.986
 6895SOL     OW21583   1.922   4.914   1.616
 6895SOL    HW121584   2.022   4.913   1.616
 6895SOL    HW221585   1.888   4.820   1.610
 6896SOL     OW21586   3.232   2.115   3.826
 6896SOL    HW121587   3.191   2.024   3.836
 6896SOL    HW221588   3.301   2.129   3.898
 6897SOL     OW21589   4.851   3.190   5.144
 6897SOL    HW121590   4.850   3.289   5.148
 6897SOL    HW221591   4.888   3.161   5.055
 6898SOL     OW21592   3.659   1.537   1.431
 6898SOL    HW121593   3.669   1.438   1.427
 6898SOL    HW221594   3.584   1.565   1.371
 6899SOL     OW21595   4.588   5.902   2.409
 6899SOL    HW121596   4.504   5.849   2.418
 6899SOL    HW221597   4.571   5.980   2.348
 6900SOL     OW21598   6.694   4.548   4.878
 6900SOL    HW121599   6.697   4.571   4.975
 6900SOL    HW221600   6.653   4.623   4.827
 6901SOL     OW21601   5.707   6.146   6.591
 6901SOL    HW121602   5.640   6.216   6.615
 6901SOL    HW221603   5.797   6.174   6.624
 6902SOL     OW21604   0.075   5.527   5.721
 6902SOL    HW121605   7.018   5.581   5.748
 6902SOL    HW221606   0.154   5.555   5.776
 6903SOL     OW21607   3.211   4.831   5.074
 6903SOL    HW121608   3.265   4.775   5.137
 6903SOL    HW221609   3.183   4.915   5.120
 6904SOL     OW21610   6.371   0.485   5.697
 6904SOL    HW121611   6.460   0.440   5.693
 6904SOL    HW221612   6.361   0.546   5.618
 6905SOL     OW21613   5.186   5.693   6.516
 6905SOL    HW121614   5.103   5.638   6.505
 6905SOL    HW221615   5.238   5.694   6.431
 6906SOL     OW21616   3.906   1.310   3.782
 6906SOL    HW121617   3.921   1.219   3.820
 6906SOL    HW221618   3.856   1.302   3.695
 6907SOL     OW21619   5.873   2.026   1.348
 6907SOL    HW121620   5.783   1.983   1.335
 6907SOL    HW221621   5.915   1.991   1.432
 6908SOL     OW21622   2.118   5.534   6.456
 6908SOL    HW121623   2.050   5.533   6.382
 6908SOL    HW221624   2.184   5.607   6.439
 6909SOL     OW21625   5.120   3.664   0.687
 6909SOL    HW121626   5.194   3.628   0.630
 6909SOL    HW221627   5.159   3.714   0.764
 6910SOL     OW21628   1.214   3.151   2.860
 6910SOL    HW121629   1.244   3.244   2.836
 6910SOL    HW221630   1.192   3.101   2.776
 6911SOL     OW21631   4.147   0.001   4.390
 6911SOL    HW121632   4.090   0.076   4.424
 6911SOL    HW221633   4.112   6.994   4.301
 6912SOL     OW21634   2.587   3.333   6.414
 6912SOL    HW121635   2.523   3.370   6.482
 6912SOL    HW221636   2.624   3.408   6.359
 6913SOL     OW21637   5.295   6.348   4.889
 6913SOL    HW121638   5.323   6.336   4.793
 6913SOL    HW221639   5.253   6.263   4.922
 6914SOL     OW21640   5.501   4.655   3.883
 6914SOL    HW121641   5.580   4.669   3.943
 6914SOL    HW221642   5.513   4.569   3.832
 6915SOL     OW21643   6.829   2.460   1.948
 6915SOL    HW121644   6.895   2.430   2.016
 6915SOL    HW221645   6.751   2.397   1.946
 6916SOL     OW21646   5.761   0.789   0.116
 6916SOL    HW121647   5.690   0.763   0.182
 6916SOL    HW221648   5.829   0.716   0.110
 6917SOL     OW21649   4.225   6.547   1.814
 6917SOL    HW121650   4.141   6.546   1.760
 6917SOL    HW221651   4.254   6.454   1.835
 6918SOL     OW21652   0.004   2.556   3.978
 6918SOL    HW121653   0.094   2.538   3.939
 6918SOL    HW221654   6.956   2.523   3.916
 6919SOL     OW21655   6.511   5.584   4.048
 6919SOL    HW121656   6.592   5.525   4.040
 6919SOL    HW221657   6.474   5.601   3.957
 6920SOL     OW21658   4.538   6.859   4.942
 6920SOL    HW121659   4.558   6.946   4.896
 6920SOL    HW221660   4.440   6.847   4.951
 6921SOL     OW21661   4.485   6.491   3.299
 6921SOL    HW121662   4.435   6.414   3.261
 6921SOL    HW221663   4.452   6.576   3.258
 6922SOL     OW21664   1.532   6.086   5.582
 6922SOL    HW121665   1.605   6.061   5.645
 6922SOL    HW221666   1.552   6.050   5.491
 6923SOL     OW21667   5.378   5.671   2.483
 6923SOL    HW121668   5.384   5.612   2.564
 6923SOL    HW221669   5.466   5.671   2.436
 6924SOL     OW21670   2.805   4.243   6.994
 6924SOL    HW121671   2.713   4.232   6.956
 6924SOL    HW221672   2.872   4.201   6.933
 6925SOL     OW21673   5.197   5.677   4.639
 6925SOL    HW121674   5.140   5.751   4.673
 6925SOL    HW221675   5.193   5.600   4.702
 6926SOL     OW21676   2.496   1.801   0.251
 6926SOL    HW121677   2.397   1.790   0.237
 6926SOL    HW221678   2.527   1.881   0.200
 6927SOL     OW21679   3.678   2.065   6.143
 6927SOL    HW121680   3.700   2.044   6.238
 6927SOL    HW221681   3.582   2.094   6.137
 6928SOL     OW21682   5.661   5.743   0.692
 6928SOL    HW121683   5.571   5.716   0.657
 6928SOL    HW221684   5.656   5.758   0.791
 6929SOL     OW21685   5.231   5.914   2.420
 6929SOL    HW121686   5.285   5.835   2.450
 6929SOL    HW221687   5.142   5.883   2.386
 6930SOL     OW21688   1.464   1.017   1.294
 6930SOL    HW121689   1.370   0.997   1.266
 6930SOL    HW221690   1.478   0.984   1.387
 6931SOL     OW21691   1.564   1.798   2.735
 6931SOL    HW121692   1.476   1.828   2.770
 6931SOL    HW221693   1.570   1.820   2.638
 6932SOL     OW21694   4.909   6.638   0.816
 6932SOL    HW121695   4.963   6.584   0.752
 6932SOL    HW221696   4.970   6.698   0.869
 6933SOL     OW21697   3.193   6.380   5.631
 6933SOL    HW121698   3.282   6.334   5.636
 6933SOL    HW221699   3.192   6.441   5.552
 6934SOL     OW21700   4.458   3.352   6.046
 6934SOL    HW121701   4.361   3.331   6.032
 6934SOL    HW221702   4.468   3.447   6.076
 6935SOL     OW21703   4.217   5.837   2.692
 6935SOL    HW121704   4.230   5.919   2.748
 6935SOL    HW221705   4.150   5.777   2.735
 6936SOL     OW21706   6.035   2.783   4.309
 6936SOL    HW121707   5.966   2.733   4.361
 6936SOL    HW221708   6.052   2.871   4.353
 6937SOL     OW21709   6.340   5.965   0.615
 6937SOL    HW121710   6.316   5.953   0.518
 6937SOL    HW221711   6.318   6.058   0.643
 6938SOL     OW21712   0.117   2.368   4.624
 6938SOL    HW121713   0.159   2.305   4.689
 6938SOL    HW221714   0.115   2.326   4.533
 6939SOL     OW21715   6.997   5.106   2.532
 6939SOL    HW121716   0.042   5.035   2.509
 6939SOL    HW221717   0.022   5.189   2.559
 6940SOL     OW21718   4.372   0.016   0.194
 6940SOL    HW121719   4.332   6.977   0.127
 6940SOL    HW221720   4.379   0.108   0.154
 6941SOL     OW21721   3.014   3.776   2.079
 6941SOL    HW121722   3.009   3.692   2.132
 6941SOL    HW221723   3.079   3.839   2.121
 6942SOL     OW21724   5.556   6.724   2.512
 6942SOL    HW121725   5.506   6.698   2.594
 6942SOL    HW221726   5.627   6.655   2.493
 6943SOL     OW21727   3.628   5.538   0.942
 6943SOL    HW121728   3.594   5.631   0.923
 6943SOL    HW221729   3.563   5.472   0.905
 6944SOL     OW21730   1.205   5.218   6.097
 6944SOL    HW121731   1.247   5.259   6.016
 6944SOL    HW221732   1.219   5.119   6.094
 6945SOL     OW21733   6.719   1.634   1.726
 6945SOL    HW121734   6.713   1.722   1.773
 6945SOL    HW221735   6.727   1.561   1.794
 6946SOL     OW21736   4.405   6.474   1.606
 6946SOL    HW121737   4.491   6.525   1.608
 6946SOL    HW221738   4.339   6.517   1.668
 6947SOL     OW21739   4.287   5.307   6.315
 6947SOL    HW121740   4.216   5.366   6.354
 6947SOL    HW221741   4.245   5.234   6.262
 6948SOL     OW21742   0.802   6.155   1.078
 6948SOL    HW121743   0.839   6.123   0.991
 6948SOL    HW221744   0.788   6.077   1.139
 6949SOL     OW21745   2.439   1.019   3.258
 6949SOL    HW121746   2.381   1.028   3.339
 6949SOL    HW221747   2.435   0.925   3.224
 6950SOL     OW21748   1.572   0.824   4.702
 6950SOL    HW121749   1.562   0.740   4.756
 6950SOL    HW221750   1.483   0.871   4.699
 6951SOL     OW21751   0.568   5.995   6.255
 6951SOL    HW121752   0.512   5.969   6.176
 6951SOL    HW221753   0.652   6.040   6.223
 6952SOL     OW21754   1.211   5.166   3.058
 6952SOL    HW121755   1.310   5.183   3.058
 6952SOL    HW221756   1.185   5.117   2.975
 6953SOL     OW21757   5.495   6.887   0.751
 6953SOL    HW121758   5.491   6.954   0.826
 6953SOL    HW221759   5.422   6.820   0.764
 6954SOL     OW21760   0.972   4.379   1.387
 6954SOL    HW121761   0.963   4.344   1.480
 6954SOL    HW221762   0.924   4.466   1.379
 6955SOL     OW21763   4.677   0.751   2.928
 6955SOL    HW121764   4.748   0.733   2.997
 6955SOL    HW221765   4.649   0.846   2.934
 6956SOL     OW21766   4.929   5.946   3.398
 6956SOL    HW121767   4.837   5.954   3.359
 6956SOL    HW221768   4.979   6.031   3.384
 6957SOL     OW21769   5.723   5.826   0.107
 6957SOL    HW121770   5.688   5.732   0.107
 6957SOL    HW221771   5.823   5.824   0.114
 6958SOL     OW21772   3.988   3.452   4.562
 6958SOL    HW121773   3.953   3.403   4.643
 6958SOL    HW221774   3.999   3.549   4.584
 6959SOL     OW21775   1.988   4.207   3.063
 6959SOL    HW121776   2.086   4.202   3.083
 6959SOL    HW221777   1.974   4.257   2.978
 6960SOL     OW21778   1.727   4.175   0.764
 6960SOL    HW121779   1.673   4.169   0.680
 6960SOL    HW221780   1.820   4.203   0.741
 6961SOL     OW21781   6.143   1.433   4.988
 6961SOL    HW121782   6.068   1.391   4.936
 6961SOL    HW221783   6.111   1.457   5.079
 6962SOL     OW21784   4.386   5.938   1.115
 6962SOL    HW121785   4.369   5.862   1.052
 6962SOL    HW221786   4.474   5.980   1.093
 6963SOL     OW21787   5.448   5.241   0.841
 6963SOL    HW121788   5.452   5.216   0.938
 6963SOL    HW221789   5.380   5.184   0.795
 6964SOL     OW21790   3.468   0.716   6.432
 6964SOL    HW121791   3.379   0.742   6.470
 6964SOL    HW221792   3.505   0.640   6.485
 6965SOL     OW21793   2.038   1.735   6.364
 6965SOL    HW121794   2.043   1.652   6.420
 6965SOL    HW221795   2.118   1.738   6.303
 6966SOL     OW21796   0.206   0.659   2.730
 6966SOL    HW121797   0.158   0.720   2.793
 6966SOL    HW221798   0.299   0.643   2.763
 6967SOL     OW21799   3.359   1.224   5.385
 6967SOL    HW121800   3.360   1.238   5.484
 6967SOL    HW221801   3.315   1.302   5.340
 6968SOL     OW21802   2.646   1.331   3.877
 6968SOL    HW121803   2.556   1.376   3.881
 6968SOL    HW221804   2.688   1.347   3.788
 6969SOL     OW21805   2.951   2.531   1.280
 6969SOL    HW121806   2.911   2.562   1.367
 6969SOL    HW221807   2.879   2.523   1.211
 6970SOL     OW21808   4.112   3.697   4.951
 6970SOL    HW121809   4.103   3.773   5.016
 6970SOL    HW221810   4.141   3.615   4.999
 6971SOL     OW21811   6.064   4.500   1.160
 6971SOL    HW121812   6.148   4.456   1.190
 6971SOL    HW221813   6.075   4.533   1.066
 6972SOL     OW21814   5.304   4.122   2.419
 6972SOL    HW121815   5.226   4.061   2.404
 6972SOL    HW221816   5.273   4.207   2.460
 6973SOL     OW21817   0.626   2.527   3.616
 6973SOL    HW121818   0.574   2.490   3.539
 6973SOL    HW221819   0.631   2.459   3.688
 6974SOL     OW21820   3.035   3.971   2.781
 6974SOL    HW121821   3.009   3.906   2.853
 6974SOL    HW221822   2.958   3.983   2.718
 6975SOL     OW21823   1.657   6.730   4.562
 6975SOL    HW121824   1.738   6.685   4.600
 6975SOL    HW221825   1.628   6.682   4.479
 6976SOL     OW21826   6.388   4.430   5.871
 6976SOL    HW121827   6.377   4.516   5.920
 6976SOL    HW221828   6.373   4.445   5.773
 6977SOL     OW21829   3.422   3.484   1.132
 6977SOL    HW121830   3.520   3.492   1.153
 6977SOL    HW221831   3.408   3.410   1.067
 6978SOL     OW21832   5.498   2.476   1.772
 6978SOL    HW121833   5.408   2.444   1.802
 6978SOL    HW221834   5.486   2.560   1.719
 6979SOL     OW21835   0.986   3.559   1.257
 6979SOL    HW121836   0.962   3.656   1.268
 6979SOL    HW221837   0.971   3.511   1.343
 6980SOL     OW21838   2.286   1.046   3.506
 6980SOL    HW121839   2.306   1.142   3.527
 6980SOL    HW221840   2.199   1.040   3.457
 6981SOL     OW21841   3.698   3.054   5.690
 6981SOL    HW121842   3.704   3.122   5.617
 6981SOL    HW221843   3.788   3.040   5.730
 6982SOL     OW21844   1.096   0.952   4.308
 6982SOL    HW121845   1.043   0.990   4.232
 6982SOL    HW221846   1.038   0.891   4.362
 6983SOL     OW21847   4.978   1.458   4.842
 6983SOL    HW121848   4.950   1.485   4.750
 6983SOL    HW221849   5.016   1.537   4.890
 6984SOL     OW21850   2.131   1.884   2.669
 6984SOL    HW121851   2.195   1.814   2.700
 6984SOL    HW221852   2.038   1.850   2.679
 6985SOL     OW21853   6.445   5.226   0.688
 6985SOL    HW121854   6.446   5.203   0.590
 6985SOL    HW221855   6.409   5.319   0.700
 6986SOL     OW21856   3.598   6.538   6.785
 6986SOL    HW121857   3.498   6.543   6.782
 6986SOL    HW221858   3.626   6.462   6.842
 6987SOL     OW21859   6.546   1.071   6.281
 6987SOL    HW121860   6.502   1.078   6.192
 6987SOL    HW221861   6.507   1.139   6.343
 6988SOL     OW21862   1.584   6.861   5.851
 6988SOL    HW121863   1.499   6.904   5.818
 6988SOL    HW221864   1.563   6.771   5.889
 6989SOL     OW21865   0.003   4.739   2.931
 6989SOL    HW121866   6.936   4.742   2.975
 6989SOL    HW221867   0.054   4.661   2.967
 6990SOL     OW21868   4.041   2.878   1.190
 6990SOL    HW121869   4.042   2.972   1.223
 6990SOL    HW221870   4.111   2.866   1.120
 6991SOL     OW21871   5.100   4.027   3.395
 6991SOL    HW121872   5.016   3.975   3.413
 6991SOL    HW221873   5.078   4.124   3.386
 6992SOL     OW21874   6.427   6.523   6.533
 6992SOL    HW121875   6.366   6.601   6.526
 6992SOL    HW221876   6.416   6.465   6.452
 6993SOL     OW21877   6.102   0.708   1.772
 6993SOL    HW121878   6.044   0.784   1.744
 6993SOL    HW221879   6.195   0.741   1.787
 6994SOL     OW21880   1.052   1.803   4.219
 6994SOL    HW121881   0.971   1.794   4.162
 6994SOL    HW221882   1.065   1.898   4.245
 6995SOL     OW21883   6.867   3.742   6.644
 6995SOL    HW121884   6.869   3.748   6.544
 6995SOL    HW221885   6.956   3.710   6.677
 6996SOL     OW21886   1.614   0.591   0.121
 6996SOL    HW121887   1.561   0.625   0.043
 6996SOL    HW221888   1.646   0.499   0.101
 6997SOL     OW21889   0.392   4.999   5.089
 6997SOL    HW121890   0.420   4.980   5.183
 6997SOL    HW221891   0.399   4.915   5.035
 6998SOL     OW21892   1.707   1.760   1.071
 6998SOL    HW121893   1.750   1.679   1.112
 6998SOL    HW221894   1.730   1.841   1.124
 6999SOL     OW21895   2.107   2.624   6.233
 6999SOL    HW121896   2.056   2.649   6.314
 6999SOL    HW221897   2.148   2.534   6.246
 7000SOL     OW21898   6.004   0.655   2.775
 7000SOL    HW121899   6.053   0.701   2.701
 7000SOL    HW221900   6.054   0.572   2.801
 7001SOL     OW21901   0.973   2.454   5.216
 7001SOL    HW121902   0.913   2.381   5.183
 7001SOL    HW221903   1.007   2.506   5.138
 7002SOL     OW21904   2.054   4.764   3.915
 7002SOL    HW121905   2.078   4.836   3.979
 7002SOL    HW221906   2.066   4.797   3.821
 7003SOL     OW21907   4.734   6.143   1.589
 7003SOL    HW121908   4.660   6.086   1.554
 7003SOL    HW221909   4.774   6.196   1.515
 7004SOL     OW21910   0.573   6.340   0.704
 7004SOL    HW121911   0.497   6.357   0.640
 7004SOL    HW221912   0.641   6.283   0.659
 7005SOL     OW21913   1.042   1.183   0.641
 7005SOL    HW121914   1.140   1.192   0.660
 7005SOL    HW221915   0.991   1.248   0.698
 7006SOL     OW21916   5.633   5.918   3.590
 7006SOL    HW121917   5.600   5.837   3.543
 7006SOL    HW221918   5.561   5.954   3.649
 7007SOL     OW21919   4.081   0.678   4.542
 7007SOL    HW121920   4.039   0.643   4.626
 7007SOL    HW221921   4.122   0.767   4.561
 7008SOL     OW21922   0.469   4.317   4.456
 7008SOL    HW121923   0.509   4.370   4.382
 7008SOL    HW221924   0.501   4.222   4.451
 7009SOL     OW21925   3.801   6.730   2.266
 7009SOL    HW121926   3.750   6.644   2.270
 7009SOL    HW221927   3.767   6.792   2.337
 7010SOL     OW21928   5.601   4.417   3.764
 7010SOL    HW121929   5.566   4.371   3.683
 7010SOL    HW221930   5.655   4.497   3.737
 7011SOL     OW21931   3.813   6.714   0.410
 7011SOL    HW121932   3.773   6.701   0.320
 7011SOL    HW221933   3.741   6.710   0.479
 7012SOL     OW21934   0.677   1.867   1.101
 7012SOL    HW121935   0.713   1.935   1.163
 7012SOL    HW221936   0.702   1.775   1.132
 7013SOL     OW21937   1.547   0.048   6.603
 7013SOL    HW121938   1.615   0.030   6.532
 7013SOL    HW221939   1.545   0.146   6.623
 7014SOL     OW21940   5.536   3.340   0.433
 7014SOL    HW121941   5.526   3.365   0.529
 7014SOL    HW221942   5.474   3.265   0.411
 7015SOL     OW21943   5.624   4.636   1.707
 7015SOL    HW121944   5.624   4.536   1.702
 7015SOL    HW221945   5.536   4.671   1.676
 7016SOL     OW21946   3.947   4.986   1.372
 7016SOL    HW121947   3.987   4.940   1.293
 7016SOL    HW221948   3.966   5.084   1.366
 7017SOL     OW21949   3.241   5.264   3.157
 7017SOL    HW121950   3.325   5.297   3.114
 7017SOL    HW221951   3.211   5.180   3.110
 7018SOL     OW21952   5.072   3.962   4.530
 7018SOL    HW121953   5.099   4.047   4.485
 7018SOL    HW221954   4.972   3.958   4.536
 7019SOL     OW21955   4.143   4.723   1.352
 7019SOL    HW121956   4.078   4.664   1.399
 7019SOL    HW221957   4.094   4.781   1.286
 7020SOL     OW21958   0.257   3.933   5.716
 7020SOL    HW121959   0.257   3.962   5.812
 7020SOL    HW221960   0.194   3.990   5.664
 7021SOL     OW21961   1.870   3.147   3.853
 7021SOL    HW121962   1.948   3.174   3.797
 7021SOL    HW221963   1.902   3.116   3.943
 7022SOL     OW21964   5.033   0.292   0.295
 7022SOL    HW121965   5.085   0.223   0.245
 7022SOL    HW221966   4.958   0.324   0.238
 7023SOL     OW21967   0.277   2.882   1.537
 7023SOL    HW121968   0.289   2.875   1.636
 7023SOL    HW221969   0.184   2.854   1.512
 7024SOL     OW21970   3.863   3.736   4.323
 7024SOL    HW121971   3.802   3.724   4.245
 7024SOL    HW221972   3.950   3.690   4.305
 7025SOL     OW21973   3.726   1.300   1.263
 7025SOL    HW121974   3.747   1.203   1.250
 7025SOL    HW221975   3.802   1.355   1.227
 7026SOL     OW21976   3.568   1.998   2.229
 7026SOL    HW121977   3.613   2.057   2.163
 7026SOL    HW221978   3.586   1.902   2.207
 7027SOL     OW21979   2.410   5.748   3.721
 7027SOL    HW121980   2.363   5.812   3.782
 7027SOL    HW221981   2.344   5.700   3.665
 7028SOL     OW21982   3.981   0.431   4.070
 7028SOL    HW121983   3.952   0.443   4.165
 7028SOL    HW221984   3.947   0.506   4.015
 7029SOL     OW21985   4.803   3.419   5.637
 7029SOL    HW121986   4.807   3.327   5.598
 7029SOL    HW221987   4.713   3.434   5.678
 7030SOL     OW21988   0.790   1.182   4.346
 7030SOL    HW121989   0.874   1.224   4.381
 7030SOL    HW221990   0.760   1.111   4.410
 7031SOL     OW21991   4.051   5.993   0.245
 7031SOL    HW121992   4.141   5.957   0.223
 7031SOL    HW221993   4.054   6.093   0.244
 7032SOL     OW21994   4.014   1.362   3.464
 7032SOL    HW121995   3.954   1.283   3.472
 7032SOL    HW221996   4.103   1.342   3.506
 7033SOL     OW21997   1.394   2.968   3.001
 7033SOL    HW121998   1.381   3.010   3.091
 7033SOL    HW221999   1.364   3.032   2.930
 7034SOL     OW22000   7.017   1.972   3.129
 7034SOL    HW122001   6.963   2.032   3.069
 7034SOL    HW222002   6.969   1.885   3.142
 7035SOL     OW22003   1.753   0.210   0.533
 7035SOL    HW122004   1.752   0.183   0.437
 7035SOL    HW222005   1.660   0.209   0.569
 7036SOL     OW22006   6.724   1.957   2.317
 7036SOL    HW122007   6.782   1.958   2.235
 7036SOL    HW222008   6.702   1.862   2.341
 7037SOL     OW22009   0.426   1.201   6.286
 7037SOL    HW122010   0.338   1.182   6.330
 7037SOL    HW222011   0.453   1.295   6.306
 7038SOL     OW22012   2.536   4.560   5.086
 7038SOL    HW122013   2.482   4.573   5.003
 7038SOL    HW222014   2.632   4.580   5.068
 7039SOL     OW22015   0.210   6.186   3.908
 7039SOL    HW122016   0.226   6.174   4.006
 7039SOL    HW222017   0.112   6.197   3.891
 7040SOL     OW22018   4.932   2.520   5.972
 7040SOL    HW122019   4.928   2.618   5.990
 7040SOL    HW222020   4.962   2.472   6.055
 7041SOL     OW22021   0.279   1.788   2.968
 7041SOL    HW122022   0.208   1.769   3.035
 7041SOL    HW222023   0.369   1.782   3.012
 7042SOL     OW22024   4.103   6.127   4.193
 7042SOL    HW122025   4.009   6.134   4.161
 7042SOL    HW222026   4.140   6.038   4.168
 7043SOL     OW22027   2.912   5.081   3.445
 7043SOL    HW122028   3.005   5.117   3.442
 7043SOL    HW222029   2.852   5.140   3.391
 7044SOL     OW22030   4.736   6.337   4.894
 7044SOL    HW122031   4.821   6.354   4.943
 7044SOL    HW222032   4.721   6.239   4.885
 7045SOL     OW22033   5.420   5.799   2.179
 7045SOL    HW122034   5.401   5.727   2.113
 7045SOL    HW222035   5.496   5.771   2.238
 7046SOL     OW22036   3.188   1.584   3.875
 7046SOL    HW122037   3.274   1.627   3.902
 7046SOL    HW222038   3.199   1.485   3.875
 7047SOL     OW22039   0.020   1.200   1.913
 7047SOL    HW122040   6.970   1.133   1.926
 7047SOL    HW222041   0.015   1.239   1.821
 7048SOL     OW22042   5.812   6.262   4.718
 7048SOL    HW122043   5.767   6.179   4.686
 7048SOL    HW222044   5.751   6.310   4.781
 7049SOL     OW22045   3.456   1.799   1.942
 7049SOL    HW122046   3.518   1.781   2.019
 7049SOL    HW222047   3.388   1.866   1.970
 7050SOL     OW22048   4.167   3.978   1.279
 7050SOL    HW122049   4.226   4.051   1.314
 7050SOL    HW222050   4.096   3.958   1.346
 7051SOL     OW22051   6.911   6.393   1.329
 7051SOL    HW122052   6.970   6.472   1.314
 7051SOL    HW222053   6.870   6.364   1.243
 7052SOL     OW22054   5.988   0.675   3.952
 7052SOL    HW122055   6.027   0.716   4.035
 7052SOL    HW222056   5.901   0.720   3.930
 7053SOL     OW22057   1.648   4.023   4.375
 7053SOL    HW122058   1.610   4.114   4.391
 7053SOL    HW222059   1.731   4.030   4.320
 7054SOL     OW22060   0.119   6.681   1.666
 7054SOL    HW122061   0.156   6.752   1.607
 7054SOL    HW222062   0.126   6.709   1.761
 7055SOL     OW22063   2.980   0.094   6.994
 7055SOL    HW122064   2.897   0.093   6.938
 7055SOL    HW222065   2.963   0.144   0.056
 7056SOL     OW22066   0.008   5.400   1.137
 7056SOL    HW122067   6.987   5.315   1.110
 7056SOL    HW222068   0.056   5.440   1.058
 7057SOL     OW22069   2.830   5.754   3.800
 7057SOL    HW122070   2.814   5.756   3.898
 7057SOL    HW222071   2.878   5.670   3.775
 7058SOL     OW22072   5.047   1.766   6.466
 7058SOL    HW122073   5.088   1.855   6.445
 7058SOL    HW222074   5.107   1.715   6.527
 7059SOL     OW22075   1.647   1.122   4.091
 7059SOL    HW122076   1.732   1.146   4.044
 7059SOL    HW222077   1.574   1.109   4.024
 7060SOL     OW22078   3.940   6.658   1.098
 7060SOL    HW122079   3.916   6.754   1.083
 7060SOL    HW222080   3.999   6.626   1.023
 7061SOL     OW22081   0.374   2.827   3.162
 7061SOL    HW122082   0.385   2.747   3.103
 7061SOL    HW222083   0.438   2.820   3.239
 7062SOL     OW22084   4.089   2.068   5.231
 7062SOL    HW122085   4.141   1.991   5.267
 7062SOL    HW222086   3.991   2.046   5.231
 7063SOL     OW22087   1.339   0.393   1.863
 7063SOL    HW122088   1.362   0.315   1.804
 7063SOL    HW222089   1.300   0.360   1.949
 7064SOL     OW22090   4.267   1.604   6.443
 7064SOL    HW122091   4.218   1.632   6.360
 7064SOL    HW222092   4.276   1.683   6.504
 7065SOL     OW22093   3.595   4.318   5.371
 7065SOL    HW122094   3.610   4.412   5.340
 7065SOL    HW222095   3.505   4.287   5.342
 7066SOL     OW22096   4.474   0.231   5.707
 7066SOL    HW122097   4.460   0.329   5.713
 7066SOL    HW222098   4.505   0.207   5.615
 7067SOL     OW22099   1.308   3.304   6.266
 7067SOL    HW122100   1.263   3.342   6.346
 7067SOL    HW222101   1.377   3.238   6.294
 7068SOL     OW22102   5.555   4.207   4.537
 7068SOL    HW122103   5.619   4.234   4.465
 7068SOL    HW222104   5.475   4.163   4.495
 7069SOL     OW22105   5.714   1.818   5.595
 7069SOL    HW122106   5.775   1.762   5.540
 7069SOL    HW222107   5.768   1.882   5.650
 7070SOL     OW22108   1.222   6.289   4.308
 7070SOL    HW122109   1.162   6.341   4.368
 7070SOL    HW222110   1.184   6.198   4.293
 7071SOL     OW22111   4.899   5.933   6.601
 7071SOL    HW122112   4.943   5.962   6.686
 7071SOL    HW222113   4.821   5.993   6.581
 7072SOL     OW22114   2.128   4.917   6.786
 7072SOL    HW122115   2.082   5.001   6.814
 7072SOL    HW222116   2.218   4.940   6.747
 7073SOL     OW22117   3.577   0.093   3.086
 7073SOL    HW122118   3.528   0.100   3.174
 7073SOL    HW222119   3.675   0.090   3.104
 7074SOL     OW22120   6.310   3.323   3.158
 7074SOL    HW122121   6.210   3.324   3.156
 7074SOL    HW222122   6.345   3.412   3.128
 7075SOL     OW22123   2.612   5.347   4.722
 7075SOL    HW122124   2.539   5.414   4.733
 7075SOL    HW222125   2.697   5.393   4.696
 7076SOL     OW22126   5.764   2.954   0.808
 7076SOL    HW122127   5.836   2.929   0.874
 7076SOL    HW222128   5.736   2.873   0.757
 7077SOL     OW22129   2.247   4.386   3.135
 7077SOL    HW122130   2.321   4.397   3.201
 7077SOL    HW222131   2.248   4.461   3.070
 7078SOL     OW22132   6.011   6.183   0.975
 7078SOL    HW122133   6.106   6.177   0.945
 7078SOL    HW222134   5.997   6.269   1.024
 7079SOL     OW22135   1.266   6.606   3.946
 7079SOL    HW122136   1.217   6.519   3.935
 7079SOL    HW222137   1.352   6.601   3.896
 7080SOL     OW22138   4.218   2.034   3.868
 7080SOL    HW122139   4.154   2.003   3.938
 7080SOL    HW222140   4.205   1.980   3.785
 7081SOL     OW22141   1.371   6.015   0.533
 7081SOL    HW122142   1.282   6.056   0.515
 7081SOL    HW222143   1.436   6.042   0.462
 7082SOL     OW22144   6.845   4.080   0.655
 7082SOL    HW122145   6.884   4.157   0.705
 7082SOL    HW222146   6.745   4.089   0.653
 7083SOL     OW22147   0.616   1.400   2.544
 7083SOL    HW122148   0.549   1.462   2.502
 7083SOL    HW222149   0.706   1.443   2.544
 7084SOL     OW22150   0.798   5.417   5.657
 7084SOL    HW122151   0.775   5.423   5.560
 7084SOL    HW222152   0.851   5.498   5.683
 7085SOL     OW22153   6.784   2.519   2.781
 7085SOL    HW122154   6.759   2.424   2.764
 7085SOL    HW222155   6.781   2.538   2.879
 7086SOL     OW22156   5.659   0.277   6.771
 7086SOL    HW122157   5.681   0.343   6.843
 7086SOL    HW222158   5.681   0.316   6.682
 7087SOL     OW22159   5.336   3.641   2.244
 7087SOL    HW122160   5.318   3.568   2.179
 7087SOL    HW222161   5.351   3.603   2.335
 7088SOL     OW22162   5.033   2.316   5.596
 7088SOL    HW122163   5.008   2.237   5.652
 7088SOL    HW222164   4.977   2.395   5.623
 7089SOL     OW22165   2.360   4.737   2.784
 7089SOL    HW122166   2.446   4.694   2.756
 7089SOL    HW222167   2.368   4.771   2.878
 7090SOL     OW22168   2.963   1.689   0.676
 7090SOL    HW122169   2.942   1.659   0.583
 7090SOL    HW222170   2.880   1.726   0.718
 7091SOL     OW22171   0.878   0.730   1.567
 7091SOL    HW122172   0.907   0.757   1.659
 7091SOL    HW222173   0.830   0.643   1.572
 7092SOL     OW22174   3.990   2.976   5.967
 7092SOL    HW122175   3.900   2.982   6.009
 7092SOL    HW222176   3.993   3.034   5.886
 7093SOL     OW22177   3.499   3.461   1.514
 7093SOL    HW122178   3.563   3.510   1.574
 7093SOL    HW222179   3.449   3.393   1.567
 7094SOL     OW22180   1.369   0.212   5.355
 7094SOL    HW122181   1.284   0.264   5.353
 7094SOL    HW222182   1.363   0.141   5.426
 7095SOL     OW22183   3.569   4.910   6.091
 7095SOL    HW122184   3.542   4.940   5.999
 7095SOL    HW222185   3.602   4.816   6.086
 7096SOL     OW22186   6.719   0.509   2.132
 7096SOL    HW122187   6.666   0.585   2.171
 7096SOL    HW222188   6.809   0.542   2.104
 7097SOL     OW22189   4.702   0.753   1.916
 7097SOL    HW122190   4.723   0.788   1.825
 7097SOL    HW222191   4.782   0.764   1.975
 7098SOL     OW22192   1.487   6.502   5.740
 7098SOL    HW122193   1.518   6.500   5.645
 7098SOL    HW222194   1.565   6.517   5.801
 7099SOL     OW22195   3.796   1.732   4.458
 7099SOL    HW122196   3.840   1.681   4.533
 7099SOL    HW222197   3.836   1.703   4.371
 7100SOL     OW22198   6.470   3.053   0.941
 7100SOL    HW122199   6.552   3.008   0.978
 7100SOL    HW222200   6.496   3.141   0.902
 7101SOL     OW22201   2.700   0.252   5.842
 7101SOL    HW122202   2.732   0.184   5.776
 7101SOL    HW222203   2.662   0.205   5.922
 7102SOL     OW22204   5.968   0.324   1.418
 7102SOL    HW122205   5.912   0.260   1.470
 7102SOL    HW222206   5.989   0.404   1.474
 7103SOL     OW22207   5.022   5.482   1.917
 7103SOL    HW122208   5.117   5.510   1.901
 7103SOL    HW222209   5.020   5.392   1.961
 7104SOL     OW22210   5.437   3.871   2.384
 7104SOL    HW122211   5.407   3.822   2.302
 7104SOL    HW222212   5.409   3.966   2.378
 7105SOL     OW22213   3.863   4.058   4.486
 7105SOL    HW122214   3.933   4.094   4.548
 7105SOL    HW222215   3.817   3.981   4.529
 7106SOL     OW22216   3.071   3.029   1.078
 7106SOL    HW122217   3.168   3.019   1.101
 7106SOL    HW222218   3.048   2.967   1.003
 7107SOL     OW22219   3.786   0.240   0.210
 7107SOL    HW122220   3.720   0.198   0.271
 7107SOL    HW222221   3.781   0.197   0.120
 7108SOL     OW22222   2.393   6.306   2.413
 7108SOL    HW122223   2.298   6.326   2.389
 7108SOL    HW222224   2.431   6.241   2.347
 7109SOL     OW22225   1.631   1.085   6.694
 7109SOL    HW122226   1.646   1.003   6.639
 7109SOL    HW222227   1.696   1.156   6.666
 7110SOL     OW22228   3.493   6.064   4.124
 7110SOL    HW122229   3.401   6.024   4.129
 7110SOL    HW222230   3.491   6.144   4.064
 7111SOL     OW22231   1.435   1.867   3.928
 7111SOL    HW122232   1.440   1.816   4.013
 7111SOL    HW222233   1.526   1.871   3.886
 7112SOL     OW22234   2.089   4.102   4.657
 7112SOL    HW122235   2.083   4.077   4.753
 7112SOL    HW222236   2.177   4.147   4.639
 7113SOL     OW22237   3.344   4.656   5.275
 7113SOL    HW122238   3.428   4.606   5.252
 7113SOL    HW222239   3.351   4.692   5.368
 7114SOL     OW22240   4.377   5.579   1.430
 7114SOL    HW122241   4.441   5.653   1.408
 7114SOL    HW222242   4.340   5.541   1.345
 7115SOL     OW22243   5.726   3.701   6.842
 7115SOL    HW122244   5.773   3.736   6.923
 7115SOL    HW222245   5.783   3.632   6.798
 7116SOL     OW22246   5.789   4.020   3.170
 7116SOL    HW122247   5.771   3.970   3.255
 7116SOL    HW222248   5.887   4.018   3.150
 7117SOL     OW22249   6.977   6.921   4.412
 7117SOL    HW122250   6.938   6.930   4.504
 7117SOL    HW222251   0.033   6.860   4.415
 7118SOL     OW22252   3.765   4.243   5.786
 7118SOL    HW122253   3.694   4.181   5.752
 7118SOL    HW222254   3.788   4.310   5.715
 7119SOL     OW22255   4.979   1.071   4.966
 7119SOL    HW122256   5.051   1.003   4.981
 7119SOL    HW222257   4.935   1.054   4.878
 7120SOL     OW22258   4.577   1.741   1.552
 7120SOL    HW122259   4.543   1.688   1.629
 7120SOL    HW222260   4.660   1.790   1.579
 7121SOL     OW22261   0.119   6.430   2.975
 7121SOL    HW122262   0.149   6.372   2.899
 7121SOL    HW222263   0.081   6.373   3.047
 7122SOL     OW22264   1.412   0.309   5.810
 7122SOL    HW122265   1.468   0.303   5.728
 7122SOL    HW222266   1.342   0.379   5.798
 7123SOL     OW22267   6.887   5.077   4.006
 7123SOL    HW122268   6.966   5.047   3.952
 7123SOL    HW222269   6.918   5.141   4.077
 7124SOL     OW22270   0.552   2.114   1.464
 7124SOL    HW122271   0.480   2.133   1.531
 7124SOL    HW222272   0.596   2.027   1.488
 7125SOL     OW22273   1.551   1.578   1.340
 7125SOL    HW122274   1.506   1.497   1.303
 7125SOL    HW222275   1.650   1.569   1.329
 7126SOL     OW22276   4.110   5.832   0.769
 7126SOL    HW122277   4.145   5.924   0.788
 7126SOL    HW222278   4.042   5.807   0.838
 7127SOL     OW22279   2.733   6.154   6.037
 7127SOL    HW122280   2.791   6.104   5.974
 7127SOL    HW222281   2.661   6.201   5.987
 7128SOL     OW22282   3.745   3.565   6.724
 7128SOL    HW122283   3.742   3.628   6.802
 7128SOL    HW222284   3.838   3.562   6.687
 7129SOL     OW22285   1.218   1.381   1.197
 7129SOL    HW122286   1.224   1.359   1.294
 7129SOL    HW222287   1.308   1.405   1.162
 7130SOL     OW22288   3.697   7.019   4.334
 7130SOL    HW122289   3.625   6.967   4.380
 7130SOL    HW222290   3.727   6.969   4.252
 7131SOL     OW22291   3.305   1.428   1.560
 7131SOL    HW122292   3.313   1.483   1.477
 7131SOL    HW222293   3.212   1.435   1.596
 7132SOL     OW22294   5.151   4.420   0.141
 7132SOL    HW122295   5.204   4.354   0.194
 7132SOL    HW222296   5.195   4.510   0.149
 7133SOL     OW22297   4.334   5.043   4.246
 7133SOL    HW122298   4.361   5.119   4.188
 7133SOL    HW222299   4.411   4.980   4.257
 7134SOL     OW22300   5.453   6.596   1.884
 7134SOL    HW122301   5.394   6.611   1.805
 7134SOL    HW222302   5.434   6.508   1.926
 7135SOL     OW22303   2.143   3.124   2.275
 7135SOL    HW122304   2.221   3.072   2.311
 7135SOL    HW222305   2.105   3.182   2.346
 7136SOL     OW22306   2.341   1.752   1.037
 7136SOL    HW122307   2.264   1.767   0.975
 7136SOL    HW222308   2.310   1.761   1.131
 7137SOL     OW22309   3.190   1.560   0.693
 7137SOL    HW122310   3.204   1.476   0.745
 7137SOL    HW222311   3.096   1.592   0.705
 7138SOL     OW22312   2.143   1.095   0.797
 7138SOL    HW122313   2.079   1.029   0.757
 7138SOL    HW222314   2.196   1.138   0.724
 7139SOL     OW22315   4.920   4.883   1.845
 7139SOL    HW122316   4.996   4.819   1.854
 7139SOL    HW222317   4.839   4.845   1.891
 7140SOL     OW22318   5.699   4.697   0.988
 7140SOL    HW122319   5.733   4.721   0.897
 7140SOL    HW222320   5.766   4.725   1.057
 7141SOL     OW22321   4.448   6.904   1.225
 7141SOL    HW122322   4.508   6.911   1.145
 7141SOL    HW222323   4.473   6.974   1.292
 7142SOL     OW22324   3.419   0.119   4.019
 7142SOL    HW122325   3.376   0.030   4.004
 7142SOL    HW222326   3.494   0.131   3.955
 7143SOL     OW22327   1.351   3.933   6.650
 7143SOL    HW122328   1.286   3.863   6.621
 7143SOL    HW222329   1.339   3.950   6.748
 7144SOL     OW22330   0.568   1.096   3.781
 7144SOL    HW122331   0.521   1.111   3.694
 7144SOL    HW222332   0.507   1.049   3.844
 7145SOL     OW22333   4.478   0.809   6.742
 7145SOL    HW122334   4.517   0.901   6.739
 7145SOL    HW222335   4.391   0.809   6.693
 7146SOL     OW22336   1.647   1.816   6.253
 7146SOL    HW122337   1.616   1.725   6.279
 7146SOL    HW222338   1.658   1.873   6.334
 7147SOL     OW22339   6.001   5.911   3.234
 7147SOL    HW122340   5.968   5.825   3.194
 7147SOL    HW222341   5.977   5.914   3.331
 7148SOL     OW22342   5.882   5.835   1.256
 7148SOL    HW122343   5.916   5.746   1.286
 7148SOL    HW222344   5.882   5.840   1.156
 7149SOL     OW22345   0.191   4.884   3.545
 7149SOL    HW122346   0.138   4.813   3.591
 7149SOL    HW222347   0.155   4.899   3.453
 7150SOL     OW22348   4.220   3.322   0.236
 7150SOL    HW122349   4.221   3.273   0.148
 7150SOL    HW222350   4.162   3.403   0.229
 7151SOL     OW22351   3.395   6.377   0.808
 7151SOL    HW122352   3.315   6.414   0.760
 7151SOL    HW222353   3.382   6.279   0.823
 7152SOL     OW22354   6.075   0.811   6.554
 7152SOL    HW122355   6.041   0.739   6.492
 7152SOL    HW222356   6.120   0.882   6.500
 7153SOL     OW22357   3.604   5.069   2.345
 7153SOL    HW122358   3.677   5.016   2.302
 7153SOL    HW222359   3.590   5.154   2.295
 7154SOL     OW22360   4.063   0.969   3.015
 7154SOL    HW122361   4.069   0.900   3.087
 7154SOL    HW222362   4.097   1.057   3.051
 7155SOL     OW22363   2.721   2.373   0.918
 7155SOL    HW122364   2.732   2.425   1.003
 7155SOL    HW222365   2.802   2.386   0.861
 7156SOL     OW22366   4.895   3.759   2.762
 7156SOL    HW122367   4.949   3.839   2.736
 7156SOL    HW222368   4.858   3.772   2.853
 7157SOL     OW22369   6.529   4.578   1.019
 7157SOL    HW122370   6.468   4.542   1.090
 7157SOL    HW222371   6.563   4.502   0.963
 7158SOL     OW22372   6.672   0.135   3.583
 7158SOL    HW122373   6.589   0.163   3.630
 7158SOL    HW222374   6.751   0.154   3.642
 7159SOL     OW22375   0.743   4.775   4.371
 7159SOL    HW122376   0.644   4.778   4.386
 7159SOL    HW222377   0.763   4.805   4.277
 7160SOL     OW22378   5.989   6.567   2.702
 7160SOL    HW122379   6.043   6.530   2.778
 7160SOL    HW222380   6.002   6.666   2.698
 7161SOL     OW22381   3.694   4.044   3.006
 7161SOL    HW122382   3.666   3.955   3.043
 7161SOL    HW222383   3.791   4.058   3.022
 7162SOL     OW22384   0.289   5.002   0.208
 7162SOL    HW122385   0.228   5.042   0.276
 7162SOL    HW222386   0.258   4.909   0.186
 7163SOL     OW22387   1.845   0.732   2.594
 7163SOL    HW122388   1.787   0.681   2.530
 7163SOL    HW222389   1.921   0.674   2.623
 7164SOL     OW22390   2.080   1.163   4.635
 7164SOL    HW122391   2.037   1.077   4.666
 7164SOL    HW222392   2.177   1.147   4.617
 7165SOL     OW22393   6.167   5.883   1.583
 7165SOL    HW122394   6.068   5.890   1.571
 7165SOL    HW222395   6.195   5.937   1.663
 7166SOL     OW22396   5.676   0.421   6.528
 7166SOL    HW122397   5.767   0.451   6.557
 7166SOL    HW222398   5.634   0.493   6.473
 7167SOL     OW22399   5.188   1.826   5.674
 7167SOL    HW122400   5.153   1.813   5.581
 7167SOL    HW222401   5.199   1.736   5.718
 7168SOL     OW22402   3.208   1.504   2.722
 7168SOL    HW122403   3.175   1.565   2.650
 7168SOL    HW222404   3.130   1.458   2.765
 7169SOL     OW22405   0.759   4.295   4.536
 7169SOL    HW122406   0.707   4.259   4.613
 7169SOL    HW222407   0.732   4.390   4.519
 7170SOL     OW22408   4.061   6.714   2.377
 7170SOL    HW122409   3.973   6.734   2.333
 7170SOL    HW222410   4.122   6.793   2.366
 7171SOL     OW22411   5.880   4.258   1.035
 7171SOL    HW122412   5.892   4.174   1.089
 7171SOL    HW222413   5.803   4.310   1.072
 7172SOL     OW22414   2.068   1.665   5.109
 7172SOL    HW122415   2.041   1.569   5.098
 7172SOL    HW222416   2.103   1.679   5.202
 7173SOL     OW22417   6.556   5.414   6.595
 7173SOL    HW122418   6.553   5.474   6.675
 7173SOL    HW222419   6.487   5.444   6.529
 7174SOL     OW22420   6.879   4.557   0.924
 7174SOL    HW122421   6.791   4.603   0.909
 7174SOL    HW222422   6.954   4.620   0.903
 7175SOL     OW22423   6.426   3.724   5.260
 7175SOL    HW122424   6.392   3.769   5.178
 7175SOL    HW222425   6.463   3.792   5.323
 7176SOL     OW22426   0.578   1.336   4.090
 7176SOL    HW122427   0.642   1.292   4.027
 7176SOL    HW222428   0.498   1.278   4.103
 7177SOL     OW22429   2.058   5.627   5.571
 7177SOL    HW122430   2.008   5.683   5.637
 7177SOL    HW222431   2.080   5.538   5.613
 7178SOL     OW22432   1.164   0.895   6.086
 7178SOL    HW122433   1.210   0.806   6.081
 7178SOL    HW222434   1.170   0.930   6.180
 7179SOL     OW22435   2.346   4.610   4.880
 7179SOL    HW122436   2.269   4.650   4.830
 7179SOL    HW222437   2.313   4.541   4.943
 7180SOL     OW22438   2.588   3.917   1.066
 7180SOL    HW122439   2.580   3.819   1.082
 7180SOL    HW222440   2.669   3.935   1.011
 7181SOL     OW22441   2.200   1.059   5.994
 7181SOL    HW122442   2.229   1.150   5.965
 7181SOL    HW222443   2.103   1.060   6.017
 7182SOL     OW22444   1.070   3.827   3.242
 7182SOL    HW122445   1.139   3.898   3.250
 7182SOL    HW222446   1.054   3.806   3.146
 7183SOL     OW22447   2.007   5.713   2.105
 7183SOL    HW122448   2.020   5.791   2.165
 7183SOL    HW222449   2.038   5.736   2.013
 7184SOL     OW22450   5.814   1.200   3.608
 7184SOL    HW122451   5.719   1.227   3.595
 7184SOL    HW222452   5.825   1.159   3.699
 7185SOL     OW22453   5.617   0.981   5.549
 7185SOL    HW122454   5.591   1.005   5.642
 7185SOL    HW222455   5.704   0.933   5.549
 7186SOL     OW22456   0.413   0.643   0.834
 7186SOL    HW122457   0.463   0.561   0.861
 7186SOL    HW222458   0.413   0.652   0.735
 7187SOL     OW22459   3.027   3.715   5.289
 7187SOL    HW122460   3.006   3.776   5.365
 7187SOL    HW222461   2.947   3.659   5.267
 7188SOL     OW22462   4.508   4.009   0.035
 7188SOL    HW122463   4.585   4.048   7.007
 7188SOL    HW222464   4.533   3.918   0.069
 7189SOL     OW22465   6.198   3.525   5.321
 7189SOL    HW122466   6.190   3.466   5.241
 7189SOL    HW222467   6.237   3.613   5.293
 7190SOL     OW22468   6.009   6.232   1.321
 7190SOL    HW122469   6.043   6.326   1.317
 7190SOL    HW222470   5.924   6.225   1.269
 7191SOL     OW22471   0.323   4.075   3.176
 7191SOL    HW122472   0.310   4.143   3.104
 7191SOL    HW222473   0.418   4.046   3.177
 7192SOL     OW22474   1.757   4.362   5.914
 7192SOL    HW122475   1.723   4.275   5.879
 7192SOL    HW222476   1.754   4.362   6.014
 7193SOL     OW22477   2.574   1.576   2.648
 7193SOL    HW122478   2.598   1.491   2.694
 7193SOL    HW222479   2.633   1.650   2.682
 7194SOL     OW22480   2.048   2.125   6.671
 7194SOL    HW122481   2.146   2.138   6.689
 7194SOL    HW222482   2.016   2.196   6.608
 7195SOL     OW22483   6.010   4.149   6.643
 7195SOL    HW122484   5.921   4.163   6.686
 7195SOL    HW222485   6.081   4.149   6.712
 7196SOL     OW22486   3.225   3.908   2.194
 7196SOL    HW122487   3.232   3.999   2.235
 7196SOL    HW222488   3.307   3.890   2.140
 7197SOL     OW22489   1.250   4.239   5.714
 7197SOL    HW122490   1.279   4.230   5.619
 7197SOL    HW222491   1.279   4.328   5.749
 7198SOL     OW22492   0.556   0.590   0.126
 7198SOL    HW122493   0.621   0.578   0.051
 7198SOL    HW222494   0.522   0.684   0.124
 7199SOL     OW22495   1.033   0.127   2.455
 7199SOL    HW122496   1.083   0.213   2.455
 7199SOL    HW222497   0.978   0.119   2.372
 7200SOL     OW22498   1.985   3.488   0.820
 7200SOL    HW122499   1.909   3.472   0.756
 7200SOL    HW222500   2.052   3.415   0.811
 7201SOL     OW22501   0.413   5.656   4.234
 7201SOL    HW122502   0.324   5.661   4.279
 7201SOL    HW222503   0.477   5.607   4.294
 7202SOL     OW22504   5.263   0.174   5.763
 7202SOL    HW122505   5.237   0.135   5.852
 7202SOL    HW222506   5.331   0.115   5.719
 7203SOL     OW22507   1.347   1.135   1.592
 7203SOL    HW122508   1.412   1.059   1.586
 7203SOL    HW222509   1.395   1.222   1.584
 7204SOL     OW22510   6.387   1.696   6.998
 7204SOL    HW122511   6.293   1.727   7.012
 7204SOL    HW222512   6.413   1.633   0.048
 7205SOL     OW22513   1.130   3.269   4.558
 7205SOL    HW122514   1.091   3.234   4.643
 7205SOL    HW222515   1.226   3.292   4.573
 7206SOL     OW22516   1.197   1.557   1.507
 7206SOL    HW122517   1.282   1.598   1.540
 7206SOL    HW222518   1.169   1.485   1.570
 7207SOL     OW22519   2.791   1.417   3.629
 7207SOL    HW122520   2.809   1.489   3.695
 7207SOL    HW222521   2.877   1.376   3.599
 7208SOL     OW22522   4.710   6.911   4.024
 7208SOL    HW122523   4.625   6.963   4.022
 7208SOL    HW222524   4.788   6.974   4.028
 7209SOL     OW22525   1.939   2.787   2.368
 7209SOL    HW122526   1.989   2.827   2.444
 7209SOL    HW222527   1.841   2.799   2.382
 7210SOL     OW22528   3.895   1.924   3.419
 7210SOL    HW122529   3.941   1.865   3.354
 7210SOL    HW222530   3.934   2.016   3.414
 7211SOL     OW22531   3.255   5.970   5.352
 7211SOL    HW122532   3.347   6.006   5.362
 7211SOL    HW222533   3.204   5.984   5.437
 7212SOL     OW22534   6.846   6.705   6.392
 7212SOL    HW122535   6.904   6.720   6.473
 7212SOL    HW222536   6.774   6.775   6.389
 7213SOL     OW22537   3.785   6.557   6.507
 7213SOL    HW122538   3.784   6.596   6.415
 7213SOL    HW222539   3.797   6.458   6.502
 7214SOL     OW22540   6.956   1.043   5.618
 7214SOL    HW122541   0.017   1.033   5.565
 7214SOL    HW222542   6.979   1.068   5.713
 7215SOL     OW22543   6.324   2.787   4.661
 7215SOL    HW122544   6.385   2.810   4.585
 7215SOL    HW222545   6.373   2.797   4.748
 7216SOL     OW22546   3.161   6.135   2.128
 7216SOL    HW122547   3.102   6.135   2.209
 7216SOL    HW222548   3.105   6.154   2.047
 7217SOL     OW22549   1.446   3.894   3.239
 7217SOL    HW122550   1.474   3.828   3.309
 7217SOL    HW222551   1.392   3.847   3.169
 7218SOL     OW22552   0.193   3.435   3.600
 7218SOL    HW122553   0.217   3.526   3.634
 7218SOL    HW222554   0.258   3.368   3.636
 7219SOL     OW22555   3.336   7.012   1.831
 7219SOL    HW122556   3.422   6.961   1.830
 7219SOL    HW222557   3.349   0.079   1.788
 7220SOL     OW22558   6.504   4.946   3.803
 7220SOL    HW122559   6.448   5.027   3.787
 7220SOL    HW222560   6.471   4.898   3.884
 7221SOL     OW22561   3.255   6.061   4.783
 7221SOL    HW122562   3.278   6.041   4.879
 7221SOL    HW222563   3.336   6.093   4.735
 7222SOL     OW22564   5.375   0.257   3.147
 7222SOL    HW122565   5.420   0.171   3.172
 7222SOL    HW222566   5.438   0.333   3.162
 7223SOL     OW22567   2.778   0.768   0.526
 7223SOL    HW122568   2.729   0.793   0.609
 7223SOL    HW222569   2.854   0.831   0.512
 7224SOL     OW22570   4.877   2.342   4.455
 7224SOL    HW122571   4.895   2.277   4.528
 7224SOL    HW222572   4.791   2.319   4.409
 7225SOL     OW22573   1.993   6.715   0.911
 7225SOL    HW122574   2.026   6.764   0.830
 7225SOL    HW222575   1.955   6.627   0.883
 7226SOL     OW22576   6.063   0.508   1.600
 7226SOL    HW122577   6.086   0.594   1.646
 7226SOL    HW222578   6.081   0.432   1.662
 7227SOL     OW22579   2.723   1.508   1.862
 7227SOL    HW122580   2.752   1.596   1.826
 7227SOL    HW222581   2.697   1.517   1.958
 7228SOL     OW22582   0.985   1.294   3.756
 7228SOL    HW122583   1.033   1.380   3.739
 7228SOL    HW222584   1.052   1.219   3.760
 7229SOL     OW22585   0.066   6.956   4.913
 7229SOL    HW122586   0.051   6.887   4.842
 7229SOL    HW222587   0.134   7.023   4.881
 7230SOL     OW22588   3.048   5.538   3.463
 7230SOL    HW122589   3.123   5.595   3.429
 7230SOL    HW222590   2.997   5.501   3.385
 7231SOL     OW22591   4.023   0.792   0.843
 7231SOL    HW122592   4.069   0.795   0.754
 7231SOL    HW222593   3.925   0.805   0.831
 7232SOL     OW22594   4.658   6.344   2.571
 7232SOL    HW122595   4.646   6.390   2.659
 7232SOL    HW222596   4.576   6.358   2.515
 7233SOL     OW22597   1.191   1.123   4.945
 7233SOL    HW122598   1.237   1.069   4.874
 7233SOL    HW222599   1.122   1.067   4.990
 7234SOL     OW22600   5.475   3.424   3.022
 7234SOL    HW122601   5.387   3.385   3.050
 7234SOL    HW222602   5.465   3.468   2.933
 7235SOL     OW22603   6.175   4.973   1.592
 7235SOL    HW122604   6.212   4.924   1.513
 7235SOL    HW222605   6.098   4.921   1.630
 7236SOL     OW22606   2.130   2.585   2.663
 7236SOL    HW122607   2.156   2.575   2.567
 7236SOL    HW222608   2.086   2.501   2.695
 7237SOL     OW22609   4.124   0.104   6.306
 7237SOL    HW122610   4.152   0.120   6.211
 7237SOL    HW222611   4.184   0.154   6.367
 7238SOL     OW22612   4.514   2.372   6.699
 7238SOL    HW122613   4.603   2.395   6.739
 7238SOL    HW222614   4.522   2.366   6.599
 7239SOL     OW22615   1.061   2.825   2.018
 7239SOL    HW122616   1.127   2.751   2.028
 7239SOL    HW222617   1.023   2.824   1.926
 7240SOL     OW22618   6.633   1.505   6.830
 7240SOL    HW122619   6.551   1.459   6.862
 7240SOL    HW222620   6.608   1.578   6.766
 7241SOL     OW22621   2.689   6.818   0.391
 7241SOL    HW122622   2.601   6.853   0.359
 7241SOL    HW222623   2.674   6.750   0.463
 7242SOL     OW22624   6.905   5.348   5.723
 7242SOL    HW122625   6.944   5.309   5.639
 7242SOL    HW222626   6.965   5.420   5.757
 7243SOL     OW22627   6.999   4.499   6.044
 7243SOL    HW122628   6.908   4.467   6.017
 7243SOL    HW222629   0.025   4.425   6.090
 7244SOL     OW22630   0.477   0.470   1.326
 7244SOL    HW122631   0.485   0.558   1.373
 7244SOL    HW222632   0.383   0.457   1.296
 7245SOL     OW22633   1.165   2.420   5.408
 7245SOL    HW122634   1.163   2.337   5.463
 7245SOL    HW222635   1.080   2.428   5.356
 7246SOL     OW22636   1.785   0.521   3.929
 7246SOL    HW122637   1.790   0.600   3.867
 7246SOL    HW222638   1.839   0.540   4.010
 7247SOL     OW22639   3.070   2.163   5.604
 7247SOL    HW122640   3.051   2.195   5.511
 7247SOL    HW222641   2.984   2.155   5.655
 7248SOL     OW22642   3.158   0.831   3.086
 7248SOL    HW122643   3.182   0.823   2.989
 7248SOL    HW222644   3.115   0.746   3.117
 7249SOL     OW22645   4.566   5.319   1.810
 7249SOL    HW122646   4.568   5.416   1.833
 7249SOL    HW222647   4.499   5.303   1.738
 7250SOL     OW22648   5.074   5.396   5.774
 7250SOL    HW122649   5.088   5.484   5.819
 7250SOL    HW222650   5.105   5.401   5.679
 7251SOL     OW22651   1.020   0.113   4.754
 7251SOL    HW122652   1.086   0.166   4.807
 7251SOL    HW222653   1.004   0.026   4.799
 7252SOL     OW22654   3.158   3.622   1.867
 7252SOL    HW122655   3.083   3.649   1.928
 7252SOL    HW222656   3.165   3.687   1.792
 7253SOL     OW22657   2.105   6.098   7.001
 7253SOL    HW122658   2.129   6.134   6.911
 7253SOL    HW222659   2.079   6.002   6.992
 7254SOL     OW22660   5.326   5.412   4.403
 7254SOL    HW122661   5.264   5.341   4.437
 7254SOL    HW222662   5.273   5.485   4.360
 7255SOL     OW22663   4.525   3.744   0.121
 7255SOL    HW122664   4.525   3.695   0.208
 7255SOL    HW222665   4.584   3.697   0.056
 7256SOL     OW22666   3.541   5.857   5.713
 7256SOL    HW122667   3.498   5.869   5.802
 7256SOL    HW222668   3.602   5.778   5.715
 7257SOL     OW22669   0.734   2.019   3.756
 7257SOL    HW122670   0.733   2.009   3.657
 7257SOL    HW222671   0.822   2.056   3.785
 7258SOL     OW22672   4.963   2.044   2.630
 7258SOL    HW122673   4.963   2.134   2.588
 7258SOL    HW222674   4.930   1.976   2.564
 7259SOL     OW22675   1.171   3.123   2.355
 7259SOL    HW122676   1.189   3.221   2.369
 7259SOL    HW222677   1.159   3.105   2.258
 7260SOL     OW22678   5.778   1.594   1.884
 7260SOL    HW122679   5.733   1.683   1.884
 7260SOL    HW222680   5.710   1.522   1.879
 7261SOL     OW22681   0.806   4.582   1.289
 7261SOL    HW122682   0.761   4.670   1.300
 7261SOL    HW222683   0.828   4.567   1.193
 7262SOL     OW22684   5.109   1.979   6.811
 7262SOL    HW122685   5.089   2.075   6.790
 7262SOL    HW222686   5.106   1.964   6.910
 7263SOL     OW22687   0.437   6.303   0.204
 7263SOL    HW122688   0.346   6.291   0.241
 7263SOL    HW222689   0.433   6.363   0.124
 7264SOL     OW22690   5.234   1.159   0.643
 7264SOL    HW122691   5.216   1.247   0.598
 7264SOL    HW222692   5.226   1.170   0.742
 7265SOL     OW22693   5.861   4.602   5.615
 7265SOL    HW122694   5.775   4.553   5.624
 7265SOL    HW222695   5.843   4.695   5.581
 7266SOL     OW22696   6.079   1.244   3.246
 7266SOL    HW122697   5.986   1.235   3.211
 7266SOL    HW222698   6.090   1.186   3.326
 7267SOL     OW22699   6.621   6.541   4.869
 7267SOL    HW122700   6.690   6.584   4.927
 7267SOL    HW222701   6.531   6.550   4.911
 7268SOL     OW22702   0.056   6.186   4.541
 7268SOL    HW122703   0.096   6.258   4.485
 7268SOL    HW222704   0.063   6.210   4.638
 7269SOL     OW22705   1.795   6.223   6.172
 7269SOL    HW122706   1.864   6.286   6.209
 7269SOL    HW222707   1.718   6.218   6.235
 7270SOL     OW22708   0.287   3.064   4.836
 7270SOL    HW122709   0.246   3.145   4.878
 7270SOL    HW222710   0.215   3.004   4.801
 7271SOL     OW22711   1.705   5.010   4.421
 7271SOL    HW122712   1.645   5.008   4.501
 7271SOL    HW222713   1.710   5.103   4.385
 7272SOL     OW22714   5.817   6.012   2.302
 7272SOL    HW122715   5.898   5.954   2.294
 7272SOL    HW222716   5.752   5.989   2.230
 7273SOL     OW22717   6.107   3.907   0.481
 7273SOL    HW122718   6.148   3.942   0.565
 7273SOL    HW222719   6.167   3.929   0.404
 7274SOL     OW22720   0.133   5.041   6.845
 7274SOL    HW122721   0.225   5.070   6.821
 7274SOL    HW222722   0.131   4.942   6.859
 7275SOL     OW22723   0.120   5.681   2.709
 7275SOL    HW122724   0.067   5.765   2.700
 7275SOL    HW222725   0.101   5.621   2.631
 7276SOL     OW22726   5.183   0.869   3.373
 7276SOL    HW122727   5.097   0.919   3.386
 7276SOL    HW222728   5.221   0.891   3.283
 7277SOL     OW22729   5.284   0.493   4.394
 7277SOL    HW122730   5.193   0.490   4.436
 7277SOL    HW222731   5.347   0.435   4.445
 7278SOL     OW22732   3.663   2.827   1.466
 7278SOL    HW122733   3.614   2.740   1.470
 7278SOL    HW222734   3.755   2.814   1.505
 7279SOL     OW22735   4.602   4.792   6.126
 7279SOL    HW122736   4.539   4.722   6.092
 7279SOL    HW222737   4.569   4.828   6.213
 7280SOL     OW22738   0.345   1.159   3.572
 7280SOL    HW122739   0.332   1.258   3.574
 7280SOL    HW222740   0.312   1.123   3.484
 7281SOL     OW22741   3.064   1.923   7.018
 7281SOL    HW122742   3.106   1.990   6.956
 7281SOL    HW222743   3.134   1.889   0.059
 7282SOL     OW22744   5.796   5.225   2.704
 7282SOL    HW122745   5.874   5.177   2.663
 7282SOL    HW222746   5.734   5.159   2.745
 7283SOL     OW22747   4.077   1.602   2.975
 7283SOL    HW122748   4.052   1.636   2.885
 7283SOL    HW222749   4.002   1.546   3.011
 7284SOL     OW22750   0.557   3.367   6.238
 7284SOL    HW122751   0.617   3.427   6.291
 7284SOL    HW222752   0.610   3.292   6.199
 7285SOL     OW22753   5.164   3.412   2.560
 7285SOL    HW122754   5.238   3.479   2.570
 7285SOL    HW222755   5.080   3.458   2.533
 7286SOL     OW22756   2.947   0.506   0.163
 7286SOL    HW122757   3.016   0.499   0.091
 7286SOL    HW222758   2.945   0.599   0.198
 7287SOL     OW22759   0.326   2.391   6.135
 7287SOL    HW122760   0.293   2.399   6.229
 7287SOL    HW222761   0.325   2.295   6.107
 7288SOL     OW22762   3.093   0.630   0.505
 7288SOL    HW122763   3.045   0.709   0.467
 7288SOL    HW222764   3.185   0.625   0.466
 7289SOL     OW22765   5.192   2.149   4.229
 7289SOL    HW122766   5.226   2.079   4.292
 7289SOL    HW222767   5.157   2.227   4.280
 7290SOL     OW22768   3.706   0.419   5.746
 7290SOL    HW122769   3.624   0.409   5.802
 7290SOL    HW222770   3.784   0.444   5.804
 7291SOL     OW22771   1.949   6.482   0.757
 7291SOL    HW122772   1.880   6.473   0.684
 7291SOL    HW222773   1.971   6.392   0.794
 7292SOL     OW22774   3.140   1.088   3.253
 7292SOL    HW122775   3.240   1.091   3.254
 7292SOL    HW222776   3.109   1.018   3.189
 7293SOL     OW22777   1.495   2.136   5.143
 7293SOL    HW122778   1.513   2.111   5.238
 7293SOL    HW222779   1.517   2.233   5.130
 7294SOL     OW22780   2.029   4.661   6.904
 7294SOL    HW122781   2.080   4.719   6.840
 7294SOL    HW222782   2.089   4.632   6.978
 7295SOL     OW22783   0.666   2.700   0.990
 7295SOL    HW122784   0.674   2.798   1.008
 7295SOL    HW222785   0.672   2.650   1.076
 7296SOL     OW22786   2.861   5.286   1.532
 7296SOL    HW122787   2.792   5.249   1.470
 7296SOL    HW222788   2.825   5.290   1.625
 7297SOL     OW22789   3.699   6.106   1.379
 7297SOL    HW122790   3.702   6.189   1.324
 7297SOL    HW222791   3.790   6.086   1.415
 7298SOL     OW22792   4.691   4.629   5.039
 7298SOL    HW122793   4.651   4.555   4.985
 7298SOL    HW222794   4.789   4.633   5.022
 7299SOL     OW22795   0.530   1.679   0.410
 7299SOL    HW122796   0.519   1.716   0.502
 7299SOL    HW222797   0.464   1.606   0.394
 7300SOL     OW22798   6.362   5.811   3.104
 7300SOL    HW122799   6.289   5.877   3.121
 7300SOL    HW222800   6.448   5.859   3.090
 7301SOL     OW22801   5.928   1.340   4.832
 7301SOL    HW122802   5.863   1.263   4.825
 7301SOL    HW222803   5.877   1.426   4.831
 7302SOL     OW22804   0.736   2.026   5.874
 7302SOL    HW122805   0.739   1.934   5.912
 7302SOL    HW222806   0.796   2.032   5.794
 7303SOL     OW22807   4.025   0.354   0.291
 7303SOL    HW122808   4.086   0.290   0.338
 7303SOL    HW222809   3.944   0.304   0.261
 7304SOL     OW22810   3.896   4.796   0.725
 7304SOL    HW122811   3.981   4.747   0.745
 7304SOL    HW222812   3.909   4.851   0.642
 7305SOL     OW22813   4.873   1.043   0.281
 7305SOL    HW122814   4.948   1.090   0.234
 7305SOL    HW222815   4.910   0.971   0.339
 7306SOL     OW22816   4.954   2.131   1.871
 7306SOL    HW122817   4.944   2.197   1.945
 7306SOL    HW222818   4.881   2.145   1.804
 7307SOL     OW22819   2.087   7.008   2.279
 7307SOL    HW122820   2.151   0.043   2.229
 7307SOL    HW222821   2.097   0.002   2.377
 7308SOL     OW22822   0.035   3.490   5.929
 7308SOL    HW122823   0.049   3.446   5.840
 7308SOL    HW222824   6.972   3.458   5.969
 7309SOL     OW22825   4.952   5.689   1.228
 7309SOL    HW122826   4.940   5.668   1.325
 7309SOL    HW222827   4.952   5.604   1.175
 7310SOL     OW22828   2.062   3.907   1.620
 7310SOL    HW122829   2.114   3.873   1.699
 7310SOL    HW222830   1.977   3.854   1.611
 7311SOL     OW22831   3.427   2.117   1.847
 7311SOL    HW122832   3.511   2.141   1.895
 7311SOL    HW222833   3.352   2.107   1.913
 7312SOL     OW22834   0.459   3.409   5.054
 7312SOL    HW122835   0.492   3.346   4.984
 7312SOL    HW222836   0.507   3.392   5.140
 7313SOL     OW22837   2.656   1.479   6.354
 7313SOL    HW122838   2.743   1.476   6.304
 7313SOL    HW222839   2.675   1.487   6.452
 7314SOL     OW22840   0.023   5.526   6.086
 7314SOL    HW122841   0.008   5.435   6.046
 7314SOL    HW222842   6.980   5.590   6.047
 7315SOL     OW22843   6.637   0.729   2.284
 7315SOL    HW122844   6.546   0.770   2.296
 7315SOL    HW222845   6.702   0.799   2.255
 7316SOL     OW22846   2.772   3.794   6.549
 7316SOL    HW122847   2.708   3.848   6.494
 7316SOL    HW222848   2.854   3.775   6.497
 7317SOL     OW22849   5.180   0.992   2.798
 7317SOL    HW122850   5.137   0.930   2.733
 7317SOL    HW222851   5.169   1.086   2.767
 7318SOL     OW22852   1.395   0.624   1.117
 7318SOL    HW122853   1.436   0.551   1.063
 7318SOL    HW222854   1.450   0.707   1.108
 7319SOL     OW22855   6.607   4.479   6.323
 7319SOL    HW122856   6.674   4.488   6.397
 7319SOL    HW222857   6.619   4.553   6.258
 7320SOL     OW22858   6.559   3.589   2.180
 7320SOL    HW122859   6.594   3.651   2.250
 7320SOL    HW222860   6.636   3.553   2.126
 7321SOL     OW22861   2.424   0.289   5.492
 7321SOL    HW122862   2.523   0.271   5.491
 7321SOL    HW222863   2.404   0.362   5.557
 7322SOL     OW22864   6.622   2.929   3.343
 7322SOL    HW122865   6.596   2.868   3.418
 7322SOL    HW222866   6.541   2.971   3.304
 7323SOL     OW22867   1.758   2.183   1.924
 7323SOL    HW122868   1.838   2.232   1.957
 7323SOL    HW222869   1.713   2.138   2.001
 7324SOL     OW22870   4.603   6.150   2.245
 7324SOL    HW122871   4.566   6.202   2.323
 7324SOL    HW222872   4.697   6.122   2.266
 7325SOL     OW22873   3.361   6.383   0.426
 7325SOL    HW122874   3.267   6.352   0.413
 7325SOL    HW222875   3.362   6.464   0.484
 7326SOL     OW22876   3.173   5.802   5.667
 7326SOL    HW122877   3.264   5.837   5.688
 7326SOL    HW222878   3.104   5.859   5.711
 7327SOL     OW22879   6.051   1.896   6.266
 7327SOL    HW122880   5.973   1.841   6.236
 7327SOL    HW222881   6.107   1.921   6.187
 7328SOL     OW22882   3.564   0.491   6.612
 7328SOL    HW122883   3.483   0.439   6.584
 7328SOL    HW222884   3.642   0.429   6.616
 7329SOL     OW22885   5.881   4.038   1.190
 7329SOL    HW122886   5.853   3.996   1.276
 7329SOL    HW222887   5.950   3.981   1.145
 7330SOL     OW22888   2.340   2.077   6.745
 7330SOL    HW122889   2.407   2.009   6.775
 7330SOL    HW222890   2.368   2.168   6.775
 7331SOL     OW22891   5.670   6.943   2.124
 7331SOL    HW122892   5.735   6.905   2.190
 7331SOL    HW222893   5.719   7.005   2.063
 7332SOL     OW22894   2.339   6.064   0.812
 7332SOL    HW122895   2.303   6.156   0.798
 7332SOL    HW222896   2.348   6.018   0.723
 7333SOL     OW22897   0.323   2.176   2.381
 7333SOL    HW122898   0.264   2.179   2.462
 7333SOL    HW222899   0.417   2.199   2.408
 7334SOL     OW22900   3.059   5.309   6.609
 7334SOL    HW122901   2.999   5.280   6.535
 7334SOL    HW222902   3.153   5.284   6.587
 7335SOL     OW22903   1.500   2.493   3.006
 7335SOL    HW122904   1.576   2.437   3.036
 7335SOL    HW222905   1.509   2.585   3.044
 7336SOL     OW22906   1.168   6.914   3.274
 7336SOL    HW122907   1.211   6.828   3.302
 7336SOL    HW222908   1.149   6.912   3.176
 7337SOL     OW22909   6.860   3.446   1.839
 7337SOL    HW122910   6.882   3.349   1.850
 7337SOL    HW222911   6.923   3.487   1.774
 7338SOL     OW22912   6.627   2.159   1.430
 7338SOL    HW122913   6.672   2.193   1.513
 7338SOL    HW222914   6.531   2.140   1.449
 7339SOL     OW22915   6.007   6.621   3.709
 7339SOL    HW122916   5.985   6.638   3.805
 7339SOL    HW222917   5.928   6.581   3.663
 7340SOL     OW22918   2.625   0.652   1.195
 7340SOL    HW122919   2.679   0.720   1.244
 7340SOL    HW222920   2.560   0.610   1.259
 7341SOL     OW22921   6.769   3.023   6.794
 7341SOL    HW122922   6.778   3.111   6.745
 7341SOL    HW222923   6.842   2.961   6.763
 7342SOL     OW22924   0.251   1.374   1.786
 7342SOL    HW122925   0.234   1.461   1.740
 7342SOL    HW222926   0.196   1.302   1.744
 7343SOL     OW22927   5.510   3.710   0.235
 7343SOL    HW122928   5.464   3.756   0.312
 7343SOL    HW222929   5.441   3.665   0.178
 7344SOL     OW22930   0.376   1.207   6.681
 7344SOL    HW122931   0.446   1.164   6.626
 7344SOL    HW222932   0.297   1.230   6.624
 7345SOL     OW22933   4.527   3.725   5.342
 7345SOL    HW122934   4.504   3.640   5.297
 7345SOL    HW222935   4.597   3.773   5.290
 7346SOL     OW22936   4.042   5.630   2.388
 7346SOL    HW122937   4.078   5.702   2.328
 7346SOL    HW222938   3.943   5.621   2.374
 7347SOL     OW22939   0.995   1.914   0.668
 7347SOL    HW122940   0.903   1.931   0.634
 7347SOL    HW222941   0.999   1.933   0.766
 7348SOL     OW22942   1.238   4.034   3.380
 7348SOL    HW122943   1.277   3.944   3.399
 7348SOL    HW222944   1.301   4.086   3.323
 7349SOL     OW22945   4.076   0.185   1.687
 7349SOL    HW122946   4.154   0.246   1.671
 7349SOL    HW222947   4.047   0.191   1.782
 7350SOL     OW22948   2.659   2.392   5.526
 7350SOL    HW122949   2.720   2.414   5.450
 7350SOL    HW222950   2.564   2.392   5.493
 7351SOL     OW22951   5.863   5.449   3.962
 7351SOL    HW122952   5.845   5.389   3.884
 7351SOL    HW222953   5.777   5.490   3.992
 7352SOL     OW22954   1.915   2.080   2.736
 7352SOL    HW122955   1.876   1.989   2.754
 7352SOL    HW222956   2.014   2.077   2.748
 7353SOL     OW22957   0.243   0.244   6.467
 7353SOL    HW122958   0.323   0.304   6.472
 7353SOL    HW222959   0.163   0.298   6.441
 7354SOL     OW22960   1.170   1.895   4.912
 7354SOL    HW122961   1.140   1.980   4.956
 7354SOL    HW222962   1.258   1.867   4.951
 7355SOL     OW22963   1.480   1.189   0.807
 7355SOL    HW122964   1.506   1.093   0.816
 7355SOL    HW222965   1.383   1.199   0.831
 7356SOL     OW22966   4.051   3.249   6.557
 7356SOL    HW122967   4.070   3.155   6.529
 7356SOL    HW222968   3.955   3.270   6.541
 7357SOL     OW22969   3.314   5.983   2.330
 7357SOL    HW122970   3.266   6.034   2.259
 7357SOL    HW222971   3.413   5.995   2.318
 7358SOL     OW22972   6.465   3.487   2.539
 7358SOL    HW122973   6.436   3.578   2.570
 7358SOL    HW222974   6.519   3.443   2.610
 7359SOL     OW22975   4.698   2.226   5.502
 7359SOL    HW122976   4.770   2.157   5.510
 7359SOL    HW222977   4.739   2.317   5.502
 7360SOL     OW22978   2.992   3.288   5.677
 7360SOL    HW122979   2.899   3.257   5.657
 7360SOL    HW222980   3.024   3.349   5.605
 7361SOL     OW22981   5.199   0.621   2.790
 7361SOL    HW122982   5.242   0.582   2.709
 7361SOL    HW222983   5.182   0.549   2.858
 7362SOL     OW22984   1.298   5.909   6.438
 7362SOL    HW122985   1.290   5.894   6.536
 7362SOL    HW222986   1.382   5.867   6.404
 7363SOL     OW22987   4.584   1.478   1.104
 7363SOL    HW122988   4.541   1.418   1.171
 7363SOL    HW222989   4.576   1.573   1.133
 7364SOL     OW22990   3.897   1.132   2.132
 7364SOL    HW122991   3.985   1.170   2.105
 7364SOL    HW222992   3.911   1.066   2.206
 7365SOL     OW22993   0.555   6.380   2.020
 7365SOL    HW122994   0.499   6.460   2.040
 7365SOL    HW222995   0.566   6.325   2.103
 7366SOL     OW22996   2.056   0.033   5.618
 7366SOL    HW122997   2.092   0.106   5.559
 7366SOL    HW222998   2.032   6.977   5.561
 7367SOL     OW22999   4.541   2.842   0.944
 7367SOL    HW123000   4.560   2.806   0.853
 7367SOL    HW223001   4.620   2.826   1.004
 7368SOL     OW23002   3.910   2.985   2.389
 7368SOL    HW123003   3.988   2.983   2.325
 7368SOL    HW223004   3.944   3.004   2.481
 7369SOL     OW23005   3.020   2.095   1.019
 7369SOL    HW123006   3.064   2.149   0.948
 7369SOL    HW223007   2.921   2.090   1.001
 7370SOL     OW23008   2.453   1.288   6.334
 7370SOL    HW123009   2.527   1.354   6.348
 7370SOL    HW223010   2.400   1.315   6.253
 7371SOL     OW23011   2.562   6.587   3.091
 7371SOL    HW123012   2.650   6.604   3.047
 7371SOL    HW223013   2.568   6.608   3.189
 7372SOL     OW23014   4.414   6.772   4.670
 7372SOL    HW123015   4.507   6.742   4.648
 7372SOL    HW223016   4.389   6.848   4.610
 7373SOL     OW23017   6.191   1.656   4.577
 7373SOL    HW123018   6.291   1.656   4.578
 7373SOL    HW223019   6.157   1.729   4.636
 7374SOL     OW23020   2.498   2.184   5.079
 7374SOL    HW123021   2.423   2.204   5.016
 7374SOL    HW223022   2.578   2.238   5.053
 7375SOL     OW23023   2.296   2.725   2.154
 7375SOL    HW123024   2.333   2.752   2.065
 7375SOL    HW223025   2.270   2.806   2.206
 7376SOL     OW23026   1.262   1.977   1.510
 7376SOL    HW123027   1.326   1.903   1.491
 7376SOL    HW223028   1.313   2.058   1.538
 7377SOL     OW23029   4.988   4.983   0.628
 7377SOL    HW123030   4.901   5.022   0.656
 7377SOL    HW223031   5.022   4.922   0.700
 7378SOL     OW23032   1.381   0.508   4.589
 7378SOL    HW123033   1.358   0.575   4.660
 7378SOL    HW223034   1.418   0.556   4.509
 7379SOL     OW23035   3.664   1.458   2.538
 7379SOL    HW123036   3.706   1.439   2.449
 7379SOL    HW223037   3.609   1.541   2.532
 7380SOL     OW23038   0.279   4.379   4.122
 7380SOL    HW123039   0.336   4.316   4.174
 7380SOL    HW223040   0.213   4.327   4.067
 7381SOL     OW23041   4.038   3.276   0.680
 7381SOL    HW123042   4.013   3.373   0.678
 7381SOL    HW223043   4.107   3.258   0.610
 7382SOL     OW23044   6.925   1.331   4.921
 7382SOL    HW123045   6.933   1.232   4.920
 7382SOL    HW223046   6.978   1.369   4.845
 7383SOL     OW23047   2.953   5.880   1.305
 7383SOL    HW123048   2.954   5.787   1.342
 7383SOL    HW223049   2.922   5.877   1.210
 7384SOL     OW23050   6.690   6.591   2.856
 7384SOL    HW123051   6.633   6.618   2.779
 7384SOL    HW223052   6.699   6.492   2.858
 7385SOL     OW23053   2.971   5.417   2.704
 7385SOL    HW123054   2.990   5.501   2.653
 7385SOL    HW223055   3.057   5.379   2.738
 7386SOL     OW23056   6.782   2.748   6.613
 7386SOL    HW123057   6.747   2.702   6.695
 7386SOL    HW223058   6.873   2.784   6.631
 7387SOL     OW23059   6.642   5.005   5.108
 7387SOL    HW123060   6.703   5.078   5.138
 7387SOL    HW223061   6.560   5.004   5.165
 7388SOL     OW23062   1.238   4.864   2.380
 7388SOL    HW123063   1.152   4.900   2.415
 7388SOL    HW223064   1.222   4.818   2.293
 7389SOL     OW23065   6.562   3.669   6.376
 7389SOL    HW123066   6.523   3.711   6.458
 7389SOL    HW223067   6.567   3.737   6.303
 7390SOL     OW23068   2.306   1.981   1.927
 7390SOL    HW123069   2.404   2.000   1.918
 7390SOL    HW223070   2.287   1.950   2.020
 7391SOL     OW23071   3.881   3.327   3.075
 7391SOL    HW123072   3.951   3.257   3.088
 7391SOL    HW223073   3.923   3.418   3.085
 7392SOL     OW23074   3.671   6.112   6.595
 7392SOL    HW123075   3.597   6.153   6.648
 7392SOL    HW223076   3.701   6.027   6.640
 7393SOL     OW23077   6.083   4.641   2.998
 7393SOL    HW123078   6.064   4.681   2.908
 7393SOL    HW223079   6.137   4.706   3.052
 7394SOL     OW23080   1.349   2.772   5.724
 7394SOL    HW123081   1.317   2.728   5.809
 7394SOL    HW223082   1.409   2.848   5.747
 7395SOL     OW23083   1.809   3.605   1.392
 7395SOL    HW123084   1.841   3.520   1.351
 7395SOL    HW223085   1.726   3.636   1.345
 7396SOL     OW23086   2.007   6.505   1.462
 7396SOL    HW123087   1.959   6.466   1.384
 7396SOL    HW223088   2.095   6.459   1.474
 7397SOL     OW23089   5.020   5.331   4.529
 7397SOL    HW123090   5.035   5.403   4.461
 7397SOL    HW223091   4.987   5.248   4.483
 7398SOL     OW23092   0.966   5.270   3.149
 7398SOL    HW123093   1.055   5.236   3.119
 7398SOL    HW223094   0.968   5.285   3.248
 7399SOL     OW23095   6.942   2.724   4.226
 7399SOL    HW123096   6.952   2.758   4.133
 7399SOL    HW223097   7.019   2.755   4.282
 7400SOL     OW23098   4.088   2.747   6.055
 7400SOL    HW123099   4.170   2.753   6.113
 7400SOL    HW223100   4.071   2.836   6.014
 7401SOL     OW23101   1.373   3.510   3.125
 7401SOL    HW123102   1.465   3.550   3.123
 7401SOL    HW223103   1.363   3.454   3.207
 7402SOL     OW23104   3.395   4.045   6.189
 7402SOL    HW123105   3.379   4.090   6.276
 7402SOL    HW223106   3.328   3.971   6.177
 7403SOL     OW23107   1.608   3.749   2.205
 7403SOL    HW123108   1.550   3.687   2.259
 7403SOL    HW223109   1.682   3.697   2.163
 7404SOL     OW23110   2.835   4.828   1.851
 7404SOL    HW123111   2.851   4.780   1.764
 7404SOL    HW223112   2.808   4.761   1.921
 7405SOL     OW23113   3.466   4.974   4.291
 7405SOL    HW123114   3.446   4.961   4.194
 7405SOL    HW223115   3.383   5.005   4.338
 7406SOL     OW23116   1.014   1.521   4.623
 7406SOL    HW123117   1.079   1.488   4.692
 7406SOL    HW223118   1.009   1.620   4.627
 7407SOL     OW23119   1.351   6.785   5.517
 7407SOL    HW123120   1.448   6.766   5.528
 7407SOL    HW223121   1.324   6.763   5.423
 7408SOL     OW23122   3.940   3.883   5.905
 7408SOL    HW123123   3.880   3.836   5.840
 7408SOL    HW223124   3.886   3.924   5.978
 7409SOL     OW23125   5.299   3.802   0.416
 7409SOL    HW123126   5.351   3.856   0.483
 7409SOL    HW223127   5.289   3.709   0.449
 7410SOL     OW23128   0.404   1.038   0.708
 7410SOL    HW123129   0.460   1.069   0.630
 7410SOL    HW223130   0.310   1.023   0.678
 7411SOL     OW23131   2.165   0.811   6.865
 7411SOL    HW123132   2.215   0.807   6.952
 7411SOL    HW223133   2.155   0.719   6.828
 7412SOL     OW23134   4.336   6.750   0.844
 7412SOL    HW123135   4.341   6.808   0.763
 7412SOL    HW223136   4.251   6.697   0.842
 7413SOL     OW23137   4.301   4.970   3.698
 7413SOL    HW123138   4.374   4.912   3.735
 7413SOL    HW223139   4.216   4.917   3.691
 7414SOL     OW23140   2.134   1.174   3.160
 7414SOL    HW123141   2.073   1.252   3.171
 7414SOL    HW223142   2.229   1.204   3.168
 7415SOL     OW23143   2.089   4.470   4.909
 7415SOL    HW123144   2.172   4.420   4.932
 7415SOL    HW223145   2.102   4.519   4.822
 7416SOL     OW23146   2.385   0.312   2.280
 7416SOL    HW123147   2.462   0.368   2.249
 7416SOL    HW223148   2.301   0.367   2.278
 7417SOL     OW23149   2.016   2.002   2.003
 7417SOL    HW123150   2.052   2.039   2.089
 7417SOL    HW223151   2.070   2.039   1.927
 7418SOL     OW23152   1.694   4.928   6.287
 7418SOL    HW123153   1.700   4.839   6.334
 7418SOL    HW223154   1.706   5.001   6.354
 7419SOL     OW23155   6.656   4.218   3.880
 7419SOL    HW123156   6.731   4.202   3.944
 7419SOL    HW223157   6.638   4.316   3.874
 7420SOL     OW23158   0.147   6.436   0.994
 7420SOL    HW123159   0.162   6.396   1.084
 7420SOL    HW223160   0.188   6.378   0.924
 7421SOL     OW23161   4.381   3.570   1.080
 7421SOL    HW123162   4.364   3.668   1.081
 7421SOL    HW223163   4.478   3.553   1.060
 7422SOL     OW23164   6.933   4.416   1.973
 7422SOL    HW123165   6.964   4.327   2.008
 7422SOL    HW223166   6.903   4.406   1.878
 7423SOL     OW23167   6.376   2.734   5.629
 7423SOL    HW123168   6.464   2.775   5.651
 7423SOL    HW223169   6.365   2.648   5.681
 7424SOL     OW23170   6.768   1.644   5.602
 7424SOL    HW123171   6.809   1.567   5.553
 7424SOL    HW223172   6.830   1.723   5.598
 7425SOL     OW23173   5.098   6.939   0.472
 7425SOL    HW123174   5.184   6.910   0.429
 7425SOL    HW223175   5.036   6.974   0.401
 7426SOL     OW23176   3.219   1.666   5.623
 7426SOL    HW123177   3.143   1.602   5.609
 7426SOL    HW223178   3.274   1.672   5.539
 7427SOL     OW23179   4.961   0.825   4.245
 7427SOL    HW123180   5.052   0.862   4.266
 7427SOL    HW223181   4.896   0.901   4.234
 7428SOL     OW23182   4.266   0.460   5.531
 7428SOL    HW123183   4.311   0.463   5.621
 7428SOL    HW223184   4.317   0.517   5.466
 7429SOL     OW23185   0.873   6.332   3.382
 7429SOL    HW123186   0.802   6.363   3.445
 7429SOL    HW223187   0.841   6.253   3.330
 7430SOL     OW23188   0.141   3.365   1.129
 7430SOL    HW123189   0.236   3.396   1.131
 7430SOL    HW223190   0.098   3.382   1.217
 7431SOL     OW23191   0.535   2.387   3.144
 7431SOL    HW123192   0.574   2.390   3.052
 7431SOL    HW223193   0.501   2.295   3.163
 7432SOL     OW23194   2.061   0.551   3.434
 7432SOL    HW123195   1.997   0.588   3.502
 7432SOL    HW223196   2.010   0.510   3.359
 7433SOL     OW23197   4.231   6.431   6.305
 7433SOL    HW123198   4.268   6.411   6.396
 7433SOL    HW223199   4.168   6.357   6.278
 7434SOL     OW23200   5.480   5.552   5.422
 7434SOL    HW123201   5.550   5.565   5.352
 7434SOL    HW223202   5.390   5.572   5.382
 7435SOL     OW23203   4.838   6.867   1.286
 7435SOL    HW123204   4.905   6.804   1.247
 7435SOL    HW223205   4.817   6.840   1.380
 7436SOL     OW23206   4.675   4.346   6.057
 7436SOL    HW123207   4.661   4.312   6.149
 7436SOL    HW223208   4.765   4.318   6.024
 7437SOL     OW23209   3.189   5.126   0.636
 7437SOL    HW123210   3.252   5.201   0.614
 7437SOL    HW223211   3.216   5.044   0.585
 7438SOL     OW23212   1.177   0.148   6.760
 7438SOL    HW123213   1.248   0.141   6.690
 7438SOL    HW223214   1.121   0.066   6.759
 7439SOL     OW23215   1.572   6.403   5.483
 7439SOL    HW123216   1.522   6.383   5.399
 7439SOL    HW223217   1.608   6.317   5.521
 7440SOL     OW23218   6.767   3.047   4.050
 7440SOL    HW123219   6.761   2.950   4.024
 7440SOL    HW223220   6.688   3.096   4.012
 7441SOL     OW23221   5.646   0.196   4.576
 7441SOL    HW123222   5.729   0.141   4.562
 7441SOL    HW223223   5.585   0.149   4.640
 7442SOL     OW23224   6.023   1.425   0.610
 7442SOL    HW123225   5.925   1.422   0.588
 7442SOL    HW223226   6.076   1.436   0.526
 7443SOL     OW23227   6.138   5.132   2.025
 7443SOL    HW123228   6.182   5.200   1.966
 7443SOL    HW223229   6.065   5.176   2.078
 7444SOL     OW23230   5.585   1.027   6.487
 7444SOL    HW123231   5.548   1.108   6.533
 7444SOL    HW223232   5.685   1.024   6.500
 7445SOL     OW23233   3.179   0.610   1.664
 7445SOL    HW123234   3.253   0.570   1.610
 7445SOL    HW223235   3.190   0.584   1.760
 7446SOL     OW23236   5.152   2.008   0.425
 7446SOL    HW123237   5.175   2.104   0.434
 7446SOL    HW223238   5.066   1.999   0.373
 7447SOL     OW23239   6.263   5.176   6.691
 7447SOL    HW123240   6.357   5.196   6.665
 7447SOL    HW223241   6.202   5.243   6.649
 7448SOL     OW23242   5.811   6.897   4.289
 7448SOL    HW123243   5.843   6.904   4.195
 7448SOL    HW223244   5.832   6.806   4.324
 7449SOL     OW23245   1.032   5.764   0.602
 7449SOL    HW123246   1.116   5.723   0.568
 7449SOL    HW223247   1.040   5.779   0.701
 7450SOL     OW23248   5.497   2.563   4.989
 7450SOL    HW123249   5.435   2.599   5.058
 7450SOL    HW223250   5.589   2.556   5.027
 7451SOL     OW23251   6.042   5.850   2.270
 7451SOL    HW123252   6.086   5.865   2.181
 7451SOL    HW223253   6.099   5.890   2.342
 7452SOL     OW23254   5.839   5.856   4.589
 7452SOL    HW123255   5.904   5.932   4.581
 7452SOL    HW223256   5.788   5.846   4.503
 7453SOL     OW23257   4.355   5.067   4.818
 7453SOL    HW123258   4.316   5.096   4.731
 7453SOL    HW223259   4.370   4.968   4.816
 7454SOL     OW23260   2.712   1.763   0.803
 7454SOL    HW123261   2.640   1.831   0.804
 7454SOL    HW223262   2.749   1.751   0.895
 7455SOL     OW23263   6.627   3.302   2.306
 7455SOL    HW123264   6.586   3.228   2.253
 7455SOL    HW223265   6.569   3.383   2.301
 7456SOL     OW23266   2.295   1.358   4.828
 7456SOL    HW123267   2.201   1.389   4.843
 7456SOL    HW223268   2.308   1.339   4.730
 7457SOL     OW23269   3.111   0.239   4.662
 7457SOL    HW123270   3.145   0.307   4.727
 7457SOL    HW223271   3.085   0.285   4.577
 7458SOL     OW23272   1.525   0.210   6.040
 7458SOL    HW123273   1.502   0.262   5.958
 7458SOL    HW223274   1.483   0.120   6.036
 7459SOL     OW23275   6.189   1.479   2.867
 7459SOL    HW123276   6.125   1.434   2.805
 7459SOL    HW223277   6.147   1.487   2.958
 7460SOL     OW23278   1.457   5.523   0.241
 7460SOL    HW123279   1.443   5.620   0.223
 7460SOL    HW223280   1.472   5.509   0.339
 7461SOL     OW23281   5.866   6.288   6.003
 7461SOL    HW123282   5.856   6.242   5.915
 7461SOL    HW223283   5.840   6.225   6.076
 7462SOL     OW23284   1.681   4.462   1.841
 7462SOL    HW123285   1.735   4.530   1.889
 7462SOL    HW223286   1.701   4.371   1.877
 7463SOL     OW23287   2.955   4.353   0.183
 7463SOL    HW123288   3.028   4.344   0.116
 7463SOL    HW223289   2.875   4.302   0.153
 7464SOL     OW23290   6.169   6.746   5.587
 7464SOL    HW123291   6.193   6.738   5.684
 7464SOL    HW223292   6.229   6.812   5.543
 7465SOL     OW23293   2.393   4.721   6.794
 7465SOL    HW123294   2.333   4.734   6.715
 7465SOL    HW223295   2.401   4.808   6.843
 7466SOL     OW23296   0.126   0.778   5.964
 7466SOL    HW123297   0.158   0.791   5.871
 7466SOL    HW223298   0.147   0.859   6.018
 7467SOL     OW23299   0.488   2.615   5.660
 7467SOL    HW123300   0.448   2.562   5.586
 7467SOL    HW223301   0.418   2.637   5.727
 7468SOL     OW23302   5.155   3.098   4.279
 7468SOL    HW123303   5.157   3.119   4.377
 7468SOL    HW223304   5.061   3.104   4.245
 7469SOL     OW23305   6.572   1.209   0.224
 7469SOL    HW123306   6.620   1.222   0.311
 7469SOL    HW223307   6.531   1.118   0.223
 7470SOL     OW23308   5.277   4.173   3.624
 7470SOL    HW123309   5.206   4.160   3.555
 7470SOL    HW223310   5.362   4.128   3.594
 7471SOL     OW23311   5.327   6.338   6.343
 7471SOL    HW123312   5.365   6.428   6.323
 7471SOL    HW223313   5.371   6.270   6.285
 7472SOL     OW23314   6.586   1.332   5.481
 7472SOL    HW123315   6.589   1.258   5.548
 7472SOL    HW223316   6.495   1.336   5.439
 7473SOL     OW23317   5.078   5.669   4.061
 7473SOL    HW123318   5.029   5.607   4.122
 7473SOL    HW223319   5.081   5.760   4.101
 7474SOL     OW23320   6.516   1.688   6.656
 7474SOL    HW123321   6.448   1.670   6.584
 7474SOL    HW223322   6.544   1.784   6.652
 7475SOL     OW23323   4.565   2.281   2.042
 7475SOL    HW123324   4.539   2.334   1.961
 7475SOL    HW223325   4.534   2.329   2.125
 7476SOL     OW23326   2.348   1.550   3.206
 7476SOL    HW123327   2.380   1.455   3.207
 7476SOL    HW223328   2.354   1.586   3.113
 7477SOL     OW23329   0.021   2.868   5.051
 7477SOL    HW123330   0.025   2.774   5.085
 7477SOL    HW223331   0.036   2.868   4.952
 7478SOL     OW23332   5.854   3.576   5.329
 7478SOL    HW123333   5.756   3.563   5.316
 7478SOL    HW223334   5.893   3.494   5.372
 7479SOL     OW23335   5.065   2.677   1.842
 7479SOL    HW123336   5.058   2.626   1.927
 7479SOL    HW223337   5.003   2.756   1.845
 7480SOL     OW23338   1.480   4.484   2.139
 7480SOL    HW123339   1.514   4.557   2.079
 7480SOL    HW223340   1.557   4.428   2.170
 7481SOL     OW23341   6.341   5.204   0.220
 7481SOL    HW123342   6.385   5.148   0.149
 7481SOL    HW223343   6.249   5.228   0.191
 7482SOL     OW23344   4.450   2.455   2.248
 7482SOL    HW123345   4.378   2.524   2.240
 7482SOL    HW223346   4.432   2.397   2.328
 7483SOL     OW23347   4.909   2.990   4.612
 7483SOL    HW123348   4.854   3.024   4.688
 7483SOL    HW223349   4.912   2.890   4.614
 7484SOL     OW23350   1.956   5.352   4.531
 7484SOL    HW123351   1.983   5.264   4.569
 7484SOL    HW223352   1.868   5.343   4.485
 7485SOL     OW23353   2.556   0.596   4.829
 7485SOL    HW123354   2.464   0.611   4.864
 7485SOL    HW223355   2.602   0.526   4.884
 7486SOL     OW23356   1.277   6.134   0.112
 7486SOL    HW123357   1.231   6.217   0.143
 7486SOL    HW223358   1.304   6.144   0.016
 7487SOL     OW23359   2.987   0.472   3.402
 7487SOL    HW123360   2.939   0.537   3.461
 7487SOL    HW223361   3.066   0.516   3.361
 7488SOL     OW23362   2.240   5.913   4.414
 7488SOL    HW123363   2.171   5.986   4.409
 7488SOL    HW223364   2.321   5.940   4.363
 7489SOL     OW23365   6.094   2.951   6.874
 7489SOL    HW123366   6.016   2.998   6.916
 7489SOL    HW223367   6.173   3.012   6.873
 7490SOL     OW23368   1.559   0.540   3.321
 7490SOL    HW123369   1.544   0.571   3.228
 7490SOL    HW223370   1.545   0.615   3.385
 7491SOL     OW23371   4.384   2.697   6.787
 7491SOL    HW123372   4.289   2.695   6.820
 7491SOL    HW223373   4.388   2.655   6.697
 7492SOL     OW23374   2.069   0.733   4.344
 7492SOL    HW123375   2.084   0.831   4.340
 7492SOL    HW223376   2.147   0.685   4.304
 7493SOL     OW23377   6.391   3.054   5.839
 7493SOL    HW123378   6.305   3.106   5.834
 7493SOL    HW223379   6.439   3.062   5.752
 7494SOL     OW23380   5.970   1.755   3.637
 7494SOL    HW123381   5.979   1.656   3.646
 7494SOL    HW223382   5.873   1.779   3.625
 7495SOL     OW23383   1.152   2.964   5.632
 7495SOL    HW123384   1.224   2.924   5.688
 7495SOL    HW223385   1.080   2.896   5.615
 7496SOL     OW23386   5.623   3.536   4.321
 7496SOL    HW123387   5.542   3.594   4.318
 7496SOL    HW223388   5.703   3.592   4.346
 7497SOL     OW23389   1.697   5.182   1.011
 7497SOL    HW123390   1.660   5.185   1.104
 7497SOL    HW223391   1.790   5.219   1.011
 7498SOL     OW23392   3.313   1.052   4.311
 7498SOL    HW123393   3.365   0.978   4.354
 7498SOL    HW223394   3.258   1.098   4.380
 7499SOL     OW23395   4.352   2.165   3.550
 7499SOL    HW123396   4.418   2.091   3.563
 7499SOL    HW223397   4.401   2.252   3.540
 7500SOL     OW23398   3.285   6.165   2.795
 7500SOL    HW123399   3.278   6.121   2.705
 7500SOL    HW223400   3.214   6.129   2.855
 7501SOL     OW23401   5.237   4.502   3.827
 7501SOL    HW123402   5.222   4.575   3.894
 7501SOL    HW223403   5.257   4.542   3.738
 7502SOL     OW23404   2.934   6.919   4.236
 7502SOL    HW123405   2.938   7.019   4.230
 7502SOL    HW223406   2.839   6.890   4.244
 7503SOL     OW23407   2.598   6.229   1.208
 7503SOL    HW123408   2.651   6.293   1.152
 7503SOL    HW223409   2.552   6.163   1.149
 7504SOL     OW23410   0.189   6.198   2.802
 7504SOL    HW123411   0.266   6.147   2.765
 7504SOL    HW223412   0.147   6.146   2.876
 7505SOL     OW23413   1.559   2.254   6.467
 7505SOL    HW123414   1.475   2.206   6.491
 7505SOL    HW223415   1.551   2.350   6.492
 7506SOL     OW23416   4.470   2.409   3.477
 7506SOL    HW123417   4.566   2.411   3.446
 7506SOL    HW223418   4.412   2.452   3.408
 7507SOL     OW23419   5.932   2.595   3.177
 7507SOL    HW123420   5.986   2.595   3.260
 7507SOL    HW223421   5.851   2.538   3.189
 7508SOL     OW23422   2.241   4.958   0.069
 7508SOL    HW123423   2.269   4.977   6.998
 7508SOL    HW223424   2.283   4.872   0.099
 7509SOL     OW23425   5.897   3.555   0.561
 7509SOL    HW123426   5.986   3.524   0.529
 7509SOL    HW223427   5.825   3.514   0.506
 7510SOL     OW23428   3.939   3.924   4.818
 7510SOL    HW123429   3.976   3.859   4.885
 7510SOL    HW223430   3.958   3.890   4.726
 7511SOL     OW23431   2.992   6.287   3.106
 7511SOL    HW123432   2.928   6.216   3.134
 7511SOL    HW223433   2.942   6.362   3.063
 7512SOL     OW23434   2.510   0.886   6.926
 7512SOL    HW123435   2.435   0.907   6.990
 7512SOL    HW223436   2.489   0.924   6.836
 7513SOL     OW23437   1.613   1.831   2.483
 7513SOL    HW123438   1.601   1.769   2.406
 7513SOL    HW223439   1.683   1.899   2.461
 7514SOL     OW23440   2.453   5.450   3.104
 7514SOL    HW123441   2.495   5.399   3.029
 7514SOL    HW223442   2.354   5.457   3.087
 7515SOL     OW23443   0.106   4.710   4.921
 7515SOL    HW123444   0.049   4.629   4.911
 7515SOL    HW223445   0.049   4.791   4.927
 7516SOL     OW23446   0.375   5.233   6.306
 7516SOL    HW123447   0.310   5.219   6.380
 7516SOL    HW223448   0.466   5.206   6.336
 7517SOL     OW23449   0.883   2.347   0.226
 7517SOL    HW123450   0.961   2.400   0.260
 7517SOL    HW223451   0.884   2.256   0.266
 7518SOL     OW23452   5.177   3.499   3.546
 7518SOL    HW123453   5.263   3.508   3.496
 7518SOL    HW223454   5.192   3.441   3.626
 7519SOL     OW23455   6.564   6.468   4.502
 7519SOL    HW123456   6.642   6.439   4.557
 7519SOL    HW223457   6.593   6.536   4.435
 7520SOL     OW23458   1.729   0.561   2.413
 7520SOL    HW123459   1.642   0.513   2.406
 7520SOL    HW223460   1.758   0.592   2.322
 7521SOL     OW23461   5.532   2.845   4.704
 7521SOL    HW123462   5.597   2.826   4.777
 7521SOL    HW223463   5.581   2.858   4.618
 7522SOL     OW23464   1.544   0.459   5.331
 7522SOL    HW123465   1.484   0.490   5.404
 7522SOL    HW223466   1.599   0.535   5.297
 7523SOL     OW23467   5.064   0.561   6.632
 7523SOL    HW123468   5.082   0.617   6.552
 7523SOL    HW223469   5.122   0.479   6.629
 7524SOL     OW23470   0.058   2.884   4.779
 7524SOL    HW123471   7.016   2.807   4.775
 7524SOL    HW223472   0.013   2.967   4.746
 7525SOL     OW23473   4.544   6.714   6.979
 7525SOL    HW123474   4.499   6.722   6.890
 7525SOL    HW223475   4.513   6.787   0.017
 7526SOL     OW23476   2.675   3.253   1.485
 7526SOL    HW123477   2.680   3.230   1.582
 7526SOL    HW223478   2.722   3.184   1.431
 7527SOL     OW23479   3.394   5.832   3.620
 7527SOL    HW123480   3.413   5.929   3.610
 7527SOL    HW223481   3.332   5.802   3.548
 7528SOL     OW23482   5.819   2.375   0.018
 7528SOL    HW123483   5.748   2.358   6.972
 7528SOL    HW223484   5.892   2.307   0.007
 7529SOL     OW23485   5.220   1.839   4.669
 7529SOL    HW123486   5.132   1.881   4.649
 7529SOL    HW223487   5.286   1.909   4.694
 7530SOL     OW23488   6.077   2.239   2.127
 7530SOL    HW123489   6.145   2.250   2.199
 7530SOL    HW223490   6.124   2.220   2.040
 7531SOL     OW23491   5.198   3.106   3.363
 7531SOL    HW123492   5.119   3.046   3.348
 7531SOL    HW223493   5.181   3.195   3.321
 7532SOL     OW23494   4.733   6.326   6.950
 7532SOL    HW123495   4.745   6.422   6.923
 7532SOL    HW223496   4.821   6.289   6.980
 7533SOL     OW23497   3.794   2.072   1.743
 7533SOL    HW123498   3.757   2.151   1.792
 7533SOL    HW223499   3.729   2.042   1.674
 7534SOL     OW23500   4.927   5.865   4.365
 7534SOL    HW123501   4.954   5.919   4.285
 7534SOL    HW223502   4.874   5.785   4.336
 7535SOL     OW23503   1.856   6.580   4.730
 7535SOL    HW123504   1.785   6.512   4.750
 7535SOL    HW223505   1.873   6.635   4.811
 7536SOL     OW23506   5.249   6.101   3.885
 7536SOL    HW123507   5.301   6.176   3.925
 7536SOL    HW223508   5.155   6.130   3.869
 7537SOL     OW23509   1.846   4.445   2.383
 7537SOL    HW123510   1.940   4.423   2.356
 7537SOL    HW223511   1.828   4.542   2.366
 7538SOL     OW23512   2.035   2.617   1.497
 7538SOL    HW123513   2.122   2.666   1.503
 7538SOL    HW223514   2.033   2.544   1.565
 7539SOL     OW23515   1.339   4.531   3.465
 7539SOL    HW123516   1.301   4.482   3.386
 7539SOL    HW223517   1.270   4.536   3.537
 7540SOL     OW23518   4.170   6.494   4.533
 7540SOL    HW123519   4.176   6.395   4.519
 7540SOL    HW223520   4.088   6.529   4.487
 7541SOL     OW23521   1.019   4.337   5.956
 7541SOL    HW123522   1.007   4.240   5.938
 7541SOL    HW223523   1.117   4.358   5.963
 7542SOL     OW23524   6.637   5.697   6.759
 7542SOL    HW123525   6.555   5.727   6.808
 7542SOL    HW223526   6.675   5.774   6.707
 7543SOL     OW23527   3.024   0.593   5.085
 7543SOL    HW123528   2.954   0.664   5.082
 7543SOL    HW223529   3.077   0.602   5.170
 7544SOL     OW23530   6.765   2.564   4.328
 7544SOL    HW123531   6.832   2.624   4.283
 7544SOL    HW223532   6.726   2.611   4.407
 7545SOL     OW23533   0.605   6.615   6.022
 7545SOL    HW123534   0.537   6.675   6.064
 7545SOL    HW223535   0.613   6.531   6.075
 7546SOL     OW23536   4.748   2.490   1.589
 7546SOL    HW123537   4.671   2.470   1.529
 7546SOL    HW223538   4.798   2.404   1.608
 7547SOL     OW23539   4.742   0.743   0.844
 7547SOL    HW123540   4.720   0.837   0.870
 7547SOL    HW223541   4.809   0.743   0.769
 7548SOL     OW23542   4.408   2.240   6.937
 7548SOL    HW123543   4.419   2.279   6.846
 7548SOL    HW223544   4.443   2.146   6.937
 7549SOL     OW23545   3.862   2.656   6.450
 7549SOL    HW123546   3.788   2.682   6.388
 7549SOL    HW223547   3.885   2.734   6.509
 7550SOL     OW23548   1.917   4.928   3.083
 7550SOL    HW123549   1.854   4.896   3.155
 7550SOL    HW223550   1.977   4.854   3.056
 7551SOL     OW23551   5.655   3.091   5.563
 7551SOL    HW123552   5.720   3.015   5.560
 7551SOL    HW223553   5.689   3.161   5.625
 7552SOL     OW23554   1.641   5.882   4.277
 7552SOL    HW123555   1.542   5.889   4.282
 7552SOL    HW223556   1.667   5.804   4.221
 7553SOL     OW23557   5.347   6.747   5.692
 7553SOL    HW123558   5.262   6.744   5.744
 7553SOL    HW223559   5.333   6.708   5.601
 7554SOL     OW23560   4.808   0.763   0.141
 7554SOL    HW123561   4.815   0.745   0.239
 7554SOL    HW223562   4.789   0.860   0.126
 7555SOL     OW23563   3.646   5.819   6.433
 7555SOL    HW123564   3.628   5.898   6.375
 7555SOL    HW223565   3.684   5.849   6.520
 7556SOL     OW23566   2.518   1.335   0.153
 7556SOL    HW123567   2.554   1.415   0.200
 7556SOL    HW223568   2.578   1.257   0.171
 7557SOL     OW23569   4.961   0.233   6.553
 7557SOL    HW123570   5.014   0.300   6.501
 7557SOL    HW223571   4.972   0.250   6.651
 7558SOL     OW23572   2.047   3.059   3.604
 7558SOL    HW123573   2.078   2.964   3.599
 7558SOL    HW223574   2.075   3.108   3.520
 7559SOL     OW23575   4.205   2.292   5.841
 7559SOL    HW123576   4.142   2.311   5.766
 7559SOL    HW223577   4.273   2.366   5.846
 7560SOL     OW23578   6.432   0.205   0.198
 7560SOL    HW123579   6.458   0.267   0.272
 7560SOL    HW223580   6.336   0.179   0.208
 7561SOL     OW23581   6.170   3.225   5.814
 7561SOL    HW123582   6.114   3.160   5.865
 7561SOL    HW223583   6.112   3.286   5.760
 7562SOL     OW23584   0.787   4.920   5.041
 7562SOL    HW123585   0.748   4.905   4.950
 7562SOL    HW223586   0.716   4.905   5.110
 7563SOL     OW23587   2.579   5.944   1.978
 7563SOL    HW123588   2.662   5.914   1.932
 7563SOL    HW223589   2.540   5.868   2.030
 7564SOL     OW23590   3.804   0.331   4.630
 7564SOL    HW123591   3.746   0.268   4.683
 7564SOL    HW223592   3.898   0.324   4.663
 7565SOL     OW23593   5.541   3.863   5.675
 7565SOL    HW123594   5.607   3.794   5.703
 7565SOL    HW223595   5.465   3.865   5.741
 7566SOL     OW23596   5.726   5.387   2.256
 7566SOL    HW123597   5.721   5.304   2.311
 7566SOL    HW223598   5.636   5.431   2.253
 7567SOL     OW23599   0.710   0.852   5.916
 7567SOL    HW123600   0.649   0.775   5.934
 7567SOL    HW223601   0.666   0.937   5.948
 7568SOL     OW23602   5.294   4.983   2.117
 7568SOL    HW123603   5.209   4.944   2.152
 7568SOL    HW223604   5.338   4.917   2.057
 7569SOL     OW23605   3.923   4.196   6.280
 7569SOL    HW123606   3.964   4.145   6.356
 7569SOL    HW223607   3.983   4.273   6.257
 7570SOL     OW23608   6.151   4.193   3.814
 7570SOL    HW123609   6.139   4.106   3.767
 7570SOL    HW223610   6.248   4.216   3.819
 7571SOL     OW23611   5.146   3.616   3.219
 7571SOL    HW123612   5.076   3.594   3.151
 7571SOL    HW223613   5.225   3.556   3.206
 7572SOL     OW23614   5.497   0.510   3.478
 7572SOL    HW123615   5.492   0.609   3.462
 7572SOL    HW223616   5.481   0.491   3.575
 7573SOL     OW23617   6.587   0.561   5.386
 7573SOL    HW123618   6.620   0.567   5.480
 7573SOL    HW223619   6.611   0.644   5.337
 7574SOL     OW23620   5.860   1.230   4.401
 7574SOL    HW123621   5.921   1.239   4.322
 7574SOL    HW223622   5.859   1.316   4.452
 7575SOL     OW23623   6.350   6.728   0.460
 7575SOL    HW123624   6.357   6.805   0.397
 7575SOL    HW223625   6.324   6.645   0.410
 7576SOL     OW23626   4.918   2.013   0.314
 7576SOL    HW123627   4.843   1.964   0.357
 7576SOL    HW223628   4.893   2.109   0.302
 7577SOL     OW23629   0.324   6.029   0.609
 7577SOL    HW123630   0.364   6.026   0.517
 7577SOL    HW223631   0.261   5.953   0.620
 7578SOL     OW23632   1.537   5.489   2.456
 7578SOL    HW123633   1.444   5.511   2.486
 7578SOL    HW223634   1.558   5.539   2.373
 7579SOL     OW23635   6.954   1.178   1.397
 7579SOL    HW123636   6.936   1.275   1.379
 7579SOL    HW223637   6.868   1.127   1.396
 7580SOL     OW23638   1.238   4.410   3.253
 7580SOL    HW123639   1.233   4.482   3.185
 7580SOL    HW223640   1.156   4.353   3.249
 7581SOL     OW23641   0.619   1.195   1.923
 7581SOL    HW123642   0.629   1.208   1.824
 7581SOL    HW223643   0.555   1.263   1.959
 7582SOL     OW23644   4.054   1.908   4.040
 7582SOL    HW123645   3.954   1.908   4.045
 7582SOL    HW223646   4.086   1.816   4.016
 7583SOL     OW23647   5.443   3.503   2.762
 7583SOL    HW123648   5.382   3.558   2.705
 7583SOL    HW223649   5.528   3.487   2.713
 7584SOL     OW23650   1.417   0.264   2.791
 7584SOL    HW123651   1.492   0.289   2.852
 7584SOL    HW223652   1.419   0.165   2.775
 7585SOL     OW23653   1.342   1.891   6.081
 7585SOL    HW123654   1.399   1.971   6.069
 7585SOL    HW223655   1.393   1.808   6.058
 7586SOL     OW23656   1.835   6.399   3.263
 7586SOL    HW123657   1.762   6.420   3.328
 7586SOL    HW223658   1.817   6.447   3.177
 7587SOL     OW23659   2.791   1.418   7.005
 7587SOL    HW123660   2.706   1.365   7.014
 7587SOL    HW223661   2.772   1.505   6.960
 7588SOL     OW23662   1.606   2.712   4.052
 7588SOL    HW123663   1.641   2.787   4.108
 7588SOL    HW223664   1.602   2.629   4.107
 7589SOL     OW23665   0.001   0.808   2.846
 7589SOL    HW123666   6.946   0.871   2.845
 7589SOL    HW223667   0.016   0.775   2.939
 7590SOL     OW23668   5.950   0.584   0.143
 7590SOL    HW123669   5.916   0.492   0.162
 7590SOL    HW223670   6.010   0.581   0.063
 7591SOL     OW23671   5.314   3.658   6.612
 7591SOL    HW123672   5.246   3.654   6.686
 7591SOL    HW223673   5.399   3.697   6.648
 7592SOL     OW23674   6.238   5.076   4.667
 7592SOL    HW123675   6.168   5.017   4.628
 7592SOL    HW223676   6.302   5.021   4.721
 7593SOL     OW23677   0.058   2.722   6.886
 7593SOL    HW123678   7.003   2.678   6.931
 7593SOL    HW223679   0.141   2.703   6.938
 7594SOL     OW23680   1.096   4.849   1.060
 7594SOL    HW123681   1.075   4.874   0.966
 7594SOL    HW223682   1.113   4.751   1.066
 7595SOL     OW23683   6.644   2.865   6.170
 7595SOL    HW123684   6.604   2.929   6.104
 7595SOL    HW223685   6.607   2.883   6.261
 7596SOL     OW23686   3.136   6.605   5.129
 7596SOL    HW123687   3.217   6.657   5.103
 7596SOL    HW223688   3.124   6.528   5.067
 7597SOL     OW23689   1.857   6.498   2.937
 7597SOL    HW123690   1.797   6.467   2.863
 7597SOL    HW223691   1.873   6.596   2.927
 7598SOL     OW23692   6.301   0.760   3.135
 7598SOL    HW123693   6.215   0.774   3.086
 7598SOL    HW223694   6.339   0.670   3.111
 7599SOL     OW23695   5.509   3.189   1.300
 7599SOL    HW123696   5.517   3.091   1.313
 7599SOL    HW223697   5.517   3.236   1.388
 7600SOL     OW23698   1.229   1.065   3.304
 7600SOL    HW123699   1.203   0.979   3.260
 7600SOL    HW223700   1.244   1.050   3.401
 7601SOL     OW23701   3.092   5.199   2.078
 7601SOL    HW123702   3.078   5.149   1.992
 7601SOL    HW223703   3.180   5.246   2.075
 7602SOL     OW23704   1.221   3.272   6.764
 7602SOL    HW123705   1.227   3.181   6.806
 7602SOL    HW223706   1.312   3.304   6.740
 7603SOL     OW23707   1.630   6.672   6.120
 7603SOL    HW123708   1.684   6.656   6.037
 7603SOL    HW223709   1.653   6.603   6.188
 7604SOL     OW23710   1.464   2.047   5.420
 7604SOL    HW123711   1.529   2.009   5.486
 7604SOL    HW223712   1.408   2.117   5.465
 7605SOL     OW23713   1.182   0.766   0.572
 7605SOL    HW123714   1.083   0.766   0.560
 7605SOL    HW223715   1.205   0.711   0.652
 7606SOL     OW23716   5.701   2.777   4.906
 7606SOL    HW123717   5.683   2.871   4.933
 7606SOL    HW223718   5.773   2.738   4.965
 7607SOL     OW23719   4.005   5.482   6.909
 7607SOL    HW123720   4.086   5.463   6.965
 7607SOL    HW223721   3.958   5.563   6.945
 7608SOL     OW23722   5.057   2.594   0.398
 7608SOL    HW123723   5.102   2.654   0.464
 7608SOL    HW223724   5.124   2.534   0.356
 7609SOL     OW23725   1.163   3.865   3.922
 7609SOL    HW123726   1.213   3.779   3.916
 7609SOL    HW223727   1.215   3.937   3.876
 7610SOL     OW23728   3.724   4.845   5.684
 7610SOL    HW123729   3.815   4.807   5.669
 7610SOL    HW223730   3.660   4.771   5.702
 7611SOL     OW23731   5.421   3.596   1.165
 7611SOL    HW123732   5.494   3.527   1.167
 7611SOL    HW223733   5.461   3.687   1.163
 7612SOL     OW23734   4.721   2.704   2.910
 7612SOL    HW123735   4.680   2.692   3.000
 7612SOL    HW223736   4.815   2.668   2.911
 7613SOL     OW23737   0.748   1.644   2.064
 7613SOL    HW123738   0.799   1.587   2.000
 7613SOL    HW223739   0.665   1.679   2.019
 7614SOL     OW23740   5.190   3.479   1.231
 7614SOL    HW123741   5.276   3.511   1.191
 7614SOL    HW223742   5.113   3.518   1.179
 7615SOL     OW23743   4.561   4.031   5.860
 7615SOL    HW123744   4.546   4.093   5.937
 7615SOL    HW223745   4.555   3.936   5.891
 7616SOL     OW23746   0.017   6.962   4.153
 7616SOL    HW123747   7.006   6.960   4.247
 7616SOL    HW223748   0.026   0.034   4.123
 7617SOL     OW23749   5.602   6.140   3.344
 7617SOL    HW123750   5.690   6.096   3.326
 7617SOL    HW223751   5.529   6.071   3.337
 7618SOL     OW23752   1.145   2.967   6.816
 7618SOL    HW123753   1.097   2.964   6.903
 7618SOL    HW223754   1.093   2.915   6.748
 7619SOL     OW23755   6.715   2.309   4.320
 7619SOL    HW123756   6.799   2.270   4.357
 7619SOL    HW223757   6.719   2.409   4.327
 7620SOL     OW23758   4.043   5.217   1.119
 7620SOL    HW123759   3.948   5.192   1.098
 7620SOL    HW223760   4.087   5.251   1.036
 7621SOL     OW23761   0.541   0.270   1.066
 7621SOL    HW123762   0.535   0.310   1.158
 7621SOL    HW223763   0.611   0.199   1.065
 7622SOL     OW23764   4.557   4.757   6.480
 7622SOL    HW123765   4.542   4.691   6.554
 7622SOL    HW223766   4.584   4.845   6.520
 7623SOL     OW23767   4.289   4.404   0.885
 7623SOL    HW123768   4.320   4.394   0.790
 7623SOL    HW223769   4.366   4.430   0.943
 7624SOL     OW23770   6.640   3.503   3.441
 7624SOL    HW123771   6.575   3.548   3.379
 7624SOL    HW223772   6.650   3.407   3.415
 7625SOL     OW23773   6.771   1.631   0.058
 7625SOL    HW123774   6.820   1.712   0.025
 7625SOL    HW223775   6.759   1.566   7.005
 7626SOL     OW23776   6.726   1.216   5.743
 7626SOL    HW123777   6.711   1.122   5.772
 7626SOL    HW223778   6.818   1.245   5.767
 7627SOL     OW23779   2.936   1.986   0.399
 7627SOL    HW123780   2.940   2.004   0.497
 7627SOL    HW223781   2.967   2.066   0.348
 7628SOL     OW23782   3.898   2.834   1.616
 7628SOL    HW123783   3.956   2.753   1.613
 7628SOL    HW223784   3.809   2.810   1.656
 7629SOL     OW23785   6.916   4.588   3.222
 7629SOL    HW123786   6.857   4.578   3.302
 7629SOL    HW223787   6.862   4.622   3.145
 7630SOL     OW23788   0.843   0.812   6.377
 7630SOL    HW123789   0.920   0.751   6.363
 7630SOL    HW223790   0.812   0.847   6.288
 7631SOL     OW23791   1.398   1.367   5.573
 7631SOL    HW123792   1.464   1.358   5.499
 7631SOL    HW223793   1.381   1.465   5.590
 7632SOL     OW23794   4.449   5.129   0.983
 7632SOL    HW123795   4.514   5.183   1.035
 7632SOL    HW223796   4.423   5.047   1.035
 7633SOL     OW23797   5.074   0.517   2.108
 7633SOL    HW123798   5.035   0.433   2.146
 7633SOL    HW223799   5.041   0.596   2.160
 7634SOL     OW23800   1.984   1.042   1.622
 7634SOL    HW123801   1.941   1.054   1.533
 7634SOL    HW223802   1.971   1.124   1.678
 7635SOL     OW23803   3.245   5.046   4.423
 7635SOL    HW123804   3.195   4.988   4.487
 7635SOL    HW223805   3.273   5.130   4.468
 7636SOL     OW23806   1.360   4.063   4.665
 7636SOL    HW123807   1.358   3.981   4.608
 7636SOL    HW223808   1.373   4.144   4.606
 7637SOL     OW23809   1.632   6.254   3.031
 7637SOL    HW123810   1.712   6.207   3.068
 7637SOL    HW223811   1.557   6.188   3.021
 7638SOL     OW23812   0.966   5.327   2.261
 7638SOL    HW123813   1.008   5.308   2.172
 7638SOL    HW223814   0.898   5.399   2.251
 7639SOL     OW23815   0.537   1.188   0.507
 7639SOL    HW123816   0.516   1.182   0.410
 7639SOL    HW223817   0.625   1.236   0.519
 7640SOL     OW23818   3.056   2.377   6.951
 7640SOL    HW123819   2.966   2.412   6.923
 7640SOL    HW223820   3.050   2.343   0.022
 7641SOL     OW23821   6.856   4.063   2.761
 7641SOL    HW123822   6.909   3.978   2.762
 7641SOL    HW223823   6.805   4.072   2.846
 7642SOL     OW23824   5.976   1.004   2.846
 7642SOL    HW123825   6.073   0.992   2.825
 7642SOL    HW223826   5.927   1.032   2.763
 7643SOL     OW23827   5.319   1.283   2.707
 7643SOL    HW123828   5.398   1.226   2.681
 7643SOL    HW223829   5.301   1.349   2.635
 7644SOL     OW23830   4.885   3.091   2.409
 7644SOL    HW123831   4.979   3.061   2.425
 7644SOL    HW223832   4.885   3.159   2.335
 7645SOL     OW23833   4.349   3.324   5.708
 7645SOL    HW123834   4.370   3.268   5.628
 7645SOL    HW223835   4.299   3.405   5.680
 7646SOL     OW23836   0.620   2.819   4.088
 7646SOL    HW123837   0.583   2.910   4.074
 7646SOL    HW223838   0.569   2.753   4.032
 7647SOL     OW23839   0.352   2.956   4.524
 7647SOL    HW123840   0.406   3.003   4.454
 7647SOL    HW223841   0.403   2.878   4.560
 7648SOL     OW23842   2.185   1.591   2.367
 7648SOL    HW123843   2.112   1.597   2.436
 7648SOL    HW223844   2.155   1.637   2.283
 7649SOL     OW23845   1.372   1.457   4.315
 7649SOL    HW123846   1.330   1.472   4.225
 7649SOL    HW223847   1.471   1.446   4.304
 7650SOL     OW23848   6.099   0.149   1.271
 7650SOL    HW123849   6.148   0.115   1.351
 7650SOL    HW223850   6.048   0.231   1.296
 7651SOL     OW23851   2.511   6.061   4.367
 7651SOL    HW123852   2.562   6.138   4.406
 7651SOL    HW223853   2.573   6.000   4.319
 7652SOL     OW23854   5.519   2.865   5.361
 7652SOL    HW123855   5.613   2.896   5.375
 7652SOL    HW223856   5.458   2.945   5.364
 7653SOL     OW23857   1.286   1.499   0.038
 7653SOL    HW123858   1.354   1.479   0.109
 7653SOL    HW223859   1.241   1.414   0.011
 7654SOL     OW23860   5.361   3.598   4.673
 7654SOL    HW123861   5.360   3.603   4.773
 7654SOL    HW223862   5.421   3.524   4.643
 7655SOL     OW23863   3.771   0.714   3.585
 7655SOL    HW123864   3.684   0.734   3.629
 7655SOL    HW223865   3.771   0.620   3.551
 7656SOL     OW23866   4.937   2.677   6.257
 7656SOL    HW123867   4.988   2.727   6.327
 7656SOL    HW223868   4.970   2.582   6.254
 7657SOL     OW23869   1.918   2.529   3.941
 7657SOL    HW123870   2.006   2.509   3.983
 7657SOL    HW223871   1.895   2.626   3.956
 7658SOL     OW23872   3.041   0.402   0.708
 7658SOL    HW123873   3.041   0.464   0.629
 7658SOL    HW223874   2.962   0.421   0.766
 7659SOL     OW23875   4.715   4.141   6.992
 7659SOL    HW123876   4.698   4.207   6.919
 7659SOL    HW223877   4.805   4.157   0.009
 7660SOL     OW23878   6.306   5.356   4.186
 7660SOL    HW123879   6.279   5.338   4.092
 7660SOL    HW223880   6.289   5.451   4.209
 7661SOL     OW23881   4.711   1.702   5.772
 7661SOL    HW123882   4.784   1.651   5.727
 7661SOL    HW223883   4.751   1.778   5.823
 7662SOL     OW23884   0.877   2.698   3.322
 7662SOL    HW123885   0.889   2.794   3.296
 7662SOL    HW223886   0.866   2.692   3.421
 7663SOL     OW23887   4.961   5.519   6.462
 7663SOL    HW123888   4.981   5.423   6.440
 7663SOL    HW223889   4.862   5.533   6.461
 7664SOL     OW23890   3.385   1.471   2.927
 7664SOL    HW123891   3.461   1.534   2.915
 7664SOL    HW223892   3.320   1.482   2.852
 7665SOL     OW23893   5.490   1.586   4.255
 7665SOL    HW123894   5.415   1.618   4.314
 7665SOL    HW223895   5.568   1.647   4.265
 7666SOL     OW23896   0.227   4.828   3.975
 7666SOL    HW123897   0.189   4.917   3.950
 7666SOL    HW223898   0.327   4.835   3.980
 7667SOL     OW23899   4.154   0.497   3.027
 7667SOL    HW123900   4.119   0.581   3.068
 7667SOL    HW223901   4.079   0.446   2.986
 7668SOL     OW23902   2.473   4.895   0.269
 7668SOL    HW123903   2.531   4.917   0.348
 7668SOL    HW223904   2.506   4.810   0.227
 7669SOL     OW23905   4.468   0.944   5.193
 7669SOL    HW123906   4.504   0.860   5.151
 7669SOL    HW223907   4.464   0.932   5.292
 7670SOL     OW23908   0.890   6.096   0.825
 7670SOL    HW123909   0.918   6.160   0.753
 7670SOL    HW223910   0.862   6.010   0.783
 7671SOL     OW23911   4.405   0.215   2.447
 7671SOL    HW123912   4.432   0.119   2.458
 7671SOL    HW223913   4.342   0.223   2.370
 7672SOL     OW23914   6.673   4.876   3.344
 7672SOL    HW123915   6.701   4.961   3.300
 7672SOL    HW223916   6.605   4.894   3.414
 7673SOL     OW23917   1.837   5.618   2.362
 7673SOL    HW123918   1.903   5.574   2.299
 7673SOL    HW223919   1.778   5.548   2.402
 7674SOL     OW23920   4.510   0.086   3.933
 7674SOL    HW123921   4.471   0.102   4.024
 7674SOL    HW223922   4.562   0.167   3.905
 7675SOL     OW23923   4.661   6.344   3.562
 7675SOL    HW123924   4.573   6.392   3.567
 7675SOL    HW223925   4.732   6.409   3.535
 7676SOL     OW23926   2.872   2.062   6.077
 7676SOL    HW123927   2.952   2.004   6.060
 7676SOL    HW223928   2.895   2.158   6.060
 7677SOL     OW23929   0.244   4.530   0.551
 7677SOL    HW123930   0.254   4.576   0.463
 7677SOL    HW223931   0.234   4.432   0.537
 7678SOL     OW23932   1.660   2.762   5.220
 7678SOL    HW123933   1.721   2.728   5.148
 7678SOL    HW223934   1.605   2.837   5.184
 7679SOL     OW23935   2.109   5.341   5.562
 7679SOL    HW123936   2.067   5.290   5.638
 7679SOL    HW223937   2.082   5.301   5.475
 7680SOL     OW23938   1.349   0.366   6.189
 7680SOL    HW123939   1.419   0.305   6.152
 7680SOL    HW223940   1.261   0.347   6.145
 7681SOL     OW23941   2.921   1.158   0.362
 7681SOL    HW123942   2.969   1.243   0.382
 7681SOL    HW223943   2.850   1.142   0.430
 7682SOL     OW23944   4.728   1.202   2.062
 7682SOL    HW123945   4.713   1.132   2.132
 7682SOL    HW223946   4.640   1.238   2.033
 7683SOL     OW23947   0.536   1.347   4.642
 7683SOL    HW123948   0.580   1.429   4.605
 7683SOL    HW223949   0.581   1.321   4.728
 7684SOL     OW23950   3.946   2.478   1.407
 7684SOL    HW123951   3.882   2.522   1.344
 7684SOL    HW223952   3.905   2.477   1.499
 7685SOL     OW23953   3.336   1.547   6.687
 7685SOL    HW123954   3.307   1.458   6.721
 7685SOL    HW223955   3.256   1.598   6.655
 7686SOL     OW23956   5.899   6.964   4.013
 7686SOL    HW123957   5.866   6.997   3.925
 7686SOL    HW223958   5.994   6.932   4.003
 7687SOL     OW23959   4.891   5.070   4.957
 7687SOL    HW123960   4.936   5.022   4.883
 7687SOL    HW223961   4.816   5.014   4.993
 7688SOL     OW23962   6.858   6.414   5.844
 7688SOL    HW123963   6.819   6.477   5.911
 7688SOL    HW223964   6.803   6.416   5.761
 7689SOL     OW23965   5.032   0.264   2.776
 7689SOL    HW123966   5.075   0.173   2.770
 7689SOL    HW223967   5.091   0.324   2.830
 7690SOL     OW23968   5.545   5.203   0.601
 7690SOL    HW123969   5.487   5.213   0.683
 7690SOL    HW223970   5.627   5.259   0.611
 7691SOL     OW23971   4.751   4.616   1.823
 7691SOL    HW123972   4.762   4.683   1.749
 7691SOL    HW223973   4.673   4.557   1.803
 7692SOL     OW23974   0.802   6.210   1.644
 7692SOL    HW123975   0.882   6.171   1.690
 7692SOL    HW223976   0.777   6.297   1.687
 7693SOL     OW23977   3.118   0.151   1.565
 7693SOL    HW123978   3.194   0.215   1.560
 7693SOL    HW223979   3.031   0.201   1.556
 7694SOL     OW23980   5.663   2.903   4.492
 7694SOL    HW123981   5.626   2.957   4.417
 7694SOL    HW223982   5.755   2.937   4.515
 7695SOL     OW23983   5.892   0.692   1.496
 7695SOL    HW123984   5.930   0.784   1.499
 7695SOL    HW223985   5.965   0.625   1.514
 7696SOL     OW23986   6.929   1.419   5.992
 7696SOL    HW123987   6.844   1.379   6.025
 7696SOL    HW223988   6.999   1.416   6.063
 7697SOL     OW23989   2.832   0.887   2.777
 7697SOL    HW123990   2.756   0.945   2.807
 7697SOL    HW223991   2.918   0.922   2.815
 7698SOL     OW23992   6.629   1.647   5.272
 7698SOL    HW123993   6.672   1.617   5.358
 7698SOL    HW223994   6.641   1.576   5.203
 7699SOL     OW23995   2.471   5.337   6.800
 7699SOL    HW123996   2.390   5.383   6.764
 7699SOL    HW223997   2.461   5.324   6.898
 7700SOL     OW23998   4.009   5.994   3.452
 7700SOL    HW123999   4.079   5.954   3.512
 7700SOL    HW224000   3.997   5.937   3.371
 7701SOL     OW24001   0.378   2.369   6.783
 7701SOL    HW124002   0.374   2.424   6.699
 7701SOL    HW224003   0.458   2.309   6.779
 7702SOL     OW24004   4.299   6.283   5.264
 7702SOL    HW124005   4.320   6.368   5.216
 7702SOL    HW224006   4.207   6.252   5.239
 7703SOL     OW24007   6.397   6.847   5.484
 7703SOL    HW124008   6.464   6.860   5.556
 7703SOL    HW224009   6.429   6.777   5.420
 7704SOL     OW24010   6.377   2.059   3.579
 7704SOL    HW124011   6.370   2.095   3.672
 7704SOL    HW224012   6.365   2.134   3.513
 7705SOL     OW24013   2.318   4.782   1.098
 7705SOL    HW124014   2.416   4.778   1.116
 7705SOL    HW224015   2.281   4.866   1.138
 7706SOL     OW24016   3.606   3.233   3.444
 7706SOL    HW124017   3.531   3.205   3.503
 7706SOL    HW224018   3.692   3.227   3.494
 7707SOL     OW24019   0.228   4.942   6.495
 7707SOL    HW124020   0.136   4.904   6.509
 7707SOL    HW224021   0.295   4.878   6.532
 7708SOL     OW24022   1.663   6.609   4.322
 7708SOL    HW124023   1.735   6.641   4.260
 7708SOL    HW224024   1.605   6.543   4.274
 7709SOL     OW24025   6.572   5.260   1.704
 7709SOL    HW124026   6.531   5.169   1.697
 7709SOL    HW224027   6.543   5.315   1.625
 7710SOL     OW24028   1.899   2.530   0.708
 7710SOL    HW124029   1.988   2.496   0.679
 7710SOL    HW224030   1.875   2.489   0.797
 7711SOL     OW24031   5.741   5.528   5.737
 7711SOL    HW124032   5.733   5.448   5.795
 7711SOL    HW224033   5.654   5.577   5.733
 7712SOL     OW24034   6.162   4.644   0.117
 7712SOL    HW124035   6.079   4.588   0.112
 7712SOL    HW224036   6.173   4.678   0.210
 7713SOL     OW24037   2.052   3.732   0.844
 7713SOL    HW124038   2.030   3.636   0.830
 7713SOL    HW224039   2.049   3.752   0.942
 7714SOL     OW24040   0.365   6.587   5.142
 7714SOL    HW124041   0.331   6.641   5.065
 7714SOL    HW224042   0.447   6.629   5.180
 7715SOL     OW24043   2.687   2.214   6.616
 7715SOL    HW124044   2.650   2.122   6.624
 7715SOL    HW224045   2.752   2.230   6.690
 7716SOL     OW24046   6.837   5.236   0.201
 7716SOL    HW124047   6.783   5.153   0.212
 7716SOL    HW224048   6.921   5.215   0.150
 7717SOL     OW24049   1.563   1.613   5.222
 7717SOL    HW124050   1.606   1.666   5.149
 7717SOL    HW224051   1.472   1.583   5.193
 7718SOL     OW24052   6.710   4.530   2.771
 7718SOL    HW124053   6.718   4.488   2.680
 7718SOL    HW224054   6.746   4.623   2.767
 7719SOL     OW24055   0.967   4.224   4.812
 7719SOL    HW124056   0.884   4.172   4.833
 7719SOL    HW224057   1.045   4.162   4.803
 7720SOL     OW24058   6.001   1.579   5.820
 7720SOL    HW124059   5.942   1.519   5.765
 7720SOL    HW224060   6.063   1.628   5.759
 7721SOL     OW24061   0.612   0.251   2.630
 7721SOL    HW124062   0.694   0.211   2.588
 7721SOL    HW224063   0.532   0.196   2.605
 7722SOL     OW24064   1.828   5.096   4.033
 7722SOL    HW124065   1.850   5.120   3.938
 7722SOL    HW224066   1.760   5.022   4.034
 7723SOL     OW24067   4.959   3.679   6.376
 7723SOL    HW124068   4.920   3.761   6.417
 7723SOL    HW224069   5.010   3.704   6.293
 7724SOL     OW24070   3.388   4.354   0.438
 7724SOL    HW124071   3.324   4.409   0.383
 7724SOL    HW224072   3.412   4.405   0.521
 7725SOL     OW24073   5.799   2.508   2.771
 7725SOL    HW124074   5.724   2.483   2.832
 7725SOL    HW224075   5.882   2.523   2.825
 7726SOL     OW24076   0.983   3.100   6.021
 7726SOL    HW124077   1.023   3.015   6.055
 7726SOL    HW224078   1.054   3.158   5.981
 7727SOL     OW24079   5.927   2.639   1.458
 7727SOL    HW124080   5.883   2.723   1.426
 7727SOL    HW224081   5.970   2.655   1.547
 7728SOL     OW24082   2.255   2.749   5.029
 7728SOL    HW124083   2.284   2.839   5.061
 7728SOL    HW224084   2.324   2.711   4.968
 7729SOL     OW24085   5.441   1.588   2.183
 7729SOL    HW124086   5.385   1.508   2.164
 7729SOL    HW224087   5.432   1.614   2.279
 7730SOL     OW24088   6.405   4.708   5.982
 7730SOL    HW124089   6.457   4.792   5.990
 7730SOL    HW224090   6.338   4.716   5.908
 7731SOL     OW24091   6.755   6.997   0.629
 7731SOL    HW124092   6.683   0.031   0.669
 7731SOL    HW224093   6.833   6.992   0.691
 7732SOL     OW24094   4.175   0.161   0.389
 7732SOL    HW124095   4.099   0.103   0.418
 7732SOL    HW224096   4.242   0.106   0.341
 7733SOL     OW24097   6.160   5.252   2.416
 7733SOL    HW124098   6.105   5.247   2.333
 7733SOL    HW224099   6.187   5.347   2.433
 7734SOL     OW24100   2.281   4.815   4.514
 7734SOL    HW124101   2.304   4.722   4.485
 7734SOL    HW224102   2.359   4.854   4.563
 7735SOL     OW24103   6.257   5.731   0.134
 7735SOL    HW124104   6.199   5.780   0.199
 7735SOL    HW224105   6.350   5.766   0.140
 7736SOL     OW24106   2.263   3.184   0.589
 7736SOL    HW124107   2.202   3.130   0.647
 7736SOL    HW224108   2.290   3.267   0.638
 7737SOL     OW24109   3.097   5.727   2.034
 7737SOL    HW124110   3.075   5.735   1.937
 7737SOL    HW224111   3.035   5.660   2.077
 7738SOL     OW24112   2.374   5.849   6.991
 7738SOL    HW124113   2.275   5.841   6.987
 7738SOL    HW224114   2.406   5.909   6.918
 7739SOL     OW24115   1.654   1.656   1.641
 7739SOL    HW124116   1.665   1.573   1.697
 7739SOL    HW224117   1.730   1.663   1.577
 7740SOL     OW24118   1.816   0.971   2.473
 7740SOL    HW124119   1.837   0.894   2.534
 7740SOL    HW224120   1.874   1.049   2.497
 7741SOL     OW24121   0.748   4.176   5.142
 7741SOL    HW124122   0.795   4.262   5.122
 7741SOL    HW224123   0.725   4.172   5.239
 7742SOL     OW24124   4.168   1.670   3.967
 7742SOL    HW124125   4.106   1.633   3.898
 7742SOL    HW224126   4.257   1.625   3.960
 7743SOL     OW24127   4.891   1.124   7.011
 7743SOL    HW124128   4.840   1.037   7.015
 7743SOL    HW224129   4.987   1.106   6.989
 7744SOL     OW24130   0.654   6.084   3.433
 7744SOL    HW124131   0.682   6.087   3.337
 7744SOL    HW224132   0.628   5.991   3.457
 7745SOL     OW24133   2.556   6.865   6.891
 7745SOL    HW124134   2.517   6.775   6.908
 7745SOL    HW224135   2.599   6.900   6.974
 7746SOL     OW24136   1.592   6.989   0.869
 7746SOL    HW124137   1.651   6.967   0.792
 7746SOL    HW224138   1.527   6.914   0.884
 7747SOL     OW24139   0.548   6.215   1.241
 7747SOL    HW124140   0.555   6.311   1.269
 7747SOL    HW224141   0.541   6.211   1.141
 7748SOL     OW24142   3.356   3.734   4.403
 7748SOL    HW124143   3.270   3.779   4.377
 7748SOL    HW224144   3.403   3.789   4.472
 7749SOL     OW24145   3.232   3.931   3.503
 7749SOL    HW124146   3.261   3.914   3.597
 7749SOL    HW224147   3.269   3.860   3.443
 7750SOL     OW24148   5.944   5.909   6.093
 7750SOL    HW124149   5.987   5.841   6.151
 7750SOL    HW224150   5.959   5.886   5.997
 7751SOL     OW24151   0.962   2.003   3.145
 7751SOL    HW124152   1.048   2.051   3.162
 7751SOL    HW224153   0.898   2.065   3.099
 7752SOL     OW24154   5.651   5.846   6.204
 7752SOL    HW124155   5.688   5.883   6.118
 7752SOL    HW224156   5.556   5.873   6.213
 7753SOL     OW24157   2.829   1.006   4.175
 7753SOL    HW124158   2.775   0.969   4.251
 7753SOL    HW224159   2.919   0.964   4.174
 7754SOL     OW24160   5.490   0.561   1.661
 7754SOL    HW124161   5.541   0.491   1.712
 7754SOL    HW224162   5.485   0.535   1.565
 7755SOL     OW24163   1.164   1.040   5.838
 7755SOL    HW124164   1.148   1.028   5.936
 7755SOL    HW224165   1.263   1.042   5.820
 7756SOL     OW24166   2.791   5.859   2.416
 7756SOL    HW124167   2.844   5.906   2.345
 7756SOL    HW224168   2.714   5.810   2.374
 7757SOL     OW24169   5.074   6.396   4.142
 7757SOL    HW124170   5.053   6.493   4.141
 7757SOL    HW224171   4.990   6.343   4.154
 7758SOL     OW24172   1.740   2.256   6.793
 7758SOL    HW124173   1.798   2.231   6.716
 7758SOL    HW224174   1.788   2.319   6.853
 7759SOL     OW24175   1.870   1.412   5.123
 7759SOL    HW124176   1.925   1.374   5.048
 7759SOL    HW224177   1.775   1.381   5.114
 7760SOL     OW24178   5.905   3.433   2.444
 7760SOL    HW124179   5.991   3.482   2.430
 7760SOL    HW224180   5.905   3.349   2.389
 7761SOL     OW24181   2.379   0.024   5.986
 7761SOL    HW124182   2.380   6.995   5.900
 7761SOL    HW224183   2.317   0.102   5.977
 7762SOL     OW24184   4.271   0.633   5.155
 7762SOL    HW124185   4.246   0.546   5.196
 7762SOL    HW224186   4.367   0.630   5.128
 7763SOL     OW24187   1.138   1.627   1.138
 7763SOL    HW124188   1.141   1.537   1.182
 7763SOL    HW224189   1.045   1.664   1.144
 7764SOL     OW24190   3.620   3.132   2.724
 7764SOL    HW124191   3.583   3.221   2.696
 7764SOL    HW224192   3.643   3.079   2.642
 7765SOL     OW24193   6.335   3.022   3.956
 7765SOL    HW124194   6.319   3.003   4.052
 7765SOL    HW224195   6.432   3.039   3.941
 7766SOL     OW24196   5.232   1.563   0.293
 7766SOL    HW124197   5.163   1.503   0.333
 7766SOL    HW224198   5.247   1.641   0.353
 7767SOL     OW24199   3.793   6.828   4.155
 7767SOL    HW124200   3.880   6.874   4.171
 7767SOL    HW224201   3.809   6.730   4.144
 7768SOL     OW24202   4.063   5.006   2.723
 7768SOL    HW124203   3.995   5.075   2.747
 7768SOL    HW224204   4.138   5.009   2.789
 7769SOL     OW24205   5.072   1.699   1.433
 7769SOL    HW124206   5.135   1.627   1.461
 7769SOL    HW224207   5.041   1.681   1.339
 7770SOL     OW24208   1.490   3.983   2.191
 7770SOL    HW124209   1.557   3.909   2.185
 7770SOL    HW224210   1.398   3.946   2.182
 7771SOL     OW24211   2.504   2.779   5.350
 7771SOL    HW124212   2.537   2.801   5.442
 7771SOL    HW224213   2.517   2.858   5.290
 7772SOL     OW24214   5.189   0.756   3.646
 7772SOL    HW124215   5.286   0.731   3.649
 7772SOL    HW224216   5.166   0.790   3.555
 7773SOL     OW24217   2.810   5.141   5.533
 7773SOL    HW124218   2.869   5.063   5.509
 7773SOL    HW224219   2.866   5.221   5.550
 7774SOL     OW24220   6.003   2.158   6.308
 7774SOL    HW124221   6.018   2.061   6.288
 7774SOL    HW224222   5.929   2.168   6.374
 7775SOL     OW24223   3.259   6.864   2.961
 7775SOL    HW124224   3.238   6.962   2.955
 7775SOL    HW224225   3.336   6.851   3.023
 7776SOL     OW24226   3.064   3.538   0.040
 7776SOL    HW124227   2.971   3.550   0.006
 7776SOL    HW224228   3.115   3.623   0.029
 7777SOL     OW24229   2.487   1.532   5.337
 7777SOL    HW124230   2.410   1.490   5.289
 7777SOL    HW224231   2.562   1.467   5.344
 7778SOL     OW24232   5.315   6.737   0.381
 7778SOL    HW124233   5.314   6.745   0.281
 7778SOL    HW224234   5.404   6.765   0.416
 7779SOL     OW24235   3.260   2.992   0.598
 7779SOL    HW124236   3.197   2.933   0.547
 7779SOL    HW224237   3.294   2.942   0.678
 7780SOL     OW24238   1.690   5.077   4.819
 7780SOL    HW124239   1.775   5.128   4.807
 7780SOL    HW224240   1.693   4.993   4.764
 7781SOL     OW24241   1.573   4.250   6.683
 7781SOL    HW124242   1.576   4.178   6.754
 7781SOL    HW224243   1.640   4.320   6.705
 7782SOL     OW24244   1.643   3.521   5.352
 7782SOL    HW124245   1.586   3.449   5.314
 7782SOL    HW224246   1.696   3.564   5.278
 7783SOL     OW24247   2.507   6.177   5.860
 7783SOL    HW124248   2.552   6.198   5.774
 7783SOL    HW224249   2.489   6.078   5.865
 7784SOL     OW24250   2.086   2.544   0.311
 7784SOL    HW124251   2.151   2.483   0.266
 7784SOL    HW224252   2.135   2.622   0.350
 7785SOL     OW24253   1.454   6.992   3.785
 7785SOL    HW124254   1.541   6.943   3.776
 7785SOL    HW224255   1.430   6.998   3.882
 7786SOL     OW24256   3.469   5.611   6.377
 7786SOL    HW124257   3.379   5.616   6.421
 7786SOL    HW224258   3.527   5.685   6.413
 7787SOL     OW24259   2.021   3.521   5.409
 7787SOL    HW124260   2.053   3.428   5.392
 7787SOL    HW224261   1.986   3.560   5.325
 7788SOL     OW24262   1.399   0.190   1.707
 7788SOL    HW124263   1.312   0.157   1.743
 7788SOL    HW224264   1.428   0.130   1.632
 7789SOL     OW24265   3.454   6.675   0.057
 7789SOL    HW124266   3.431   6.579   0.065
 7789SOL    HW224267   3.553   6.687   0.073
 7790SOL     OW24268   5.971   5.247   2.198
 7790SOL    HW124269   5.902   5.319   2.204
 7790SOL    HW224270   5.926   5.159   2.183
 7791SOL     OW24271   3.134   6.589   3.827
 7791SOL    HW124272   3.139   6.633   3.917
 7791SOL    HW224273   3.038   6.583   3.799
 7792SOL     OW24274   0.947   5.705   6.048
 7792SOL    HW124275   1.001   5.670   5.972
 7792SOL    HW224276   1.005   5.708   6.130
 7793SOL     OW24277   1.897   0.842   6.128
 7793SOL    HW124278   1.905   0.922   6.068
 7793SOL    HW224279   1.863   0.764   6.075
 7794SOL     OW24280   4.546   5.125   3.367
 7794SOL    HW124281   4.462   5.156   3.411
 7794SOL    HW224282   4.612   5.099   3.438
 7795SOL     OW24283   1.981   3.582   5.160
 7795SOL    HW124284   1.987   3.679   5.136
 7795SOL    HW224285   2.058   3.533   5.119
 7796SOL     OW24286   2.890   3.741   4.191
 7796SOL    HW124287   2.807   3.684   4.188
 7796SOL    HW224288   2.967   3.690   4.154
 7797SOL     OW24289   0.759   6.019   2.782
 7797SOL    HW124290   0.754   5.923   2.808
 7797SOL    HW224291   0.743   6.077   2.861
 7798SOL     OW24292   1.371   4.853   6.363
 7798SOL    HW124293   1.417   4.764   6.372
 7798SOL    HW224294   1.302   4.847   6.290
 7799SOL     OW24295   6.807   6.296   1.757
 7799SOL    HW124296   6.804   6.323   1.853
 7799SOL    HW224297   6.853   6.367   1.703
 7800SOL     OW24298   1.511   5.291   0.824
 7800SOL    HW124299   1.574   5.260   0.753
 7800SOL    HW224300   1.531   5.244   0.910
 7801SOL     OW24301   2.818   2.072   1.459
 7801SOL    HW124302   2.843   2.021   1.377
 7801SOL    HW224303   2.719   2.068   1.472
 7802SOL     OW24304   5.279   2.121   1.498
 7802SOL    HW124305   5.197   2.177   1.487
 7802SOL    HW224306   5.252   2.028   1.523
 7803SOL     OW24307   4.507   3.063   5.774
 7803SOL    HW124308   4.416   3.024   5.785
 7803SOL    HW224309   4.545   3.084   5.865
 7804SOL     OW24310   6.357   1.147   3.778
 7804SOL    HW124311   6.276   1.188   3.735
 7804SOL    HW224312   6.361   1.174   3.874
 7805SOL     OW24313   5.608   0.961   1.473
 7805SOL    HW124314   5.687   0.998   1.423
 7805SOL    HW224315   5.638   0.928   1.563
 7806SOL     OW24316   5.488   2.500   5.825
 7806SOL    HW124317   5.395   2.488   5.789
 7806SOL    HW224318   5.526   2.410   5.849
 7807SOL     OW24319   0.359   4.852   6.284
 7807SOL    HW124320   0.349   4.917   6.209
 7807SOL    HW224321   0.303   4.882   6.361
 7808SOL     OW24322   0.140   2.825   4.396
 7808SOL    HW124323   0.114   2.761   4.469
 7808SOL    HW224324   0.213   2.885   4.428
 7809SOL     OW24325   2.579   5.943   4.653
 7809SOL    HW124326   2.482   5.963   4.646
 7809SOL    HW224327   2.596   5.848   4.624
 7810SOL     OW24328   3.451   0.022   5.127
 7810SOL    HW124329   3.511   6.999   5.192
 7810SOL    HW224330   3.473   0.120   5.126
 7811SOL     OW24331   0.235   4.549   3.877
 7811SOL    HW124332   0.240   4.647   3.897
 7811SOL    HW224333   0.216   4.499   3.962
 7812SOL     OW24334   1.254   2.044   3.880
 7812SOL    HW124335   1.337   1.993   3.904
 7812SOL    HW224336   1.258   2.136   3.919
 7813SOL     OW24337   4.273   2.245   6.230
 7813SOL    HW124338   4.239   2.317   6.169
 7813SOL    HW224339   4.229   2.253   6.319
 7814SOL     OW24340   6.830   3.607   3.633
 7814SOL    HW124341   6.814   3.685   3.692
 7814SOL    HW224342   6.749   3.592   3.576
 7815SOL     OW24343   5.048   0.455   0.015
 7815SOL    HW124344   5.121   0.479   0.079
 7815SOL    HW224345   4.961   0.450   0.064
 7816SOL     OW24346   1.350   2.736   6.455
 7816SOL    HW124347   1.394   2.733   6.365
 7816SOL    HW224348   1.331   2.830   6.480
 7817SOL     OW24349   6.006   4.179   4.056
 7817SOL    HW124350   6.061   4.184   3.972
 7817SOL    HW224351   5.949   4.097   4.053
 7818SOL     OW24352   4.462   0.915   3.166
 7818SOL    HW124353   4.399   0.869   3.104
 7818SOL    HW224354   4.498   0.849   3.232
 7819SOL     OW24355   6.702   3.077   1.662
 7819SOL    HW124356   6.736   3.090   1.569
 7819SOL    HW224357   6.628   3.010   1.660
 7820SOL     OW24358   1.295   2.491   4.590
 7820SOL    HW124359   1.370   2.528   4.645
 7820SOL    HW224360   1.260   2.563   4.530
 7821SOL     OW24361   5.012   6.159   0.938
 7821SOL    HW124362   5.095   6.103   0.944
 7821SOL    HW224363   5.014   6.213   0.854
 7822SOL     OW24364   0.337   0.365   5.415
 7822SOL    HW124365   0.417   0.324   5.371
 7822SOL    HW224366   0.360   0.457   5.446
 7823SOL     OW24367   2.485   3.763   5.296
 7823SOL    HW124368   2.422   3.698   5.255
 7823SOL    HW224369   2.456   3.856   5.276
 7824SOL     OW24370   6.131   1.836   4.804
 7824SOL    HW124371   6.065   1.892   4.854
 7824SOL    HW224372   6.220   1.883   4.801
 7825SOL     OW24373   1.505   3.255   0.441
 7825SOL    HW124374   1.576   3.268   0.510
 7825SOL    HW224375   1.419   3.232   0.486
 7826SOL     OW24376   5.809   1.300   1.616
 7826SOL    HW124377   5.875   1.361   1.657
 7826SOL    HW224378   5.716   1.334   1.633
 7827SOL     OW24379   2.025   5.773   1.020
 7827SOL    HW124380   2.087   5.728   0.957
 7827SOL    HW224381   2.070   5.853   1.061
 7828SOL     OW24382   6.508   4.679   0.285
 7828SOL    HW124383   6.487   4.591   0.328
 7828SOL    HW224384   6.435   4.745   0.307
 7829SOL     OW24385   2.703   3.375   1.168
 7829SOL    HW124386   2.676   3.281   1.144
 7829SOL    HW224387   2.675   3.395   1.262
 7830SOL     OW24388   3.536   5.003   5.020
 7830SOL    HW124389   3.525   5.080   5.082
 7830SOL    HW224390   3.449   4.985   4.974
 7831SOL     OW24391   1.645   0.279   1.852
 7831SOL    HW124392   1.708   0.288   1.774
 7831SOL    HW224393   1.551   0.277   1.818
 7832SOL     OW24394   6.589   0.781   4.702
 7832SOL    HW124395   6.571   0.726   4.784
 7832SOL    HW224396   6.603   0.877   4.728
 7833SOL     OW24397   1.097   0.887   4.679
 7833SOL    HW124398   1.106   0.984   4.655
 7833SOL    HW224399   1.000   0.864   4.687
 7834SOL     OW24400   6.971   1.814   3.706
 7834SOL    HW124401   0.031   1.870   3.704
 7834SOL    HW224402   6.987   1.730   3.655
 7835SOL     OW24403   4.274   1.883   5.348
 7835SOL    HW124404   4.232   1.804   5.392
 7835SOL    HW224405   4.320   1.939   5.417
 7836SOL     OW24406   3.085   4.090   5.390
 7836SOL    HW124407   3.129   4.080   5.301
 7836SOL    HW224408   3.037   4.177   5.395
 7837SOL     OW24409   5.002   5.695   6.864
 7837SOL    HW124410   5.040   5.661   6.950
 7837SOL    HW224411   5.028   5.791   6.852
 7838SOL     OW24412   4.270   6.563   1.350
 7838SOL    HW124413   4.321   6.518   1.424
 7838SOL    HW224414   4.234   6.650   1.383
 7839SOL     OW24415   6.370   4.042   4.639
 7839SOL    HW124416   6.442   4.102   4.603
 7839SOL    HW224417   6.411   3.971   4.696
 7840SOL     OW24418   7.020   3.331   4.387
 7840SOL    HW124419   7.003   3.280   4.303
 7840SOL    HW224420   0.080   3.295   4.431
 7841SOL     OW24421   4.148   1.777   6.708
 7841SOL    HW124422   4.052   1.799   6.691
 7841SOL    HW224423   4.154   1.700   6.772
 7842SOL     OW24424   1.910   1.378   2.235
 7842SOL    HW124425   1.855   1.397   2.154
 7842SOL    HW224426   1.953   1.288   2.226
 7843SOL     OW24427   0.129   6.551   3.703
 7843SOL    HW124428   0.089   6.631   3.747
 7843SOL    HW224429   0.223   6.571   3.675
 7844SOL     OW24430   3.275   0.773   2.675
 7844SOL    HW124431   3.287   0.674   2.679
 7844SOL    HW224432   3.345   0.812   2.614
 7845SOL     OW24433   4.863   1.841   2.452
 7845SOL    HW124434   4.922   1.760   2.450
 7845SOL    HW224435   4.770   1.815   2.476
 7846SOL     OW24436   1.106   2.352   1.686
 7846SOL    HW124437   1.066   2.276   1.635
 7846SOL    HW224438   1.204   2.339   1.694
 7847SOL     OW24439   6.689   1.312   3.449
 7847SOL    HW124440   6.666   1.408   3.433
 7847SOL    HW224441   6.628   1.253   3.396
 7848SOL     OW24442   3.251   4.768   1.342
 7848SOL    HW124443   3.321   4.839   1.346
 7848SOL    HW224444   3.226   4.740   1.435
 7849SOL     OW24445   6.104   4.000   4.592
 7849SOL    HW124446   6.106   3.901   4.583
 7849SOL    HW224447   6.197   4.036   4.586
 7850SOL     OW24448   0.613   1.512   3.833
 7850SOL    HW124449   0.531   1.515   3.890
 7850SOL    HW224450   0.666   1.430   3.855
 7851SOL     OW24451   0.093   2.147   1.863
 7851SOL    HW124452   0.027   2.133   1.937
 7851SOL    HW224453   0.116   2.244   1.857
 7852SOL     OW24454   3.023   0.920   0.459
 7852SOL    HW124455   2.990   1.007   0.423
 7852SOL    HW224456   3.119   0.929   0.488
 7853SOL     OW24457   4.917   2.800   1.535
 7853SOL    HW124458   4.998   2.743   1.525
 7853SOL    HW224459   4.898   2.816   1.631
 7854SOL     OW24460   3.178   2.664   5.980
 7854SOL    HW124461   3.115   2.628   5.911
 7854SOL    HW224462   3.131   2.668   6.068
 7855SOL     OW24463   4.246   5.984   4.763
 7855SOL    HW124464   4.224   5.905   4.706
 7855SOL    HW224465   4.174   6.053   4.754
 7856SOL     OW24466   0.410   5.463   4.996
 7856SOL    HW124467   0.496   5.505   4.969
 7856SOL    HW224468   0.412   5.365   4.975
 7857SOL     OW24469   4.947   3.301   0.807
 7857SOL    HW124470   4.974   3.233   0.875
 7857SOL    HW224471   5.004   3.292   0.725
 7858SOL     OW24472   6.491   6.904   4.991
 7858SOL    HW124473   6.577   6.954   4.999
 7858SOL    HW224474   6.475   6.881   4.895
 7859SOL     OW24475   4.493   3.611   0.371
 7859SOL    HW124476   4.547   3.540   0.327
 7859SOL    HW224477   4.448   3.575   0.452
 7860SOL     OW24478   4.404   1.131   4.431
 7860SOL    HW124479   4.324   1.082   4.396
 7860SOL    HW224480   4.473   1.065   4.461
 7861SOL     OW24481   2.716   5.017   1.656
 7861SOL    HW124482   2.718   4.947   1.728
 7861SOL    HW224483   2.632   5.072   1.666
 7862SOL     OW24484   1.957   5.718   2.801
 7862SOL    HW124485   1.997   5.759   2.884
 7862SOL    HW224486   2.022   5.725   2.726
 7863SOL     OW24487   0.507   4.326   3.872
 7863SOL    HW124488   0.545   4.278   3.793
 7863SOL    HW224489   0.495   4.423   3.849
 7864SOL     OW24490   1.142   5.608   5.874
 7864SOL    HW124491   1.192   5.524   5.893
 7864SOL    HW224492   1.207   5.684   5.867
 7865SOL     OW24493   6.540   5.561   4.347
 7865SOL    HW124494   6.591   5.476   4.332
 7865SOL    HW224495   6.521   5.604   4.259
 7866SOL     OW24496   1.015   0.649   5.461
 7866SOL    HW124497   1.042   0.722   5.524
 7866SOL    HW224498   1.005   0.563   5.513
 7867SOL     OW24499   5.905   6.696   2.960
 7867SOL    HW124500   5.972   6.622   2.952
 7867SOL    HW224501   5.817   6.665   2.923
 7868SOL     OW24502   4.598   6.111   1.155
 7868SOL    HW124503   4.670   6.045   1.135
 7868SOL    HW224504   4.622   6.162   1.238
 7869SOL     OW24505   5.605   4.615   5.885
 7869SOL    HW124506   5.536   4.663   5.831
 7869SOL    HW224507   5.607   4.519   5.859
 7870SOL     OW24508   4.673   6.586   4.789
 7870SOL    HW124509   4.666   6.643   4.871
 7870SOL    HW224510   4.714   6.499   4.811
 7871SOL     OW24511   4.845   2.328   2.067
 7871SOL    HW124512   4.756   2.336   2.022
 7871SOL    HW224513   4.831   2.296   2.161
 7872SOL     OW24514   1.785   3.591   2.537
 7872SOL    HW124515   1.778   3.495   2.564
 7872SOL    HW224516   1.718   3.645   2.589
 7873SOL     OW24517   6.411   0.313   0.706
 7873SOL    HW124518   6.461   0.367   0.638
 7873SOL    HW224519   6.377   0.374   0.777
 7874SOL     OW24520   4.448   2.583   1.050
 7874SOL    HW124521   4.456   2.682   1.049
 7874SOL    HW224522   4.383   2.555   1.121
 7875SOL     OW24523   3.463   2.897   0.293
 7875SOL    HW124524   3.527   2.878   0.367
 7875SOL    HW224525   3.410   2.815   0.271
 7876SOL     OW24526   1.353   6.353   3.653
 7876SOL    HW124527   1.284   6.397   3.596
 7876SOL    HW224528   1.396   6.279   3.601
 7877SOL     OW24529   0.249   1.244   2.946
 7877SOL    HW124530   0.314   1.319   2.930
 7877SOL    HW224531   0.286   1.183   3.017
 7878SOL     OW24532   4.627   4.336   3.634
 7878SOL    HW124533   4.676   4.354   3.719
 7878SOL    HW224534   4.543   4.390   3.631
 7879SOL     OW24535   3.740   5.098   2.810
 7879SOL    HW124536   3.729   5.192   2.843
 7879SOL    HW224537   3.662   5.043   2.841
 7880SOL     OW24538   2.400   4.081   0.945
 7880SOL    HW124539   2.434   4.170   0.915
 7880SOL    HW224540   2.469   4.036   1.003
 7881SOL     OW24541   4.805   3.977   4.537
 7881SOL    HW124542   4.785   3.880   4.550
 7881SOL    HW224543   4.811   4.023   4.626
 7882SOL     OW24544   2.015   3.425   1.639
 7882SOL    HW124545   2.045   3.510   1.596
 7882SOL    HW224546   2.009   3.439   1.738
 7883SOL     OW24547   0.788   0.688   5.737
 7883SOL    HW124548   0.759   0.751   5.809
 7883SOL    HW224549   0.876   0.719   5.700
 7884SOL     OW24550   0.841   3.686   4.372
 7884SOL    HW124551   0.781   3.765   4.387
 7884SOL    HW224552   0.789   3.602   4.384
 7885SOL     OW24553   0.078   5.821   0.917
 7885SOL    HW124554   0.062   5.865   0.829
 7885SOL    HW224555   7.014   5.799   0.961
 7886SOL     OW24556   4.266   5.848   0.212
 7886SOL    HW124557   4.355   5.887   0.190
 7886SOL    HW224558   4.261   5.829   0.311
 7887SOL     OW24559   3.707   2.002   6.508
 7887SOL    HW124560   3.621   2.044   6.480
 7887SOL    HW224561   3.769   2.073   6.541
 7888SOL     OW24562   6.444   0.281   4.832
 7888SOL    HW124563   6.359   0.267   4.782
 7888SOL    HW224564   6.470   0.377   4.829
 7889SOL     OW24565   1.671   4.820   1.742
 7889SOL    HW124566   1.686   4.795   1.646
 7889SOL    HW224567   1.620   4.906   1.746
 7890SOL     OW24568   1.632   3.778   2.666
 7890SOL    HW124569   1.584   3.847   2.610
 7890SOL    HW224570   1.682   3.823   2.739
 7891SOL     OW24571   1.658   4.002   2.836
 7891SOL    HW124572   1.570   4.045   2.819
 7891SOL    HW224573   1.673   3.993   2.935
 7892SOL     OW24574   1.963   2.757   4.075
 7892SOL    HW124575   1.897   2.820   4.114
 7892SOL    HW224576   2.048   2.806   4.054
 7893SOL     OW24577   6.245   0.128   2.598
 7893SOL    HW124578   6.303   0.208   2.582
 7893SOL    HW224579   6.277   0.052   2.541
 7894SOL     OW24580   2.558   6.390   1.641
 7894SOL    HW124581   2.463   6.392   1.609
 7894SOL    HW224582   2.607   6.318   1.591
 7895SOL     OW24583   6.476   1.342   5.865
 7895SOL    HW124584   6.567   1.357   5.826
 7895SOL    HW224585   6.468   1.393   5.951
 7896SOL     OW24586   4.976   4.330   6.688
 7896SOL    HW124587   4.998   4.310   6.784
 7896SOL    HW224588   5.051   4.299   6.630
 7897SOL     OW24589   2.968   3.738   6.056
 7897SOL    HW124590   2.899   3.801   6.019
 7897SOL    HW224591   2.924   3.655   6.089
 7898SOL     OW24592   5.333   1.926   3.417
 7898SOL    HW124593   5.397   1.858   3.382
 7898SOL    HW224594   5.319   1.912   3.515
 7899SOL     OW24595   6.657   1.444   2.185
 7899SOL    HW124596   6.579   1.389   2.216
 7899SOL    HW224597   6.729   1.442   2.254
 7900SOL     OW24598   1.349   4.967   1.087
 7900SOL    HW124599   1.366   4.979   1.185
 7900SOL    HW224600   1.254   4.938   1.073
 7901SOL     OW24601   4.942   0.408   6.304
 7901SOL    HW124602   4.849   0.421   6.339
 7901SOL    HW224603   5.001   0.481   6.338
 7902SOL     OW24604   5.404   4.861   1.765
 7902SOL    HW124605   5.437   4.951   1.736
 7902SOL    HW224606   5.424   4.848   1.862
 7903SOL     OW24607   6.235   2.232   0.867
 7903SOL    HW124608   6.229   2.308   0.932
 7903SOL    HW224609   6.290   2.159   0.906
 7904SOL     OW24610   6.047   0.505   3.043
 7904SOL    HW124611   6.094   0.486   3.129
 7904SOL    HW224612   6.030   0.603   3.034
 7905SOL     OW24613   4.517   1.759   0.232
 7905SOL    HW124614   4.458   1.806   0.298
 7905SOL    HW224615   4.460   1.720   0.159
 7906SOL     OW24616   0.887   5.655   0.127
 7906SOL    HW124617   0.841   5.620   0.046
 7906SOL    HW224618   0.981   5.619   0.131
 7907SOL     OW24619   5.980   1.976   4.567
 7907SOL    HW124620   6.051   2.026   4.616
 7907SOL    HW224621   5.909   1.946   4.631
 7908SOL     OW24622   1.485   1.639   4.091
 7908SOL    HW124623   1.405   1.587   4.061
 7908SOL    HW224624   1.568   1.584   4.077
 7909SOL     OW24625   5.335   3.589   4.938
 7909SOL    HW124626   5.378   3.499   4.938
 7909SOL    HW224627   5.242   3.581   4.974
 7910SOL     OW24628   3.155   3.112   5.829
 7910SOL    HW124629   3.107   3.027   5.848
 7910SOL    HW224630   3.113   3.157   5.750
 7911SOL     OW24631   0.641   3.917   6.460
 7911SOL    HW124632   0.606   4.009   6.477
 7911SOL    HW224633   0.736   3.922   6.429
 7912SOL     OW24634   0.509   5.169   0.267
 7912SOL    HW124635   0.437   5.131   0.208
 7912SOL    HW224636   0.579   5.100   0.282
 7913SOL     OW24637   0.695   4.964   0.328
 7913SOL    HW124638   0.634   4.895   0.367
 7913SOL    HW224639   0.768   4.985   0.394
 7914SOL     OW24640   6.980   5.170   6.372
 7914SOL    HW124641   6.996   5.102   6.300
 7914SOL    HW224642   6.917   5.240   6.337
 7915SOL     OW24643   4.631   2.661   2.527
 7915SOL    HW124644   4.678   2.746   2.551
 7915SOL    HW224645   4.599   2.666   2.432
 7916SOL     OW24646   5.805   3.840   5.280
 7916SOL    HW124647   5.812   3.741   5.295
 7916SOL    HW224648   5.792   3.857   5.182
 7917SOL     OW24649   3.848   3.095   3.981
 7917SOL    HW124650   3.846   3.195   3.977
 7917SOL    HW224651   3.804   3.064   4.066
 7918SOL     OW24652   6.990   1.439   0.753
 7918SOL    HW124653   6.937   1.449   0.669
 7918SOL    HW224654   6.929   1.448   0.832
 7919SOL     OW24655   0.152   4.544   3.387
 7919SOL    HW124656   0.061   4.554   3.347
 7919SOL    HW224657   0.205   4.478   3.334
 7920SOL     OW24658   0.214   4.946   1.352
 7920SOL    HW124659   0.251   5.038   1.366
 7920SOL    HW224660   0.287   4.886   1.318
 7921SOL     OW24661   3.644   5.650   0.460
 7921SOL    HW124662   3.638   5.607   0.550
 7921SOL    HW224663   3.663   5.747   0.470
 7922SOL     OW24664   6.918   5.802   0.545
 7922SOL    HW124665   6.832   5.773   0.587
 7922SOL    HW224666   6.963   5.869   0.604
 7923SOL     OW24667   2.329   0.418   2.882
 7923SOL    HW124668   2.424   0.424   2.852
 7923SOL    HW224669   2.269   0.435   2.803
 7924SOL     OW24670   3.959   6.568   3.098
 7924SOL    HW124671   3.862   6.581   3.080
 7924SOL    HW224672   3.987   6.478   3.064
 7925SOL     OW24673   0.324   1.986   6.579
 7925SOL    HW124674   0.276   1.907   6.542
 7925SOL    HW224675   0.319   1.984   6.679
 7926SOL     OW24676   4.443   1.352   4.279
 7926SOL    HW124677   4.529   1.389   4.314
 7926SOL    HW224678   4.421   1.267   4.328
 7927SOL     OW24679   3.833   5.561   5.067
 7927SOL    HW124680   3.779   5.476   5.061
 7927SOL    HW224681   3.928   5.539   5.087
 7928SOL     OW24682   0.900   3.774   3.908
 7928SOL    HW124683   0.834   3.842   3.942
 7928SOL    HW224684   0.990   3.817   3.901
 7929SOL     OW24685   3.844   4.123   5.166
 7929SOL    HW124686   3.789   4.187   5.111
 7929SOL    HW224687   3.884   4.171   5.243
 7930SOL     OW24688   4.742   5.733   4.025
 7930SOL    HW124689   4.647   5.760   4.013
 7930SOL    HW224690   4.748   5.660   4.094
 7931SOL     OW24691   1.979   2.505   6.546
 7931SOL    HW124692   1.905   2.459   6.498
 7931SOL    HW224693   1.942   2.557   6.624
 7932SOL     OW24694   2.551   6.470   0.309
 7932SOL    HW124695   2.597   6.519   0.384
 7932SOL    HW224696   2.455   6.496   0.306
 7933SOL     OW24697   6.772   6.963   0.145
 7933SOL    HW124698   6.709   0.016   0.124
 7933SOL    HW224699   6.720   6.882   0.172
 7934SOL     OW24700   2.453   4.090   6.784
 7934SOL    HW124701   2.501   4.154   6.724
 7934SOL    HW224702   2.362   4.125   6.806
 7935SOL     OW24703   5.225   5.380   0.366
 7935SOL    HW124704   5.263   5.297   0.324
 7935SOL    HW224705   5.155   5.354   0.433
 7936SOL     OW24706   3.344   5.633   2.177
 7936SOL    HW124707   3.400   5.668   2.102
 7936SOL    HW224708   3.247   5.645   2.155
 7937SOL     OW24709   5.216   6.912   3.829
 7937SOL    HW124710   5.244   6.827   3.783
 7937SOL    HW224711   5.145   6.957   3.775
 7938SOL     OW24712   5.737   4.949   5.085
 7938SOL    HW124713   5.766   5.001   5.005
 7938SOL    HW224714   5.753   4.851   5.068
 7939SOL     OW24715   0.828   2.111   6.161
 7939SOL    HW124716   0.886   2.055   6.220
 7939SOL    HW224717   0.849   2.091   6.065
 7940SOL     OW24718   2.378   4.835   2.511
 7940SOL    HW124719   2.363   4.811   2.607
 7940SOL    HW224720   2.343   4.763   2.452
 7941SOL     OW24721   6.642   6.854   1.257
 7941SOL    HW124722   6.714   6.923   1.260
 7941SOL    HW224723   6.598   6.856   1.167
 7942SOL     OW24724   6.858   6.250   2.969
 7942SOL    HW124725   6.764   6.264   3.001
 7942SOL    HW224726   6.921   6.254   3.046
 7943SOL     OW24727   5.552   1.959   0.783
 7943SOL    HW124728   5.598   2.026   0.724
 7943SOL    HW224729   5.596   1.958   0.873
 7944SOL     OW24730   0.165   2.892   0.561
 7944SOL    HW124731   0.148   2.975   0.506
 7944SOL    HW224732   0.093   2.883   0.629
 7945SOL     OW24733   5.497   0.107   2.663
 7945SOL    HW124734   5.467   0.169   2.591
 7945SOL    HW224735   5.541   0.160   2.736
 7946SOL     OW24736   1.975   2.829   5.419
 7946SOL    HW124737   2.021   2.775   5.489
 7946SOL    HW224738   1.914   2.769   5.366
 7947SOL     OW24739   3.908   2.778   6.849
 7947SOL    HW124740   3.855   2.713   6.794
 7947SOL    HW224741   3.888   2.871   6.818
 7948SOL     OW24742   0.062   6.592   1.334
 7948SOL    HW124743   7.003   6.635   1.294
 7948SOL    HW224744   0.125   6.664   1.364
 7949SOL     OW24745   4.488   4.791   3.840
 7949SOL    HW124746   4.544   4.856   3.789
 7949SOL    HW224747   4.545   4.745   3.909
 7950SOL     OW24748   5.119   5.524   3.612
 7950SOL    HW124749   5.104   5.576   3.696
 7950SOL    HW224750   5.104   5.584   3.533
 7951SOL     OW24751   2.944   3.786   0.712
 7951SOL    HW124752   2.846   3.799   0.694
 7951SOL    HW224753   2.964   3.809   0.807
 7952SOL     OW24754   7.007   2.897   6.679
 7952SOL    HW124755   0.023   2.983   6.711
 7952SOL    HW224756   0.018   2.822   6.736
 7953SOL     OW24757   2.180   2.756   3.055
 7953SOL    HW124758   2.204   2.849   3.030
 7953SOL    HW224759   2.095   2.756   3.108
 7954SOL     OW24760   4.991   5.106   5.549
 7954SOL    HW124761   5.067   5.125   5.487
 7954SOL    HW224762   5.004   5.159   5.633
 7955SOL     OW24763   0.840   6.570   5.941
 7955SOL    HW124764   0.745   6.588   5.966
 7955SOL    HW224765   0.847   6.557   5.842
 7956SOL     OW24766   1.067   5.784   3.181
 7956SOL    HW124767   1.086   5.722   3.106
 7956SOL    HW224768   1.049   5.731   3.264
 7957SOL     OW24769   2.184   1.758   0.675
 7957SOL    HW124770   2.284   1.757   0.665
 7957SOL    HW224771   2.142   1.774   0.586
 7958SOL     OW24772   3.590   5.719   4.079
 7958SOL    HW124773   3.541   5.771   4.009
 7958SOL    HW224774   3.541   5.726   4.166
 7959SOL     OW24775   4.075   5.404   0.904
 7959SOL    HW124776   4.001   5.428   0.841
 7959SOL    HW224777   4.079   5.471   0.978
 7960SOL     OW24778   3.624   1.682   0.639
 7960SOL    HW124779   3.612   1.633   0.725
 7960SOL    HW224780   3.616   1.781   0.655
 7961SOL     OW24781   1.669   6.020   6.701
 7961SOL    HW124782   1.677   5.921   6.697
 7961SOL    HW224783   1.591   6.049   6.646
 7962SOL     OW24784   2.067   0.373   0.065
 7962SOL    HW124785   2.058   0.434   0.143
 7962SOL    HW224786   2.139   0.306   0.083
 7963SOL     OW24787   6.178   1.227   4.373
 7963SOL    HW124788   6.152   1.162   4.444
 7963SOL    HW224789   6.185   1.180   4.286
 7964SOL     OW24790   6.168   4.945   3.573
 7964SOL    HW124791   6.143   4.989   3.660
 7964SOL    HW224792   6.240   4.878   3.589
 7965SOL     OW24793   3.746   2.605   6.691
 7965SOL    HW124794   3.768   2.618   6.594
 7965SOL    HW224795   3.655   2.564   6.699
 7966SOL     OW24796   0.990   3.637   4.995
 7966SOL    HW124797   0.945   3.690   5.068
 7966SOL    HW224798   1.067   3.689   4.958
 7967SOL     OW24799   3.050   6.411   4.104
 7967SOL    HW124800   3.093   6.439   4.019
 7967SOL    HW224801   2.954   6.387   4.087
 7968SOL     OW24802   2.223   3.062   3.225
 7968SOL    HW124803   2.245   3.083   3.129
 7968SOL    HW224804   2.124   3.061   3.237
 7969SOL     OW24805   4.450   0.352   2.077
 7969SOL    HW124806   4.482   0.447   2.088
 7969SOL    HW224807   4.495   0.312   1.997
 7970SOL     OW24808   0.222   4.008   2.850
 7970SOL    HW124809   0.208   3.950   2.930
 7970SOL    HW224810   0.172   3.969   2.772
 7971SOL     OW24811   3.044   1.771   1.321
 7971SOL    HW124812   3.110   1.776   1.396
 7971SOL    HW224813   3.049   1.854   1.265
 7972SOL     OW24814   0.530   4.117   1.232
 7972SOL    HW124815   0.586   4.045   1.274
 7972SOL    HW224816   0.536   4.111   1.133
 7973SOL     OW24817   4.905   3.450   2.843
 7973SOL    HW124818   4.871   3.375   2.786
 7973SOL    HW224819   4.969   3.506   2.790
 7974SOL     OW24820   5.810   0.359   5.019
 7974SOL    HW124821   5.789   0.307   4.937
 7974SOL    HW224822   5.859   0.301   5.084
 7975SOL     OW24823   5.616   0.145   3.818
 7975SOL    HW124824   5.679   0.125   3.742
 7975SOL    HW224825   5.530   0.180   3.781
 7976SOL     OW24826   0.687   0.292   5.841
 7976SOL    HW124827   0.701   0.208   5.790
 7976SOL    HW224828   0.773   0.342   5.847
 7977SOL     OW24829   4.316   5.826   2.441
 7977SOL    HW124830   4.245   5.818   2.371
 7977SOL    HW224831   4.274   5.822   2.532
 7978SOL     OW24832   5.780   3.910   6.154
 7978SOL    HW124833   5.778   3.947   6.247
 7978SOL    HW224834   5.826   3.975   6.094
 7979SOL     OW24835   2.676   0.218   5.388
 7979SOL    HW124836   2.678   0.158   5.307
 7979SOL    HW224837   2.692   0.312   5.359
 7980SOL     OW24838   3.469   5.977   0.022
 7980SOL    HW124839   3.507   5.970   0.114
 7980SOL    HW224840   3.386   6.033   0.025
 7981SOL     OW24841   0.995   5.868   1.971
 7981SOL    HW124842   1.076   5.902   1.923
 7981SOL    HW224843   0.946   5.803   1.913
 7982SOL     OW24844   6.499   1.784   0.996
 7982SOL    HW124845   6.530   1.877   0.974
 7982SOL    HW224846   6.540   1.720   0.931
 7983SOL     OW24847   5.474   1.817   2.997
 7983SOL    HW124848   5.520   1.740   2.950
 7983SOL    HW224849   5.522   1.902   2.975
 7984SOL     OW24850   1.431   1.742   1.545
 7984SOL    HW124851   1.505   1.699   1.596
 7984SOL    HW224852   1.456   1.746   1.448
 7985SOL     OW24853   2.089   6.816   3.390
 7985SOL    HW124854   2.058   6.747   3.456
 7985SOL    HW224855   2.189   6.813   3.383
 7986SOL     OW24856   3.344   1.027   6.911
 7986SOL    HW124857   3.273   1.078   6.960
 7986SOL    HW224858   3.350   0.934   6.949
 7987SOL     OW24859   0.123   4.021   6.338
 7987SOL    HW124860   0.027   4.038   6.316
 7987SOL    HW224861   0.130   3.942   6.399
 7988SOL     OW24862   2.135   2.485   4.437
 7988SOL    HW124863   2.113   2.444   4.348
 7988SOL    HW224864   2.074   2.562   4.454
 7989SOL     OW24865   3.333   2.389   5.349
 7989SOL    HW124866   3.331   2.475   5.399
 7989SOL    HW224867   3.256   2.386   5.285
 7990SOL     OW24868   7.010   3.886   3.474
 7990SOL    HW124869   6.928   3.938   3.500
 7990SOL    HW224870   6.989   3.830   3.394
 7991SOL     OW24871   6.472   1.857   5.402
 7991SOL    HW124872   6.456   1.925   5.330
 7991SOL    HW224873   6.530   1.784   5.367
 7992SOL     OW24874   1.610   6.434   0.933
 7992SOL    HW124875   1.673   6.379   0.989
 7992SOL    HW224876   1.627   6.415   0.836
 7993SOL     OW24877   1.501   5.685   6.402
 7993SOL    HW124878   1.461   5.627   6.331
 7993SOL    HW224879   1.593   5.652   6.424
 7994SOL     OW24880   4.455   0.285   3.604
 7994SOL    HW124881   4.507   0.200   3.599
 7994SOL    HW224882   4.380   0.283   3.537
 7995SOL     OW24883   3.991   5.473   3.314
 7995SOL    HW124884   3.915   5.498   3.374
 7995SOL    HW224885   4.077   5.482   3.364
 7996SOL     OW24886   2.716   6.330   4.358
 7996SOL    HW124887   2.634   6.385   4.369
 7996SOL    HW224888   2.745   6.294   4.447
 7997SOL     OW24889   0.136   1.438   1.185
 7997SOL    HW124890   0.171   1.521   1.228
 7997SOL    HW224891   0.036   1.444   1.176
 7998SOL     OW24892   4.101   5.598   0.614
 7998SOL    HW124893   4.031   5.536   0.648
 7998SOL    HW224894   4.096   5.685   0.664
 7999SOL     OW24895   0.875   0.484   5.910
 7999SOL    HW124896   0.859   0.560   5.847
 7999SOL    HW224897   0.855   0.513   6.004
 8000SOL     OW24898   5.871   0.537   6.643
 8000SOL    HW124899   5.851   0.618   6.698
 8000SOL    HW224900   5.969   0.532   6.625
 8001SOL     OW24901   3.267   6.018   1.611
 8001SOL    HW124902   3.219   6.081   1.551
 8001SOL    HW224903   3.351   5.987   1.567
 8002SOL     OW24904   0.282   3.155   6.227
 8002SOL    HW124905   0.320   3.197   6.310
 8002SOL    HW224906   0.224   3.222   6.180
 8003SOL     OW24907   2.218   4.338   2.765
 8003SOL    HW124908   2.118   4.336   2.756
 8003SOL    HW224909   2.253   4.244   2.764
 8004SOL     OW24910   1.558   4.624   2.986
 8004SOL    HW124911   1.655   4.600   2.992
 8004SOL    HW224912   1.505   4.560   3.042
 8005SOL     OW24913   3.154   1.589   2.424
 8005SOL    HW124914   3.212   1.648   2.479
 8005SOL    HW224915   3.145   1.627   2.332
 8006SOL     OW24916   2.584   6.127   0.932
 8006SOL    HW124917   2.492   6.102   0.900
 8006SOL    HW224918   2.631   6.181   0.862
 8007SOL     OW24919   1.037   6.767   3.936
 8007SOL    HW124920   1.118   6.711   3.953
 8007SOL    HW224921   1.064   6.854   3.897
 8008SOL     OW24922   4.791   6.765   6.001
 8008SOL    HW124923   4.785   6.834   6.073
 8008SOL    HW224924   4.880   6.720   6.005
 8009SOL     OW24925   6.382   0.201   3.346
 8009SOL    HW124926   6.470   0.231   3.311
 8009SOL    HW224927   6.322   0.177   3.269
 8010SOL     OW24928   1.705   1.439   6.762
 8010SOL    HW124929   1.721   1.398   6.672
 8010SOL    HW224930   1.749   1.528   6.767
 8011SOL     OW24931   2.286   2.596   1.228
 8011SOL    HW124932   2.313   2.693   1.223
 8011SOL    HW224933   2.197   2.589   1.272
 8012SOL     OW24934   1.802   5.543   1.475
 8012SOL    HW124935   1.786   5.629   1.426
 8012SOL    HW224936   1.758   5.548   1.565
 8013SOL     OW24937   0.834   5.260   4.802
 8013SOL    HW124938   0.791   5.257   4.892
 8013SOL    HW224939   0.859   5.167   4.774
 8014SOL     OW24940   1.156   6.261   5.540
 8014SOL    HW124941   1.182   6.358   5.545
 8014SOL    HW224942   1.205   6.210   5.611
 8015SOL     OW24943   3.063   1.366   0.449
 8015SOL    HW124944   3.077   1.406   0.358
 8015SOL    HW224945   3.145   1.380   0.504
 8016SOL     OW24946   4.328   0.241   6.460
 8016SOL    HW124947   4.375   0.275   6.379
 8016SOL    HW224948   4.394   0.197   6.521
 8017SOL     OW24949   6.557   4.949   6.005
 8017SOL    HW124950   6.510   5.034   5.979
 8017SOL    HW224951   6.650   4.971   6.037
 8018SOL     OW24952   4.164   2.462   6.092
 8018SOL    HW124953   4.212   2.543   6.059
 8018SOL    HW224954   4.071   2.487   6.118
 8019SOL     OW24955   1.816   3.763   0.116
 8019SOL    HW124956   1.895   3.756   0.054
 8019SOL    HW224957   1.732   3.758   0.063
 8020SOL     OW24958   6.285   6.032   0.374
 8020SOL    HW124959   6.278   6.121   0.419
 8020SOL    HW224960   6.365   6.032   0.314
 8021SOL     OW24961   1.303   1.919   2.206
 8021SOL    HW124962   1.287   1.997   2.146
 8021SOL    HW224963   1.329   1.952   2.297
 8022SOL     OW24964   4.304   0.762   2.986
 8022SOL    HW124965   4.324   0.670   2.955
 8022SOL    HW224966   4.215   0.764   3.033
 8023SOL     OW24967   5.710   5.382   3.403
 8023SOL    HW124968   5.620   5.424   3.389
 8023SOL    HW224969   5.718   5.350   3.497
 8024SOL     OW24970   2.768   4.724   7.002
 8024SOL    HW124971   2.808   4.641   6.963
 8024SOL    HW224972   2.752   4.791   6.929
 8025SOL     OW24973   3.411   6.350   5.941
 8025SOL    HW124974   3.478   6.279   5.962
 8025SOL    HW224975   3.328   6.335   5.994
 8026SOL     OW24976   0.565   3.880   6.740
 8026SOL    HW124977   0.627   3.884   6.662
 8026SOL    HW224978   0.602   3.935   6.815
 8027SOL     OW24979   4.343   2.060   5.794
 8027SOL    HW124980   4.394   2.041   5.878
 8027SOL    HW224981   4.282   2.138   5.809
 8028SOL     OW24982   4.265   4.861   6.067
 8028SOL    HW124983   4.266   4.878   6.165
 8028SOL    HW224984   4.328   4.787   6.044
 8029SOL     OW24985   5.840   3.473   6.695
 8029SOL    HW124986   5.862   3.398   6.757
 8029SOL    HW224987   5.802   3.436   6.610
 8030SOL     OW24988   5.522   3.775   6.225
 8030SOL    HW124989   5.622   3.775   6.223
 8030SOL    HW224990   5.487   3.839   6.157
 8031SOL     OW24991   4.705   5.682   2.806
 8031SOL    HW124992   4.657   5.601   2.772
 8031SOL    HW224993   4.688   5.692   2.904
 8032SOL     OW24994   5.944   4.647   5.238
 8032SOL    HW124995   5.993   4.608   5.317
 8032SOL    HW224996   5.852   4.609   5.234
 8033SOL     OW24997   4.931   3.263   0.237
 8033SOL    HW124998   4.951   3.206   0.157
 8033SOL    HW224999   4.868   3.214   0.297
 8034SOL     OW25000   5.970   1.358   5.261
 8034SOL    HW125001   5.946   1.341   5.357
 8034SOL    HW225002   5.980   1.271   5.213
 8035SOL     OW25003   4.806   6.954   5.254
 8035SOL    HW125004   4.835   0.002   5.319
 8035SOL    HW225005   4.825   6.985   5.161
 8036SOL     OW25006   0.881   3.581   2.199
 8036SOL    HW125007   0.946   3.506   2.189
 8036SOL    HW225008   0.902   3.631   2.283
 8037SOL     OW25009   1.484   3.467   1.654
 8037SOL    HW125010   1.476   3.476   1.555
 8037SOL    HW225011   1.580   3.457   1.680
 8038SOL     OW25012   4.943   1.578   2.465
 8038SOL    HW125013   4.893   1.499   2.500
 8038SOL    HW225014   4.980   1.557   2.375
 8039SOL     OW25015   1.017   6.646   3.478
 8039SOL    HW125016   1.098   6.674   3.427
 8039SOL    HW225017   0.935   6.679   3.432
 8040SOL     OW25018   1.222   5.862   1.265
 8040SOL    HW125019   1.136   5.880   1.312
 8040SOL    HW225020   1.282   5.809   1.324
 8041SOL     OW25021   3.272   1.980   2.040
 8041SOL    HW125022   3.279   2.002   2.137
 8041SOL    HW225023   3.195   2.029   2.000
 8042SOL     OW25024   3.688   2.940   2.512
 8042SOL    HW125025   3.609   2.941   2.452
 8042SOL    HW225026   3.769   2.970   2.461
 8043SOL     OW25027   3.771   6.268   0.767
 8043SOL    HW125028   3.830   6.349   0.769
 8043SOL    HW225029   3.688   6.288   0.715
 8044SOL     OW25030   3.000   3.606   1.048
 8044SOL    HW125031   3.033   3.519   1.085
 8044SOL    HW225032   2.995   3.674   1.121
 8045SOL     OW25033   5.434   1.000   2.226
 8045SOL    HW125034   5.354   1.054   2.199
 8045SOL    HW225035   5.405   0.930   2.291
 8046SOL     OW25036   5.916   4.616   6.519
 8046SOL    HW125037   5.832   4.563   6.507
 8046SOL    HW225038   5.935   4.668   6.436
 8047SOL     OW25039   3.733   4.984   4.782
 8047SOL    HW125040   3.832   4.988   4.795
 8047SOL    HW225041   3.690   4.938   4.860
 8048SOL     OW25042   5.159   1.357   5.496
 8048SOL    HW125043   5.225   1.432   5.488
 8048SOL    HW225044   5.066   1.393   5.489
 8049SOL     OW25045   1.152   0.113   1.784
 8049SOL    HW125046   1.088   0.047   1.746
 8049SOL    HW225047   1.131   0.129   1.881
 8050SOL     OW25048   0.631   3.931   1.552
 8050SOL    HW125049   0.724   3.961   1.575
 8050SOL    HW225050   0.635   3.864   1.478
 8051SOL     OW25051   4.792   6.838   3.006
 8051SOL    HW125052   4.855   6.868   3.077
 8051SOL    HW225053   4.797   6.901   2.929
 8052SOL     OW25054   3.381   1.653   1.735
 8052SOL    HW125055   3.404   1.723   1.802
 8052SOL    HW225056   3.365   1.566   1.782
 8053SOL     OW25057   3.609   3.417   2.681
 8053SOL    HW125058   3.695   3.457   2.650
 8053SOL    HW225059   3.533   3.468   2.641
 8054SOL     OW25060   5.114   6.556   3.866
 8054SOL    HW125061   5.083   6.590   3.955
 8054SOL    HW225062   5.200   6.600   3.842
 8055SOL     OW25063   0.816   0.497   6.198
 8055SOL    HW125064   0.836   0.400   6.186
 8055SOL    HW225065   0.739   0.508   6.260
 8056SOL     OW25066   4.262   1.241   3.610
 8056SOL    HW125067   4.230   1.281   3.696
 8056SOL    HW225068   4.326   1.167   3.629
 8057SOL     OW25069   2.087   1.170   2.164
 8057SOL    HW125070   2.157   1.241   2.181
 8057SOL    HW225071   2.125   1.099   2.106
 8058SOL     OW25072   3.282   0.095   2.973
 8058SOL    HW125073   3.375   0.122   2.996
 8058SOL    HW225074   3.218   0.164   3.006
 8059SOL     OW25075   4.227   2.216   5.046
 8059SOL    HW125076   4.172   2.165   5.113
 8059SOL    HW225077   4.235   2.311   5.076
 8060SOL     OW25078   0.352   1.481   4.302
 8060SOL    HW125079   0.417   1.405   4.303
 8060SOL    HW225080   0.259   1.445   4.299
 8061SOL     OW25081   6.541   6.441   2.016
 8061SOL    HW125082   6.499   6.376   1.953
 8061SOL    HW225083   6.597   6.392   2.083
 8062SOL     OW25084   2.082   4.233   3.756
 8062SOL    HW125085   2.058   4.327   3.780
 8062SOL    HW225086   2.135   4.193   3.831
 8063SOL     OW25087   1.604   3.687   0.686
 8063SOL    HW125088   1.645   3.664   0.775
 8063SOL    HW225089   1.520   3.739   0.701
 8064SOL     OW25090   0.205   4.518   0.986
 8064SOL    HW125091   0.156   4.433   0.964
 8064SOL    HW225092   0.144   4.596   0.974
 8065SOL     OW25093   4.397   6.443   3.563
 8065SOL    HW125094   4.310   6.482   3.593
 8065SOL    HW225095   4.412   6.466   3.467
 8066SOL     OW25096   1.474   1.706   6.581
 8066SOL    HW125097   1.409   1.629   6.580
 8066SOL    HW225098   1.562   1.676   6.544
 8067SOL     OW25099   4.676   3.074   1.388
 8067SOL    HW125100   4.645   3.022   1.468
 8067SOL    HW225101   4.690   3.169   1.414
 8068SOL     OW25102   6.758   5.317   6.105
 8068SOL    HW125103   6.709   5.372   6.038
 8068SOL    HW225104   6.709   5.319   6.192
 8069SOL     OW25105   2.301   5.643   1.576
 8069SOL    HW125106   2.220   5.697   1.554
 8069SOL    HW225107   2.370   5.702   1.619
 8070SOL     OW25108   2.885   4.399   0.665
 8070SOL    HW125109   2.953   4.401   0.591
 8070SOL    HW225110   2.793   4.393   0.625
 8071SOL     OW25111   3.261   6.342   4.869
 8071SOL    HW125112   3.296   6.306   4.955
 8071SOL    HW225113   3.250   6.267   4.803
 8072SOL     OW25114   3.242   1.102   0.632
 8072SOL    HW125115   3.279   1.023   0.583
 8072SOL    HW225116   3.263   1.093   0.729
 8073SOL     OW25117   5.065   6.881   0.028
 8073SOL    HW125118   5.062   6.789   0.066
 8073SOL    HW225119   4.979   6.928   0.046
 8074SOL     OW25120   3.488   2.559   6.729
 8074SOL    HW125121   3.408   2.512   6.766
 8074SOL    HW225122   3.462   2.650   6.697
 8075SOL     OW25123   6.742   1.417   1.905
 8075SOL    HW125124   6.705   1.346   1.847
 8075SOL    HW225125   6.730   1.392   2.001
 8076SOL     OW25126   4.375   3.087   5.476
 8076SOL    HW125127   4.305   3.137   5.424
 8076SOL    HW225128   4.446   3.055   5.414
 8077SOL     OW25129   1.109   6.620   1.849
 8077SOL    HW125130   1.185   6.646   1.908
 8077SOL    HW225131   1.023   6.636   1.898
 8078SOL     OW25132   6.112   1.469   0.877
 8078SOL    HW125133   6.211   1.465   0.867
 8078SOL    HW225134   6.068   1.438   0.793
 8079SOL     OW25135   5.519   1.750   3.331
 8079SOL    HW125136   5.505   1.738   3.232
 8079SOL    HW225137   5.532   1.661   3.374
 8080SOL     OW25138   1.274   3.962   0.673
 8080SOL    HW125139   1.235   3.884   0.625
 8080SOL    HW225140   1.248   3.958   0.770
 8081SOL     OW25141   5.620   0.675   5.390
 8081SOL    HW125142   5.706   0.721   5.413
 8081SOL    HW225143   5.608   0.675   5.291
 8082SOL     OW25144   5.926   1.720   2.311
 8082SOL    HW125145   5.827   1.732   2.307
 8082SOL    HW225146   5.959   1.750   2.401
 8083SOL     OW25147   5.182   3.011   2.211
 8083SOL    HW125148   5.093   3.041   2.177
 8083SOL    HW225149   5.170   2.956   2.294
 8084SOL     OW25150   5.978   6.772   1.240
 8084SOL    HW125151   5.920   6.738   1.315
 8084SOL    HW225152   6.059   6.816   1.278
 8085SOL     OW25153   5.650   0.480   2.541
 8085SOL    HW125154   5.638   0.495   2.639
 8085SOL    HW225155   5.717   0.407   2.527
 8086SOL     OW25156   3.938   0.212   4.390
 8086SOL    HW125157   3.897   0.256   4.311
 8086SOL    HW225158   3.874   0.212   4.466
 8087SOL     OW25159   2.079   1.342   0.941
 8087SOL    HW125160   2.086   1.251   0.901
 8087SOL    HW225161   2.113   1.410   0.876
 8088SOL     OW25162   6.274   1.692   1.970
 8088SOL    HW125163   6.373   1.685   1.986
 8088SOL    HW225164   6.234   1.755   2.037
 8089SOL     OW25165   5.503   2.022   0.410
 8089SOL    HW125166   5.462   1.931   0.419
 8089SOL    HW225167   5.589   2.014   0.360
 8090SOL     OW25168   4.474   1.815   6.173
 8090SOL    HW125169   4.380   1.848   6.183
 8090SOL    HW225170   4.513   1.798   6.264
 8091SOL     OW25171   3.116   3.664   6.597
 8091SOL    HW125172   3.045   3.687   6.531
 8091SOL    HW225173   3.132   3.565   6.596
 8092SOL     OW25174   1.381   1.725   4.986
 8092SOL    HW125175   1.378   1.672   4.901
 8092SOL    HW225176   1.462   1.784   4.984
 8093SOL     OW25177   5.982   5.580   1.607
 8093SOL    HW125178   5.941   5.649   1.668
 8093SOL    HW225179   6.072   5.556   1.643
 8094SOL     OW25180   2.321   4.364   5.014
 8094SOL    HW125181   2.281   4.345   5.103
 8094SOL    HW225182   2.416   4.332   5.013
 8095SOL     OW25183   6.215   3.490   3.820
 8095SOL    HW125184   6.234   3.506   3.917
 8095SOL    HW225185   6.243   3.397   3.796
 8096SOL     OW25186   2.983   5.545   3.724
 8096SOL    HW125187   3.016   5.552   3.630
 8096SOL    HW225188   3.054   5.505   3.781
 8097SOL     OW25189   5.424   0.665   4.011
 8097SOL    HW125190   5.422   0.682   4.109
 8097SOL    HW225191   5.347   0.606   3.986
 8098SOL     OW25192   2.367   6.709   4.647
 8098SOL    HW125193   2.275   6.748   4.652
 8098SOL    HW225194   2.411   6.737   4.562
 8099SOL     OW25195   6.422   0.941   4.285
 8099SOL    HW125196   6.358   0.910   4.356
 8099SOL    HW225197   6.386   0.918   4.195
 8100SOL     OW25198   0.167   6.816   0.575
 8100SOL    HW125199   0.188   6.874   0.496
 8100SOL    HW225200   0.070   6.824   0.599
 8101SOL     OW25201   2.070   0.253   4.664
 8101SOL    HW125202   2.027   0.169   4.630
 8101SOL    HW225203   2.099   0.309   4.587
 8102SOL     OW25204   1.594   5.266   6.093
 8102SOL    HW125205   1.586   5.174   6.055
 8102SOL    HW225206   1.528   5.277   6.167
 8103SOL     OW25207   3.887   1.536   1.179
 8103SOL    HW125208   3.914   1.611   1.119
 8103SOL    HW225209   3.803   1.561   1.227
 8104SOL     OW25210   3.213   6.799   6.401
 8104SOL    HW125211   3.195   6.703   6.380
 8104SOL    HW225212   3.262   6.841   6.324
 8105SOL     OW25213   2.515   2.163   3.628
 8105SOL    HW125214   2.475   2.222   3.697
 8105SOL    HW225215   2.572   2.217   3.566
 8106SOL     OW25216   1.990   5.723   3.284
 8106SOL    HW125217   1.979   5.794   3.214
 8106SOL    HW225218   2.058   5.753   3.351
 8107SOL     OW25219   1.706   6.277   5.928
 8107SOL    HW125220   1.607   6.270   5.941
 8107SOL    HW225221   1.753   6.243   6.009
 8108SOL     OW25222   6.311   2.888   4.962
 8108SOL    HW125223   6.303   2.983   4.932
 8108SOL    HW225224   6.402   2.854   4.941
 8109SOL     OW25225   1.848   4.021   4.573
 8109SOL    HW125226   1.795   4.080   4.513
 8109SOL    HW225227   1.935   4.066   4.596
 8110SOL     OW25228   3.775   6.304   0.413
 8110SOL    HW125229   3.765   6.278   0.317
 8110SOL    HW225230   3.869   6.333   0.430
 8111SOL     OW25231   3.366   0.239   6.121
 8111SOL    HW125232   3.287   0.177   6.115
 8111SOL    HW225233   3.366   0.283   6.210
 8112SOL     OW25234   2.216   1.312   5.922
 8112SOL    HW125235   2.132   1.325   5.869
 8112SOL    HW225236   2.265   1.399   5.929
 8113SOL     OW25237   2.720   3.029   0.182
 8113SOL    HW125238   2.727   2.934   0.213
 8113SOL    HW225239   2.637   3.041   0.128
 8114SOL     OW25240   2.295   2.925   2.385
 8114SOL    HW125241   2.383   2.903   2.429
 8114SOL    HW225242   2.221   2.911   2.450
 8115SOL     OW25243   3.429   1.227   1.419
 8115SOL    HW125244   3.525   1.199   1.419
 8115SOL    HW225245   3.418   1.310   1.473
 8116SOL     OW25246   4.869   6.875   4.755
 8116SOL    HW125247   4.964   6.849   4.735
 8116SOL    HW225248   4.816   6.873   4.670
 8117SOL     OW25249   1.850   1.750   3.719
 8117SOL    HW125250   1.823   1.820   3.652
 8117SOL    HW225251   1.892   1.673   3.672
 8118SOL     OW25252   0.091   3.698   5.620
 8118SOL    HW125253   0.004   3.728   5.581
 8118SOL    HW225254   0.152   3.778   5.631
 8119SOL     OW25255   0.030   6.066   4.946
 8119SOL    HW125256   0.070   5.998   4.885
 8119SOL    HW225257   0.100   6.099   5.010
 8120SOL     OW25258   3.973   3.901   6.925
 8120SOL    HW125259   4.011   3.934   7.011
 8120SOL    HW225260   4.039   3.914   6.852
 8121SOL     OW25261   6.968   6.049   3.364
 8121SOL    HW125262   6.974   6.034   3.266
 8121SOL    HW225263   6.871   6.056   3.390
 8122SOL     OW25264   0.194   4.947   2.473
 8122SOL    HW125265   0.261   4.986   2.536
 8122SOL    HW225266   0.238   4.879   2.414
 8123SOL     OW25267   0.579   0.478   6.784
 8123SOL    HW125268   0.491   0.433   6.801
 8123SOL    HW225269   0.583   0.511   6.690
 8124SOL     OW25270   0.834   6.729   1.685
 8124SOL    HW125271   0.753   6.723   1.625
 8124SOL    HW225272   0.886   6.644   1.677
 8125SOL     OW25273   6.188   5.086   2.893
 8125SOL    HW125274   6.260   5.067   2.960
 8125SOL    HW225275   6.140   5.001   2.872
 8126SOL     OW25276   6.100   4.537   2.095
 8126SOL    HW125277   6.029   4.552   2.026
 8126SOL    HW225278   6.158   4.460   2.067
 8127SOL     OW25279   2.436   5.710   0.868
 8127SOL    HW125280   2.338   5.688   0.862
 8127SOL    HW225281   2.488   5.626   0.878
 8128SOL     OW25282   3.272   2.408   6.791
 8128SOL    HW125283   3.190   2.390   6.845
 8128SOL    HW225284   3.281   2.338   6.720
 8129SOL     OW25285   5.027   1.092   6.425
 8129SOL    HW125286   4.948   1.110   6.483
 8129SOL    HW225287   5.099   1.047   6.479
 8130SOL     OW25288   0.878   5.381   6.205
 8130SOL    HW125289   0.857   5.414   6.113
 8130SOL    HW225290   0.833   5.440   6.272
 8131SOL     OW25291   2.640   0.875   0.742
 8131SOL    HW125292   2.549   0.861   0.782
 8131SOL    HW225293   2.709   0.836   0.803
 8132SOL     OW25294   5.451   6.144   5.920
 8132SOL    HW125295   5.490   6.187   5.839
 8132SOL    HW225296   5.496   6.178   6.002
 8133SOL     OW25297   3.270   5.027   2.313
 8133SOL    HW125298   3.226   5.116   2.320
 8133SOL    HW225299   3.360   5.037   2.270
 8134SOL     OW25300   2.064   1.278   4.163
 8134SOL    HW125301   2.032   1.300   4.256
 8134SOL    HW225302   2.094   1.362   4.118
 8135SOL     OW25303   2.622   4.693   2.448
 8135SOL    HW125304   2.615   4.671   2.351
 8135SOL    HW225305   2.539   4.740   2.477
 8136SOL     OW25306   4.522   5.173   2.825
 8136SOL    HW125307   4.512   5.128   2.914
 8136SOL    HW225308   4.470   5.124   2.756
 8137SOL     OW25309   2.180   2.476   4.122
 8137SOL    HW125310   2.189   2.453   4.025
 8137SOL    HW225311   2.099   2.431   4.160
 8138SOL     OW25312   5.582   1.846   2.392
 8138SOL    HW125313   5.559   1.749   2.393
 8138SOL    HW225314   5.509   1.897   2.347
 8139SOL     OW25315   1.163   2.797   3.317
 8139SOL    HW125316   1.189   2.753   3.403
 8139SOL    HW225317   1.064   2.787   3.302
 8140SOL     OW25318   3.757   0.534   0.457
 8140SOL    HW125319   3.787   0.510   0.550
 8140SOL    HW225320   3.717   0.453   0.414
 8141SOL     OW25321   5.368   0.389   5.216
 8141SOL    HW125322   5.302   0.315   5.215
 8141SOL    HW225323   5.348   0.454   5.142
 8142SOL     OW25324   2.120   5.012   1.121
 8142SOL    HW125325   2.071   4.930   1.150
 8142SOL    HW225326   2.149   5.063   1.202
 8143SOL     OW25327   5.174   5.091   1.471
 8143SOL    HW125328   5.158   4.995   1.495
 8143SOL    HW225329   5.270   5.103   1.445
 8144SOL     OW25330   0.611   5.809   5.435
 8144SOL    HW125331   0.708   5.795   5.457
 8144SOL    HW225332   0.575   5.728   5.390
 8145SOL     OW25333   4.587   4.959   0.368
 8145SOL    HW125334   4.540   5.022   0.429
 8145SOL    HW225335   4.684   4.953   0.394
 8146SOL     OW25336   6.238   0.395   5.125
 8146SOL    HW125337   6.183   0.475   5.151
 8146SOL    HW225338   6.277   0.409   5.035
 8147SOL     OW25339   0.400   0.712   0.556
 8147SOL    HW125340   0.471   0.664   0.505
 8147SOL    HW225341   0.382   0.801   0.513
 8148SOL     OW25342   4.023   4.031   6.499
 8148SOL    HW125343   4.039   3.946   6.549
 8148SOL    HW225344   3.971   4.094   6.557
 8149SOL     OW25345   1.627   6.389   4.771
 8149SOL    HW125346   1.594   6.363   4.680
 8149SOL    HW225347   1.706   6.332   4.795
 8150SOL     OW25348   0.404   3.461   1.144
 8150SOL    HW125349   0.455   3.447   1.229
 8150SOL    HW225350   0.447   3.409   1.070
 8151SOL     OW25351   6.339   5.677   3.846
 8151SOL    HW125352   6.393   5.725   3.776
 8151SOL    HW225353   6.260   5.733   3.871
 8152SOL     OW25354   4.624   2.206   2.952
 8152SOL    HW125355   4.625   2.232   3.049
 8152SOL    HW225356   4.586   2.113   2.943
 8153SOL     OW25357   0.515   0.911   3.437
 8153SOL    HW125358   0.603   0.951   3.413
 8153SOL    HW225359   0.443   0.957   3.385
 8154SOL     OW25360   3.032   1.248   3.073
 8154SOL    HW125361   3.123   1.229   3.111
 8154SOL    HW225362   2.965   1.187   3.115
 8155SOL     OW25363   1.027   4.400   2.208
 8155SOL    HW125364   0.941   4.401   2.259
 8155SOL    HW225365   1.019   4.339   2.130
 8156SOL     OW25366   5.204   5.922   1.282
 8156SOL    HW125367   5.149   5.847   1.319
 8156SOL    HW225368   5.206   5.997   1.347
 8157SOL     OW25369   5.894   3.668   5.695
 8157SOL    HW125370   5.866   3.577   5.664
 8157SOL    HW225371   5.949   3.660   5.778
 8158SOL     OW25372   5.328   5.440   6.321
 8158SOL    HW125373   5.377   5.482   6.245
 8158SOL    HW225374   5.280   5.359   6.290
 8159SOL     OW25375   3.738   6.357   5.667
 8159SOL    HW125376   3.813   6.401   5.617
 8159SOL    HW225377   3.774   6.315   5.750
 8160SOL     OW25378   4.765   0.378   3.888
 8160SOL    HW125379   4.814   0.417   3.967
 8160SOL    HW225380   4.666   0.390   3.902
 8161SOL     OW25381   5.914   3.708   6.575
 8161SOL    HW125382   5.868   3.699   6.486
 8161SOL    HW225383   5.909   3.620   6.623
 8162SOL     OW25384   0.533   5.845   0.099
 8162SOL    HW125385   0.620   5.886   0.126
 8162SOL    HW225386   0.516   5.763   0.154
 8163SOL     OW25387   3.652   4.984   5.437
 8163SOL    HW125388   3.748   4.978   5.410
 8163SOL    HW225389   3.645   4.967   5.536
 8164SOL     OW25390   4.638   1.151   0.292
 8164SOL    HW125391   4.653   1.235   0.343
 8164SOL    HW225392   4.727   1.109   0.272
 8165SOL     OW25393   6.672   4.177   6.928
 8165SOL    HW125394   6.766   4.170   6.961
 8165SOL    HW225395   6.642   4.273   6.933
 8166SOL     OW25396   2.149   1.825   3.500
 8166SOL    HW125397   2.066   1.881   3.504
 8166SOL    HW225398   2.228   1.883   3.485
 8167SOL     OW25399   6.560   0.480   3.621
 8167SOL    HW125400   6.651   0.513   3.643
 8167SOL    HW225401   6.545   0.486   3.522
 8168SOL     OW25402   2.708   0.176   1.630
 8168SOL    HW125403   2.617   0.192   1.591
 8168SOL    HW225404   2.732   0.079   1.622
 8169SOL     OW25405   3.922   1.993   0.673
 8169SOL    HW125406   3.966   2.023   0.589
 8169SOL    HW225407   3.990   1.988   0.746
 8170SOL     OW25408   6.639   4.665   1.279
 8170SOL    HW125409   6.611   4.625   1.192
 8170SOL    HW225410   6.711   4.732   1.263
 8171SOL     OW25411   1.455   1.166   6.482
 8171SOL    HW125412   1.476   1.135   6.574
 8171SOL    HW225413   1.466   1.265   6.477
 8172SOL     OW25414   0.307   2.605   2.021
 8172SOL    HW125415   0.341   2.555   2.100
 8172SOL    HW225416   0.233   2.666   2.049
 8173SOL     OW25417   5.896   2.114   3.015
 8173SOL    HW125418   5.883   2.120   3.114
 8173SOL    HW225419   5.818   2.065   2.974
 8174SOL     OW25420   0.892   6.523   2.824
 8174SOL    HW125421   0.957   6.574   2.879
 8174SOL    HW225422   0.859   6.444   2.875
 8175SOL     OW25423   0.688   2.855   4.355
 8175SOL    HW125424   0.649   2.853   4.263
 8175SOL    HW225425   0.614   2.854   4.423
 8176SOL     OW25426   2.292   4.397   1.413
 8176SOL    HW125427   2.211   4.356   1.372
 8176SOL    HW225428   2.266   4.480   1.463
 8177SOL     OW25429   3.488   0.869   2.878
 8177SOL    HW125430   3.448   0.785   2.913
 8177SOL    HW225431   3.419   0.941   2.875
 8178SOL     OW25432   3.144   6.404   1.034
 8178SOL    HW125433   3.106   6.460   1.108
 8178SOL    HW225434   3.106   6.312   1.040
 8179SOL     OW25435   5.626   1.059   4.338
 8179SOL    HW125436   5.668   1.148   4.355
 8179SOL    HW225437   5.528   1.072   4.320
 8180SOL     OW25438   6.101   0.563   6.953
 8180SOL    HW125439   6.140   0.622   6.882
 8180SOL    HW225440   6.069   0.478   6.911
 8181SOL     OW25441   0.959   0.536   1.101
 8181SOL    HW125442   0.860   0.553   1.105
 8181SOL    HW225443   0.979   0.446   1.139
 8182SOL     OW25444   3.446   3.456   4.710
 8182SOL    HW125445   3.389   3.476   4.630
 8182SOL    HW225446   3.533   3.419   4.680
 8183SOL     OW25447   6.483   1.581   4.601
 8183SOL    HW125448   6.534   1.629   4.530
 8183SOL    HW225449   6.449   1.494   4.565
 8184SOL     OW25450   0.943   7.015   0.043
 8184SOL    HW125451   0.986   7.010   6.976
 8184SOL    HW225452   0.850   6.979   0.037
 8185SOL     OW25453   2.139   0.276   0.454
 8185SOL    HW125454   2.074   0.203   0.478
 8185SOL    HW225455   2.090   0.350   0.408
 8186SOL     OW25456   2.491   4.215   5.303
 8186SOL    HW125457   2.401   4.260   5.305
 8186SOL    HW225458   2.484   4.129   5.253
 8187SOL     OW25459   2.359   1.850   5.161
 8187SOL    HW125460   2.314   1.788   5.225
 8187SOL    HW225461   2.420   1.912   5.211
 8188SOL     OW25462   4.431   1.878   3.973
 8188SOL    HW125463   4.352   1.816   3.973
 8188SOL    HW225464   4.400   1.971   3.957
 8189SOL     OW25465   5.623   5.690   2.333
 8189SOL    HW125466   5.672   5.643   2.259
 8189SOL    HW225467   5.688   5.719   2.403
 8190SOL     OW25468   5.142   4.065   3.867
 8190SOL    HW125469   5.098   4.003   3.932
 8190SOL    HW225470   5.165   4.016   3.784
 8191SOL     OW25471   4.446   5.132   2.413
 8191SOL    HW125472   4.352   5.159   2.432
 8191SOL    HW225473   4.508   5.203   2.446
 8192SOL     OW25474   1.210   5.232   2.570
 8192SOL    HW125475   1.183   5.328   2.574
 8192SOL    HW225476   1.137   5.179   2.525
 8193SOL     OW25477   6.472   5.433   4.579
 8193SOL    HW125478   6.415   5.494   4.636
 8193SOL    HW225479   6.520   5.487   4.511
 8194SOL     OW25480   4.063   0.852   1.094
 8194SOL    HW125481   4.079   0.951   1.104
 8194SOL    HW225482   4.043   0.832   0.998
 8195SOL     OW25483   6.448   0.116   3.770
 8195SOL    HW125484   6.498   0.198   3.800
 8195SOL    HW225485   6.464   0.042   3.835
 8196SOL     OW25486   5.351   6.997   0.203
 8196SOL    HW125487   5.306   0.054   0.164
 8196SOL    HW225488   5.296   6.916   0.187
 8197SOL     OW25489   4.037   1.796   1.208
 8197SOL    HW125490   4.126   1.801   1.253
 8197SOL    HW225491   4.038   1.855   1.126
 8198SOL     OW25492   2.755   6.870   2.550
 8198SOL    HW125493   2.739   6.775   2.577
 8198SOL    HW225494   2.834   6.874   2.487
 8199SOL     OW25495   5.241   3.274   6.005
 8199SOL    HW125496   5.256   3.328   5.922
 8199SOL    HW225497   5.248   3.333   6.085
 8200SOL     OW25498   5.957   4.528   1.850
 8200SOL    HW125499   5.902   4.445   1.859
 8200SOL    HW225500   5.961   4.556   1.754
 8201SOL     OW25501   0.124   0.884   5.079
 8201SOL    HW125502   0.141   0.791   5.111
 8201SOL    HW225503   0.175   0.949   5.135
 8202SOL     OW25504   6.628   5.866   2.732
 8202SOL    HW125505   6.609   5.824   2.643
 8202SOL    HW225506   6.602   5.802   2.805
 8203SOL     OW25507   1.822   2.450   6.990
 8203SOL    HW125508   1.857   2.500   0.047
 8203SOL    HW225509   1.724   2.434   7.001
 8204SOL     OW25510   3.988   4.084   0.556
 8204SOL    HW125511   4.003   4.141   0.475
 8204SOL    HW225512   3.909   4.119   0.606
 8205SOL     OW25513   6.914   3.551   0.077
 8205SOL    HW125514   6.855   3.528   0.154
 8205SOL    HW225515   6.858   3.585   0.001
 8206SOL     OW25516   4.849   1.696   0.114
 8206SOL    HW125517   4.776   1.637   0.149
 8206SOL    HW225518   4.929   1.690   0.173
 8207SOL     OW25519   3.818   3.737   4.030
 8207SOL    HW125520   3.870   3.812   3.989
 8207SOL    HW225521   3.749   3.706   3.965
 8208SOL     OW25522   1.511   0.631   0.819
 8208SOL    HW125523   1.421   0.596   0.793
 8208SOL    HW225524   1.573   0.624   0.742
 8209SOL     OW25525   0.256   0.759   4.636
 8209SOL    HW125526   0.260   0.701   4.718
 8209SOL    HW225527   0.313   0.720   4.565
 8210SOL     OW25528   2.028   2.105   0.178
 8210SOL    HW125529   1.966   2.051   0.121
 8210SOL    HW225530   2.084   2.164   0.119
 8211SOL     OW25531   3.705   3.998   1.518
 8211SOL    HW125532   3.803   4.012   1.511
 8211SOL    HW225533   3.684   3.900   1.515
 8212SOL     OW25534   1.229   2.493   3.048
 8212SOL    HW125535   1.324   2.475   3.072
 8212SOL    HW225536   1.212   2.591   3.049
 8213SOL     OW25537   6.791   4.893   1.292
 8213SOL    HW125538   6.872   4.898   1.233
 8213SOL    HW225539   6.820   4.881   1.387
 8214SOL     OW25540   6.017   4.510   3.770
 8214SOL    HW125541   6.061   4.531   3.857
 8214SOL    HW225542   5.933   4.562   3.761
 8215SOL     OW25543   3.658   5.866   5.379
 8215SOL    HW125544   3.626   5.855   5.284
 8215SOL    HW225545   3.604   5.937   5.423
 8216SOL     OW25546   5.414   5.758   4.266
 8216SOL    HW125547   5.373   5.804   4.187
 8216SOL    HW225548   5.386   5.805   4.350
 8217SOL     OW25549   2.189   4.981   0.676
 8217SOL    HW125550   2.244   4.986   0.592
 8217SOL    HW225551   2.186   4.887   0.709
 8218SOL     OW25552   0.084   0.760   6.739
 8218SOL    HW125553   0.021   0.784   6.813
 8218SOL    HW225554   0.042   0.690   6.681
 8219SOL     OW25555   4.495   2.078   0.217
 8219SOL    HW125556   4.521   2.070   0.121
 8219SOL    HW225557   4.539   2.158   0.258
 8220SOL     OW25558   3.612   3.291   3.139
 8220SOL    HW125559   3.708   3.300   3.115
 8220SOL    HW225560   3.605   3.254   3.232
 8221SOL     OW25561   4.706   6.044   4.476
 8221SOL    HW125562   4.741   5.951   4.465
 8221SOL    HW225563   4.753   6.087   4.553
 8222SOL     OW25564   5.059   1.754   2.168
 8222SOL    HW125565   5.070   1.772   2.070
 8222SOL    HW225566   5.057   1.655   2.183
 8223SOL     OW25567   1.802   3.863   5.872
 8223SOL    HW125568   1.751   3.781   5.844
 8223SOL    HW225569   1.813   3.862   5.972
 8224SOL     OW25570   0.385   2.264   2.782
 8224SOL    HW125571   0.293   2.244   2.748
 8224SOL    HW225572   0.389   2.359   2.814
 8225SOL     OW25573   3.540   1.225   6.960
 8225SOL    HW125574   3.469   1.170   6.915
 8225SOL    HW225575   3.587   1.281   6.892
 8226SOL     OW25576   4.177   6.375   2.116
 8226SOL    HW125577   4.245   6.363   2.044
 8226SOL    HW225578   4.092   6.408   2.077
 8227SOL     OW25579   6.996   2.652   3.352
 8227SOL    HW125580   6.939   2.667   3.270
 8227SOL    HW225581   6.940   2.666   3.433
 8228SOL     OW25582   0.297   2.535   5.874
 8228SOL    HW125583   0.321   2.498   5.964
 8228SOL    HW225584   0.202   2.514   5.854
 8229SOL     OW25585   3.647   4.276   0.431
 8229SOL    HW125586   3.670   4.369   0.402
 8229SOL    HW225587   3.548   4.265   0.429
 8230SOL     OW25588   4.026   6.937   5.034
 8230SOL    HW125589   4.003   0.003   5.074
 8230SOL    HW225590   3.990   6.864   5.093
 8231SOL     OW25591   4.451   5.340   0.626
 8231SOL    HW125592   4.420   5.432   0.605
 8231SOL    HW225593   4.529   5.345   0.690
 8232SOL     OW25594   5.283   1.565   0.838
 8232SOL    HW125595   5.347   1.489   0.849
 8232SOL    HW225596   5.294   1.629   0.914
 8233SOL     OW25597   0.875   6.397   6.305
 8233SOL    HW125598   0.804   6.422   6.371
 8233SOL    HW225599   0.834   6.344   6.231
 8234SOL     OW25600   2.742   3.889   0.134
 8234SOL    HW125601   2.756   3.882   0.035
 8234SOL    HW225602   2.684   3.968   0.154
 8235SOL     OW25603   1.549   3.397   0.670
 8235SOL    HW125604   1.458   3.414   0.710
 8235SOL    HW225605   1.601   3.482   0.668
 8236SOL     OW25606   6.850   4.259   6.663
 8236SOL    HW125607   6.804   4.207   6.592
 8236SOL    HW225608   6.812   4.234   6.752
 8237SOL     OW25609   4.540   6.256   4.464
 8237SOL    HW125610   4.562   6.160   4.449
 8237SOL    HW225611   4.527   6.273   4.562
 8238SOL     OW25612   1.163   4.719   0.073
 8238SOL    HW125613   1.198   4.647   0.133
 8238SOL    HW225614   1.171   4.689   7.000
 8239SOL     OW25615   6.535   1.305   5.058
 8239SOL    HW125616   6.590   1.222   5.066
 8239SOL    HW225617   6.593   1.386   5.072
 8240SOL     OW25618   3.447   4.000   2.824
 8240SOL    HW125619   3.372   3.971   2.883
 8240SOL    HW225620   3.533   3.997   2.876
 8241SOL     OW25621   3.714   6.749   0.121
 8241SOL    HW125622   3.682   6.839   0.092
 8241SOL    HW225623   3.755   6.702   0.043
 8242SOL     OW25624   0.847   4.773   5.846
 8242SOL    HW125625   0.823   4.839   5.918
 8242SOL    HW225626   0.859   4.821   5.759
 8243SOL     OW25627   1.077   2.557   0.309
 8243SOL    HW125628   1.168   2.524   0.334
 8243SOL    HW225629   1.033   2.596   0.389
 8244SOL     OW25630   1.308   0.074   3.999
 8244SOL    HW125631   1.250   0.095   4.077
 8244SOL    HW225632   1.353   0.158   3.967
 8245SOL     OW25633   4.310   1.474   3.066
 8245SOL    HW125634   4.242   1.530   3.019
 8245SOL    HW225635   4.384   1.532   3.098
 8246SOL     OW25636   0.165   3.126   5.805
 8246SOL    HW125637   0.246   3.108   5.862
 8246SOL    HW225638   0.082   3.107   5.859
 8247SOL     OW25639   0.795   6.866   2.160
 8247SOL    HW125640   0.772   6.827   2.249
 8247SOL    HW225641   0.868   6.934   2.170
 8248SOL     OW25642   6.038   4.882   4.116
 8248SOL    HW125643   6.123   4.878   4.167
 8248SOL    HW225644   5.987   4.964   4.143
 8249SOL     OW25645   2.031   2.769   4.898
 8249SOL    HW125646   2.031   2.739   4.803
 8249SOL    HW225647   2.112   2.734   4.944
 8250SOL     OW25648   3.257   4.102   2.362
 8250SOL    HW125649   3.235   4.070   2.454
 8250SOL    HW225650   3.340   4.157   2.365
 8251SOL     OW25651   6.026   3.007   3.923
 8251SOL    HW125652   6.125   2.995   3.920
 8251SOL    HW225653   5.984   2.923   3.957
 8252SOL     OW25654   3.145   2.317   6.039
 8252SOL    HW125655   3.150   2.288   6.135
 8252SOL    HW225656   3.237   2.334   6.005
 8253SOL     OW25657   4.264   4.348   5.386
 8253SOL    HW125658   4.247   4.249   5.387
 8253SOL    HW225659   4.260   4.381   5.292
 8254SOL     OW25660   4.405   4.736   4.854
 8254SOL    HW125661   4.379   4.666   4.921
 8254SOL    HW225662   4.329   4.750   4.790
 8255SOL     OW25663   2.932   6.203   5.096
 8255SOL    HW125664   2.915   6.147   5.177
 8255SOL    HW225665   2.936   6.144   5.015
 8256SOL     OW25666   6.140   0.781   2.506
 8256SOL    HW125667   6.091   0.707   2.458
 8256SOL    HW225668   6.074   0.848   2.540
 8257SOL     OW25669   6.484   3.836   3.623
 8257SOL    HW125670   6.409   3.770   3.617
 8257SOL    HW225671   6.452   3.926   3.593
 8258SOL     OW25672   5.165   1.213   0.961
 8258SOL    HW125673   5.101   1.290   0.958
 8258SOL    HW225674   5.118   1.131   0.929
 8259SOL     OW25675   4.306   1.862   3.365
 8259SOL    HW125676   4.390   1.858   3.420
 8259SOL    HW225677   4.328   1.897   3.274
 8260SOL     OW25678   2.657   6.758   1.962
 8260SOL    HW125679   2.665   6.825   2.036
 8260SOL    HW225680   2.563   6.725   1.957
 8261SOL     OW25681   6.129   1.488   2.219
 8261SOL    HW125682   6.194   1.420   2.185
 8261SOL    HW225683   6.044   1.481   2.168
 8262SOL     OW25684   0.287   2.633   0.586
 8262SOL    HW125685   0.349   2.641   0.663
 8262SOL    HW225686   0.248   2.723   0.565
 8263SOL     OW25687   1.065   2.338   0.530
 8263SOL    HW125688   0.970   2.364   0.516
 8263SOL    HW225689   1.092   2.361   0.623
 8264SOL     OW25690   2.706   6.251   2.841
 8264SOL    HW125691   2.695   6.155   2.870
 8264SOL    HW225692   2.692   6.258   2.743
 8265SOL     OW25693   1.046   6.757   0.851
 8265SOL    HW125694   1.111   6.703   0.799
 8265SOL    HW225695   1.080   6.769   0.945
 8266SOL     OW25696   2.177   1.377   3.808
 8266SOL    HW125697   2.096   1.391   3.751
 8266SOL    HW225698   2.204   1.281   3.804
 8267SOL     OW25699   1.338   2.648   0.813
 8267SOL    HW125700   1.249   2.605   0.798
 8267SOL    HW225701   1.396   2.633   0.734
 8268SOL     OW25702   2.469   6.444   5.595
 8268SOL    HW125703   2.506   6.372   5.536
 8268SOL    HW225704   2.406   6.501   5.541
 8269SOL     OW25705   4.776   1.616   2.199
 8269SOL    HW125706   4.796   1.528   2.156
 8269SOL    HW225707   4.751   1.683   2.129
 8270SOL     OW25708   2.967   6.889   5.028
 8270SOL    HW125709   3.046   6.925   5.078
 8270SOL    HW225710   2.994   6.868   4.934
 8271SOL     OW25711   6.537   0.536   2.569
 8271SOL    HW125712   6.552   0.606   2.500
 8271SOL    HW225713   6.564   0.447   2.532
 8272SOL     OW25714   4.549   2.057   1.443
 8272SOL    HW125715   4.535   1.972   1.495
 8272SOL    HW225716   4.505   2.133   1.492
 8273SOL     OW25717   2.852   6.419   0.486
 8273SOL    HW125718   2.768   6.381   0.525
 8273SOL    HW225719   2.894   6.482   0.551
 8274SOL     OW25720   5.364   5.002   2.851
 8274SOL    HW125721   5.355   5.092   2.808
 8274SOL    HW225722   5.317   5.002   2.939
 8275SOL     OW25723   4.871   1.446   5.475
 8275SOL    HW125724   4.892   1.397   5.391
 8275SOL    HW225725   4.783   1.415   5.511
 8276SOL     OW25726   1.109   2.079   3.500
 8276SOL    HW125727   1.056   2.062   3.583
 8276SOL    HW225728   1.130   1.991   3.457
 8277SOL     OW25729   6.475   0.131   1.215
 8277SOL    HW125730   6.496   0.035   1.235
 8277SOL    HW225731   6.400   0.136   1.150
 8278SOL     OW25732   2.755   2.007   5.446
 8278SOL    HW125733   2.785   2.074   5.514
 8278SOL    HW225734   2.808   1.923   5.457
 8279SOL     OW25735   1.571   0.444   4.083
 8279SOL    HW125736   1.652   0.442   4.024
 8279SOL    HW225737   1.492   0.412   4.031
 8280SOL     OW25738   2.313   2.985   0.426
 8280SOL    HW125739   2.402   3.006   0.387
 8280SOL    HW225740   2.291   3.052   0.498
 8281SOL     OW25741   2.550   4.700   1.661
 8281SOL    HW125742   2.490   4.720   1.738
 8281SOL    HW225743   2.610   4.623   1.684
 8282SOL     OW25744   5.298   3.614   0.056
 8282SOL    HW125745   5.381   3.588   0.006
 8282SOL    HW225746   5.218   3.575   0.010
 8283SOL     OW25747   1.654   5.304   6.597
 8283SOL    HW125748   1.669   5.363   6.518
 8283SOL    HW225749   1.662   5.358   6.681
 8284SOL     OW25750   0.965   3.662   0.935
 8284SOL    HW125751   0.982   3.601   0.858
 8284SOL    HW225752   0.969   3.609   1.020
 8285SOL     OW25753   3.070   3.077   4.997
 8285SOL    HW125754   3.070   3.097   5.095
 8285SOL    HW225755   3.087   3.161   4.946
 8286SOL     OW25756   5.575   3.222   6.155
 8286SOL    HW125757   5.510   3.241   6.229
 8286SOL    HW225758   5.547   3.139   6.107
 8287SOL     OW25759   2.020   5.429   4.247
 8287SOL    HW125760   2.071   5.343   4.252
 8287SOL    HW225761   1.955   5.434   4.323
 8288SOL     OW25762   2.987   1.697   1.624
 8288SOL    HW125763   2.972   1.603   1.593
 8288SOL    HW225764   3.080   1.726   1.599
 8289SOL     OW25765   1.005   5.387   1.043
 8289SOL    HW125766   0.993   5.469   1.099
 8289SOL    HW225767   1.055   5.318   1.094
 8290SOL     OW25768   5.552   1.410   1.131
 8290SOL    HW125769   5.462   1.395   1.173
 8290SOL    HW225770   5.581   1.504   1.147
 8291SOL     OW25771   5.558   6.249   5.705
 8291SOL    HW125772   5.515   6.268   5.616
 8291SOL    HW225773   5.611   6.328   5.734
 8292SOL     OW25774   2.727   6.032   6.988
 8292SOL    HW125775   2.759   5.951   0.015
 8292SOL    HW225776   2.777   6.113   7.019
 8293SOL     OW25777   4.046   6.386   0.076
 8293SOL    HW125778   4.012   6.305   0.028
 8293SOL    HW225779   4.005   6.390   0.167
 8294SOL     OW25780   5.652   4.503   4.921
 8294SOL    HW125781   5.721   4.465   4.859
 8294SOL    HW225782   5.564   4.507   4.874
 8295SOL     OW25783   5.006   5.780   1.591
 8295SOL    HW125784   4.951   5.851   1.635
 8295SOL    HW225785   4.975   5.690   1.621
 8296SOL     OW25786   1.963   6.018   6.240
 8296SOL    HW125787   1.903   6.096   6.226
 8296SOL    HW225788   2.041   6.024   6.178
 8297SOL     OW25789   6.119   2.879   2.144
 8297SOL    HW125790   6.168   2.932   2.075
 8297SOL    HW225791   6.125   2.782   2.122
 8298SOL     OW25792   5.913   1.652   1.358
 8298SOL    HW125793   5.979   1.646   1.433
 8298SOL    HW225794   5.824   1.679   1.394
 8299SOL     OW25795   6.518   2.831   1.920
 8299SOL    HW125796   6.572   2.754   1.888
 8299SOL    HW225797   6.495   2.891   1.843
 8300SOL     OW25798   0.353   6.089   4.938
 8300SOL    HW125799   0.357   6.137   4.851
 8300SOL    HW225800   0.441   6.098   4.986
 8301SOL     OW25801   4.099   1.680   2.056
 8301SOL    HW125802   4.071   1.589   2.086
 8301SOL    HW225803   4.046   1.705   1.975
 8302SOL     OW25804   6.095   5.853   6.643
 8302SOL    HW125805   6.056   5.944   6.628
 8302SOL    HW225806   6.166   5.859   6.714
 8303SOL     OW25807   6.217   0.624   4.343
 8303SOL    HW125808   6.312   0.625   4.311
 8303SOL    HW225809   6.215   0.591   4.438
 8304SOL     OW25810   0.407   3.771   1.146
 8304SOL    HW125811   0.416   3.680   1.107
 8304SOL    HW225812   0.491   3.823   1.129
 8305SOL     OW25813   4.062   5.002   4.332
 8305SOL    HW125814   4.035   4.908   4.309
 8305SOL    HW225815   4.152   5.022   4.293
 8306SOL     OW25816   6.983   2.732   5.794
 8306SOL    HW125817   6.922   2.798   5.752
 8306SOL    HW225818   0.038   2.715   5.734
 8307SOL     OW25819   3.828   5.357   1.422
 8307SOL    HW125820   3.767   5.289   1.462
 8307SOL    HW225821   3.794   5.382   1.331
 8308SOL     OW25822   3.789   5.422   1.144
 8308SOL    HW125823   3.806   5.326   1.125
 8308SOL    HW225824   3.730   5.460   1.073
 8309SOL     OW25825   5.966   5.770   3.679
 8309SOL    HW125826   6.006   5.679   3.676
 8309SOL    HW225827   5.869   5.763   3.704
 8310SOL     OW25828   0.569   4.346   0.558
 8310SOL    HW125829   0.666   4.349   0.579
 8310SOL    HW225830   0.536   4.438   0.536
 8311SOL     OW25831   1.048   1.339   4.411
 8311SOL    HW125832   1.044   1.389   4.325
 8311SOL    HW225833   1.051   1.404   4.487
 8312SOL     OW25834   4.703   6.785   0.618
 8312SOL    HW125835   4.632   6.845   0.656
 8312SOL    HW225836   4.777   6.775   0.685
 8313SOL     OW25837   4.912   0.901   2.119
 8313SOL    HW125838   4.966   0.967   2.066
 8313SOL    HW225839   4.840   0.950   2.169
 8314SOL     OW25840   4.393   0.531   1.031
 8314SOL    HW125841   4.419   0.458   0.967
 8314SOL    HW225842   4.331   0.493   1.100
 8315SOL     OW25843   3.941   3.327   1.111
 8315SOL    HW125844   4.031   3.320   1.068
 8315SOL    HW225845   3.929   3.418   1.151
 8316SOL     OW25846   0.226   2.386   1.858
 8316SOL    HW125847   0.238   2.460   1.923
 8316SOL    HW225848   0.314   2.342   1.841
 8317SOL     OW25849   2.200   2.251   2.929
 8317SOL    HW125850   2.149   2.272   2.846
 8317SOL    HW225851   2.291   2.216   2.905
 8318SOL     OW25852   4.477   1.269   4.877
 8318SOL    HW125853   4.470   1.295   4.780
 8318SOL    HW225854   4.491   1.351   4.932
 8319SOL     OW25855   2.663   1.253   6.674
 8319SOL    HW125856   2.599   1.188   6.715
 8319SOL    HW225857   2.715   1.207   6.602
 8320SOL     OW25858   3.406   3.537   1.849
 8320SOL    HW125859   3.306   3.528   1.846
 8320SOL    HW225860   3.430   3.633   1.860
 8321SOL     OW25861   0.043   0.714   0.368
 8321SOL    HW125862   0.090   0.739   0.453
 8321SOL    HW225863   0.064   0.620   0.344
 8322SOL     OW25864   0.173   0.344   0.650
 8322SOL    HW125865   0.179   0.388   0.561
 8322SOL    HW225866   0.241   0.271   0.655
 8323SOL     OW25867   5.772   5.646   2.107
 8323SOL    HW125868   5.852   5.604   2.150
 8323SOL    HW225869   5.797   5.681   2.017
 8324SOL     OW25870   5.221   0.553   1.539
 8324SOL    HW125871   5.227   0.538   1.637
 8324SOL    HW225872   5.310   0.535   1.497
 8325SOL     OW25873   3.005   3.438   5.458
 8325SOL    HW125874   3.062   3.518   5.478
 8325SOL    HW225875   2.914   3.468   5.431
 8326SOL     OW25876   5.033   3.175   5.414
 8326SOL    HW125877   4.955   3.180   5.351
 8326SOL    HW225878   5.092   3.099   5.388
 8327SOL     OW25879   5.962   2.007   5.894
 8327SOL    HW125880   6.058   2.035   5.885
 8327SOL    HW225881   5.918   2.011   5.804
 8328SOL     OW25882   2.540   4.409   5.579
 8328SOL    HW125883   2.595   4.470   5.522
 8328SOL    HW225884   2.591   4.326   5.598
 8329SOL     OW25885   0.288   3.485   6.230
 8329SOL    HW125886   0.374   3.441   6.251
 8329SOL    HW225887   0.297   3.584   6.242
 8330SOL     OW25888   2.897   6.425   0.220
 8330SOL    HW125889   2.870   6.422   0.317
 8330SOL    HW225890   2.860   6.507   0.178
 8331SOL     OW25891   2.584   1.740   1.426
 8331SOL    HW125892   2.614   1.779   1.513
 8331SOL    HW225893   2.633   1.654   1.409
 8332SOL     OW25894   5.254   4.989   2.520
 8332SOL    HW125895   5.303   4.926   2.580
 8332SOL    HW225896   5.161   4.955   2.505
 8333SOL     OW25897   0.644   6.471   6.451
 8333SOL    HW125898   0.628   6.386   6.502
 8333SOL    HW225899   0.689   6.537   6.511
 8334SOL     OW25900   4.044   1.538   3.718
 8334SOL    HW125901   4.012   1.446   3.739
 8334SOL    HW225902   3.977   1.584   3.659
 8335SOL     OW25903   6.338   5.485   6.431
 8335SOL    HW125904   6.261   5.453   6.485
 8335SOL    HW225905   6.307   5.511   6.339
 8336SOL     OW25906   6.133   0.099   2.846
 8336SOL    HW125907   6.182   0.038   2.908
 8336SOL    HW225908   6.172   0.094   2.755
 8337SOL     OW25909   0.690   5.877   3.094
 8337SOL    HW125910   0.723   5.846   3.005
 8337SOL    HW225911   0.677   5.798   3.154
 8338SOL     OW25912   2.104   5.098   1.880
 8338SOL    HW125913   2.151   5.017   1.845
 8338SOL    HW225914   2.005   5.084   1.876
 8339SOL     OW25915   5.719   0.574   2.084
 8339SOL    HW125916   5.787   0.638   2.120
 8339SOL    HW225917   5.733   0.562   1.986
 8340SOL     OW25918   5.055   3.337   1.732
 8340SOL    HW125919   5.041   3.244   1.700
 8340SOL    HW225920   5.078   3.396   1.655
 8341SOL     OW25921   2.129   6.433   6.501
 8341SOL    HW125922   2.124   6.336   6.525
 8341SOL    HW225923   2.067   6.485   6.559
 8342SOL     OW25924   3.801   6.987   1.452
 8342SOL    HW125925   3.895   6.975   1.484
 8342SOL    HW225926   3.795   6.963   1.355
 8343SOL     OW25927   0.775   5.012   6.041
 8343SOL    HW125928   0.854   5.072   6.029
 8343SOL    HW225929   0.692   5.066   6.046
 8344SOL     OW25930   4.209   0.358   5.181
 8344SOL    HW125931   4.269   0.326   5.254
 8344SOL    HW225932   4.116   0.365   5.215
 8345SOL     OW25933   4.772   1.728   3.562
 8345SOL    HW125934   4.825   1.656   3.607
 8345SOL    HW225935   4.817   1.816   3.576
 8346SOL     OW25936   2.155   4.339   0.857
 8346SOL    HW125937   2.255   4.334   0.856
 8346SOL    HW225938   2.119   4.319   0.766
 8347SOL     OW25939   3.873   5.448   4.816
 8347SOL    HW125940   3.855   5.511   4.893
 8347SOL    HW225941   3.810   5.370   4.822
 8348SOL     OW25942   1.440   6.487   2.463
 8348SOL    HW125943   1.407   6.424   2.392
 8348SOL    HW225944   1.385   6.476   2.545
 8349SOL     OW25945   6.158   6.673   1.702
 8349SOL    HW125946   6.229   6.604   1.690
 8349SOL    HW225947   6.128   6.674   1.797
 8350SOL     OW25948   4.568   0.952   4.544
 8350SOL    HW125949   4.528   0.861   4.536
 8350SOL    HW225950   4.558   0.985   4.638
 8351SOL     OW25951   4.719   4.972   4.002
 8351SOL    HW125952   4.728   4.885   3.953
 8351SOL    HW225953   4.779   5.040   3.960
 8352SOL     OW25954   0.109   6.087   3.084
 8352SOL    HW125955   0.052   6.046   3.012
 8352SOL    HW225956   0.180   6.023   3.111
 8353SOL     OW25957   6.636   3.804   1.244
 8353SOL    HW125958   6.567   3.735   1.265
 8353SOL    HW225959   6.703   3.766   1.180
 8354SOL     OW25960   3.872   6.924   6.840
 8354SOL    HW125961   3.878   6.833   6.881
 8354SOL    HW225962   3.922   6.925   6.753
 8355SOL     OW25963   3.149   0.526   6.967
 8355SOL    HW125964   3.231   0.481   7.002
 8355SOL    HW225965   3.101   0.465   6.904
 8356SOL     OW25966   1.982   6.237   0.902
 8356SOL    HW125967   2.066   6.236   0.955
 8356SOL    HW225968   1.904   6.246   0.964
 8357SOL     OW25969   3.792   0.109   5.714
 8357SOL    HW125970   3.885   0.143   5.721
 8357SOL    HW225971   3.729   0.172   5.761
 8358SOL     OW25972   1.140   3.275   5.584
 8358SOL    HW125973   1.198   3.319   5.653
 8358SOL    HW225974   1.166   3.307   5.493
 8359SOL     OW25975   2.588   6.284   4.842
 8359SOL    HW125976   2.528   6.330   4.777
 8359SOL    HW225977   2.537   6.212   4.890
 8360SOL     OW25978   3.566   6.028   1.139
 8360SOL    HW125979   3.595   6.044   1.234
 8360SOL    HW225980   3.644   6.040   1.078
 8361SOL     OW25981   2.342   0.137   2.959
 8361SOL    HW125982   2.430   0.093   2.974
 8361SOL    HW225983   2.357   0.227   2.919
 8362SOL     OW25984   3.138   1.743   0.995
 8362SOL    HW125985   3.174   1.816   1.053
 8362SOL    HW225986   3.190   1.659   1.011
 8363SOL     OW25987   0.743   2.538   0.070
 8363SOL    HW125988   0.779   2.488   0.149
 8363SOL    HW225989   0.648   2.512   0.055
 8364SOL     OW25990   6.476   3.011   2.511
 8364SOL    HW125991   6.568   3.049   2.507
 8364SOL    HW225992   6.414   3.068   2.457
 8365SOL     OW25993   1.803   3.823   1.567
 8365SOL    HW125994   1.749   3.800   1.648
 8365SOL    HW225995   1.791   3.752   1.497
 8366SOL     OW25996   2.608   5.728   2.293
 8366SOL    HW125997   2.606   5.647   2.350
 8366SOL    HW225998   2.515   5.753   2.266
 8367SOL     OW25999   4.091   5.890   3.908
 8367SOL    HW126000   4.074   5.983   3.879
 8367SOL    HW226001   4.021   5.862   3.974
 8368SOL     OW26002   1.880   6.701   5.738
 8368SOL    HW126003   1.839   6.687   5.648
 8368SOL    HW226004   1.972   6.738   5.728
 8369SOL     OW26005   1.849   6.716   6.626
 8369SOL    HW126006   1.917   6.740   6.695
 8369SOL    HW226007   1.889   6.727   6.535
 8370SOL     OW26008   2.328   2.098   5.826
 8370SOL    HW126009   2.344   2.196   5.839
 8370SOL    HW226010   2.404   2.058   5.776
 8371SOL     OW26011   2.053   4.225   1.368
 8371SOL    HW126012   2.115   4.151   1.393
 8371SOL    HW226013   1.962   4.188   1.348
 8372SOL     OW26014   0.351   5.769   2.395
 8372SOL    HW126015   0.353   5.867   2.416
 8372SOL    HW226016   0.267   5.748   2.345
 8373SOL     OW26017   1.244   0.388   4.221
 8373SOL    HW126018   1.259   0.474   4.174
 8373SOL    HW226019   1.332   0.342   4.237
 8374SOL     OW26020   6.639   0.948   5.861
 8374SOL    HW126021   6.572   0.890   5.907
 8374SOL    HW226022   6.727   0.939   5.907
 8375SOL     OW26023   3.850   0.099   6.300
 8375SOL    HW126024   3.945   0.128   6.315
 8375SOL    HW226025   3.843   0.048   6.215
 8376SOL     OW26026   1.868   0.725   4.124
 8376SOL    HW126027   1.905   0.708   4.215
 8376SOL    HW226028   1.892   0.817   4.094
 8377SOL     OW26029   5.637   5.649   1.253
 8377SOL    HW126030   5.672   5.739   1.278
 8377SOL    HW226031   5.627   5.593   1.335
 8378SOL     OW26032   4.289   4.971   2.854
 8378SOL    HW126033   4.317   4.877   2.831
 8378SOL    HW226034   4.335   4.999   2.939
 8379SOL     OW26035   6.231   2.242   1.168
 8379SOL    HW126036   6.225   2.339   1.190
 8379SOL    HW226037   6.314   2.203   1.207
 8380SOL     OW26038   7.018   1.510   2.587
 8380SOL    HW126039   6.949   1.465   2.531
 8380SOL    HW226040   6.986   1.516   2.682
 8381SOL     OW26041   0.055   3.890   5.207
 8381SOL    HW126042   0.063   3.794   5.232
 8381SOL    HW226043   0.009   3.940   5.281
 8382SOL     OW26044   1.872   0.505   1.752
 8382SOL    HW126045   1.840   0.411   1.738
 8382SOL    HW226046   1.939   0.507   1.826
 8383SOL     OW26047   2.469   0.368   6.233
 8383SOL    HW126048   2.495   0.297   6.168
 8383SOL    HW226049   2.550   0.405   6.278
 8384SOL     OW26050   0.187   0.440   0.390
 8384SOL    HW126051   0.149   0.382   0.319
 8384SOL    HW226052   0.273   0.481   0.358
 8385SOL     OW26053   6.356   2.095   1.499
 8385SOL    HW126054   6.345   2.019   1.435
 8385SOL    HW226055   6.321   2.069   1.589
 8386SOL     OW26056   0.681   4.414   1.624
 8386SOL    HW126057   0.589   4.406   1.662
 8386SOL    HW226058   0.745   4.363   1.681
 8387SOL     OW26059   1.342   1.476   1.799
 8387SOL    HW126060   1.397   1.445   1.720
 8387SOL    HW226061   1.296   1.397   1.840
 8388SOL     OW26062   1.541   6.329   0.375
 8388SOL    HW126063   1.589   6.277   0.305
 8388SOL    HW226064   1.560   6.289   0.465
 8389SOL     OW26065   6.154   4.006   2.758
 8389SOL    HW126066   6.123   3.989   2.852
 8389SOL    HW226067   6.131   4.100   2.732
 8390SOL     OW26068   4.119   0.910   6.113
 8390SOL    HW126069   4.187   0.851   6.156
 8390SOL    HW226070   4.083   0.975   6.180
 8391SOL     OW26071   6.405   5.547   7.022
 8391SOL    HW126072   6.473   5.530   0.070
 8391SOL    HW226073   6.331   5.604   0.036
 8392SOL     OW26074   0.242   3.472   4.202
 8392SOL    HW126075   0.153   3.433   4.222
 8392SOL    HW226076   0.231   3.554   4.145
 8393SOL     OW26077   6.300   0.854   2.096
 8393SOL    HW126078   6.331   0.849   2.191
 8393SOL    HW226079   6.206   0.886   2.094
 8394SOL     OW26080   5.978   2.946   1.480
 8394SOL    HW126081   6.055   2.949   1.544
 8394SOL    HW226082   5.897   2.987   1.522
 8395SOL     OW26083   2.886   6.826   5.706
 8395SOL    HW126084   2.973   6.786   5.676
 8395SOL    HW226085   2.903   6.919   5.740
 8396SOL     OW26086   4.799   4.806   3.357
 8396SOL    HW126087   4.856   4.889   3.356
 8396SOL    HW226088   4.852   4.729   3.393
 8397SOL     OW26089   1.191   1.080   2.992
 8397SOL    HW126090   1.261   1.105   3.058
 8397SOL    HW226091   1.186   0.980   2.985
 8398SOL     OW26092   4.422   2.678   6.058
 8398SOL    HW126093   4.382   2.727   6.135
 8398SOL    HW226094   4.518   2.705   6.047
 8399SOL     OW26095   6.340   6.911   6.591
 8399SOL    HW126096   6.385   7.000   6.594
 8399SOL    HW226097   6.408   6.839   6.599
 8400SOL     OW26098   2.348   2.121   4.113
 8400SOL    HW126099   2.444   2.100   4.092
 8400SOL    HW226100   2.343   2.173   4.197
 8401SOL     OW26101   2.212   1.696   5.360
 8401SOL    HW126102   2.284   1.635   5.395
 8401SOL    HW226103   2.158   1.731   5.437
 8402SOL     OW26104   5.336   1.518   6.504
 8402SOL    HW126105   5.263   1.453   6.524
 8402SOL    HW226106   5.321   1.601   6.559
 8403SOL     OW26107   0.421   3.044   4.282
 8403SOL    HW126108   0.509   3.087   4.299
 8403SOL    HW226109   0.429   2.980   4.206
 8404SOL     OW26110   3.510   0.103   5.934
 8404SOL    HW126111   3.418   0.069   5.917
 8404SOL    HW226112   3.510   0.159   6.017
 8405SOL     OW26113   2.766   1.470   5.481
 8405SOL    HW126114   2.771   1.371   5.481
 8405SOL    HW226115   2.710   1.501   5.558
 8406SOL     OW26116   3.952   0.443   0.622
 8406SOL    HW126117   3.993   0.495   0.547
 8406SOL    HW226118   4.010   0.451   0.703
 8407SOL     OW26119   4.183   6.252   3.712
 8407SOL    HW126120   4.095   6.229   3.755
 8407SOL    HW226121   4.245   6.175   3.722
 8408SOL     OW26122   5.445   4.671   1.112
 8408SOL    HW126123   5.492   4.587   1.138
 8408SOL    HW226124   5.505   4.727   1.056
 8409SOL     OW26125   4.757   2.401   2.618
 8409SOL    HW126126   4.704   2.471   2.666
 8409SOL    HW226127   4.695   2.329   2.586
 8410SOL     OW26128   6.068   1.315   1.863
 8410SOL    HW126129   6.089   1.403   1.822
 8410SOL    HW226130   6.093   1.241   1.800
 8411SOL     OW26131   0.491   5.941   0.813
 8411SOL    HW126132   0.508   6.026   0.863
 8411SOL    HW226133   0.424   5.958   0.740
 8412SOL     OW26134   3.397   2.743   1.241
 8412SOL    HW126135   3.440   2.806   1.305
 8412SOL    HW226136   3.338   2.680   1.291
 8413SOL     OW26137   4.834   5.849   6.194
 8413SOL    HW126138   4.873   5.922   6.251
 8413SOL    HW226139   4.736   5.865   6.182
 8414SOL     OW26140   2.730   0.382   3.722
 8414SOL    HW126141   2.824   0.417   3.725
 8414SOL    HW226142   2.703   0.352   3.814
 8415SOL     OW26143   0.935   6.193   4.524
 8415SOL    HW126144   0.936   6.278   4.471
 8415SOL    HW226145   0.851   6.189   4.579
 8416SOL     OW26146   6.271   1.699   4.292
 8416SOL    HW126147   6.330   1.629   4.251
 8416SOL    HW226148   6.225   1.661   4.372
 8417SOL     OW26149   0.885   3.050   5.379
 8417SOL    HW126150   0.973   3.015   5.346
 8417SOL    HW226151   0.887   3.058   5.479
 8418SOL     OW26152   0.321   5.794   1.707
 8418SOL    HW126153   0.229   5.772   1.674
 8418SOL    HW226154   0.322   5.786   1.807
 8419SOL     OW26155   5.351   0.585   2.509
 8419SOL    HW126156   5.323   0.662   2.450
 8419SOL    HW226157   5.448   0.568   2.498
 8420SOL     OW26158   3.627   6.559   1.421
 8420SOL    HW126159   3.717   6.549   1.463
 8420SOL    HW226160   3.589   6.649   1.444
 8421SOL     OW26161   3.498   4.477   0.076
 8421SOL    HW126162   3.512   4.378   0.078
 8421SOL    HW226163   3.405   4.498   0.107
 8422SOL     OW26164   4.254   1.194   2.320
 8422SOL    HW126165   4.181   1.176   2.387
 8422SOL    HW226166   4.329   1.129   2.334
 8423SOL     OW26167   4.050   4.322   5.798
 8423SOL    HW126168   3.984   4.379   5.847
 8423SOL    HW226169   4.116   4.380   5.751
 8424SOL     OW26170   2.025   2.344   2.704
 8424SOL    HW126171   2.083   2.318   2.627
 8424SOL    HW226172   1.952   2.276   2.715
 8425SOL     OW26173   4.100   3.881   5.139
 8425SOL    HW126174   4.025   3.947   5.148
 8425SOL    HW226175   4.142   3.867   5.229
 8426SOL     OW26176   3.102   3.422   2.965
 8426SOL    HW126177   3.133   3.494   3.026
 8426SOL    HW226178   3.065   3.346   3.018
 8427SOL     OW26179   3.015   3.810   3.726
 8427SOL    HW126180   3.068   3.727   3.709
 8427SOL    HW226181   2.952   3.826   3.650
 8428SOL     OW26182   0.462   6.200   1.555
 8428SOL    HW126183   0.549   6.243   1.530
 8428SOL    HW226184   0.392   6.228   1.490
 8429SOL     OW26185   1.596   5.272   5.770
 8429SOL    HW126186   1.530   5.269   5.695
 8429SOL    HW226187   1.614   5.180   5.802
 8430SOL     OW26188   3.821   5.022   4.003
 8430SOL    HW126189   3.884   4.963   3.952
 8430SOL    HW226190   3.792   4.976   4.087
 8431SOL     OW26191   4.090   3.788   0.147
 8431SOL    HW126192   4.124   3.844   0.223
 8431SOL    HW226193   4.160   3.785   0.075
 8432SOL     OW26194   6.149   5.523   5.732
 8432SOL    HW126195   6.098   5.531   5.646
 8432SOL    HW226196   6.089   5.483   5.802
 8433SOL     OW26197   4.323   2.925   0.576
 8433SOL    HW126198   4.419   2.928   0.604
 8433SOL    HW226199   4.264   2.940   0.655
 8434SOL     OW26200   2.493   6.732   4.399
 8434SOL    HW126201   2.584   6.713   4.365
 8434SOL    HW226202   2.432   6.753   4.323
 8435SOL     OW26203   5.592   6.986   2.468
 8435SOL    HW126204   5.563   0.016   2.547
 8435SOL    HW226205   5.603   6.890   2.494
 8436SOL     OW26206   3.432   6.264   3.896
 8436SOL    HW126207   3.332   6.262   3.899
 8436SOL    HW226208   3.466   6.337   3.955
 8437SOL     OW26209   2.550   2.435   2.527
 8437SOL    HW126210   2.510   2.476   2.445
 8437SOL    HW226211   2.512   2.480   2.608
 8438SOL     OW26212   2.509   4.807   3.032
 8438SOL    HW126213   2.548   4.830   3.121
 8438SOL    HW226214   2.494   4.892   2.980
 8439SOL     OW26215   6.129   4.869   2.383
 8439SOL    HW126216   6.203   4.882   2.449
 8439SOL    HW226217   6.050   4.826   2.428
 8440SOL     OW26218   2.987   2.062   3.111
 8440SOL    HW126219   2.992   2.046   3.012
 8440SOL    HW226220   2.930   1.991   3.153
 8441SOL     OW26221   5.775   6.550   6.490
 8441SOL    HW126222   5.819   6.589   6.571
 8441SOL    HW226223   5.819   6.463   6.467
 8442SOL     OW26224   3.609   1.626   5.134
 8442SOL    HW126225   3.697   1.591   5.102
 8442SOL    HW226226   3.564   1.675   5.059
 8443SOL     OW26227   2.504   4.962   3.588
 8443SOL    HW126228   2.540   5.054   3.598
 8443SOL    HW226229   2.519   4.930   3.495
 8444SOL     OW26230   3.407   0.011   3.687
 8444SOL    HW126231   3.448   6.955   3.733
 8444SOL    HW226232   3.319   7.007   3.646
 8445SOL     OW26233   2.680   0.150   0.734
 8445SOL    HW126234   2.706   0.231   0.682
 8445SOL    HW226235   2.747   0.077   0.717
 8446SOL     OW26236   6.422   5.090   5.281
 8446SOL    HW126237   6.491   5.085   5.353
 8446SOL    HW226238   6.331   5.097   5.322
 8447SOL     OW26239   4.143   1.393   1.422
 8447SOL    HW126240   4.143   1.296   1.395
 8447SOL    HW226241   4.190   1.447   1.353
 8448SOL     OW26242   4.637   6.195   3.345
 8448SOL    HW126243   4.644   6.252   3.427
 8448SOL    HW226244   4.555   6.219   3.294
 8449SOL     OW26245   6.852   3.133   3.429
 8449SOL    HW126246   6.900   3.053   3.391
 8449SOL    HW226247   6.918   3.206   3.446
 8450SOL     OW26248   1.054   0.781   1.350
 8450SOL    HW126249   0.997   0.776   1.432
 8450SOL    HW226250   1.013   0.728   1.277
 8451SOL     OW26251   3.336   0.998   0.228
 8451SOL    HW126252   3.270   1.011   0.154
 8451SOL    HW226253   3.339   0.901   0.252
 8452SOL     OW26254   5.829   3.228   4.520
 8452SOL    HW126255   5.735   3.194   4.516
 8452SOL    HW226256   5.851   3.253   4.614
 8453SOL     OW26257   6.966   5.361   0.402
 8453SOL    HW126258   7.013   5.444   0.371
 8453SOL    HW226259   6.904   5.329   0.331
 8454SOL     OW26260   0.338   4.935   0.523
 8454SOL    HW126261   0.274   4.972   0.455
 8454SOL    HW226262   0.292   4.926   0.611
 8455SOL     OW26263   0.361   1.660   2.744
 8455SOL    HW126264   0.324   1.708   2.823
 8455SOL    HW226265   0.459   1.677   2.736
 8456SOL     OW26266   4.395   6.751   3.424
 8456SOL    HW126267   4.493   6.737   3.413
 8456SOL    HW226268   4.363   6.701   3.504
 8457SOL     OW26269   6.271   5.624   4.164
 8457SOL    HW126270   6.362   5.625   4.121
 8457SOL    HW226271   6.213   5.692   4.120
 8458SOL     OW26272   2.481   0.266   0.230
 8458SOL    HW126273   2.464   0.231   0.322
 8458SOL    HW226274   2.483   0.366   0.232
 8459SOL     OW26275   2.325   5.730   2.927
 8459SOL    HW126276   2.311   5.631   2.936
 8459SOL    HW226277   2.398   5.747   2.861
 8460SOL     OW26278   4.608   4.033   5.373
 8460SOL    HW126279   4.540   3.989   5.433
 8460SOL    HW226280   4.681   3.968   5.353
 8461SOL     OW26281   0.816   2.707   4.605
 8461SOL    HW126282   0.878   2.757   4.545
 8461SOL    HW226283   0.860   2.622   4.634
 8462SOL     OW26284   2.973   1.688   6.885
 8462SOL    HW126285   3.056   1.633   6.894
 8462SOL    HW226286   2.990   1.780   6.920
 8463SOL     OW26287   6.803   0.003   1.775
 8463SOL    HW126288   6.848   6.962   1.839
 8463SOL    HW226289   6.813   6.991   1.682
 8464SOL     OW26290   5.283   4.385   4.302
 8464SOL    HW126291   5.260   4.384   4.205
 8464SOL    HW226292   5.381   4.369   4.313
 8465SOL     OW26293   1.135   2.633   0.590
 8465SOL    HW126294   1.150   2.534   0.588
 8465SOL    HW226295   1.072   2.656   0.664
 8466SOL     OW26296   0.648   6.576   3.796
 8466SOL    HW126297   0.591   6.572   3.878
 8466SOL    HW226298   0.737   6.616   3.819
 8467SOL     OW26299   3.086   5.715   0.688
 8467SOL    HW126300   3.155   5.677   0.749
 8467SOL    HW226301   3.037   5.640   0.643
 8468SOL     OW26302   3.409   1.483   0.337
 8468SOL    HW126303   3.371   1.391   0.352
 8468SOL    HW226304   3.452   1.487   0.247
 8469SOL     OW26305   3.114   2.669   6.902
 8469SOL    HW126306   3.172   2.588   6.894
 8469SOL    HW226307   3.085   2.698   6.810
 8470SOL     OW26308   2.586   3.666   1.151
 8470SOL    HW126309   2.631   3.577   1.161
 8470SOL    HW226310   2.488   3.656   1.169
 8471SOL     OW26311   2.762   1.141   3.259
 8471SOL    HW126312   2.774   1.146   3.358
 8471SOL    HW226313   2.741   1.047   3.232
 8472SOL     OW26314   0.336   0.102   3.873
 8472SOL    HW126315   0.242   0.131   3.857
 8472SOL    HW226316   0.394   0.182   3.889
 8473SOL     OW26317   0.100   5.677   6.766
 8473SOL    HW126318   0.007   5.655   6.736
 8473SOL    HW226319   0.157   5.596   6.762
 8474SOL     OW26320   2.987   3.092   1.798
 8474SOL    HW126321   3.017   3.187   1.788
 8474SOL    HW226322   3.020   3.055   1.884
 8475SOL     OW26323   0.017   1.150   3.260
 8475SOL    HW126324   0.012   1.234   3.206
 8475SOL    HW226325   7.020   1.171   3.356
 8476SOL     OW26326   6.311   0.901   1.794
 8476SOL    HW126327   6.333   0.868   1.886
 8476SOL    HW226328   6.390   0.888   1.735
 8477SOL     OW26329   3.427   6.376   1.363
 8477SOL    HW126330   3.494   6.450   1.363
 8477SOL    HW226331   3.404   6.353   1.268
 8478SOL     OW26332   1.106   0.342   6.037
 8478SOL    HW126333   1.019   0.305   6.071
 8478SOL    HW226334   1.135   0.289   5.957
 8479SOL     OW26335   6.281   1.832   0.601
 8479SOL    HW126336   6.261   1.827   0.699
 8479SOL    HW226337   6.332   1.751   0.573
 8480SOL     OW26338   3.006   0.691   1.166
 8480SOL    HW126339   3.000   0.747   1.248
 8480SOL    HW226340   3.091   0.711   1.118
 8481SOL     OW26341   4.618   1.391   3.899
 8481SOL    HW126342   4.575   1.307   3.933
 8481SOL    HW226343   4.647   1.447   3.977
 8482SOL     OW26344   2.597   0.468   2.187
 8482SOL    HW126345   2.603   0.558   2.145
 8482SOL    HW226346   2.661   0.462   2.264
 8483SOL     OW26347   3.619   6.075   1.862
 8483SOL    HW126348   3.704   6.064   1.914
 8483SOL    HW226349   3.617   6.010   1.786
 8484SOL     OW26350   6.371   4.970   3.098
 8484SOL    HW126351   6.437   5.037   3.130
 8484SOL    HW226352   6.419   4.895   3.051
 8485SOL     OW26353   2.203   3.466   6.457
 8485SOL    HW126354   2.222   3.564   6.460
 8485SOL    HW226355   2.265   3.422   6.393
 8486SOL     OW26356   4.989   1.141   2.943
 8486SOL    HW126357   4.897   1.179   2.944
 8486SOL    HW226358   4.999   1.078   2.866
 8487SOL     OW26359   6.061   0.468   0.988
 8487SOL    HW126360   6.025   0.532   0.920
 8487SOL    HW226361   6.154   0.442   0.963
 8488SOL     OW26362   5.828   5.338   4.867
 8488SOL    HW126363   5.854   5.314   4.960
 8488SOL    HW226364   5.826   5.255   4.811
 8489SOL     OW26365   6.038   6.886   1.539
 8489SOL    HW126366   6.074   6.833   1.615
 8489SOL    HW226367   5.938   6.875   1.535
 8490SOL     OW26368   4.785   6.202   3.816
 8490SOL    HW126369   4.722   6.127   3.837
 8490SOL    HW226370   4.774   6.229   3.721
 8491SOL     OW26371   2.176   0.539   1.611
 8491SOL    HW126372   2.270   0.558   1.638
 8491SOL    HW226373   2.147   0.450   1.649
 8492SOL     OW26374   4.587   3.824   6.269
 8492SOL    HW126375   4.654   3.884   6.314
 8492SOL    HW226376   4.503   3.823   6.323
 8493SOL     OW26377   3.151   1.758   6.651
 8493SOL    HW126378   3.133   1.824   6.579
 8493SOL    HW226379   3.163   1.805   6.738
 8494SOL     OW26380   1.518   4.711   6.879
 8494SOL    HW126381   1.523   4.785   6.812
 8494SOL    HW226382   1.597   4.715   6.940
 8495SOL     OW26383   0.165   3.371   0.497
 8495SOL    HW126384   0.100   3.445   0.483
 8495SOL    HW226385   0.242   3.382   0.434
 8496SOL     OW26386   0.522   2.005   2.646
 8496SOL    HW126387   0.545   2.073   2.577
 8496SOL    HW226388   0.572   2.024   2.730
 8497SOL     OW26389   6.438   0.089   4.128
 8497SOL    HW126390   6.346   0.111   4.095
 8497SOL    HW226391   6.451   0.128   4.219
 8498SOL     OW26392   0.249   6.232   2.104
 8498SOL    HW126393   0.283   6.149   2.060
 8498SOL    HW226394   0.161   6.257   2.063
 8499SOL     OW26395   2.415   5.512   6.481
 8499SOL    HW126396   2.367   5.466   6.406
 8499SOL    HW226397   2.373   5.486   6.568
 8500SOL     OW26398   1.829   0.673   5.937
 8500SOL    HW126399   1.814   0.744   5.868
 8500SOL    HW226400   1.894   0.606   5.902
 8501SOL     OW26401   1.503   2.745   0.567
 8501SOL    HW126402   1.536   2.828   0.613
 8501SOL    HW226403   1.431   2.770   0.501
 8502SOL     OW26404   1.802   4.719   0.806
 8502SOL    HW126405   1.730   4.655   0.778
 8502SOL    HW226406   1.860   4.677   0.876
 8503SOL     OW26407   1.036   5.490   2.982
 8503SOL    HW126408   1.025   5.438   2.897
 8503SOL    HW226409   0.998   5.438   3.058
 8504SOL     OW26410   1.796   6.527   3.778
 8504SOL    HW126411   1.714   6.572   3.742
 8504SOL    HW226412   1.771   6.467   3.854
 8505SOL     OW26413   5.181   3.761   3.707
 8505SOL    HW126414   5.207   3.740   3.612
 8505SOL    HW226415   5.085   3.788   3.709
 8506SOL     OW26416   1.025   0.169   0.641
 8506SOL    HW126417   0.996   0.081   0.680
 8506SOL    HW226418   0.974   0.243   0.685
 8507SOL     OW26419   2.716   0.781   5.577
 8507SOL    HW126420   2.798   0.830   5.607
 8507SOL    HW226421   2.643   0.794   5.644
 8508SOL     OW26422   0.375   2.613   4.867
 8508SOL    HW126423   0.419   2.698   4.892
 8508SOL    HW226424   0.398   2.590   4.772
 8509SOL     OW26425   5.665   1.444   4.059
 8509SOL    HW126426   5.617   1.472   4.142
 8509SOL    HW226427   5.669   1.344   4.056
 8510SOL     OW26428   5.661   4.386   3.073
 8510SOL    HW126429   5.725   4.365   3.147
 8510SOL    HW226430   5.571   4.349   3.097
 8511SOL     OW26431   5.709   3.968   1.710
 8511SOL    HW126432   5.808   3.977   1.701
 8511SOL    HW226433   5.664   4.014   1.633
 8512SOL     OW26434   3.491   1.948   6.790
 8512SOL    HW126435   3.548   1.882   6.741
 8512SOL    HW226436   3.536   2.037   6.790
 8513SOL     OW26437   4.514   4.114   1.442
 8513SOL    HW126438   4.496   4.111   1.540
 8513SOL    HW226439   4.606   4.079   1.423
 8514SOL     OW26440   2.467   2.583   3.455
 8514SOL    HW126441   2.455   2.586   3.554
 8514SOL    HW226442   2.428   2.666   3.414
 8515SOL     OW26443   6.989   0.824   6.971
 8515SOL    HW126444   0.055   0.868   6.987
 8515SOL    HW226445   6.916   0.892   6.977
 8516SOL     OW26446   6.244   2.546   1.694
 8516SOL    HW126447   6.264   2.481   1.621
 8516SOL    HW226448   6.171   2.608   1.664
 8517SOL     OW26449   1.994   2.502   5.851
 8517SOL    HW126450   2.047   2.534   5.772
 8517SOL    HW226451   2.056   2.482   5.927
 8518SOL     OW26452   5.319   4.290   5.890
 8518SOL    HW126453   5.308   4.388   5.908
 8518SOL    HW226454   5.261   4.264   5.813
 8519SOL     OW26455   0.920   5.200   0.835
 8519SOL    HW126456   0.958   5.273   0.893
 8519SOL    HW226457   0.868   5.241   0.760
 8520SOL     OW26458   2.926   2.814   6.665
 8520SOL    HW126459   2.886   2.834   6.575
 8520SOL    HW226460   2.855   2.816   6.735
 8521SOL     OW26461   2.337   4.996   5.632
 8521SOL    HW126462   2.424   4.966   5.672
 8521SOL    HW226463   2.299   4.923   5.575
 8522SOL     OW26464   0.581   6.981   1.601
 8522SOL    HW126465   0.557   6.888   1.576
 8522SOL    HW226466   0.632   6.981   1.687
 8523SOL     OW26467   2.160   6.334   6.812
 8523SOL    HW126468   2.091   6.307   6.745
 8523SOL    HW226469   2.251   6.332   6.769
 8524SOL     OW26470   0.807   3.272   4.765
 8524SOL    HW126471   0.714   3.258   4.800
 8524SOL    HW226472   0.845   3.183   4.737
 8525SOL     OW26473   5.758   4.790   1.938
 8525SOL    HW126474   5.831   4.852   1.912
 8525SOL    HW226475   5.721   4.744   1.857
 8526SOL     OW26476   3.755   6.045   0.954
 8526SOL    HW126477   3.849   6.032   0.985
 8526SOL    HW226478   3.751   6.122   0.890
 8527SOL     OW26479   3.395   0.408   0.041
 8527SOL    HW126480   3.453   0.348   7.007
 8527SOL    HW226481   3.450   0.484   0.074
 8528SOL     OW26482   3.610   1.277   0.413
 8528SOL    HW126483   3.619   1.226   0.328
 8528SOL    HW226484   3.515   1.278   0.442
 8529SOL     OW26485   1.263   0.271   0.663
 8529SOL    HW126486   1.248   0.287   0.761
 8529SOL    HW226487   1.177   0.245   0.620
 8530SOL     OW26488   3.769   3.635   4.795
 8530SOL    HW126489   3.743   3.544   4.829
 8530SOL    HW226490   3.863   3.654   4.821
 8531SOL     OW26491   0.131   5.318   2.598
 8531SOL    HW126492   0.169   5.286   2.685
 8531SOL    HW226493   0.113   5.416   2.604
 8532SOL     OW26494   3.868   5.789   4.900
 8532SOL    HW126495   3.791   5.739   4.861
 8532SOL    HW226496   3.912   5.733   4.970
 8533SOL     OW26497   1.966   5.959   0.366
 8533SOL    HW126498   1.957   5.900   0.286
 8533SOL    HW226499   1.936   6.051   0.344
 8534SOL     OW26500   4.668   2.625   4.028
 8534SOL    HW126501   4.590   2.561   4.025
 8534SOL    HW226502   4.753   2.573   4.024
 8535SOL     OW26503   6.349   1.615   3.555
 8535SOL    HW126504   6.350   1.713   3.538
 8535SOL    HW226505   6.381   1.596   3.648
 8536SOL     OW26506   0.556   1.645   4.899
 8536SOL    HW126507   0.606   1.686   4.823
 8536SOL    HW226508   0.533   1.715   4.966
 8537SOL     OW26509   5.528   1.082   3.381
 8537SOL    HW126510   5.519   1.140   3.301
 8537SOL    HW226511   5.481   1.123   3.459
 8538SOL     OW26512   1.838   1.149   0.120
 8538SOL    HW126513   1.740   1.172   0.115
 8538SOL    HW226514   1.848   1.050   0.123
 8539SOL     OW26515   6.659   1.557   2.635
 8539SOL    HW126516   6.571   1.554   2.684
 8539SOL    HW226517   6.704   1.468   2.644
 8540SOL     OW26518   5.984   0.400   6.267
 8540SOL    HW126519   6.022   0.491   6.277
 8540SOL    HW226520   6.054   0.338   6.233
 8541SOL     OW26521   3.674   2.170   3.905
 8541SOL    HW126522   3.754   2.164   3.846
 8541SOL    HW226523   3.703   2.160   4.001
 8542SOL     OW26524   4.061   4.703   6.390
 8542SOL    HW126525   4.118   4.760   6.449
 8542SOL    HW226526   3.981   4.755   6.360
 8543SOL     OW26527   2.054   2.012   1.509
 8543SOL    HW126528   2.047   1.968   1.599
 8543SOL    HW226529   2.107   1.954   1.447
 8544SOL     OW26530   5.437   3.742   4.296
 8544SOL    HW126531   5.410   3.769   4.388
 8544SOL    HW226532   5.434   3.821   4.236
 8545SOL     OW26533   4.087   0.141   5.687
 8545SOL    HW126534   4.079   0.230   5.643
 8545SOL    HW226535   4.175   0.134   5.734
 8546SOL     OW26536   5.715   1.743   4.270
 8546SOL    HW126537   5.813   1.732   4.256
 8546SOL    HW226538   5.677   1.802   4.198
 8547SOL     OW26539   0.400   6.722   5.794
 8547SOL    HW126540   0.353   6.802   5.831
 8547SOL    HW226541   0.405   6.651   5.865
 8548SOL     OW26542   5.978   2.896   5.176
 8548SOL    HW126543   6.017   2.804   5.172
 8548SOL    HW226544   6.052   2.963   5.187
 8549SOL     OW26545   0.385   3.645   3.972
 8549SOL    HW126546   0.420   3.636   3.878
 8549SOL    HW226547   0.354   3.738   3.987
 8550SOL     OW26548   1.915   4.562   6.364
 8550SOL    HW126549   1.889   4.569   6.268
 8550SOL    HW226550   1.864   4.488   6.407
 8551SOL     OW26551   3.914   3.355   5.944
 8551SOL    HW126552   3.823   3.385   5.970
 8551SOL    HW226553   3.943   3.404   5.861
 8552SOL     OW26554   2.352   6.163   3.958
 8552SOL    HW126555   2.351   6.176   4.057
 8552SOL    HW226556   2.316   6.244   3.913
 8553SOL     OW26557   5.090   5.269   6.286
 8553SOL    HW126558   5.081   5.281   6.187
 8553SOL    HW226559   5.003   5.234   6.323
 8554SOL     OW26560   0.645   4.802   0.066
 8554SOL    HW126561   0.704   4.819   0.145
 8554SOL    HW226562   0.701   4.778   7.009
 8555SOL     OW26563   0.846   0.072   3.050
 8555SOL    HW126564   0.814   0.163   3.021
 8555SOL    HW226565   0.878   0.077   3.145
 8556SOL     OW26566   0.894   6.701   3.708
 8556SOL    HW126567   0.949   6.736   3.785
 8556SOL    HW226568   0.953   6.681   3.631
 8557SOL     OW26569   6.483   1.270   2.382
 8557SOL    HW126570   6.547   1.195   2.397
 8557SOL    HW226571   6.430   1.286   2.465
 8558SOL     OW26572   2.838   6.088   3.263
 8558SOL    HW126573   2.875   5.995   3.268
 8558SOL    HW226574   2.760   6.095   3.325
 8559SOL     OW26575   6.032   0.940   2.019
 8559SOL    HW126576   5.960   0.924   1.952
 8559SOL    HW226577   6.033   1.036   2.045
 8560SOL     OW26578   7.000   0.274   1.333
 8560SOL    HW126579   0.061   0.306   1.289
 8560SOL    HW226580   6.959   0.348   1.385
 8561SOL     OW26581   3.163   6.318   1.779
 8561SOL    HW126582   3.207   6.381   1.715
 8561SOL    HW226583   3.228   6.248   1.808
 8562SOL     OW26584   4.986   6.512   4.961
 8562SOL    HW126585   5.037   6.451   5.022
 8562SOL    HW226586   4.991   6.606   4.996
 8563SOL     OW26587   2.620   3.650   0.288
 8563SOL    HW126588   2.609   3.741   0.248
 8563SOL    HW226589   2.601   3.580   0.219
 8564SOL     OW26590   2.483   1.121   3.855
 8564SOL    HW126591   2.543   1.196   3.880
 8564SOL    HW226592   2.521   1.073   3.776
 8565SOL     OW26593   4.799   6.952   2.038
 8565SOL    HW126594   4.866   7.002   2.094
 8565SOL    HW226595   4.818   6.854   2.042
 8566SOL     OW26596   1.248   0.748   2.249
 8566SOL    HW126597   1.204   0.829   2.211
 8566SOL    HW226598   1.345   0.749   2.226
 8567SOL     OW26599   6.938   1.995   2.092
 8567SOL    HW126600   6.952   2.092   2.110
 8567SOL    HW226601   7.005   1.942   2.143
 8568SOL     OW26602   4.691   0.616   6.100
 8568SOL    HW126603   4.716   0.543   6.037
 8568SOL    HW226604   4.672   0.700   6.048
 8569SOL     OW26605   4.922   1.561   5.705
 8569SOL    HW126606   4.933   1.508   5.789
 8569SOL    HW226607   4.906   1.498   5.628
 8570SOL     OW26608   0.845   2.483   5.962
 8570SOL    HW126609   0.848   2.570   6.011
 8570SOL    HW226610   0.753   2.466   5.928
 8571SOL     OW26611   0.294   5.411   6.100
 8571SOL    HW126612   0.197   5.428   6.119
 8571SOL    HW226613   0.332   5.352   6.171
 8572SOL     OW26614   3.058   5.019   6.827
 8572SOL    HW126615   3.011   5.090   6.880
 8572SOL    HW226616   3.132   5.060   6.774
 8573SOL     OW26617   3.519   6.403   6.484
 8573SOL    HW126618   3.568   6.452   6.557
 8573SOL    HW226619   3.428   6.378   6.517
 8574SOL     OW26620   6.998   5.276   5.981
 8574SOL    HW126621   6.994   5.208   5.908
 8574SOL    HW226622   6.916   5.268   6.038
 8575SOL     OW26623   3.566   2.372   6.473
 8575SOL    HW126624   3.538   2.433   6.399
 8575SOL    HW226625   3.519   2.398   6.557
 8576SOL     OW26626   0.814   6.424   1.074
 8576SOL    HW126627   0.786   6.329   1.089
 8576SOL    HW226628   0.889   6.447   1.137
 8577SOL     OW26629   6.379   5.219   4.406
 8577SOL    HW126630   6.325   5.267   4.337
 8577SOL    HW226631   6.355   5.252   4.497
 8578SOL     OW26632   4.865   0.702   4.758
 8578SOL    HW126633   4.876   0.719   4.660
 8578SOL    HW226634   4.955   0.701   4.802
 8579SOL     OW26635   1.315   6.183   3.973
 8579SOL    HW126636   1.287   6.127   3.895
 8579SOL    HW226637   1.415   6.182   3.979
 8580SOL     OW26638   2.289   6.768   2.184
 8580SOL    HW126639   2.358   6.808   2.244
 8580SOL    HW226640   2.204   6.821   2.190
 8581SOL     OW26641   3.377   2.692   1.789
 8581SOL    HW126642   3.378   2.595   1.809
 8581SOL    HW226643   3.315   2.739   1.852
 8582SOL     OW26644   4.173   4.652   1.881
 8582SOL    HW126645   4.173   4.567   1.830
 8582SOL    HW226646   4.102   4.713   1.846
 8583SOL     OW26647   5.751   1.004   6.093
 8583SOL    HW126648   5.662   1.049   6.102
 8583SOL    HW226649   5.811   1.062   6.038
 8584SOL     OW26650   0.665   3.793   6.175
 8584SOL    HW126651   0.689   3.875   6.228
 8584SOL    HW226652   0.571   3.799   6.143
 8585SOL     OW26653   6.986   6.882   6.787
 8585SOL    HW126654   7.013   6.972   6.754
 8585SOL    HW226655   0.014   6.859   6.869
 8586SOL     OW26656   2.731   6.695   3.761
 8586SOL    HW126657   2.777   6.606   3.752
 8586SOL    HW226658   2.799   6.768   3.751
 8587SOL     OW26659   1.685   0.214   3.084
 8587SOL    HW126660   1.685   0.285   3.015
 8587SOL    HW226661   1.659   0.126   3.043
 8588SOL     OW26662   2.720   0.791   6.772
 8588SOL    HW126663   2.803   0.758   6.817
 8588SOL    HW226664   2.646   0.797   6.839
 8589SOL     OW26665   4.723   2.630   4.465
 8589SOL    HW126666   4.642   2.602   4.516
 8589SOL    HW226667   4.770   2.548   4.430
 8590SOL     OW26668   6.713   6.007   4.382
 8590SOL    HW126669   6.718   6.104   4.361
 8590SOL    HW226670   6.735   5.992   4.478
 8591SOL     OW26671   0.831   5.271   6.484
 8591SOL    HW126672   0.745   5.300   6.441
 8591SOL    HW226673   0.836   5.307   6.577
 8592SOL     OW26674   6.509   4.102   0.109
 8592SOL    HW126675   6.588   4.093   0.048
 8592SOL    HW226676   6.429   4.130   0.056
 8593SOL     OW26677   1.197   6.881   2.841
 8593SOL    HW126678   1.182   6.964   2.894
 8593SOL    HW226679   1.186   6.900   2.744
 8594SOL     OW26680   3.607   3.397   5.254
 8594SOL    HW126681   3.658   3.478   5.225
 8594SOL    HW226682   3.652   3.356   5.333
 8595SOL     OW26683   2.182   1.425   2.715
 8595SOL    HW126684   2.129   1.385   2.790
 8595SOL    HW226685   2.237   1.354   2.672
 8596SOL     OW26686   6.081   5.669   2.478
 8596SOL    HW126687   6.160   5.607   2.485
 8596SOL    HW226688   6.090   5.724   2.395
 8597SOL     OW26689   4.042   2.214   1.325
 8597SOL    HW126690   4.014   2.305   1.355
 8597SOL    HW226691   3.979   2.146   1.362
 8598SOL     OW26692   0.503   5.461   1.289
 8598SOL    HW126693   0.450   5.402   1.229
 8598SOL    HW226694   0.562   5.520   1.233
 8599SOL     OW26695   1.087   3.036   4.202
 8599SOL    HW126696   1.116   3.037   4.298
 8599SOL    HW226697   1.164   3.011   4.144
 8600SOL     OW26698   5.441   5.146   6.553
 8600SOL    HW126699   5.471   5.076   6.488
 8600SOL    HW226700   5.342   5.158   6.546
 8601SOL     OW26701   1.292   0.721   4.747
 8601SOL    HW126702   1.328   0.731   4.839
 8601SOL    HW226703   1.210   0.776   4.736
 8602SOL     OW26704   2.474   6.442   2.625
 8602SOL    HW126705   2.406   6.495   2.676
 8602SOL    HW226706   2.432   6.401   2.545
 8603SOL     OW26707   3.433   4.121   0.256
 8603SOL    HW126708   3.377   4.114   0.173
 8603SOL    HW226709   3.409   4.204   0.305
 8604SOL     OW26710   6.732   2.804   3.142
 8604SOL    HW126711   6.696   2.858   3.218
 8604SOL    HW226712   6.701   2.844   3.056
 8605SOL     OW26713   2.933   4.865   4.388
 8605SOL    HW126714   2.854   4.818   4.427
 8605SOL    HW226715   3.012   4.853   4.448
 8606SOL     OW26716   2.359   4.426   5.771
 8606SOL    HW126717   2.433   4.419   5.704
 8606SOL    HW226718   2.271   4.433   5.723
 8607SOL     OW26719   2.813   4.711   1.055
 8607SOL    HW126720   2.768   4.780   0.998
 8607SOL    HW226721   2.878   4.659   0.999
 8608SOL     OW26722   4.465   5.064   3.062
 8608SOL    HW126723   4.444   5.158   3.090
 8608SOL    HW226724   4.452   5.002   3.140
 8609SOL     OW26725   4.518   0.368   3.989
 8609SOL    HW126726   4.483   0.458   3.965
 8609SOL    HW226727   4.473   0.336   4.072
 8610SOL     OW26728   1.453   0.688   2.623
 8610SOL    HW126729   1.395   0.726   2.694
 8610SOL    HW226730   1.402   0.616   2.574
 8611SOL     OW26731   1.813   2.574   3.692
 8611SOL    HW126732   1.832   2.562   3.789
 8611SOL    HW226733   1.850   2.662   3.662
 8612SOL     OW26734   3.005   3.223   0.189
 8612SOL    HW126735   2.995   3.217   0.289
 8612SOL    HW226736   2.915   3.228   0.147
 8613SOL     OW26737   2.480   2.059   1.524
 8613SOL    HW126738   2.405   2.126   1.532
 8613SOL    HW226739   2.444   1.967   1.540
 8614SOL     OW26740   0.823   3.280   3.126
 8614SOL    HW126741   0.915   3.243   3.114
 8614SOL    HW226742   0.764   3.246   3.052
 8615SOL     OW26743   5.105   1.862   5.015
 8615SOL    HW126744   5.005   1.859   5.017
 8615SOL    HW226745   5.138   1.917   5.091
 8616SOL     OW26746   1.810   5.137   1.459
 8616SOL    HW126747   1.743   5.162   1.529
 8616SOL    HW226748   1.839   5.042   1.474
 8617SOL     OW26749   6.227   1.504   0.384
 8617SOL    HW126750   6.139   1.536   0.350
 8617SOL    HW226751   6.294   1.503   0.309
 8618SOL     OW26752   5.229   6.979   1.000
 8618SOL    HW126753   5.208   0.024   1.071
 8618SOL    HW226754   5.268   0.002   0.920
 8619SOL     OW26755   3.415   4.978   1.343
 8619SOL    HW126756   3.387   4.994   1.437
 8619SOL    HW226757   3.434   5.066   1.298
 8620SOL     OW26758   6.494   6.920   3.181
 8620SOL    HW126759   6.548   6.987   3.232
 8620SOL    HW226760   6.554   6.866   3.122
 8621SOL     OW26761   5.797   2.054   3.312
 8621SOL    HW126762   5.827   2.128   3.372
 8621SOL    HW226763   5.721   2.086   3.255
 8622SOL     OW26764   4.755   4.618   0.458
 8622SOL    HW126765   4.812   4.573   0.389
 8622SOL    HW226766   4.775   4.716   0.458
 8623SOL     OW26767   0.098   4.483   3.003
 8623SOL    HW126768   0.077   4.412   2.936
 8623SOL    HW226769   0.184   4.461   3.049
 8624SOL     OW26770   0.862   4.281   3.677
 8624SOL    HW126771   0.769   4.286   3.641
 8624SOL    HW226772   0.916   4.218   3.621
 8625SOL     OW26773   4.798   0.305   4.909
 8625SOL    HW126774   4.735   0.327   4.835
 8625SOL    HW226775   4.801   0.381   4.974
 8626SOL     OW26776   3.436   2.935   4.538
 8626SOL    HW126777   3.372   2.904   4.467
 8626SOL    HW226778   3.384   2.969   4.617
 8627SOL     OW26779   0.905   0.359   3.230
 8627SOL    HW126780   0.949   0.299   3.297
 8627SOL    HW226781   0.953   0.350   3.142
 8628SOL     OW26782   6.204   6.759   1.995
 8628SOL    HW126783   6.189   6.845   1.945
 8628SOL    HW226784   6.130   6.746   2.061
 8629SOL     OW26785   1.847   5.589   4.599
 8629SOL    HW126786   1.843   5.584   4.698
 8629SOL    HW226787   1.890   5.507   4.562
 8630SOL     OW26788   5.837   3.962   4.301
 8630SOL    HW126789   5.845   3.921   4.210
 8630SOL    HW226790   5.910   4.029   4.314
 8631SOL     OW26791   3.715   5.348   6.602
 8631SOL    HW126792   3.798   5.401   6.582
 8631SOL    HW226793   3.689   5.296   6.521
 8632SOL     OW26794   3.718   6.253   3.706
 8632SOL    HW126795   3.717   6.353   3.709
 8632SOL    HW226796   3.656   6.217   3.776
 8633SOL     OW26797   5.410   1.186   4.597
 8633SOL    HW126798   5.320   1.176   4.555
 8633SOL    HW226799   5.472   1.232   4.533
 8634SOL     OW26800   6.107   3.256   0.741
 8634SOL    HW126801   6.015   3.235   0.707
 8634SOL    HW226802   6.117   3.355   0.750
 8635SOL     OW26803   5.939   3.974   5.692
 8635SOL    HW126804   5.950   3.877   5.670
 8635SOL    HW226805   5.933   3.986   5.791
 8636SOL     OW26806   5.496   5.375   0.110
 8636SOL    HW126807   5.534   5.444   0.049
 8636SOL    HW226808   5.414   5.335   0.069
 8637SOL     OW26809   2.242   0.692   0.422
 8637SOL    HW126810   2.242   0.647   0.511
 8637SOL    HW226811   2.217   0.789   0.433
 8638SOL     OW26812   1.793   3.328   0.040
 8638SOL    HW126813   1.733   3.388   0.093
 8638SOL    HW226814   1.879   3.375   0.020
 8639SOL     OW26815   6.064   2.600   2.065
 8639SOL    HW126816   6.132   2.633   1.998
 8639SOL    HW226817   5.995   2.545   2.017
 8640SOL     OW26818   4.749   3.982   0.615
 8640SOL    HW126819   4.747   3.911   0.545
 8640SOL    HW226820   4.799   3.950   0.695
 8641SOL     OW26821   6.945   4.298   4.671
 8641SOL    HW126822   6.888   4.237   4.725
 8641SOL    HW226823   6.905   4.309   4.580
 8642SOL     OW26824   4.366   0.468   2.644
 8642SOL    HW126825   4.356   0.389   2.583
 8642SOL    HW226826   4.460   0.501   2.640
 8643SOL     OW26827   4.290   0.089   6.907
 8643SOL    HW126828   4.221   0.093   6.835
 8643SOL    HW226829   4.286   0.172   6.962
 8644SOL     OW26830   4.545   2.575   5.644
 8644SOL    HW126831   4.606   2.565   5.565
 8644SOL    HW226832   4.597   2.609   5.722
 8645SOL     OW26833   5.478   4.555   1.436
 8645SOL    HW126834   5.414   4.533   1.510
 8645SOL    HW226835   5.495   4.653   1.435
 8646SOL     OW26836   6.519   1.429   1.286
 8646SOL    HW126837   6.464   1.395   1.363
 8646SOL    HW226838   6.610   1.388   1.290
 8647SOL     OW26839   3.368   4.850   6.398
 8647SOL    HW126840   3.432   4.900   6.340
 8647SOL    HW226841   3.282   4.901   6.404
 8648SOL     OW26842   5.847   1.096   4.635
 8648SOL    HW126843   5.758   1.075   4.676
 8648SOL    HW226844   5.834   1.133   4.543
 8649SOL     OW26845   5.754   5.240   5.893
 8649SOL    HW126846   5.734   5.243   5.991
 8649SOL    HW226847   5.669   5.256   5.841
 8650SOL     OW26848   1.849   4.521   4.996
 8650SOL    HW126849   1.810   4.432   4.971
 8650SOL    HW226850   1.948   4.518   4.988
 8651SOL     OW26851   3.487   0.871   0.771
 8651SOL    HW126852   3.517   0.802   0.837
 8651SOL    HW226853   3.492   0.961   0.813
 8652SOL     OW26854   1.436   3.627   2.782
 8652SOL    HW126855   1.514   3.676   2.744
 8652SOL    HW226856   1.389   3.685   2.848
 8653SOL     OW26857   5.575   1.753   5.900
 8653SOL    HW126858   5.672   1.737   5.921
 8653SOL    HW226859   5.553   1.707   5.814
 8654SOL     OW26860   1.465   6.076   1.852
 8654SOL    HW126861   1.411   6.159   1.866
 8654SOL    HW226862   1.525   6.087   1.773
 8655SOL     OW26863   6.287   0.663   3.853
 8655SOL    HW126864   6.191   0.634   3.843
 8655SOL    HW226865   6.307   0.732   3.783
 8656SOL     OW26866   6.918   0.884   0.744
 8656SOL    HW126867   6.944   0.788   0.736
 8656SOL    HW226868   6.984   0.932   0.802
 8657SOL     OW26869   4.318   4.761   6.969
 8657SOL    HW126870   4.403   4.736   7.016
 8657SOL    HW226871   4.320   4.858   6.946
 8658SOL     OW26872   5.100   5.941   0.237
 8658SOL    HW126873   5.159   5.956   0.157
 8658SOL    HW226874   5.109   6.019   0.300
 8659SOL     OW26875   4.241   1.061   3.341
 8659SOL    HW126876   4.199   1.113   3.266
 8659SOL    HW226877   4.335   1.038   3.317
 8660SOL     OW26878   5.402   3.327   0.678
 8660SOL    HW126879   5.455   3.402   0.718
 8660SOL    HW226880   5.400   3.251   0.743
 8661SOL     OW26881   5.570   4.062   1.013
 8661SOL    HW126882   5.639   4.016   1.068
 8661SOL    HW226883   5.613   4.135   0.960
 8662SOL     OW26884   5.134   6.128   1.541
 8662SOL    HW126885   5.074   6.101   1.616
 8662SOL    HW226886   5.114   6.223   1.515
 8663SOL     OW26887   2.670   5.765   1.174
 8663SOL    HW126888   2.713   5.843   1.127
 8663SOL    HW226889   2.580   5.792   1.207
 8664SOL     OW26890   3.543   5.788   0.968
 8664SOL    HW126891   3.525   5.815   0.873
 8664SOL    HW226892   3.559   5.870   1.023
 8665SOL     OW26893   5.806   5.877   5.502
 8665SOL    HW126894   5.852   5.852   5.416
 8665SOL    HW226895   5.802   5.797   5.562
 8666SOL     OW26896   5.666   2.086   5.249
 8666SOL    HW126897   5.589   2.135   5.289
 8666SOL    HW226898   5.631   2.015   5.188
 8667SOL     OW26899   4.405   2.357   2.887
 8667SOL    HW126900   4.475   2.286   2.894
 8667SOL    HW226901   4.442   2.436   2.839
 8668SOL     OW26902   5.118   3.334   3.203
 8668SOL    HW126903   5.059   3.275   3.148
 8668SOL    HW226904   5.062   3.402   3.251
 8669SOL     OW26905   2.487   6.611   6.724
 8669SOL    HW126906   2.437   6.665   6.656
 8669SOL    HW226907   2.435   6.609   6.810
 8670SOL     OW26908   3.663   4.380   6.006
 8670SOL    HW126909   3.632   4.350   6.096
 8670SOL    HW226910   3.720   4.309   5.965
 8671SOL     OW26911   5.901   1.832   3.234
 8671SOL    HW126912   5.825   1.772   3.256
 8671SOL    HW226913   5.880   1.926   3.263
 8672SOL     OW26914   2.506   5.474   3.395
 8672SOL    HW126915   2.604   5.453   3.391
 8672SOL    HW226916   2.469   5.476   3.302
 8673SOL     OW26917   6.869   1.522   6.699
 8673SOL    HW126918   6.783   1.474   6.717
 8673SOL    HW226919   6.872   1.607   6.753
 8674SOL     OW26920   6.434   5.771   1.552
 8674SOL    HW126921   6.345   5.778   1.597
 8674SOL    HW226922   6.435   5.691   1.493
 8675SOL     OW26923   3.823   1.845   4.976
 8675SOL    HW126924   3.835   1.873   5.071
 8675SOL    HW226925   3.725   1.845   4.953
 8676SOL     OW26926   4.171   6.680   2.974
 8676SOL    HW126927   4.082   6.644   3.002
 8676SOL    HW226928   4.217   6.612   2.917
 8677SOL     OW26929   2.561   6.294   5.366
 8677SOL    HW126930   2.633   6.358   5.340
 8677SOL    HW226931   2.507   6.269   5.286
 8678SOL     OW26932   0.128   0.378   0.961
 8678SOL    HW126933   0.031   0.381   0.983
 8678SOL    HW226934   0.141   0.379   0.862
 8679SOL     OW26935   6.515   3.225   4.711
 8679SOL    HW126936   6.471   3.281   4.641
 8679SOL    HW226937   6.583   3.280   4.760
 8680SOL     OW26938   0.323   3.931   1.934
 8680SOL    HW126939   0.251   3.904   1.998
 8680SOL    HW226940   0.288   3.929   1.841
 8681SOL     OW26941   4.497   5.151   0.114
 8681SOL    HW126942   4.490   5.051   0.119
 8681SOL    HW226943   4.516   5.188   0.206
 8682SOL     OW26944   4.411   6.719   1.951
 8682SOL    HW126945   4.358   6.665   1.885
 8682SOL    HW226946   4.466   6.658   2.008
 8683SOL     OW26947   1.461   2.609   2.210
 8683SOL    HW126948   1.527   2.660   2.155
 8683SOL    HW226949   1.369   2.624   2.174
 8684SOL     OW26950   0.458   2.856   4.983
 8684SOL    HW126951   0.557   2.864   4.994
 8684SOL    HW226952   0.423   2.937   4.935
 8685SOL     OW26953   1.369   2.442   5.700
 8685SOL    HW126954   1.279   2.427   5.742
 8685SOL    HW226955   1.360   2.504   5.622
 8686SOL     OW26956   0.007   1.523   1.567
 8686SOL    HW126957   0.017   1.621   1.554
 8686SOL    HW226958   6.941   1.493   1.533
 8687SOL     OW26959   3.415   5.880   2.767
 8687SOL    HW126960   3.374   5.968   2.790
 8687SOL    HW226961   3.359   5.806   2.804
 8688SOL     OW26962   3.114   6.283   0.397
 8688SOL    HW126963   3.123   6.185   0.378
 8688SOL    HW226964   3.048   6.323   0.334
 8689SOL     OW26965   3.760   4.960   0.282
 8689SOL    HW126966   3.666   4.939   0.258
 8689SOL    HW226967   3.784   5.051   0.249
 8690SOL     OW26968   1.795   2.595   3.339
 8690SOL    HW126969   1.698   2.571   3.336
 8690SOL    HW226970   1.812   2.658   3.415
 8691SOL     OW26971   4.259   2.715   6.528
 8691SOL    HW126972   4.178   2.663   6.553
 8691SOL    HW226973   4.248   2.810   6.555
 8692SOL     OW26974   3.876   2.177   2.770
 8692SOL    HW126975   3.921   2.199   2.683
 8692SOL    HW226976   3.925   2.221   2.845
 8693SOL     OW26977   5.935   1.625   1.061
 8693SOL    HW126978   5.934   1.616   1.161
 8693SOL    HW226979   6.005   1.565   1.023
 8694SOL     OW26980   4.067   1.394   5.467
 8694SOL    HW126981   4.032   1.300   5.475
 8694SOL    HW226982   4.075   1.418   5.370
 8695SOL     OW26983   4.630   3.150   6.021
 8695SOL    HW126984   4.558   3.218   6.037
 8695SOL    HW226985   4.714   3.197   5.992
 8696SOL     OW26986   2.958   5.474   0.621
 8696SOL    HW126987   2.934   5.461   0.524
 8696SOL    HW226988   3.006   5.393   0.654
 8697SOL     OW26989   6.117   3.440   0.446
 8697SOL    HW126990   6.134   3.342   0.438
 8697SOL    HW226991   6.200   3.486   0.476
 8698SOL     OW26992   6.084   5.751   4.028
 8698SOL    HW126993   6.066   5.844   3.995
 8698SOL    HW226994   6.005   5.717   4.079
 8699SOL     OW26995   1.731   2.809   5.680
 8699SOL    HW126996   1.673   2.884   5.713
 8699SOL    HW226997   1.747   2.744   5.753
 8700SOL     OW26998   1.701   1.157   4.516
 8700SOL    HW126999   1.794   1.168   4.483
 8700SOL    HW227000   1.643   1.229   4.478
 8701SOL     OW27001   1.730   0.431   6.679
 8701SOL    HW127002   1.653   0.429   6.743
 8701SOL    HW227003   1.696   0.426   6.586
 8702SOL     OW27004   5.398   4.947   0.494
 8702SOL    HW127005   5.466   4.890   0.448
 8702SOL    HW227006   5.420   5.044   0.478
 8703SOL     OW27007   2.753   5.173   1.216
 8703SOL    HW127008   2.692   5.252   1.224
 8703SOL    HW227009   2.841   5.203   1.178
 8704SOL     OW27010   6.397   3.726   2.612
 8704SOL    HW127011   6.432   3.782   2.687
 8704SOL    HW227012   6.336   3.782   2.556
 8705SOL     OW27013   5.038   1.001   0.888
 8705SOL    HW127014   4.992   0.974   0.803
 8705SOL    HW227015   5.081   0.921   0.929
 8706SOL     OW27016   4.698   1.819   6.444
 8706SOL    HW127017   4.641   1.876   6.503
 8706SOL    HW227018   4.740   1.746   6.499
 8707SOL     OW27019   5.536   1.806   6.976
 8707SOL    HW127020   5.571   1.787   6.884
 8707SOL    HW227021   5.440   1.777   6.982
 8708SOL     OW27022   4.147   2.160   2.276
 8708SOL    HW127023   4.064   2.139   2.223
 8708SOL    HW227024   4.135   2.246   2.324
 8709SOL     OW27025   6.869   6.076   6.297
 8709SOL    HW127026   6.856   6.147   6.229
 8709SOL    HW227027   6.964   6.043   6.293
 8710SOL     OW27028   2.146   3.481   3.285
 8710SOL    HW127029   2.215   3.443   3.346
 8710SOL    HW227030   2.145   3.430   3.199
 8711SOL     OW27031   0.372   5.526   2.536
 8711SOL    HW127032   0.364   5.617   2.494
 8711SOL    HW227033   0.334   5.457   2.473
 8712SOL     OW27034   3.909   2.144   4.394
 8712SOL    HW127035   3.966   2.069   4.361
 8712SOL    HW227036   3.964   2.228   4.399
 8713SOL     OW27037   0.373   4.280   3.476
 8713SOL    HW127038   0.335   4.300   3.386
 8713SOL    HW227039   0.306   4.306   3.546
 8714SOL     OW27040   0.093   1.353   6.184
 8714SOL    HW127041   0.052   1.324   6.270
 8714SOL    HW227042   0.192   1.339   6.188
 8715SOL     OW27043   5.445   0.112   0.484
 8715SOL    HW127044   5.484   0.021   0.475
 8715SOL    HW227045   5.490   0.160   0.559
 8716SOL     OW27046   0.920   0.141   1.479
 8716SOL    HW127047   0.947   0.090   1.560
 8716SOL    HW227048   0.820   0.142   1.472
 8717SOL     OW27049   3.605   3.502   2.933
 8717SOL    HW127050   3.592   3.452   2.847
 8717SOL    HW227051   3.592   3.440   3.010
 8718SOL     OW27052   0.673   3.447   5.313
 8718SOL    HW127053   0.613   3.413   5.385
 8718SOL    HW227054   0.662   3.546   5.302
 8719SOL     OW27055   2.021   6.670   6.143
 8719SOL    HW127056   2.105   6.697   6.096
 8719SOL    HW227057   1.942   6.689   6.085
 8720SOL     OW27058   6.758   4.672   5.600
 8720SOL    HW127059   6.801   4.721   5.676
 8720SOL    HW227060   6.793   4.578   5.597
 8721SOL     OW27061   5.929   2.182   3.814
 8721SOL    HW127062   5.873   2.100   3.830
 8721SOL    HW227063   6.012   2.156   3.765
 8722SOL     OW27064   3.831   0.836   0.644
 8722SOL    HW127065   3.889   0.832   0.563
 8722SOL    HW227066   3.791   0.928   0.652
 8723SOL     OW27067   4.949   5.439   1.104
 8723SOL    HW127068   4.881   5.368   1.087
 8723SOL    HW227069   5.039   5.398   1.116
 8724SOL     OW27070   6.079   6.566   5.422
 8724SOL    HW127071   6.112   6.639   5.481
 8724SOL    HW227072   5.980   6.576   5.409
 8725SOL     OW27073   2.489   0.192   6.615
 8725SOL    HW127074   2.502   0.194   6.714
 8725SOL    HW227075   2.392   0.202   6.594
 8726SOL     OW27076   6.651   0.965   1.988
 8726SOL    HW127077   6.716   0.970   2.063
 8726SOL    HW227078   6.690   1.009   1.907
 8727SOL     OW27079   0.182   6.224   1.711
 8727SOL    HW127080   0.094   6.200   1.670
 8727SOL    HW227081   0.246   6.250   1.639
 8728SOL     OW27082   4.213   0.434   4.448
 8728SOL    HW127083   4.143   0.365   4.434
 8728SOL    HW227084   4.172   0.516   4.489
 8729SOL     OW27085   4.669   5.927   3.282
 8729SOL    HW127086   4.624   5.924   3.193
 8729SOL    HW227087   4.635   6.006   3.334
 8730SOL     OW27088   6.644   4.547   2.172
 8730SOL    HW127089   6.744   4.544   2.184
 8730SOL    HW227090   6.613   4.641   2.185
 8731SOL     OW27091   2.226   2.154   2.598
 8731SOL    HW127092   2.202   2.061   2.626
 8731SOL    HW227093   2.311   2.152   2.544
 8732SOL     OW27094   5.293   4.063   1.465
 8732SOL    HW127095   5.258   4.156   1.465
 8732SOL    HW227096   5.240   4.007   1.401
 8733SOL     OW27097   1.456   5.779   3.277
 8733SOL    HW127098   1.383   5.789   3.344
 8733SOL    HW227099   1.523   5.713   3.311
 8734SOL     OW27100   1.078   4.746   1.610
 8734SOL    HW127101   1.075   4.836   1.655
 8734SOL    HW227102   0.987   4.705   1.613
 8735SOL     OW27103   0.878   1.783   7.003
 8735SOL    HW127104   0.908   1.688   7.004
 8735SOL    HW227105   0.943   1.840   0.031
 8736SOL     OW27106   0.544   6.870   6.672
 8736SOL    HW127107   0.518   6.831   6.584
 8736SOL    HW227108   0.491   6.827   6.745
 8737SOL     OW27109   2.706   6.747   5.875
 8737SOL    HW127110   2.767   6.778   5.802
 8737SOL    HW227111   2.750   6.761   5.964
 8738SOL     OW27112   2.035   4.634   3.652
 8738SOL    HW127113   2.023   4.598   3.745
 8738SOL    HW227114   1.946   4.664   3.617
 8739SOL     OW27115   6.488   5.195   5.855
 8739SOL    HW127116   6.528   5.274   5.809
 8739SOL    HW227117   6.421   5.152   5.795
 8740SOL     OW27118   4.857   0.732   5.227
 8740SOL    HW127119   4.946   0.777   5.218
 8740SOL    HW227120   4.808   0.770   5.306
 8741SOL     OW27121   2.397   0.800   1.805
 8741SOL    HW127122   2.353   0.888   1.822
 8741SOL    HW227123   2.394   0.780   1.707
 8742SOL     OW27124   5.776   6.457   1.408
 8742SOL    HW127125   5.856   6.473   1.350
 8742SOL    HW227126   5.712   6.534   1.399
 8743SOL     OW27127   1.835   6.772   2.869
 8743SOL    HW127128   1.898   6.818   2.806
 8743SOL    HW227129   1.762   6.729   2.816
 8744SOL     OW27130   3.965   2.767   5.677
 8744SOL    HW127131   3.874   2.732   5.656
 8744SOL    HW227132   3.957   2.858   5.717
 8745SOL     OW27133   6.051   2.431   5.501
 8745SOL    HW127134   6.099   2.360   5.551
 8745SOL    HW227135   5.995   2.389   5.429
 8746SOL     OW27136   4.671   4.274   5.164
 8746SOL    HW127137   4.654   4.187   5.210
 8746SOL    HW227138   4.666   4.349   5.231
 8747SOL     OW27139   0.321   3.005   2.852
 8747SOL    HW127140   0.281   3.020   2.943
 8747SOL    HW227141   0.301   2.912   2.822
 8748SOL     OW27142   0.115   1.804   5.993
 8748SOL    HW127143   0.178   1.764   6.061
 8748SOL    HW227144   0.025   1.815   6.034
 8749SOL     OW27145   3.122   0.113   6.118
 8749SOL    HW127146   3.066   0.168   6.056
 8749SOL    HW227147   3.064   0.072   6.189
 8750SOL     OW27148   3.106   3.224   5.271
 8750SOL    HW127149   3.192   3.230   5.221
 8750SOL    HW227150   3.099   3.300   5.335
 8751SOL     OW27151   6.295   0.401   2.614
 8751SOL    HW127152   6.381   0.434   2.574
 8751SOL    HW227153   6.286   0.439   2.707
 8752SOL     OW27154   2.832   4.607   6.520
 8752SOL    HW127155   2.823   4.532   6.455
 8752SOL    HW227156   2.765   4.595   6.594
 8753SOL     OW27157   4.823   1.827   5.012
 8753SOL    HW127158   4.844   1.747   5.067
 8753SOL    HW227159   4.750   1.880   5.056
 8754SOL     OW27160   1.596   1.898   5.879
 8754SOL    HW127161   1.519   1.834   5.879
 8754SOL    HW227162   1.591   1.957   5.960
 8755SOL     OW27163   2.450   1.042   6.436
 8755SOL    HW127164   2.427   0.995   6.351
 8755SOL    HW227165   2.458   1.140   6.420
 8756SOL     OW27166   2.135   3.710   2.920
 8756SOL    HW127167   2.070   3.773   2.877
 8756SOL    HW227168   2.196   3.761   2.981
 8757SOL     OW27169   5.421   7.022   5.640
 8757SOL    HW127170   5.483   7.017   5.562
 8757SOL    HW227171   5.396   6.929   5.668
 8758SOL     OW27172   4.751   6.483   1.897
 8758SOL    HW127173   4.849   6.467   1.902
 8758SOL    HW227174   4.704   6.397   1.875
 8759SOL     OW27175   4.198   2.447   6.660
 8759SOL    HW127176   4.285   2.417   6.700
 8759SOL    HW227177   4.153   2.511   6.722
 8760SOL     OW27178   1.905   1.959   4.810
 8760SOL    HW127179   1.911   1.902   4.892
 8760SOL    HW227180   1.986   1.943   4.752
 8761SOL     OW27181   4.117   0.612   1.544
 8761SOL    HW127182   4.197   0.610   1.605
 8761SOL    HW227183   4.054   0.539   1.570
 8762SOL     OW27184   0.507   3.790   2.920
 8762SOL    HW127185   0.476   3.840   2.839
 8762SOL    HW227186   0.560   3.711   2.891
 8763SOL     OW27187   6.061   5.533   5.372
 8763SOL    HW127188   6.091   5.617   5.417
 8763SOL    HW227189   6.013   5.475   5.437
 8764SOL     OW27190   4.974   0.695   4.505
 8764SOL    HW127191   4.983   0.596   4.496
 8764SOL    HW227192   4.962   0.736   4.415
 8765SOL     OW27193   6.359   6.580   4.922
 8765SOL    HW127194   6.311   6.492   4.922
 8765SOL    HW227195   6.303   6.647   4.971
 8766SOL     OW27196   4.040   5.269   2.866
 8766SOL    HW127197   4.038   5.349   2.806
 8766SOL    HW227198   3.952   5.221   2.861
 8767SOL     OW27199   4.203   0.174   3.028
 8767SOL    HW127200   4.202   0.075   3.026
 8767SOL    HW227201   4.165   0.210   2.943
 8768SOL     OW27202   1.154   2.901   0.559
 8768SOL    HW127203   1.149   2.803   0.577
 8768SOL    HW227204   1.242   2.923   0.517
 8769SOL     OW27205   1.317   6.817   4.116
 8769SOL    HW127206   1.290   6.747   4.049
 8769SOL    HW227207   1.316   6.907   4.072
 8770SOL     OW27208   5.051   4.274   2.233
 8770SOL    HW127209   5.113   4.265   2.155
 8770SOL    HW227210   5.064   4.363   2.277
 8771SOL     OW27211   0.989   0.457   5.656
 8771SOL    HW127212   1.000   0.477   5.754
 8771SOL    HW227213   0.983   0.358   5.644
 8772SOL     OW27214   5.965   6.653   0.240
 8772SOL    HW127215   6.034   6.596   0.286
 8772SOL    HW227216   6.010   6.727   0.191
 8773SOL     OW27217   4.556   1.896   3.509
 8773SOL    HW127218   4.541   1.958   3.585
 8773SOL    HW227219   4.611   1.818   3.539
 8774SOL     OW27220   2.564   1.586   0.390
 8774SOL    HW127221   2.546   1.676   0.350
 8774SOL    HW227222   2.663   1.568   0.387
 8775SOL     OW27223   6.373   0.553   4.912
 8775SOL    HW127224   6.307   0.626   4.893
 8775SOL    HW227225   6.464   0.593   4.923
 8776SOL     OW27226   3.023   3.563   4.702
 8776SOL    HW127227   2.992   3.603   4.789
 8776SOL    HW227228   2.964   3.595   4.628
 8777SOL     OW27229   6.963   4.004   1.001
 8777SOL    HW127230   7.022   4.000   1.082
 8777SOL    HW227231   6.973   4.093   0.957
 8778SOL     OW27232   6.236   2.585   4.259
 8778SOL    HW127233   6.202   2.519   4.326
 8778SOL    HW227234   6.169   2.659   4.250
 8779SOL     OW27235   2.524   5.365   1.987
 8779SOL    HW127236   2.531   5.282   2.042
 8779SOL    HW227237   2.571   5.440   2.033
 8780SOL     OW27238   1.196   5.307   3.682
 8780SOL    HW127239   1.284   5.260   3.674
 8780SOL    HW227240   1.136   5.256   3.743
 8781SOL     OW27241   6.392   2.269   4.031
 8781SOL    HW127242   6.342   2.213   4.096
 8781SOL    HW227243   6.490   2.267   4.053
 8782SOL     OW27244   5.445   0.743   2.096
 8782SOL    HW127245   5.502   0.661   2.084
 8782SOL    HW227246   5.504   0.821   2.118
 8783SOL     OW27247   6.275   3.234   3.748
 8783SOL    HW127248   6.274   3.168   3.824
 8783SOL    HW227249   6.353   3.214   3.688
 8784SOL     OW27250   5.220   3.895   4.949
 8784SOL    HW127251   5.123   3.879   4.934
 8784SOL    HW227252   5.233   3.949   5.032
 8785SOL     OW27253   6.264   3.465   6.954
 8785SOL    HW127254   6.267   3.468   6.854
 8785SOL    HW227255   6.182   3.512   6.986
 8786SOL     OW27256   2.816   6.149   0.267
 8786SOL    HW127257   2.858   6.238   0.249
 8786SOL    HW227258   2.884   6.089   0.309
 8787SOL     OW27259   1.643   2.790   2.101
 8787SOL    HW127260   1.718   2.763   2.041
 8787SOL    HW227261   1.678   2.849   2.174
 8788SOL     OW27262   6.667   2.069   5.588
 8788SOL    HW127263   6.576   2.033   5.608
 8788SOL    HW227264   6.664   2.169   5.583
 8789SOL     OW27265   5.917   6.573   5.918
 8789SOL    HW127266   5.865   6.581   6.003
 8789SOL    HW227267   6.004   6.527   5.937
 8790SOL     OW27268   6.957   1.604   0.254
 8790SOL    HW127269   7.017   1.531   0.220
 8790SOL    HW227270   6.872   1.606   0.200
 8791SOL     OW27271   5.496   6.801   4.729
 8791SOL    HW127272   5.497   6.728   4.660
 8791SOL    HW227273   5.570   6.786   4.794
 8792SOL     OW27274   3.796   6.142   2.959
 8792SOL    HW127275   3.704   6.165   2.929
 8792SOL    HW227276   3.806   6.162   3.056
 8793SOL     OW27277   1.747   5.311   3.694
 8793SOL    HW127278   1.811   5.237   3.715
 8793SOL    HW227279   1.766   5.347   3.603
 8794SOL     OW27280   3.956   6.491   1.993
 8794SOL    HW127281   3.881   6.549   1.960
 8794SOL    HW227282   3.974   6.512   2.089
 8795SOL     OW27283   1.486   6.513   4.976
 8795SOL    HW127284   1.540   6.466   4.906
 8795SOL    HW227285   1.533   6.597   5.004
 8796SOL     OW27286   3.933   0.442   5.199
 8796SOL    HW127287   3.905   0.527   5.243
 8796SOL    HW227288   3.880   0.365   5.235
 8797SOL     OW27289   1.148   6.981   5.211
 8797SOL    HW127290   1.177   0.050   5.239
 8797SOL    HW227291   1.075   6.988   5.144
 8798SOL     OW27292   5.254   4.904   5.363
 8798SOL    HW127293   5.225   4.993   5.398
 8798SOL    HW227294   5.339   4.915   5.311
 8799SOL     OW27295   1.720   4.837   3.300
 8799SOL    HW127296   1.649   4.792   3.246
 8799SOL    HW227297   1.753   4.774   3.370
 8800SOL     OW27298   5.889   3.922   4.846
 8800SOL    HW127299   5.920   4.012   4.814
 8800SOL    HW227300   5.968   3.861   4.855
 8801SOL     OW27301   1.406   1.272   4.590
 8801SOL    HW127302   1.351   1.282   4.507
 8801SOL    HW227303   1.491   1.325   4.581
 8802SOL     OW27304   1.212   1.005   0.430
 8802SOL    HW127305   1.310   1.022   0.442
 8802SOL    HW227306   1.182   0.934   0.493
 8803SOL     OW27307   1.282   5.359   5.884
 8803SOL    HW127308   1.240   5.296   5.819
 8803SOL    HW227309   1.381   5.343   5.888
 8804SOL     OW27310   3.258   0.524   1.909
 8804SOL    HW127311   3.297   0.610   1.943
 8804SOL    HW227312   3.257   0.456   1.982
 8805SOL     OW27313   2.685   0.355   4.211
 8805SOL    HW127314   2.618   0.324   4.279
 8805SOL    HW227315   2.703   0.452   4.224
 8806SOL     OW27316   1.624   5.136   1.982
 8806SOL    HW127317   1.649   5.228   2.015
 8806SOL    HW227318   1.631   5.071   2.057
 8807SOL     OW27319   6.580   6.298   6.234
 8807SOL    HW127320   6.677   6.313   6.254
 8807SOL    HW227321   6.539   6.244   6.307
 8808SOL     OW27322   5.206   2.021   1.117
 8808SOL    HW127323   5.158   2.053   1.035
 8808SOL    HW227324   5.267   2.093   1.150
 8809SOL     OW27325   5.506   4.425   2.733
 8809SOL    HW127326   5.440   4.466   2.796
 8809SOL    HW227327   5.470   4.338   2.699
 8810SOL     OW27328   5.266   1.688   6.042
 8810SOL    HW127329   5.352   1.739   6.034
 8810SOL    HW227330   5.195   1.747   6.079
 8811SOL     OW27331   3.100   1.892   3.741
 8811SOL    HW127332   3.078   1.913   3.646
 8811SOL    HW227333   3.158   1.810   3.744
 8812SOL     OW27334   1.616   0.647   0.568
 8812SOL    HW127335   1.636   0.559   0.523
 8812SOL    HW227336   1.582   0.712   0.500
 8813SOL     OW27337   1.276   4.698   1.409
 8813SOL    HW127338   1.207   4.712   1.479
 8813SOL    HW227339   1.341   4.627   1.440
 8814SOL     OW27340   6.655   0.748   0.924
 8814SOL    HW127341   6.670   0.840   0.960
 8814SOL    HW227342   6.707   0.682   0.977
 8815SOL     OW27343   6.462   6.496   0.598
 8815SOL    HW127344   6.436   6.487   0.694
 8815SOL    HW227345   6.449   6.591   0.569
 8816SOL     OW27346   2.069   0.525   0.298
 8816SOL    HW127347   1.980   0.543   0.340
 8816SOL    HW227348   2.135   0.594   0.329
 8817SOL     OW27349   0.514   5.609   5.757
 8817SOL    HW127350   0.445   5.639   5.823
 8817SOL    HW227351   0.477   5.617   5.664
 8818SOL     OW27352   0.573   3.436   3.875
 8818SOL    HW127353   0.591   3.366   3.807
 8818SOL    HW227354   0.540   3.393   3.959
 8819SOL     OW27355   4.345   5.529   4.206
 8819SOL    HW127356   4.315   5.595   4.138
 8819SOL    HW227357   4.283   5.451   4.206
 8820SOL     OW27358   2.439   1.689   4.069
 8820SOL    HW127359   2.432   1.733   4.158
 8820SOL    HW227360   2.480   1.752   4.003
 8821SOL     OW27361   2.813   5.908   0.478
 8821SOL    HW127362   2.790   5.836   0.413
 8821SOL    HW227363   2.883   5.875   0.541
 8822SOL     OW27364   1.209   0.247   3.647
 8822SOL    HW127365   1.294   0.280   3.607
 8822SOL    HW227366   1.181   0.162   3.602
 8823SOL     OW27367   1.964   0.714   0.753
 8823SOL    HW127368   1.926   0.628   0.719
 8823SOL    HW227369   1.997   0.701   0.847
 8824SOL     OW27370   1.584   3.346   1.093
 8824SOL    HW127371   1.486   3.328   1.084
 8824SOL    HW227372   1.603   3.382   1.184
 8825SOL     OW27373   1.821   0.624   3.587
 8825SOL    HW127374   1.788   0.553   3.524
 8825SOL    HW227375   1.782   0.713   3.560
 8826SOL     OW27376   6.460   2.563   0.451
 8826SOL    HW127377   6.479   2.634   0.520
 8826SOL    HW227378   6.439   2.477   0.497
 8827SOL     OW27379   3.230   1.669   3.073
 8827SOL    HW127380   3.194   1.727   3.001
 8827SOL    HW227381   3.286   1.596   3.033
 8828SOL     OW27382   4.502   5.624   4.789
 8828SOL    HW127383   4.480   5.550   4.853
 8828SOL    HW227384   4.597   5.615   4.759
 8829SOL     OW27385   0.476   2.456   0.036
 8829SOL    HW127386   0.487   2.375   0.094
 8829SOL    HW227387   0.439   2.428   6.970
 8830SOL     OW27388   0.594   1.294   1.208
 8830SOL    HW127389   0.659   1.227   1.244
 8830SOL    HW227390   0.632   1.335   1.125
 8831SOL     OW27391   5.398   1.111   3.603
 8831SOL    HW127392   5.458   1.064   3.668
 8831SOL    HW227393   5.306   1.119   3.641
 8832SOL     OW27394   6.079   6.005   2.578
 8832SOL    HW127395   6.048   5.950   2.656
 8832SOL    HW227396   6.030   6.092   2.577
 8833SOL     OW27397   1.786   6.582   5.495
 8833SOL    HW127398   1.741   6.494   5.481
 8833SOL    HW227399   1.881   6.577   5.465
 8834SOL     OW27400   5.294   3.809   4.541
 8834SOL    HW127401   5.311   3.727   4.596
 8834SOL    HW227402   5.198   3.835   4.549
 8835SOL     OW27403   6.184   1.075   5.903
 8835SOL    HW127404   6.181   0.979   5.875
 8835SOL    HW227405   6.226   1.130   5.830
 8836SOL     OW27406   4.647   1.040   6.846
 8836SOL    HW127407   4.623   1.006   6.937
 8836SOL    HW227408   4.620   1.137   6.839
 8837SOL     OW27409   0.302   6.710   2.398
 8837SOL    HW127410   0.313   6.809   2.408
 8837SOL    HW227411   0.250   6.675   2.477
 8838SOL     OW27412   3.042   4.919   2.981
 8838SOL    HW127413   2.974   4.846   2.982
 8838SOL    HW227414   2.996   5.007   2.979
 8839SOL     OW27415   5.202   5.598   2.269
 8839SOL    HW127416   5.260   5.634   2.342
 8839SOL    HW227417   5.191   5.499   2.280
 8840SOL     OW27418   6.592   2.206   2.251
 8840SOL    HW127419   6.659   2.274   2.279
 8840SOL    HW227420   6.625   2.115   2.274
 8841SOL     OW27421   1.633   0.660   4.484
 8841SOL    HW127422   1.637   0.712   4.568
 8841SOL    HW227423   1.616   0.722   4.407
 8842SOL     OW27424   3.401   2.819   0.767
 8842SOL    HW127425   3.310   2.787   0.793
 8842SOL    HW227426   3.458   2.828   0.848
 8843SOL     OW27427   1.821   3.408   4.752
 8843SOL    HW127428   1.797   3.428   4.847
 8843SOL    HW227429   1.901   3.348   4.751
 8844SOL     OW27430   5.585   1.579   0.439
 8844SOL    HW127431   5.560   1.613   0.529
 8844SOL    HW227432   5.684   1.575   0.431
 8845SOL     OW27433   4.504   3.961   6.671
 8845SOL    HW127434   4.431   3.990   6.610
 8845SOL    HW227435   4.563   4.040   6.693
 8846SOL     OW27436   2.293   5.559   3.530
 8846SOL    HW127437   2.374   5.519   3.488
 8846SOL    HW227438   2.213   5.501   3.510
 8847SOL     OW27439   2.744   0.838   2.519
 8847SOL    HW127440   2.796   0.863   2.601
 8847SOL    HW227441   2.673   0.906   2.503
 8848SOL     OW27442   2.705   0.503   1.842
 8848SOL    HW127443   2.613   0.465   1.850
 8848SOL    HW227444   2.770   0.445   1.890
 8849SOL     OW27445   2.944   6.458   2.825
 8849SOL    HW127446   2.888   6.388   2.780
 8849SOL    HW227447   2.885   6.534   2.853
 8850SOL     OW27448   1.318   1.972   0.109
 8850SOL    HW127449   1.261   2.009   0.183
 8850SOL    HW227450   1.260   1.947   0.032
 8851SOL     OW27451   1.603   4.244   2.240
 8851SOL    HW127452   1.663   4.227   2.318
 8851SOL    HW227453   1.557   4.158   2.215
 8852SOL     OW27454   1.211   1.968   5.326
 8852SOL    HW127455   1.176   1.875   5.322
 8852SOL    HW227456   1.308   1.967   5.348
 8853SOL     OW27457   2.705   0.863   1.872
 8853SOL    HW127458   2.607   0.846   1.867
 8853SOL    HW227459   2.747   0.842   1.784
 8854SOL     OW27460   1.925   3.065   4.389
 8854SOL    HW127461   1.999   3.026   4.444
 8854SOL    HW227462   1.910   3.160   4.414
 8855SOL     OW27463   6.487   5.174   1.335
 8855SOL    HW127464   6.431   5.196   1.255
 8855SOL    HW227465   6.583   5.196   1.315
 8856SOL     OW27466   0.225   6.091   6.587
 8856SOL    HW127467   0.207   6.179   6.543
 8856SOL    HW227468   0.320   6.064   6.571
 8857SOL     OW27469   6.809   1.896   4.887
 8857SOL    HW127470   6.771   1.815   4.843
 8857SOL    HW227471   6.761   1.914   4.973
 8858SOL     OW27472   0.207   4.836   4.541
 8858SOL    HW127473   0.258   4.780   4.475
 8858SOL    HW227474   0.123   4.870   4.497
 8859SOL     OW27475   1.084   1.001   3.787
 8859SOL    HW127476   0.993   0.983   3.751
 8859SOL    HW227477   1.102   0.940   3.864
 8860SOL     OW27478   6.557   2.437   1.656
 8860SOL    HW127479   6.628   2.368   1.668
 8860SOL    HW227480   6.470   2.392   1.636
 8861SOL     OW27481   4.184   1.080   6.944
 8861SOL    HW127482   4.096   1.111   6.979
 8861SOL    HW227483   4.257   1.130   6.989
 8862SOL     OW27484   5.371   6.645   3.762
 8862SOL    HW127485   5.463   6.683   3.767
 8862SOL    HW227486   5.346   6.629   3.666
 8863SOL     OW27487   2.029   5.280   3.148
 8863SOL    HW127488   1.986   5.370   3.152
 8863SOL    HW227489   2.004   5.234   3.063
 8864SOL     OW27490   4.319   3.812   6.361
 8864SOL    HW127491   4.260   3.840   6.437
 8864SOL    HW227492   4.275   3.738   6.311
 8865SOL     OW27493   3.381   0.652   5.330
 8865SOL    HW127494   3.434   0.583   5.380
 8865SOL    HW227495   3.410   0.653   5.235
 8866SOL     OW27496   4.796   0.013   2.787
 8866SOL    HW127497   4.890   0.008   2.751
 8866SOL    HW227498   4.731   0.019   2.712
 8867SOL     OW27499   6.131   3.946   3.656
 8867SOL    HW127500   6.185   3.903   3.728
 8867SOL    HW227501   6.088   3.875   3.600
 8868SOL     OW27502   6.622   4.012   2.477
 8868SOL    HW127503   6.651   4.079   2.545
 8868SOL    HW227504   6.533   4.039   2.439
 8869SOL     OW27505   4.059   5.867   5.238
 8869SOL    HW127506   4.041   5.933   5.166
 8869SOL    HW227507   4.116   5.793   5.203
 8870SOL     OW27508   1.623   6.461   1.546
 8870SOL    HW127509   1.526   6.467   1.571
 8870SOL    HW227510   1.679   6.465   1.628
 8871SOL     OW27511   2.028   0.991   3.360
 8871SOL    HW127512   1.965   0.918   3.333
 8871SOL    HW227513   2.081   1.021   3.280
 8872SOL     OW27514   1.134   4.907   6.231
 8872SOL    HW127515   1.064   4.836   6.227
 8872SOL    HW227516   1.096   4.989   6.275
 8873SOL     OW27517   1.376   6.817   1.893
 8873SOL    HW127518   1.445   6.749   1.868
 8873SOL    HW227519   1.372   6.826   1.992
 8874SOL     OW27520   1.104   5.651   2.145
 8874SOL    HW127521   1.036   5.717   2.115
 8874SOL    HW227522   1.196   5.691   2.137
 8875SOL     OW27523   0.209   3.057   4.128
 8875SOL    HW127524   0.275   3.062   4.202
 8875SOL    HW227525   0.209   2.965   4.088
 8876SOL     OW27526   2.640   0.854   6.514
 8876SOL    HW127527   2.552   0.901   6.511
 8876SOL    HW227528   2.670   0.845   6.609
 8877SOL     OW27529   1.674   3.579   3.192
 8877SOL    HW127530   1.656   3.627   3.278
 8877SOL    HW227531   1.692   3.647   3.120
 8878SOL     OW27532   3.587   5.188   0.593
 8878SOL    HW127533   3.581   5.094   0.626
 8878SOL    HW227534   3.683   5.217   0.588
 8879SOL     OW27535   6.111   4.810   2.110
 8879SOL    HW127536   6.103   4.839   2.206
 8879SOL    HW227537   6.113   4.710   2.105
 8880SOL     OW27538   4.059   6.137   4.657
 8880SOL    HW127539   4.095   6.181   4.575
 8880SOL    HW227540   3.983   6.191   4.694
 8881SOL     OW27541   5.039   5.573   4.423
 8881SOL    HW127542   5.090   5.632   4.485
 8881SOL    HW227543   4.946   5.608   4.411
 8882SOL     OW27544   3.678   0.886   1.058
 8882SOL    HW127545   3.693   0.977   1.020
 8882SOL    HW227546   3.700   0.817   0.989
 8883SOL     OW27547   0.931   6.202   5.848
 8883SOL    HW127548   0.835   6.230   5.858
 8883SOL    HW227549   0.935   6.112   5.805
 8884SOL     OW27550   6.305   3.891   5.077
 8884SOL    HW127551   6.238   3.836   5.028
 8884SOL    HW227552   6.378   3.918   5.014
 8885SOL     OW27553   5.167   4.840   0.809
 8885SOL    HW127554   5.206   4.757   0.768
 8885SOL    HW227555   5.238   4.909   0.818
 8886SOL     OW27556   3.990   5.838   6.110
 8886SOL    HW127557   4.006   5.760   6.050
 8886SOL    HW227558   4.039   5.918   6.075
 8887SOL     OW27559   3.648   1.770   1.049
 8887SOL    HW127560   3.600   1.851   1.016
 8887SOL    HW227561   3.718   1.797   1.116
 8888SOL     OW27562   2.381   2.315   4.343
 8888SOL    HW127563   2.419   2.247   4.407
 8888SOL    HW227564   2.329   2.383   4.394
 8889SOL     OW27565   6.888   6.314   6.136
 8889SOL    HW127566   6.815   6.378   6.112
 8889SOL    HW227567   6.916   6.265   6.053
 8890SOL     OW27568   0.674   6.255   6.599
 8890SOL    HW127569   0.612   6.178   6.582
 8890SOL    HW227570   0.763   6.220   6.628
 8891SOL     OW27571   4.201   4.070   6.823
 8891SOL    HW127572   4.223   4.007   6.897
 8891SOL    HW227573   4.285   4.096   6.775
 8892SOL     OW27574   3.791   4.892   3.623
 8892SOL    HW127575   3.697   4.925   3.608
 8892SOL    HW227576   3.800   4.858   3.717
 8893SOL     OW27577   1.719   5.717   5.307
 8893SOL    HW127578   1.746   5.687   5.215
 8893SOL    HW227579   1.638   5.666   5.337
 8894SOL     OW27580   3.926   1.723   6.948
 8894SOL    HW127581   3.968   1.799   6.998
 8894SOL    HW227582   3.876   1.758   6.869
 8895SOL     OW27583   0.647   2.449   1.171
 8895SOL    HW127584   0.670   2.392   1.251
 8895SOL    HW227585   0.558   2.421   1.136
 8896SOL     OW27586   1.804   3.012   4.737
 8896SOL    HW127587   1.795   3.095   4.793
 8896SOL    HW227588   1.754   2.938   4.781
 8897SOL     OW27589   2.090   3.708   3.410
 8897SOL    HW127590   2.118   3.780   3.347
 8897SOL    HW227591   2.110   3.618   3.369
 8898SOL     OW27592   6.311   3.785   1.993
 8898SOL    HW127593   6.339   3.780   2.089
 8898SOL    HW227594   6.226   3.734   1.981
 8899SOL     OW27595   0.338   4.705   6.598
 8899SOL    HW127596   0.263   4.668   6.544
 8899SOL    HW227597   0.418   4.646   6.590
 8900SOL     OW27598   5.725   2.420   3.255
 8900SOL    HW127599   5.715   2.498   3.318
 8900SOL    HW227600   5.792   2.356   3.292
 8901SOL     OW27601   1.126   1.587   3.836
 8901SOL    HW127602   1.032   1.621   3.839
 8901SOL    HW227603   1.181   1.646   3.778
 8902SOL     OW27604   1.654   5.734   6.708
 8902SOL    HW127605   1.596   5.654   6.721
 8902SOL    HW227606   1.710   5.722   6.627
 8903SOL     OW27607   1.021   2.477   4.704
 8903SOL    HW127608   0.985   2.416   4.633
 8903SOL    HW227609   1.121   2.476   4.702
 8904SOL     OW27610   1.035   1.815   3.604
 8904SOL    HW127611   1.025   1.758   3.523
 8904SOL    HW227612   1.128   1.804   3.641
 8905SOL     OW27613   1.671   3.370   2.651
 8905SOL    HW127614   1.713   3.284   2.622
 8905SOL    HW227615   1.585   3.384   2.602
 8906SOL     OW27616   1.353   6.033   1.096
 8906SOL    HW127617   1.323   5.957   1.152
 8906SOL    HW227618   1.276   6.096   1.081
 8907SOL     OW27619   2.844   2.792   5.474
 8907SOL    HW127620   2.851   2.888   5.449
 8907SOL    HW227621   2.899   2.737   5.412
 8908SOL     OW27622   1.776   5.052   6.593
 8908SOL    HW127623   1.760   5.146   6.564
 8908SOL    HW227624   1.701   5.023   6.653
 8909SOL     OW27625   2.796   1.156   6.447
 8909SOL    HW127626   2.828   1.201   6.363
 8909SOL    HW227627   2.709   1.109   6.428
 8910SOL     OW27628   0.134   3.104   5.168
 8910SOL    HW127629   0.184   3.100   5.255
 8910SOL    HW227630   0.139   3.015   5.123
 8911SOL     OW27631   5.640   3.052   4.996
 8911SOL    HW127632   5.541   3.054   4.984
 8911SOL    HW227633   5.675   3.145   5.000
 8912SOL     OW27634   3.006   3.204   6.287
 8912SOL    HW127635   3.081   3.194   6.222
 8912SOL    HW227636   3.033   3.165   6.375
 8913SOL     OW27637   4.852   5.132   6.684
 8913SOL    HW127638   4.788   5.159   6.756
 8913SOL    HW227639   4.885   5.039   6.703
 8914SOL     OW27640   4.674   6.747   4.547
 8914SOL    HW127641   4.740   6.724   4.476
 8914SOL    HW227642   4.693   6.692   4.629
 8915SOL     OW27643   1.431   2.333   4.421
 8915SOL    HW127644   1.505   2.281   4.465
 8915SOL    HW227645   1.385   2.390   4.490
 8916SOL     OW27646   6.109   2.391   6.615
 8916SOL    HW127647   6.147   2.347   6.533
 8916SOL    HW227648   6.122   2.490   6.607
 8917SOL     OW27649   5.581   2.302   1.021
 8917SOL    HW127650   5.619   2.348   0.941
 8917SOL    HW227651   5.654   2.282   1.086
 8918SOL     OW27652   1.280   5.442   0.819
 8918SOL    HW127653   1.357   5.379   0.822
 8918SOL    HW227654   1.241   5.452   0.911
 8919SOL     OW27655   4.995   4.595   6.581
 8919SOL    HW127656   4.940   4.617   6.501
 8919SOL    HW227657   4.976   4.502   6.611
 8920SOL     OW27658   0.624   2.261   6.742
 8920SOL    HW127659   0.694   2.220   6.684
 8920SOL    HW227660   0.663   2.284   6.831
 8921SOL     OW27661   1.582   2.876   1.665
 8921SOL    HW127662   1.502   2.874   1.725
 8921SOL    HW227663   1.610   2.783   1.643
 8922SOL     OW27664   3.918   6.457   2.250
 8922SOL    HW127665   3.952   6.401   2.325
 8922SOL    HW227666   3.838   6.413   2.210
 8923SOL     OW27667   1.352   1.280   5.119
 8923SOL    HW127668   1.339   1.253   5.214
 8923SOL    HW227669   1.278   1.243   5.063
 8924SOL     OW27670   5.117   5.585   5.263
 8924SOL    HW127671   5.195   5.539   5.223
 8924SOL    HW227672   5.038   5.524   5.262
 8925SOL     OW27673   6.976   0.105   2.156
 8925SOL    HW127674   6.907   0.065   2.095
 8925SOL    HW227675   6.945   0.194   2.188
 8926SOL     OW27676   6.377   3.517   4.957
 8926SOL    HW127677   6.348   3.591   4.898
 8926SOL    HW227678   6.298   3.478   5.003
 8927SOL     OW27679   6.470   1.790   4.995
 8927SOL    HW127680   6.553   1.802   5.049
 8927SOL    HW227681   6.458   1.693   4.975
 8928SOL     OW27682   1.352   0.001   6.046
 8928SOL    HW127683   1.280   0.045   5.992
 8928SOL    HW227684   1.325   6.931   6.068
 8929SOL     OW27685   6.636   2.262   5.187
 8929SOL    HW127686   6.696   2.182   5.179
 8929SOL    HW227687   6.568   2.260   5.114
 8930SOL     OW27688   0.715   3.126   3.373
 8930SOL    HW127689   0.726   3.162   3.280
 8930SOL    HW227690   0.627   3.157   3.411
 8931SOL     OW27691   3.112   3.332   1.821
 8931SOL    HW127692   3.139   3.283   1.904
 8931SOL    HW227693   3.116   3.430   1.837
 8932SOL     OW27694   0.135   2.207   2.633
 8932SOL    HW127695   0.128   2.118   2.678
 8932SOL    HW227696   0.097   2.277   2.693
 8933SOL     OW27697   3.179   2.732   6.311
 8933SOL    HW127698   3.181   2.772   6.403
 8933SOL    HW227699   3.085   2.736   6.276
 8934SOL     OW27700   3.783   4.939   5.087
 8934SOL    HW127701   3.804   4.939   5.185
 8934SOL    HW227702   3.685   4.951   5.074
 8935SOL     OW27703   0.262   4.677   6.898
 8935SOL    HW127704   0.301   4.663   6.807
 8935SOL    HW227705   0.162   4.675   6.891
 8936SOL     OW27706   1.637   4.076   0.427
 8936SOL    HW127707   1.638   4.036   0.335
 8936SOL    HW227708   1.707   4.031   0.483
 8937SOL     OW27709   0.352   0.502   4.783
 8937SOL    HW127710   0.291   0.499   4.703
 8937SOL    HW227711   0.441   0.464   4.758
 8938SOL     OW27712   0.605   5.466   0.479
 8938SOL    HW127713   0.541   5.397   0.445
 8938SOL    HW227714   0.553   5.541   0.520
 8939SOL     OW27715   4.715   2.844   4.261
 8939SOL    HW127716   4.670   2.824   4.174
 8939SOL    HW227717   4.688   2.775   4.329
 8940SOL     OW27718   0.036   1.044   4.001
 8940SOL    HW127719   0.070   1.007   4.088
 8940SOL    HW227720   0.103   1.026   3.929
 8941SOL     OW27721   5.760   2.537   5.056
 8941SOL    HW127722   5.838   2.482   5.027
 8941SOL    HW227723   5.780   2.577   5.146
 8942SOL     OW27724   0.620   4.154   5.399
 8942SOL    HW127725   0.666   4.068   5.420
 8942SOL    HW227726   0.649   4.224   5.465
 8943SOL     OW27727   3.569   3.833   0.126
 8943SOL    HW127728   3.541   3.803   0.217
 8943SOL    HW227729   3.626   3.914   0.133
 8944SOL     OW27730   5.129   4.936   4.792
 8944SOL    HW127731   5.195   4.901   4.858
 8944SOL    HW227732   5.155   5.030   4.766
 8945SOL     OW27733   2.196   0.959   3.809
 8945SOL    HW127734   2.188   0.998   3.718
 8945SOL    HW227735   2.227   0.864   3.802
 8946SOL     OW27736   2.826   1.479   4.877
 8946SOL    HW127737   2.835   1.413   4.951
 8946SOL    HW227738   2.808   1.431   4.791
 8947SOL     OW27739   1.519   3.957   5.122
 8947SOL    HW127740   1.616   3.948   5.102
 8947SOL    HW227741   1.465   3.923   5.044
 8948SOL     OW27742   6.427   6.019   4.160
 8948SOL    HW127743   6.437   5.950   4.232
 8948SOL    HW227744   6.423   6.110   4.203
 8949SOL     OW27745   2.403   0.136   0.446
 8949SOL    HW127746   2.427   0.132   0.543
 8949SOL    HW227747   2.317   0.186   0.434
 8950SOL     OW27748   4.941   3.168   5.697
 8950SOL    HW127749   4.851   3.157   5.655
 8950SOL    HW227750   5.010   3.176   5.625
 8951SOL     OW27751   0.803   2.247   5.164
 8951SOL    HW127752   0.753   2.223   5.081
 8951SOL    HW227753   0.873   2.178   5.182
 8952SOL     OW27754   1.309   7.016   2.408
 8952SOL    HW127755   1.357   6.939   2.449
 8952SOL    HW227756   1.215   7.021   2.443
 8953SOL     OW27757   0.926   3.917   6.368
 8953SOL    HW127758   1.004   3.957   6.416
 8953SOL    HW227759   0.939   3.818   6.360
 8954SOL     OW27760   0.605   6.399   6.178
 8954SOL    HW127761   0.616   6.435   6.271
 8954SOL    HW227762   0.654   6.312   6.171
 8955SOL     OW27763   0.420   4.539   2.415
 8955SOL    HW127764   0.461   4.558   2.505
 8955SOL    HW227765   0.480   4.479   2.363
 8956SOL     OW27766   0.044   2.019   6.943
 8956SOL    HW127767   0.057   2.108   6.988
 8956SOL    HW227768   0.131   1.988   6.905
 8957SOL     OW27769   2.920   4.301   1.716
 8957SOL    HW127770   2.890   4.383   1.765
 8957SOL    HW227771   2.842   4.239   1.705
 8958SOL     OW27772   0.947   0.210   4.524
 8958SOL    HW127773   1.006   0.291   4.514
 8958SOL    HW227774   0.969   0.163   4.609
 8959SOL     OW27775   1.542   4.548   1.231
 8959SOL    HW127776   1.620   4.508   1.278
 8959SOL    HW227777   1.535   4.645   1.254
 8960SOL     OW27778   4.739   5.841   2.180
 8960SOL    HW127779   4.705   5.858   2.272
 8960SOL    HW227780   4.788   5.754   2.178
 8961SOL     OW27781   2.560   2.545   4.634
 8961SOL    HW127782   2.547   2.509   4.726
 8961SOL    HW227783   2.598   2.473   4.576
 8962SOL     OW27784   6.295   6.728   2.768
 8962SOL    HW127785   6.260   6.719   2.861
 8962SOL    HW227786   6.219   6.748   2.706
 8963SOL     OW27787   5.016   6.653   4.117
 8963SOL    HW127788   4.917   6.649   4.111
 8963SOL    HW227789   5.045   6.744   4.146
 8964SOL     OW27790   5.956   3.761   3.565
 8964SOL    HW127791   5.875   3.815   3.542
 8964SOL    HW227792   5.929   3.666   3.580
 8965SOL     OW27793   1.969   5.078   0.308
 8965SOL    HW127794   1.932   5.156   0.358
 8965SOL    HW227795   2.061   5.057   0.340
 8966SOL     OW27796   1.416   3.994   5.381
 8966SOL    HW127797   1.459   3.984   5.292
 8966SOL    HW227798   1.370   3.908   5.405
 8967SOL     OW27799   3.414   6.539   1.791
 8967SOL    HW127800   3.412   6.497   1.882
 8967SOL    HW227801   3.450   6.472   1.726
 8968SOL     OW27802   5.247   4.648   2.691
 8968SOL    HW127803   5.326   4.709   2.704
 8968SOL    HW227804   5.230   4.597   2.775
 8969SOL     OW27805   6.737   0.233   4.063
 8969SOL    HW127806   6.642   0.260   4.050
 8969SOL    HW227807   6.743   0.163   4.135
 8970SOL     OW27808   2.936   2.684   0.085
 8970SOL    HW127809   3.000   2.681   0.009
 8970SOL    HW227810   2.950   2.769   0.137
 8971SOL     OW27811   4.390   5.286   2.169
 8971SOL    HW127812   4.351   5.352   2.233
 8971SOL    HW227813   4.340   5.289   2.083
 8972SOL     OW27814   4.822   5.223   6.393
 8972SOL    HW127815   4.741   5.257   6.345
 8972SOL    HW227816   4.812   5.242   6.491
 8973SOL     OW27817   0.855   3.188   2.238
 8973SOL    HW127818   0.778   3.147   2.287
 8973SOL    HW227819   0.827   3.211   2.145
 8974SOL     OW27820   1.485   4.453   5.819
 8974SOL    HW127821   1.578   4.451   5.856
 8974SOL    HW227822   1.486   4.419   5.725
 8975SOL     OW27823   2.521   6.916   6.567
 8975SOL    HW127824   2.512   6.899   6.665
 8975SOL    HW227825   2.485   7.007   6.545
 8976SOL     OW27826   0.944   5.134   5.070
 8976SOL    HW127827   0.878   5.210   5.067
 8976SOL    HW227828   0.896   5.048   5.052
 8977SOL     OW27829   5.755   1.474   6.817
 8977SOL    HW127830   5.769   1.415   6.737
 8977SOL    HW227831   5.840   1.483   6.867
 8978SOL     OW27832   5.776   6.843   6.503
 8978SOL    HW127833   5.732   6.756   6.482
 8978SOL    HW227834   5.730   6.885   6.581
 8979SOL     OW27835   1.180   2.990   4.472
 8979SOL    HW127836   1.186   3.086   4.501
 8979SOL    HW227837   1.255   2.938   4.513
 8980SOL     OW27838   2.321   3.258   5.262
 8980SOL    HW127839   2.252   3.290   5.197
 8980SOL    HW227840   2.358   3.170   5.232
 8981SOL     OW27841   3.499   1.396   5.012
 8981SOL    HW127842   3.535   1.479   5.054
 8981SOL    HW227843   3.574   1.336   4.987
 8982SOL     OW27844   1.677   2.350   0.589
 8982SOL    HW127845   1.738   2.429   0.595
 8982SOL    HW227846   1.662   2.327   0.493
 8983SOL     OW27847   2.418   6.650   6.241
 8983SOL    HW127848   2.391   6.565   6.197
 8983SOL    HW227849   2.374   6.727   6.195
 8984SOL     OW27850   0.779   0.022   4.092
 8984SOL    HW127851   0.850   0.069   4.144
 8984SOL    HW227852   0.769   0.064   4.002
 8985SOL     OW27853   3.049   2.889   0.447
 8985SOL    HW127854   3.064   2.927   0.356
 8985SOL    HW227855   2.960   2.919   0.481
 8986SOL     OW27856   4.324   5.466   2.696
 8986SOL    HW127857   4.262   5.466   2.774
 8986SOL    HW227858   4.271   5.453   2.612
 8987SOL     OW27859   4.149   6.751   2.019
 8987SOL    HW127860   4.100   6.663   2.022
 8987SOL    HW227861   4.244   6.735   1.994
 8988SOL     OW27862   1.540   4.631   4.845
 8988SOL    HW127863   1.449   4.593   4.862
 8988SOL    HW227864   1.538   4.730   4.862
 8989SOL     OW27865   5.034   3.725   0.286
 8989SOL    HW127866   5.126   3.764   0.283
 8989SOL    HW227867   4.999   3.716   0.193
 8990SOL     OW27868   1.934   5.853   4.615
 8990SOL    HW127869   1.947   5.843   4.713
 8990SOL    HW227870   1.935   5.763   4.572
 8991SOL     OW27871   1.536   2.463   4.761
 8991SOL    HW127872   1.613   2.472   4.825
 8991SOL    HW227873   1.498   2.371   4.768
 8992SOL     OW27874   4.454   1.244   0.720
 8992SOL    HW127875   4.426   1.151   0.745
 8992SOL    HW227876   4.375   1.295   0.685
 8993SOL     OW27877   4.907   2.475   1.334
 8993SOL    HW127878   4.851   2.536   1.390
 8993SOL    HW227879   4.849   2.426   1.269
 8994SOL     OW27880   1.097   3.786   5.293
 8994SOL    HW127881   1.145   3.787   5.381
 8994SOL    HW227882   1.014   3.731   5.301
 8995SOL     OW27883   1.364   2.635   0.055
 8995SOL    HW127884   1.273   2.675   0.066
 8995SOL    HW227885   1.434   2.699   0.085
 8996SOL     OW27886   4.965   4.493   6.937
 8996SOL    HW127887   4.945   4.486   0.012
 8996SOL    HW227888   5.057   4.529   6.924
 8997SOL     OW27889   4.989   2.144   6.079
 8997SOL    HW127890   4.985   2.076   6.153
 8997SOL    HW227891   4.917   2.124   6.012
 8998SOL     OW27892   6.253   3.781   3.842
 8998SOL    HW127893   6.315   3.786   3.919
 8998SOL    HW227894   6.255   3.689   3.803
 8999SOL     OW27895   5.107   6.718   5.818
 8999SOL    HW127896   5.064   6.808   5.812
 8999SOL    HW227897   5.078   6.673   5.903
 9000SOL     OW27898   1.478   3.176   1.874
 9000SOL    HW127899   1.411   3.172   1.800
 9000SOL    HW227900   1.570   3.179   1.836
 9001SOL     OW27901   1.095   4.781   2.145
 9001SOL    HW127902   0.999   4.807   2.138
 9001SOL    HW227903   1.103   4.681   2.144
 9002SOL     OW27904   1.768   5.291   5.167
 9002SOL    HW127905   1.698   5.220   5.167
 9002SOL    HW227906   1.725   5.381   5.161
 9003SOL     OW27907   5.979   3.956   1.709
 9003SOL    HW127908   5.955   4.033   1.650
 9003SOL    HW227909   6.051   3.902   1.665
 9004SOL     OW27910   4.213   6.094   0.865
 9004SOL    HW127911   4.299   6.111   0.913
 9004SOL    HW227912   4.198   6.167   0.797
 9005SOL     OW27913   6.737   2.698   5.061
 9005SOL    HW127914   6.680   2.617   5.047
 9005SOL    HW227915   6.684   2.770   5.105
 9006SOL     OW27916   2.173   5.408   1.215
 9006SOL    HW127917   2.082   5.407   1.258
 9006SOL    HW227918   2.163   5.430   1.118
 9007SOL     OW27919   3.535   0.564   3.281
 9007SOL    HW127920   3.545   0.658   3.315
 9007SOL    HW227921   3.612   0.541   3.222
 9008SOL     OW27922   0.972   5.295   3.436
 9008SOL    HW127923   0.985   5.381   3.485
 9008SOL    HW227924   0.957   5.221   3.501
 9009SOL     OW27925   2.623   5.832   0.707
 9009SOL    HW127926   2.562   5.784   0.770
 9009SOL    HW227927   2.578   5.913   0.671
 9010SOL     OW27928   1.431   6.454   4.227
 9010SOL    HW127929   1.344   6.405   4.233
 9010SOL    HW227930   1.426   6.520   4.152
 9011SOL     OW27931   4.747   1.469   1.403
 9011SOL    HW127932   4.702   1.556   1.387
 9011SOL    HW227933   4.731   1.408   1.325
 9012SOL     OW27934   1.761   4.691   7.010
 9012SOL    HW127935   1.856   4.717   6.993
 9012SOL    HW227936   1.759   4.604   0.036
 9013SOL     OW27937   6.983   0.016   6.366
 9013SOL    HW127938   0.032   7.013   6.301
 9013SOL    HW227939   7.009   7.009   6.458
 9014SOL     OW27940   6.968   2.204   0.956
 9014SOL    HW127941   0.035   2.194   0.914
 9014SOL    HW227942   6.970   2.277   1.024
 9015SOL     OW27943   4.555   2.085   1.802
 9015SOL    HW127944   4.546   2.007   1.864
 9015SOL    HW227945   4.486   2.153   1.824
 9016SOL     OW27946   6.918   6.400   6.393
 9016SOL    HW127947   6.894   6.491   6.427
 9016SOL    HW227948   6.908   6.399   6.293
 9017SOL     OW27949   4.952   1.524   4.020
 9017SOL    HW127950   5.024   1.593   4.027
 9017SOL    HW227951   4.936   1.502   3.923
 9018SOL     OW27952   3.027   3.127   6.555
 9018SOL    HW127953   2.970   3.053   6.520
 9018SOL    HW227954   2.970   3.195   6.601
 9019SOL     OW27955   1.361   5.135   2.254
 9019SOL    HW127956   1.318   5.113   2.341
 9019SOL    HW227957   1.322   5.079   2.181
 9020SOL     OW27958   0.018   3.970   0.484
 9020SOL    HW127959   0.091   3.914   0.523
 9020SOL    HW227960   6.975   3.993   0.556
 9021SOL     OW27961   0.128   0.401   3.670
 9021SOL    HW127962   0.101   0.477   3.612
 9021SOL    HW227963   0.170   0.329   3.614
 9022SOL     OW27964   3.003   0.766   0.167
 9022SOL    HW127965   2.966   0.787   0.076
 9022SOL    HW227966   3.091   0.811   0.179
 9023SOL     OW27967   3.277   2.846   2.427
 9023SOL    HW127968   3.277   2.898   2.512
 9023SOL    HW227969   3.342   2.770   2.435
 9024SOL     OW27970   1.342   3.617   5.596
 9024SOL    HW127971   1.258   3.666   5.619
 9024SOL    HW227972   1.342   3.528   5.641
 9025SOL     OW27973   0.766   5.251   0.581
 9025SOL    HW127974   0.701   5.176   0.596
 9025SOL    HW227975   0.719   5.329   0.541
 9026SOL     OW27976   3.458   3.113   1.383
 9026SOL    HW127977   3.417   3.179   1.447
 9026SOL    HW227978   3.544   3.149   1.348
 9027SOL     OW27979   0.974   2.959   2.875
 9027SOL    HW127980   1.006   3.053   2.872
 9027SOL    HW227981   0.956   2.927   2.782
 9028SOL     OW27982   2.944   3.042   5.356
 9028SOL    HW127983   3.017   3.094   5.312
 9028SOL    HW227984   2.961   3.038   5.454
 9029SOL     OW27985   3.793   6.833   4.763
 9029SOL    HW127986   3.772   6.923   4.802
 9029SOL    HW227987   3.839   6.845   4.676
 9030SOL     OW27988   2.423   1.994   3.448
 9030SOL    HW127989   2.339   2.027   3.405
 9030SOL    HW227990   2.447   2.055   3.524
 9031SOL     OW27991   3.917   5.907   4.635
 9031SOL    HW127992   3.901   5.864   4.723
 9031SOL    HW227993   3.966   5.993   4.648
 9032SOL     OW27994   4.353   3.915   0.811
 9032SOL    HW127995   4.328   3.885   0.904
 9032SOL    HW227996   4.287   3.877   0.746
 9033SOL     OW27997   0.147   4.316   2.548
 9033SOL    HW127998   0.153   4.397   2.489
 9033SOL    HW227999   0.191   4.238   2.503
 9034SOL     OW28000   3.054   6.272   4.588
 9034SOL    HW128001   2.955   6.258   4.592
 9034SOL    HW228002   3.074   6.349   4.528
 9035SOL     OW28003   2.526   4.377   7.011
 9035SOL    HW128004   2.595   4.396   6.941
 9035SOL    HW228005   2.435   4.384   6.970
 9036SOL     OW28006   1.848   3.064   5.491
 9036SOL    HW128007   1.883   3.094   5.580
 9036SOL    HW228008   1.876   2.970   5.475
 9037SOL     OW28009   1.336   4.363   4.749
 9037SOL    HW128010   1.291   4.397   4.831
 9037SOL    HW228011   1.387   4.279   4.770
 9038SOL     OW28012   4.488   1.063   6.454
 9038SOL    HW128013   4.460   1.096   6.544
 9038SOL    HW228014   4.485   0.963   6.453
 9039SOL     OW28015   2.326   5.102   6.163
 9039SOL    HW128016   2.232   5.129   6.144
 9039SOL    HW228017   2.351   5.023   6.108
 9040SOL     OW28018   2.840   2.208   2.719
 9040SOL    HW128019   2.786   2.254   2.790
 9040SOL    HW228020   2.809   2.236   2.629
 9041SOL     OW28021   1.018   1.902   1.410
 9041SOL    HW128022   1.109   1.914   1.450
 9041SOL    HW228023   0.987   1.808   1.425
 9042SOL     OW28024   4.151   6.985   4.795
 9042SOL    HW128025   4.112   6.980   4.887
 9042SOL    HW228026   4.125   6.903   4.744
 9043SOL     OW28027   1.780   0.889   6.358
 9043SOL    HW128028   1.703   0.949   6.339
 9043SOL    HW228029   1.822   0.860   6.272
 9044SOL     OW28030   6.634   0.337   1.097
 9044SOL    HW128031   6.607   0.424   1.139
 9044SOL    HW228032   6.591   0.261   1.146
 9045SOL     OW28033   3.336   1.096   2.821
 9045SOL    HW128034   3.367   1.158   2.750
 9045SOL    HW228035   3.328   1.146   2.908
 9046SOL     OW28036   3.285   3.886   3.038
 9046SOL    HW128037   3.311   3.809   3.096
 9046SOL    HW228038   3.211   3.937   3.082
 9047SOL     OW28039   1.907   3.720   4.838
 9047SOL    HW128040   1.940   3.694   4.929
 9047SOL    HW228041   1.908   3.640   4.778
 9048SOL     OW28042   6.250   2.983   6.149
 9048SOL    HW128043   6.289   2.913   6.090
 9048SOL    HW228044   6.313   3.003   6.224
 9049SOL     OW28045   4.219   6.463   5.557
 9049SOL    HW128046   4.143   6.446   5.495
 9049SOL    HW228047   4.291   6.395   5.541
 9050SOL     OW28048   0.819   3.545   0.645
 9050SOL    HW128049   0.741   3.527   0.585
 9050SOL    HW228050   0.856   3.636   0.627
 9051SOL     OW28051   3.327   6.726   1.424
 9051SOL    HW128052   3.280   6.717   1.512
 9051SOL    HW228053   3.424   6.745   1.439
 9052SOL     OW28054   2.430   2.278   3.876
 9052SOL    HW128055   2.434   2.191   3.924
 9052SOL    HW228056   2.507   2.336   3.904
 9053SOL     OW28057   1.632   1.266   2.335
 9053SOL    HW128058   1.679   1.229   2.255
 9053SOL    HW228059   1.545   1.305   2.307
 9054SOL     OW28060   3.219   5.851   4.069
 9054SOL    HW128061   3.130   5.843   4.024
 9054SOL    HW228062   3.223   5.787   4.145
 9055SOL     OW28063   5.521   2.672   4.409
 9055SOL    HW128064   5.539   2.585   4.456
 9055SOL    HW228065   5.600   2.732   4.418
 9056SOL     OW28066   1.076   2.557   1.485
 9056SOL    HW128067   1.099   2.534   1.580
 9056SOL    HW228068   0.976   2.562   1.475
 9057SOL     OW28069   4.834   2.785   5.241
 9057SOL    HW128070   4.844   2.688   5.221
 9057SOL    HW228071   4.754   2.821   5.194
 9058SOL     OW28072   1.836   0.615   1.482
 9058SOL    HW128073   1.821   0.518   1.461
 9058SOL    HW228074   1.877   0.624   1.573
 9059SOL     OW28075   1.316   2.123   2.868
 9059SOL    HW128076   1.354   2.185   2.799
 9059SOL    HW228077   1.340   2.156   2.959
 9060SOL     OW28078   6.120   3.143   4.385
 9060SOL    HW128079   6.109   3.115   4.480
 9060SOL    HW228080   6.071   3.229   4.369
 9061SOL     OW28081   2.569   5.510   2.471
 9061SOL    HW128082   2.571   5.411   2.458
 9061SOL    HW228083   2.614   5.533   2.558
 9062SOL     OW28084   1.311   6.464   2.709
 9062SOL    HW128085   1.361   6.486   2.793
 9062SOL    HW228086   1.230   6.410   2.732
 9063SOL     OW28087   3.119   0.431   4.165
 9063SOL    HW128088   3.050   0.475   4.108
 9063SOL    HW228089   3.206   0.481   4.158
 9064SOL     OW28090   6.048   2.567   5.936
 9064SOL    HW128091   6.052   2.472   5.967
 9064SOL    HW228092   6.036   2.627   6.015
 9065SOL     OW28093   3.957   0.448   6.743
 9065SOL    HW128094   4.053   0.418   6.742
 9065SOL    HW228095   3.945   0.517   6.814
 9066SOL     OW28096   5.295   6.649   0.829
 9066SOL    HW128097   5.351   6.573   0.862
 9066SOL    HW228098   5.210   6.654   0.883
 9067SOL     OW28099   1.213   0.611   3.852
 9067SOL    HW128100   1.120   0.579   3.869
 9067SOL    HW228101   1.244   0.668   3.928
 9068SOL     OW28102   1.852   6.278   4.446
 9068SOL    HW128103   1.775   6.288   4.383
 9068SOL    HW228104   1.863   6.182   4.471
 9069SOL     OW28105   1.617   2.753   1.168
 9069SOL    HW128106   1.682   2.697   1.218
 9069SOL    HW228107   1.556   2.799   1.233
 9070SOL     OW28108   1.532   3.452   5.068
 9070SOL    HW128109   1.494   3.385   5.131
 9070SOL    HW228110   1.460   3.515   5.038
 9071SOL     OW28111   6.544   6.362   1.479
 9071SOL    HW128112   6.554   6.306   1.561
 9071SOL    HW228113   6.588   6.317   1.402
 9072SOL     OW28114   0.353   2.335   1.111
 9072SOL    HW128115   0.273   2.303   1.163
 9072SOL    HW228116   0.374   2.269   1.039
 9073SOL     OW28117   2.438   6.866   2.666
 9073SOL    HW128118   2.450   6.779   2.715
 9073SOL    HW228119   2.487   6.939   2.714
 9074SOL     OW28120   1.344   0.498   2.451
 9074SOL    HW128121   1.269   0.561   2.432
 9074SOL    HW228122   1.313   0.427   2.514
 9075SOL     OW28123   0.360   1.550   2.482
 9075SOL    HW128124   0.313   1.562   2.569
 9075SOL    HW228125   0.404   1.636   2.456
 9076SOL     OW28126   6.825   0.993   6.306
 9076SOL    HW128127   6.730   1.025   6.303
 9076SOL    HW228128   6.886   1.071   6.323
 9077SOL     OW28129   4.178   0.157   0.948
 9077SOL    HW128130   4.252   0.221   0.926
 9077SOL    HW228131   4.217   0.075   0.989
 9078SOL     OW28132   3.511   3.539   4.970
 9078SOL    HW128133   3.485   3.515   4.876
 9078SOL    HW228134   3.429   3.566   5.021
 9079SOL     OW28135   2.682   0.852   4.782
 9079SOL    HW128136   2.636   0.764   4.784
 9079SOL    HW228137   2.640   0.913   4.849
 9080SOL     OW28138   4.989   2.862   6.508
 9080SOL    HW128139   5.071   2.811   6.537
 9080SOL    HW228140   4.907   2.813   6.538
 9081SOL     OW28141   4.889   6.823   2.412
 9081SOL    HW128142   4.932   6.873   2.336
 9081SOL    HW228143   4.826   6.883   2.461
 9082SOL     OW28144   1.823   0.529   4.960
 9082SOL    HW128145   1.852   0.512   5.055
 9082SOL    HW228146   1.901   0.558   4.906
 9083SOL     OW28147   4.239   4.837   5.672
 9083SOL    HW128148   4.297   4.912   5.704
 9083SOL    HW228149   4.288   4.750   5.682
 9084SOL     OW28150   3.227   3.677   2.821
 9084SOL    HW128151   3.139   3.635   2.842
 9084SOL    HW228152   3.226   3.773   2.849
 9085SOL     OW28153   2.395   0.140   0.734
 9085SOL    HW128154   2.495   0.134   0.731
 9085SOL    HW228155   2.366   0.227   0.694
 9086SOL     OW28156   0.698   4.237   0.343
 9086SOL    HW128157   0.640   4.247   0.424
 9086SOL    HW228158   0.642   4.246   0.261
 9087SOL     OW28159   4.633   2.909   1.636
 9087SOL    HW128160   4.651   2.816   1.666
 9087SOL    HW228161   4.625   2.969   1.716
 9088SOL     OW28162   6.501   6.868   1.040
 9088SOL    HW128163   6.550   6.836   0.959
 9088SOL    HW228164   6.414   6.819   1.047
 9089SOL     OW28165   5.288   6.670   5.327
 9089SOL    HW128166   5.320   6.631   5.241
 9089SOL    HW228167   5.250   6.761   5.311
 9090SOL     OW28168   5.889   1.255   5.492
 9090SOL    HW128169   5.903   1.206   5.578
 9090SOL    HW228170   5.795   1.241   5.460
 9091SOL     OW28171   2.813   3.614   6.937
 9091SOL    HW128172   2.737   3.585   6.995
 9091SOL    HW228173   2.801   3.709   6.910
 9092SOL     OW28174   6.793   0.850   0.314
 9092SOL    HW128175   6.817   0.868   0.219
 9092SOL    HW228176   6.859   0.786   0.354
 9093SOL     OW28177   1.802   6.156   5.178
 9093SOL    HW128178   1.831   6.061   5.197
 9093SOL    HW228179   1.882   6.216   5.182
 9094SOL     OW28180   6.341   4.562   2.412
 9094SOL    HW128181   6.385   4.473   2.405
 9094SOL    HW228182   6.273   4.572   2.339
 9095SOL     OW28183   4.887   4.724   6.137
 9095SOL    HW128184   4.793   4.722   6.105
 9095SOL    HW228185   4.948   4.688   6.066
 9096SOL     OW28186   6.423   5.509   3.089
 9096SOL    HW128187   6.358   5.552   3.151
 9096SOL    HW228188   6.473   5.580   3.039
 9097SOL     OW28189   2.498   1.786   6.939
 9097SOL    HW128190   2.498   1.837   0.002
 9097SOL    HW228191   2.438   1.707   6.948
 9098SOL     OW28192   2.523   2.018   5.286
 9098SOL    HW128193   2.510   2.086   5.214
 9098SOL    HW228194   2.607   2.039   5.337
 9099SOL     OW28195   2.608   3.193   6.834
 9099SOL    HW128196   2.581   3.286   6.861
 9099SOL    HW228197   2.641   3.194   6.740
 9100SOL     OW28198   0.983   3.609   2.492
 9100SOL    HW128199   1.058   3.672   2.472
 9100SOL    HW228200   0.978   3.593   2.591
 9101SOL     OW28201   2.264   1.366   2.166
 9101SOL    HW128202   2.281   1.443   2.228
 9101SOL    HW228203   2.348   1.312   2.157
 9102SOL     OW28204   4.020   6.377   1.642
 9102SOL    HW128205   4.037   6.295   1.587
 9102SOL    HW228206   3.997   6.351   1.735
 9103SOL     OW28207   5.242   1.708   0.045
 9103SOL    HW128208   5.249   1.637   0.116
 9103SOL    HW228209   5.179   1.678   6.997
 9104SOL     OW28210   6.783   6.608   1.923
 9104SOL    HW128211   6.707   6.546   1.942
 9104SOL    HW228212   6.788   6.625   1.824
 9105SOL     OW28213   1.380   0.170   5.041
 9105SOL    HW128214   1.382   0.070   5.040
 9105SOL    HW228215   1.314   0.203   4.975
 9106SOL     OW28216   0.577   3.629   0.008
 9106SOL    HW128217   0.553   3.724   0.030
 9106SOL    HW228218   0.676   3.622   7.020
 9107SOL     OW28219   2.044   1.019   6.767
 9107SOL    HW128220   2.097   0.951   6.818
 9107SOL    HW228221   2.051   1.000   6.669
 9108SOL     OW28222   4.765   4.390   5.454
 9108SOL    HW128223   4.796   4.479   5.488
 9108SOL    HW228224   4.831   4.320   5.480
 9109SOL     OW28225   4.980   2.624   2.904
 9109SOL    HW128226   5.007   2.536   2.865
 9109SOL    HW228227   5.050   2.653   2.970
 9110SOL     OW28228   1.140   5.566   4.608
 9110SOL    HW128229   1.236   5.585   4.627
 9110SOL    HW228230   1.099   5.644   4.559
 9111SOL     OW28231   4.665   2.625   6.341
 9111SOL    HW128232   4.744   2.624   6.280
 9111SOL    HW228233   4.664   2.711   6.393
 9112SOL     OW28234   1.233   4.798   2.874
 9112SOL    HW128235   1.185   4.748   2.802
 9112SOL    HW228236   1.265   4.886   2.838
 9113SOL     OW28237   5.234   2.201   3.864
 9113SOL    HW128238   5.220   2.268   3.791
 9113SOL    HW228239   5.239   2.247   3.952
 9114SOL     OW28240   0.949   5.979   3.913
 9114SOL    HW128241   0.973   5.928   3.830
 9114SOL    HW228242   0.887   6.053   3.889
 9115SOL     OW28243   6.273   5.372   3.887
 9115SOL    HW128244   6.265   5.466   3.920
 9115SOL    HW228245   6.367   5.340   3.900
 9116SOL     OW28246   0.231   0.255   2.944
 9116SOL    HW128247   0.150   0.284   2.893
 9116SOL    HW228248   0.283   0.335   2.972
 9117SOL     OW28249   3.964   1.920   6.149
 9117SOL    HW128250   3.864   1.926   6.147
 9117SOL    HW228251   4.003   1.994   6.095
 9118SOL     OW28252   6.304   3.633   0.458
 9118SOL    HW128253   6.282   3.651   0.362
 9118SOL    HW228254   6.398   3.661   0.476
 9119SOL     OW28255   4.096   0.009   1.479
 9119SOL    HW128256   4.104   0.069   1.398
 9119SOL    HW228257   4.119   0.061   1.561
 9120SOL     OW28258   6.375   2.788   5.973
 9120SOL    HW128259   6.396   2.854   5.901
 9120SOL    HW228260   6.453   2.725   5.984
 9121SOL     OW28261   4.047   6.931   5.543
 9121SOL    HW128262   4.057   7.019   5.589
 9121SOL    HW228263   3.964   6.886   5.576
 9122SOL     OW28264   2.171   3.928   2.183
 9122SOL    HW128265   2.154   3.830   2.189
 9122SOL    HW228266   2.092   3.974   2.143
 9123SOL     OW28267   1.510   0.786   3.438
 9123SOL    HW128268   1.574   0.836   3.495
 9123SOL    HW228269   1.443   0.740   3.496
 9124SOL     OW28270   3.689   5.475   2.185
 9124SOL    HW128271   3.674   5.377   2.177
 9124SOL    HW228272   3.690   5.516   2.094
 9125SOL     OW28273   3.828   5.304   0.551
 9125SOL    HW128274   3.916   5.256   0.553
 9125SOL    HW228275   3.824   5.362   0.469
 9126SOL     OW28276   4.680   4.284   0.583
 9126SOL    HW128277   4.654   4.189   0.600
 9126SOL    HW228278   4.751   4.311   0.649
 9127SOL     OW28279   6.595   2.887   5.202
 9127SOL    HW128280   6.528   2.898   5.275
 9127SOL    HW228281   6.574   2.951   5.128
 9128SOL     OW28282   6.314   3.146   4.906
 9128SOL    HW128283   6.273   3.216   4.965
 9128SOL    HW228284   6.343   3.187   4.820
 9129SOL     OW28285   1.757   2.261   0.831
 9129SOL    HW128286   1.707   2.292   0.751
 9129SOL    HW228287   1.758   2.161   0.834
 9130SOL     OW28288   1.032   4.033   5.737
 9130SOL    HW128289   1.084   4.117   5.719
 9130SOL    HW228290   1.025   4.018   5.835
 9131SOL     OW28291   5.262   2.845   0.033
 9131SOL    HW128292   5.248   2.747   0.041
 9131SOL    HW228293   5.224   2.891   0.114
 9132SOL     OW28294   1.137   4.566   4.177
 9132SOL    HW128295   1.084   4.648   4.194
 9132SOL    HW228296   1.092   4.487   4.220
 9133SOL     OW28297   3.062   0.234   1.028
 9133SOL    HW128298   2.986   0.213   0.966
 9133SOL    HW228299   3.035   0.308   1.089
 9134SOL     OW28300   4.370   5.587   0.552
 9134SOL    HW128301   4.380   5.684   0.577
 9134SOL    HW228302   4.275   5.559   0.563
 9135SOL     OW28303   1.112   6.373   2.059
 9135SOL    HW128304   1.048   6.297   2.049
 9135SOL    HW228305   1.195   6.356   2.006
 9136SOL     OW28306   4.821   5.114   6.008
 9136SOL    HW128307   4.833   5.208   5.978
 9136SOL    HW228308   4.908   5.078   6.042
 9137SOL     OW28309   4.767   6.218   5.903
 9137SOL    HW128310   4.850   6.178   5.942
 9137SOL    HW228311   4.789   6.306   5.860
 9138SOL     OW28312   2.075   3.064   0.739
 9138SOL    HW128313   2.002   3.005   0.774
 9138SOL    HW228314   2.099   3.133   0.807
 9139SOL     OW28315   0.397   1.061   1.186
 9139SOL    HW128316   0.468   1.065   1.256
 9139SOL    HW228317   0.411   0.981   1.128
 9140SOL     OW28318   0.198   4.400   1.444
 9140SOL    HW128319   0.184   4.449   1.530
 9140SOL    HW228320   0.261   4.451   1.386
 9141SOL     OW28321   0.210   5.695   6.237
 9141SOL    HW128322   0.174   5.630   6.170
 9141SOL    HW228323   0.203   5.656   6.329
 9142SOL     OW28324   0.650   3.252   2.906
 9142SOL    HW128325   0.559   3.268   2.945
 9142SOL    HW228326   0.656   3.294   2.816
 9143SOL     OW28327   6.902   3.654   1.562
 9143SOL    HW128328   6.824   3.594   1.546
 9143SOL    HW228329   6.887   3.742   1.517
 9144SOL     OW28330   3.029   5.203   4.614
 9144SOL    HW128331   2.982   5.196   4.526
 9144SOL    HW228332   3.128   5.190   4.601
 9145SOL     OW28333   1.573   6.756   6.463
 9145SOL    HW128334   1.551   6.713   6.551
 9145SOL    HW228335   1.645   6.704   6.417
 9146SOL     OW28336   6.266   2.916   3.494
 9146SOL    HW128337   6.222   2.869   3.570
 9146SOL    HW228338   6.200   2.930   3.420
 9147SOL     OW28339   5.862   0.041   4.527
 9147SOL    HW128340   5.845   7.010   4.445
 9147SOL    HW228341   5.952   0.017   4.565
 9148SOL     OW28342   6.308   0.449   1.785
 9148SOL    HW128343   6.321   0.518   1.856
 9148SOL    HW228344   6.391   0.443   1.730
 9149SOL     OW28345   5.765   2.965   1.119
 9149SOL    HW128346   5.732   2.971   1.025
 9149SOL    HW228347   5.689   2.938   1.179
 9150SOL     OW28348   2.641   4.321   0.283
 9150SOL    HW128349   2.702   4.245   0.306
 9150SOL    HW228350   2.575   4.291   0.214
 9151SOL     OW28351   2.171   3.812   3.638
 9151SOL    HW128352   2.142   3.757   3.559
 9151SOL    HW228353   2.120   3.898   3.639
 9152SOL     OW28354   2.020   3.693   4.080
 9152SOL    HW128355   2.036   3.696   3.981
 9152SOL    HW228356   1.938   3.638   4.098
 9153SOL     OW28357   0.640   2.759   6.472
 9153SOL    HW128358   0.628   2.852   6.436
 9153SOL    HW228359   0.718   2.759   6.535
 9154SOL     OW28360   5.526   5.253   3.006
 9154SOL    HW128361   5.576   5.213   2.929
 9154SOL    HW228362   5.515   5.351   2.991
 9155SOL     OW28363   1.769   5.306   2.385
 9155SOL    HW128364   1.837   5.247   2.341
 9155SOL    HW228365   1.688   5.314   2.326
 9156SOL     OW28366   6.647   2.924   1.078
 9156SOL    HW128367   6.679   2.942   1.171
 9156SOL    HW228368   6.723   2.892   1.022
 9157SOL     OW28369   3.715   4.017   6.554
 9157SOL    HW128370   3.674   4.107   6.571
 9157SOL    HW228371   3.712   3.963   6.639
 9158SOL     OW28372   6.757   3.818   3.803
 9158SOL    HW128373   6.682   3.857   3.749
 9158SOL    HW228374   6.720   3.752   3.869
 9159SOL     OW28375   2.833   0.442   3.174
 9159SOL    HW128376   2.879   0.507   3.235
 9159SOL    HW228377   2.794   0.369   3.229
 9160SOL     OW28378   0.512   4.924   6.663
 9160SOL    HW128379   0.459   4.842   6.641
 9160SOL    HW228380   0.475   4.967   6.745
 9161SOL     OW28381   5.809   4.328   1.964
 9161SOL    HW128382   5.863   4.282   2.034
 9161SOL    HW228383   5.714   4.335   1.993
 9162SOL     OW28384   4.267   1.768   2.452
 9162SOL    HW128385   4.296   1.805   2.363
 9162SOL    HW228386   4.348   1.741   2.505
 9163SOL     OW28387   0.566   2.065   2.200
 9163SOL    HW128388   0.475   2.094   2.170
 9163SOL    HW228389   0.629   2.064   2.122
 9164SOL     OW28390   2.409   0.261   6.897
 9164SOL    HW128391   2.386   0.358   6.911
 9164SOL    HW228392   2.332   0.204   6.924
 9165SOL     OW28393   4.711   2.513   5.444
 9165SOL    HW128394   4.776   2.558   5.382
 9165SOL    HW228395   4.634   2.477   5.392
 9166SOL     OW28396   4.585   5.780   1.382
 9166SOL    HW128397   4.554   5.849   1.448
 9166SOL    HW228398   4.627   5.826   1.304
 9167SOL     OW28399   0.650   1.906   6.395
 9167SOL    HW128400   0.711   1.844   6.345
 9167SOL    HW228401   0.572   1.929   6.337
 9168SOL     OW28402   6.430   5.242   5.054
 9168SOL    HW128403   6.437   5.173   5.127
 9168SOL    HW228404   6.351   5.301   5.072
 9169SOL     OW28405   6.602   6.086   6.840
 9169SOL    HW128406   6.650   6.032   6.770
 9169SOL    HW228407   6.557   6.164   6.796
 9170SOL     OW28408   1.267   1.945   6.344
 9170SOL    HW128409   1.308   1.927   6.255
 9170SOL    HW228410   1.316   1.892   6.414
 9171SOL     OW28411   2.802   4.698   0.640
 9171SOL    HW128412   2.853   4.678   0.724
 9171SOL    HW228413   2.705   4.677   0.654
 9172SOL     OW28414   5.056   1.239   4.608
 9172SOL    HW128415   5.071   1.140   4.613
 9172SOL    HW228416   5.058   1.278   4.700
 9173SOL     OW28417   6.693   2.852   3.891
 9173SOL    HW128418   6.736   2.894   3.811
 9173SOL    HW228419   6.605   2.813   3.864
 9174SOL     OW28420   0.959   6.104   0.046
 9174SOL    HW128421   1.018   6.150   0.113
 9174SOL    HW228422   0.917   6.171   7.009
 9175SOL     OW28423   1.948   6.943   0.017
 9175SOL    HW128424   1.907   7.000   6.968
 9175SOL    HW228425   1.980   7.000   0.092
 9176SOL     OW28426   1.973   1.035   2.964
 9176SOL    HW128427   2.025   1.077   3.039
 9176SOL    HW228428   1.878   1.022   2.993
 9177SOL     OW28429   0.899   4.153   3.905
 9177SOL    HW128430   0.870   4.205   3.825
 9177SOL    HW228431   0.996   4.129   3.896
 9178SOL     OW28432   2.482   6.072   6.879
 9178SOL    HW128433   2.577   6.056   6.907
 9178SOL    HW228434   2.444   6.147   6.934
 9179SOL     OW28435   3.906   6.496   5.497
 9179SOL    HW128436   3.826   6.481   5.439
 9179SOL    HW228437   3.964   6.566   5.457
 9180SOL     OW28438   6.930   1.833   4.333
 9180SOL    HW128439   6.925   1.753   4.272
 9180SOL    HW228440   6.852   1.893   4.315
 9181SOL     OW28441   4.255   1.864   3.648
 9181SOL    HW128442   4.307   1.779   3.646
 9181SOL    HW228443   4.247   1.900   3.555
 9182SOL     OW28444   1.688   1.208   2.891
 9182SOL    HW128445   1.589   1.199   2.902
 9182SOL    HW228446   1.710   1.220   2.794
 9183SOL     OW28447   5.034   2.636   6.814
 9183SOL    HW128448   5.079   2.615   6.901
 9183SOL    HW228449   4.939   2.661   6.830
 9184SOL     OW28450   3.340   3.067   1.109
 9184SOL    HW128451   3.409   3.025   1.050
 9184SOL    HW228452   3.366   3.053   1.205
 9185SOL     OW28453   0.594   0.795   6.804
 9185SOL    HW128454   0.515   0.739   6.829
 9185SOL    HW228455   0.657   0.801   6.881
 9186SOL     OW28456   4.943   0.076   6.318
 9186SOL    HW128457   4.966   0.135   6.241
 9186SOL    HW228458   4.953   0.127   6.404
 9187SOL     OW28459   4.832   1.745   6.713
 9187SOL    HW128460   4.805   1.655   6.678
 9187SOL    HW228461   4.892   1.790   6.647
 9188SOL     OW28462   1.160   0.132   1.054
 9188SOL    HW128463   1.257   0.110   1.050
 9188SOL    HW228464   1.121   0.095   1.138
 9189SOL     OW28465   2.677   1.340   3.077
 9189SOL    HW128466   2.584   1.352   3.110
 9189SOL    HW228467   2.730   1.286   3.142
 9190SOL     OW28468   5.964   3.554   5.076
 9190SOL    HW128469   5.898   3.593   5.139
 9190SOL    HW228470   5.997   3.466   5.112
 9191SOL     OW28471   5.397   6.561   6.626
 9191SOL    HW128472   5.473   6.575   6.563
 9191SOL    HW228473   5.312   6.552   6.575
 9192SOL     OW28474   0.077   4.144   5.867
 9192SOL    HW128475   0.123   4.231   5.850
 9192SOL    HW228476   0.056   4.100   5.780
 9193SOL     OW28477   3.582   3.498   3.999
 9193SOL    HW128478   3.534   3.506   3.911
 9193SOL    HW228479   3.557   3.574   4.058
 9194SOL     OW28480   3.328   5.702   2.447
 9194SOL    HW128481   3.357   5.662   2.360
 9194SOL    HW228482   3.355   5.798   2.450
 9195SOL     OW28483   0.485   3.434   3.364
 9195SOL    HW128484   0.467   3.493   3.442
 9195SOL    HW228485   0.583   3.430   3.347
 9196SOL     OW28486   3.501   0.748   3.659
 9196SOL    HW128487   3.439   0.825   3.645
 9196SOL    HW228488   3.449   0.662   3.654
 9197SOL     OW28489   2.582   3.497   0.022
 9197SOL    HW128490   2.499   3.458   7.006
 9197SOL    HW228491   2.649   3.424   0.037
 9198SOL     OW28492   5.664   4.247   5.515
 9198SOL    HW128493   5.709   4.158   5.502
 9198SOL    HW228494   5.581   4.250   5.458
 9199SOL     OW28495   1.683   3.944   6.135
 9199SOL    HW128496   1.613   3.900   6.081
 9199SOL    HW228497   1.671   4.043   6.132
 9200SOL     OW28498   6.991   6.870   0.988
 9200SOL    HW128499   6.921   6.940   0.971
 9200SOL    HW228500   0.046   6.884   0.927
 9201SOL     OW28501   6.978   4.220   1.754
 9201SOL    HW128502   0.001   4.174   1.679
 9201SOL    HW228503   6.887   4.180   1.768
 9202SOL     OW28504   2.028   4.900   4.161
 9202SOL    HW128505   1.950   4.950   4.122
 9202SOL    HW228506   2.002   4.863   4.251
 9203SOL     OW28507   5.663   1.383   6.280
 9203SOL    HW128508   5.668   1.372   6.181
 9203SOL    HW228509   5.755   1.380   6.319
 9204SOL     OW28510   5.706   3.811   3.400
 9204SOL    HW128511   5.671   3.718   3.411
 9204SOL    HW228512   5.704   3.858   3.488
 9205SOL     OW28513   5.659   3.238   2.956
 9205SOL    HW128514   5.727   3.287   2.902
 9205SOL    HW228515   5.587   3.301   2.985
 9206SOL     OW28516   2.288   6.141   3.605
 9206SOL    HW128517   2.219   6.075   3.575
 9206SOL    HW228518   2.290   6.218   3.541
 9207SOL     OW28519   4.333   6.325   6.082
 9207SOL    HW128520   4.315   6.392   6.010
 9207SOL    HW228521   4.291   6.356   6.167
 9208SOL     OW28522   4.918   3.592   2.499
 9208SOL    HW128523   4.822   3.597   2.472
 9208SOL    HW228524   4.939   3.665   2.563
 9209SOL     OW28525   4.261   1.124   2.800
 9209SOL    HW128526   4.297   1.041   2.760
 9209SOL    HW228527   4.170   1.107   2.838
 9210SOL     OW28528   1.980   6.793   1.473
 9210SOL    HW128529   1.967   6.695   1.459
 9210SOL    HW228530   1.926   6.843   1.404
 9211SOL     OW28531   4.907   1.992   6.320
 9211SOL    HW128532   4.834   1.928   6.345
 9211SOL    HW228533   4.915   2.062   6.392
 9212SOL     OW28534   4.788   4.585   4.503
 9212SOL    HW128535   4.751   4.540   4.422
 9212SOL    HW228536   4.750   4.678   4.510
 9213SOL     OW28537   5.784   0.515   4.315
 9213SOL    HW128538   5.859   0.462   4.275
 9213SOL    HW228539   5.709   0.520   4.250
 9214SOL     OW28540   1.999   2.858   4.639
 9214SOL    HW128541   2.088   2.890   4.672
 9214SOL    HW228542   1.926   2.909   4.685
 9215SOL     OW28543   0.358   3.640   3.162
 9215SOL    HW128544   0.444   3.628   3.114
 9215SOL    HW228545   0.373   3.692   3.246
 9216SOL     OW28546   2.334   5.896   4.897
 9216SOL    HW128547   2.340   5.959   4.975
 9216SOL    HW228548   2.347   5.947   4.812
 9217SOL     OW28549   5.293   1.435   6.162
 9217SOL    HW128550   5.296   1.530   6.130
 9217SOL    HW228551   5.204   1.417   6.204
 9218SOL     OW28552   5.931   6.592   6.708
 9218SOL    HW128553   6.002   6.653   6.673
 9218SOL    HW228554   5.962   6.548   6.792
 9219SOL     OW28555   3.602   2.735   5.313
 9219SOL    HW128556   3.702   2.741   5.315
 9219SOL    HW228557   3.569   2.755   5.221
 9220SOL     OW28558   1.847   6.121   2.778
 9220SOL    HW128559   1.776   6.051   2.782
 9220SOL    HW228560   1.918   6.093   2.713
 9221SOL     OW28561   2.601   0.631   6.356
 9221SOL    HW128562   2.606   0.546   6.409
 9221SOL    HW228563   2.622   0.709   6.417
 9222SOL     OW28564   1.753   4.417   3.515
 9222SOL    HW128565   1.804   4.332   3.525
 9222SOL    HW228566   1.705   4.438   3.600
 9223SOL     OW28567   1.650   4.096   4.755
 9223SOL    HW128568   1.697   4.041   4.687
 9223SOL    HW228569   1.564   4.052   4.781
 9224SOL     OW28570   1.495   4.364   3.911
 9224SOL    HW128571   1.447   4.394   3.994
 9224SOL    HW228572   1.497   4.438   3.845
 9225SOL     OW28573   3.980   6.792   6.256
 9225SOL    HW128574   3.960   6.888   6.238
 9225SOL    HW228575   3.895   6.743   6.275
 9226SOL     OW28576   1.223   6.567   0.748
 9226SOL    HW128577   1.271   6.479   0.739
 9226SOL    HW228578   1.172   6.586   0.664
 9227SOL     OW28579   2.197   5.143   0.877
 9227SOL    HW128580   2.200   5.087   0.794
 9227SOL    HW228581   2.182   5.084   0.956
 9228SOL     OW28582   1.916   2.446   5.511
 9228SOL    HW128583   1.879   2.359   5.544
 9228SOL    HW228584   1.841   2.511   5.497
 9229SOL     OW28585   0.363   4.059   0.044
 9229SOL    HW128586   0.301   4.099   0.112
 9229SOL    HW228587   0.318   4.059   6.978
 9230SOL     OW28588   4.919   2.520   4.036
 9230SOL    HW128589   4.976   2.550   3.960
 9230SOL    HW228590   4.930   2.583   4.113
 9231SOL     OW28591   0.925   5.165   5.603
 9231SOL    HW128592   0.883   5.249   5.637
 9231SOL    HW228593   0.959   5.180   5.510
 9232SOL     OW28594   1.790   5.449   1.949
 9232SOL    HW128595   1.758   5.541   1.970
 9232SOL    HW228596   1.887   5.441   1.971
 9233SOL     OW28597   0.646   6.646   1.034
 9233SOL    HW128598   0.704   6.567   1.057
 9233SOL    HW228599   0.592   6.624   0.952
 9234SOL     OW28600   2.188   4.836   1.437
 9234SOL    HW128601   2.173   4.926   1.478
 9234SOL    HW228602   2.137   4.829   1.351
 9235SOL     OW28603   2.493   2.458   3.214
 9235SOL    HW128604   2.547   2.374   3.205
 9235SOL    HW228605   2.484   2.482   3.311
 9236SOL     OW28606   1.833   3.234   6.805
 9236SOL    HW128607   1.792   3.264   6.891
 9236SOL    HW228608   1.932   3.233   6.814
 9237SOL     OW28609   6.106   5.540   3.684
 9237SOL    HW128610   6.130   5.514   3.777
 9237SOL    HW228611   6.180   5.515   3.622
 9238SOL     OW28612   1.806   3.439   5.020
 9238SOL    HW128613   1.866   3.471   5.093
 9238SOL    HW228614   1.710   3.444   5.050
 9239SOL     OW28615   0.217   4.647   0.321
 9239SOL    HW128616   0.262   4.714   0.261
 9239SOL    HW228617   0.238   4.555   0.289
 9240SOL     OW28618   4.918   2.999   3.183
 9240SOL    HW128619   4.957   2.923   3.131
 9240SOL    HW228620   4.925   3.083   3.129
 9241SOL     OW28621   6.870   6.339   0.330
 9241SOL    HW128622   6.778   6.353   0.366
 9241SOL    HW228623   6.904   6.249   0.358
 9242SOL     OW28624   1.419   2.381   1.961
 9242SOL    HW128625   1.467   2.448   1.905
 9242SOL    HW228626   1.485   2.326   2.012
 9243SOL     OW28627   0.294   0.278   1.569
 9243SOL    HW128628   0.255   0.207   1.628
 9243SOL    HW228629   0.320   0.238   1.482
 9244SOL     OW28630   3.444   6.457   5.190
 9244SOL    HW128631   3.439   6.534   5.128
 9244SOL    HW228632   3.429   6.372   5.140
 9245SOL     OW28633   1.132   4.094   3.084
 9245SOL    HW128634   1.081   4.022   3.038
 9245SOL    HW228635   1.227   4.067   3.094
 9246SOL     OW28636   6.221   0.210   4.377
 9246SOL    HW128637   6.173   0.278   4.322
 9246SOL    HW228638   6.163   0.129   4.389
 9247SOL     OW28639   3.672   5.866   2.941
 9247SOL    HW128640   3.642   5.901   2.852
 9247SOL    HW228641   3.699   5.943   3.000
 9248SOL     OW28642   2.593   1.527   5.040
 9248SOL    HW128643   2.658   1.540   4.965
 9248SOL    HW228644   2.628   1.573   5.123
 9249SOL     OW28645   3.831   4.626   1.717
 9249SOL    HW128646   3.732   4.619   1.732
 9249SOL    HW228647   3.875   4.543   1.751
 9250SOL     OW28648   6.493   4.228   4.395
 9250SOL    HW128649   6.587   4.198   4.409
 9250SOL    HW228650   6.483   4.265   4.303
 9251SOL     OW28651   4.287   2.844   1.057
 9251SOL    HW128652   4.267   2.790   0.974
 9251SOL    HW228653   4.383   2.874   1.055
 9252SOL     OW28654   4.072   0.646   4.815
 9252SOL    HW128655   4.071   0.718   4.884
 9252SOL    HW228656   4.144   0.580   4.837
 9253SOL     OW28657   0.159   4.728   5.271
 9253SOL    HW128658   0.085   4.791   5.296
 9253SOL    HW228659   0.165   4.723   5.171
 9254SOL     OW28660   5.776   4.398   2.688
 9254SOL    HW128661   5.681   4.373   2.702
 9254SOL    HW228662   5.792   4.415   2.590
 9255SOL     OW28663   6.551   3.484   6.883
 9255SOL    HW128664   6.491   3.536   6.822
 9255SOL    HW228665   6.496   3.437   6.952
 9256SOL     OW28666   1.735   6.866   1.817
 9256SOL    HW128667   1.698   6.925   1.889
 9256SOL    HW228668   1.702   6.898   1.728
 9257SOL     OW28669   6.563   5.471   3.542
 9257SOL    HW128670   6.598   5.559   3.573
 9257SOL    HW228671   6.485   5.486   3.480
 9258SOL     OW28672   3.410   3.394   0.221
 9258SOL    HW128673   3.487   3.458   0.215
 9258SOL    HW228674   3.437   3.315   0.276
 9259SOL     OW28675   1.716   1.627   6.470
 9259SOL    HW128676   1.764   1.576   6.399
 9259SOL    HW228677   1.779   1.648   6.545
 9260SOL     OW28678   5.722   3.215   5.824
 9260SOL    HW128679   5.765   3.169   5.901
 9260SOL    HW228680   5.665   3.290   5.857
 9261SOL     OW28681   4.327   1.659   0.819
 9261SOL    HW128682   4.363   1.627   0.731
 9261SOL    HW228683   4.394   1.720   0.862
 9262SOL     OW28684   6.968   6.689   4.807
 9262SOL    HW128685   6.926   6.657   4.891
 9262SOL    HW228686   6.897   6.726   4.746
 9263SOL     OW28687   2.959   5.180   2.980
 9263SOL    HW128688   2.898   5.185   2.901
 9263SOL    HW228689   3.037   5.241   2.967
 9264SOL     OW28690   5.665   3.397   6.488
 9264SOL    HW128691   5.607   3.470   6.451
 9264SOL    HW228692   5.670   3.323   6.421
 9265SOL     OW28693   3.969   2.158   6.627
 9265SOL    HW128694   3.949   2.235   6.687
 9265SOL    HW228695   4.050   2.179   6.572
 9266SOL     OW28696   0.526   4.772   1.723
 9266SOL    HW128697   0.537   4.772   1.822
 9266SOL    HW228698   0.596   4.713   1.682
 9267SOL     OW28699   0.743   1.267   3.875
 9267SOL    HW128700   0.828   1.258   3.823
 9267SOL    HW228701   0.678   1.197   3.846
 9268SOL     OW28702   0.564   6.681   1.610
 9268SOL    HW128703   0.520   6.674   1.699
 9268SOL    HW228704   0.502   6.647   1.539
 9269SOL     OW28705   5.193   0.157   0.104
 9269SOL    HW128706   5.115   0.154   0.041
 9269SOL    HW228707   5.248   0.238   0.084
 9270SOL     OW28708   3.364   1.145   6.242
 9270SOL    HW128709   3.355   1.053   6.204
 9270SOL    HW228710   3.392   1.208   6.169
 9271SOL     OW28711   1.237   0.584   6.772
 9271SOL    HW128712   1.214   0.510   6.836
 9271SOL    HW228713   1.153   0.618   6.730
 9272SOL     OW28714   6.280   6.474   6.276
 9272SOL    HW128715   6.214   6.421   6.222
 9272SOL    HW228716   6.370   6.470   6.232
 9273SOL     OW28717   5.576   5.699   3.906
 9273SOL    HW128718   5.542   5.636   3.837
 9273SOL    HW228719   5.642   5.652   3.964
 9274SOL     OW28720   0.497   3.147   0.558
 9274SOL    HW128721   0.536   3.237   0.543
 9274SOL    HW228722   0.409   3.156   0.605
 9275SOL     OW28723   0.998   6.256   1.326
 9275SOL    HW128724   1.003   6.335   1.387
 9275SOL    HW228725   0.902   6.231   1.312
 9276SOL     OW28726   3.516   4.721   0.304
 9276SOL    HW128727   3.434   4.676   0.267
 9276SOL    HW228728   3.520   4.815   0.272
 9277SOL     OW28729   4.439   4.872   2.509
 9277SOL    HW128730   4.519   4.833   2.463
 9277SOL    HW228731   4.433   4.969   2.487
 9278SOL     OW28732   0.296   0.529   4.287
 9278SOL    HW128733   0.213   0.576   4.258
 9278SOL    HW228734   0.281   0.430   4.287
 9279SOL     OW28735   3.228   5.704   1.529
 9279SOL    HW128736   3.278   5.772   1.474
 9279SOL    HW228737   3.148   5.673   1.478
 9280SOL     OW28738   1.464   1.513   2.518
 9280SOL    HW128739   1.418   1.599   2.496
 9280SOL    HW228740   1.427   1.439   2.461
 9281SOL     OW28741   3.706   3.245   6.180
 9281SOL    HW128742   3.623   3.285   6.141
 9281SOL    HW228743   3.771   3.318   6.201
 9282SOL     OW28744   3.357   0.353   4.491
 9282SOL    HW128745   3.259   0.357   4.471
 9282SOL    HW228746   3.405   0.315   4.413
 9283SOL     OW28747   5.550   0.121   6.373
 9283SOL    HW128748   5.638   0.144   6.332
 9283SOL    HW228749   5.550   0.149   6.470
 9284SOL     OW28750   3.295   3.663   5.273
 9284SOL    HW128751   3.202   3.697   5.265
 9284SOL    HW228752   3.298   3.586   5.337
 9285SOL     OW28753   5.609   3.189   2.439
 9285SOL    HW128754   5.694   3.209   2.390
 9285SOL    HW228755   5.577   3.097   2.415
 9286SOL     OW28756   5.047   6.362   0.723
 9286SOL    HW128757   5.047   6.278   0.668
 9286SOL    HW228758   5.106   6.430   0.681
 9287SOL     OW28759   2.711   4.684   5.775
 9287SOL    HW128760   2.741   4.679   5.680
 9287SOL    HW228761   2.783   4.649   5.835
 9288SOL     OW28762   4.397   2.315   4.313
 9288SOL    HW128763   4.297   2.320   4.313
 9288SOL    HW228764   4.433   2.377   4.243
 9289SOL     OW28765   4.456   6.853   5.797
 9289SOL    HW128766   4.484   6.827   5.705
 9289SOL    HW228767   4.482   6.781   5.862
 9290SOL     OW28768   5.340   0.563   5.016
 9290SOL    HW128769   5.336   0.492   4.947
 9290SOL    HW228770   5.249   0.604   5.027
 9291SOL     OW28771   1.175   6.100   5.146
 9291SOL    HW128772   1.224   6.082   5.062
 9291SOL    HW228773   1.077   6.084   5.132
 9292SOL     OW28774   1.137   1.292   5.709
 9292SOL    HW128775   1.230   1.309   5.676
 9292SOL    HW228776   1.137   1.215   5.773
 9293SOL     OW28777   4.843   2.778   5.503
 9293SOL    HW128778   4.937   2.806   5.522
 9293SOL    HW228779   4.822   2.795   5.407
 9294SOL     OW28780   4.983   0.825   0.424
 9294SOL    HW128781   4.971   0.726   0.435
 9294SOL    HW228782   5.081   0.846   0.417
 9295SOL     OW28783   0.459   0.706   5.268
 9295SOL    HW128784   0.512   0.791   5.271
 9295SOL    HW228785   0.455   0.666   5.360
 9296SOL     OW28786   3.022   3.868   0.955
 9296SOL    HW128787   3.043   3.773   0.977
 9296SOL    HW228788   3.059   3.927   1.028
 9297SOL     OW28789   6.935   5.646   3.546
 9297SOL    HW128790   6.850   5.682   3.506
 9297SOL    HW228791   7.012   5.700   3.514
 9298SOL     OW28792   1.369   6.686   6.006
 9298SOL    HW128793   1.431   6.657   6.079
 9298SOL    HW228794   1.304   6.612   5.987
 9299SOL     OW28795   1.810   2.162   3.789
 9299SOL    HW128796   1.793   2.195   3.882
 9299SOL    HW228797   1.828   2.240   3.729
 9300SOL     OW28798   1.549   6.179   5.077
 9300SOL    HW128799   1.496   6.259   5.108
 9300SOL    HW228800   1.640   6.181   5.118
 9301SOL     OW28801   0.580   4.067   4.378
 9301SOL    HW128802   0.575   3.991   4.443
 9301SOL    HW228803   0.676   4.089   4.360
 9302SOL     OW28804   2.246   2.972   4.798
 9302SOL    HW128805   2.283   2.993   4.888
 9302SOL    HW228806   2.291   2.891   4.761
 9303SOL     OW28807   3.014   3.951   6.901
 9303SOL    HW128808   3.029   3.924   6.996
 9303SOL    HW228809   3.085   3.909   6.843
 9304SOL     OW28810   4.727   4.850   0.838
 9304SOL    HW128811   4.631   4.847   0.809
 9304SOL    HW228812   4.781   4.787   0.781
 9305SOL     OW28813   2.665   1.537   0.672
 9305SOL    HW128814   2.639   1.562   0.579
 9305SOL    HW228815   2.683   1.620   0.725
 9306SOL     OW28816   6.980   4.071   4.449
 9306SOL    HW128817   0.036   4.037   4.397
 9306SOL    HW228818   7.011   4.106   4.537
 9307SOL     OW28819   2.414   3.559   0.853
 9307SOL    HW128820   2.396   3.606   0.767
 9307SOL    HW228821   2.466   3.475   0.835
 9308SOL     OW28822   1.523   4.178   1.277
 9308SOL    HW128823   1.462   4.123   1.220
 9308SOL    HW228824   1.470   4.223   1.349
 9309SOL     OW28825   5.300   5.904   5.699
 9309SOL    HW128826   5.385   5.945   5.667
 9309SOL    HW228827   5.242   5.882   5.620
 9310SOL     OW28828   4.295   5.923   5.879
 9310SOL    HW128829   4.384   5.953   5.843
 9310SOL    HW228830   4.299   5.825   5.898
 9311SOL     OW28831   4.601   3.588   1.466
 9311SOL    HW128832   4.526   3.532   1.431
 9311SOL    HW228833   4.597   3.589   1.566
 9312SOL     OW28834   1.348   2.051   0.933
 9312SOL    HW128835   1.346   2.073   0.836
 9312SOL    HW228836   1.337   1.953   0.946
 9313SOL     OW28837   1.451   0.651   1.878
 9313SOL    HW128838   1.481   0.678   1.786
 9313SOL    HW228839   1.450   0.551   1.885
 9314SOL     OW28840   5.115   2.733   1.045
 9314SOL    HW128841   5.059   2.723   0.962
 9314SOL    HW228842   5.161   2.646   1.065
 9315SOL     OW28843   5.449   0.773   6.638
 9315SOL    HW128844   5.476   0.712   6.564
 9315SOL    HW228845   5.467   0.868   6.612
 9316SOL     OW28846   5.504   0.385   5.826
 9316SOL    HW128847   5.473   0.343   5.911
 9316SOL    HW228848   5.556   0.319   5.772
 9317SOL     OW28849   3.140   5.396   3.886
 9317SOL    HW128850   3.156   5.308   3.842
 9317SOL    HW228851   3.212   5.414   3.953
 9318SOL     OW28852   5.443   5.965   0.325
 9318SOL    HW128853   5.378   5.908   0.376
 9318SOL    HW228854   5.456   5.928   0.233
 9319SOL     OW28855   2.931   4.042   1.308
 9319SOL    HW128856   2.892   3.950   1.302
 9319SOL    HW228857   3.028   4.038   1.283
 9320SOL     OW28858   5.492   0.373   6.160
 9320SOL    HW128859   5.584   0.411   6.144
 9320SOL    HW228860   5.499   0.275   6.178
 9321SOL     OW28861   0.059   3.125   5.538
 9321SOL    HW128862   0.095   3.118   5.631
 9321SOL    HW228863   0.114   3.068   5.477
 9322SOL     OW28864   6.209   4.151   5.683
 9322SOL    HW128865   6.161   4.063   5.678
 9322SOL    HW228866   6.252   4.160   5.773
 9323SOL     OW28867   1.454   3.613   3.663
 9323SOL    HW128868   1.443   3.519   3.697
 9323SOL    HW228869   1.392   3.674   3.712
 9324SOL     OW28870   0.898   3.916   0.744
 9324SOL    HW128871   0.967   3.943   0.811
 9324SOL    HW228872   0.833   3.853   0.786
 9325SOL     OW28873   2.071   5.360   1.796
 9325SOL    HW128874   2.148   5.420   1.818
 9325SOL    HW228875   2.051   5.302   1.875
 9326SOL     OW28876   4.020   4.206   0.304
 9326SOL    HW128877   3.976   4.292   0.279
 9326SOL    HW228878   4.055   4.161   0.222
 9327SOL     OW28879   4.641   0.399   3.332
 9327SOL    HW128880   4.642   0.431   3.237
 9327SOL    HW228881   4.551   0.415   3.372
 9328SOL     OW28882   3.021   6.838   4.754
 9328SOL    HW128883   2.939   6.783   4.743
 9328SOL    HW228884   3.024   6.908   4.683
 9329SOL     OW28885   0.116   6.209   5.994
 9329SOL    HW128886   0.153   6.299   5.971
 9329SOL    HW228887   0.191   6.143   6.001
 9330SOL     OW28888   6.993   0.140   6.725
 9330SOL    HW128889   0.045   0.120   6.662
 9330SOL    HW228890   6.910   0.158   6.672
 9331SOL     OW28891   1.380   3.231   4.896
 9331SOL    HW128892   1.285   3.201   4.891
 9331SOL    HW228893   1.383   3.325   4.931
 9332SOL     OW28894   3.800   5.835   0.692
 9332SOL    HW128895   3.853   5.752   0.707
 9332SOL    HW228896   3.861   5.913   0.681
 9333SOL     OW28897   3.550   5.258   0.332
 9333SOL    HW128898   3.558   5.228   0.427
 9333SOL    HW228899   3.639   5.288   0.299
 9334SOL     OW28900   4.779   6.377   4.463
 9334SOL    HW128901   4.817   6.448   4.523
 9334SOL    HW228902   4.679   6.374   4.474
 9335SOL     OW28903   2.323   1.848   1.369
 9335SOL    HW128904   2.293   1.911   1.297
 9335SOL    HW228905   2.422   1.834   1.363
 9336SOL     OW28906   6.174   1.045   5.323
 9336SOL    HW128907   6.244   1.082   5.262
 9336SOL    HW228908   6.086   1.045   5.276
 9337SOL     OW28909   4.464   6.757   6.733
 9337SOL    HW128910   4.518   6.694   6.679
 9337SOL    HW228911   4.412   6.818   6.673
 9338SOL     OW28912   0.350   6.406   0.557
 9338SOL    HW128913   0.319   6.489   0.603
 9338SOL    HW228914   0.274   6.367   0.504
 9339SOL     OW28915   5.367   5.035   6.823
 9339SOL    HW128916   5.451   5.037   6.878
 9339SOL    HW228917   5.387   5.069   6.731
 9340SOL     OW28918   3.643   6.215   2.554
 9340SOL    HW128919   3.595   6.302   2.552
 9340SOL    HW228920   3.639   6.173   2.463
 9341SOL     OW28921   5.734   4.231   6.713
 9341SOL    HW128922   5.733   4.255   6.616
 9341SOL    HW228923   5.774   4.305   6.766
 9342SOL     OW28924   3.076   0.401   4.436
 9342SOL    HW128925   3.002   0.463   4.463
 9342SOL    HW228926   3.079   0.396   4.336
 9343SOL     OW28927   4.705   4.250   1.713
 9343SOL    HW128928   4.637   4.255   1.786
 9343SOL    HW228929   4.696   4.162   1.665
 9344SOL     OW28930   5.676   4.874   5.871
 9344SOL    HW128931   5.667   4.777   5.896
 9344SOL    HW228932   5.668   4.931   5.953
 9345SOL     OW28933   6.747   5.838   0.320
 9345SOL    HW128934   6.735   5.766   0.252
 9345SOL    HW228935   6.814   5.808   0.388
 9346SOL     OW28936   5.128   6.393   2.556
 9346SOL    HW128937   5.115   6.299   2.586
 9346SOL    HW228938   5.047   6.447   2.581
 9347SOL     OW28939   3.732   5.788   1.320
 9347SOL    HW128940   3.638   5.787   1.285
 9347SOL    HW228941   3.738   5.730   1.401
 9348SOL     OW28942   2.305   6.556   3.136
 9348SOL    HW128943   2.392   6.601   3.115
 9348SOL    HW228944   2.230   6.610   3.099
 9349SOL     OW28945   6.435   5.732   2.433
 9349SOL    HW128946   6.469   5.684   2.514
 9349SOL    HW228947   6.500   5.722   2.358
 9350SOL     OW28948   6.796   1.634   4.536
 9350SOL    HW128949   6.874   1.692   4.513
 9350SOL    HW228950   6.754   1.599   4.453
 9351SOL     OW28951   2.020   1.463   5.773
 9351SOL    HW128952   2.041   1.397   5.701
 9351SOL    HW228953   2.024   1.556   5.737
 9352SOL     OW28954   1.635   2.409   5.295
 9352SOL    HW128955   1.653   2.478   5.365
 9352SOL    HW228956   1.552   2.433   5.245
 9353SOL     OW28957   1.527   4.106   1.749
 9353SOL    HW128958   1.609   4.136   1.699
 9353SOL    HW228959   1.525   4.149   1.839
 9354SOL     OW28960   6.308   1.920   1.314
 9354SOL    HW128961   6.223   1.920   1.262
 9354SOL    HW228962   6.371   1.852   1.275
 9355SOL     OW28963   6.403   1.257   4.747
 9355SOL    HW128964   6.381   1.266   4.844
 9355SOL    HW228965   6.320   1.263   4.693
 9356SOL     OW28966   4.251   4.997   2.221
 9356SOL    HW128967   4.328   5.049   2.258
 9356SOL    HW228968   4.166   5.048   2.236
 9357SOL     OW28969   2.616   3.483   0.496
 9357SOL    HW128970   2.584   3.399   0.453
 9357SOL    HW228971   2.623   3.555   0.427
 9358SOL     OW28972   6.231   3.988   1.873
 9358SOL    HW128973   6.265   3.920   1.937
 9358SOL    HW228974   6.137   3.964   1.846
 9359SOL     OW28975   0.144   3.874   6.067
 9359SOL    HW128976   0.235   3.845   6.036
 9359SOL    HW228977   0.154   3.944   6.137
 9360SOL     OW28978   1.631   0.311   5.627
 9360SOL    HW128979   1.671   0.388   5.578
 9360SOL    HW228980   1.655   0.226   5.581
 9361SOL     OW28981   3.248   6.454   2.822
 9361SOL    HW128982   3.280   6.359   2.820
 9361SOL    HW228983   3.151   6.456   2.845
 9362SOL     OW28984   2.274   1.073   1.963
 9362SOL    HW128985   2.259   1.121   1.876
 9362SOL    HW228986   2.360   1.102   2.003
 9363SOL     OW28987   3.605   5.573   1.884
 9363SOL    HW128988   3.524   5.623   1.915
 9363SOL    HW228989   3.578   5.482   1.852
 9364SOL     OW28990   4.531   2.403   6.430
 9364SOL    HW128991   4.435   2.405   6.403
 9364SOL    HW228992   4.574   2.490   6.404
 9365SOL     OW28993   2.796   2.425   5.274
 9365SOL    HW128994   2.705   2.456   5.246
 9365SOL    HW228995   2.849   2.398   5.194
 9366SOL     OW28996   3.279   1.841   0.161
 9366SOL    HW128997   3.367   1.847   0.115
 9366SOL    HW228998   3.293   1.842   0.260
 9367SOL     OW28999   0.664   5.625   4.068
 9367SOL    HW129000   0.582   5.601   4.120
 9367SOL    HW229001   0.686   5.721   4.082
 9368SOL     OW29002   3.673   2.031   2.504
 9368SOL    HW129003   3.656   2.006   2.408
 9368SOL    HW229004   3.751   2.094   2.508
 9369SOL     OW29005   6.636   1.614   6.066
 9369SOL    HW129006   6.625   1.583   6.160
 9369SOL    HW229007   6.680   1.543   6.012
 9370SOL     OW29008   5.507   1.234   3.101
 9370SOL    HW129009   5.427   1.288   3.075
 9370SOL    HW229010   5.501   1.143   3.061
 9371SOL     OW29011   1.705   5.350   0.163
 9371SOL    HW129012   1.633   5.420   0.163
 9371SOL    HW229013   1.695   5.293   0.082
 9372SOL     OW29014   5.572   6.731   3.010
 9372SOL    HW129015   5.625   6.661   2.963
 9372SOL    HW229016   5.474   6.709   3.004
 9373SOL     OW29017   4.318   1.993   2.813
 9373SOL    HW129018   4.347   2.005   2.908
 9373SOL    HW229019   4.397   1.964   2.759
 9374SOL     OW29020   5.672   2.616   6.885
 9374SOL    HW129021   5.733   2.558   6.832
 9374SOL    HW229022   5.723   2.694   6.921
 9375SOL     OW29023   6.939   1.260   3.558
 9375SOL    HW129024   6.932   1.229   3.653
 9375SOL    HW229025   6.849   1.290   3.526
 9376SOL     OW29026   3.107   3.988   0.629
 9376SOL    HW129027   3.087   4.070   0.682
 9376SOL    HW229028   3.032   3.922   0.639
 9377SOL     OW29029   0.223   5.136   3.686
 9377SOL    HW129030   0.211   5.058   3.624
 9377SOL    HW229031   0.320   5.162   3.688
 9378SOL     OW29032   1.998   0.139   5.884
 9378SOL    HW129033   1.972   0.094   5.799
 9378SOL    HW229034   1.919   0.187   5.923
 9379SOL     OW29035   4.961   4.754   4.763
 9379SOL    HW129036   5.026   4.828   4.779
 9379SOL    HW229037   4.962   4.692   4.842
 9380SOL     OW29038   6.133   5.767   5.537
 9380SOL    HW129039   6.093   5.738   5.624
 9380SOL    HW229040   6.165   5.861   5.544
 9381SOL     OW29041   2.735   3.214   5.617
 9381SOL    HW129042   2.719   3.191   5.521
 9381SOL    HW229043   2.662   3.273   5.650
 9382SOL     OW29044   3.601   1.637   2.921
 9382SOL    HW129045   3.641   1.703   2.984
 9382SOL    HW229046   3.578   1.682   2.835
 9383SOL     OW29047   3.602   6.026   5.067
 9383SOL    HW129048   3.615   5.936   5.109
 9383SOL    HW229049   3.619   6.020   4.969
 9384SOL     OW29050   4.603   6.258   1.811
 9384SOL    HW129051   4.545   6.293   1.738
 9384SOL    HW229052   4.664   6.187   1.774
 9385SOL     OW29053   3.983   1.723   2.423
 9385SOL    HW129054   4.082   1.727   2.409
 9385SOL    HW229055   3.960   1.769   2.509
 9386SOL     OW29056   3.073   6.060   4.423
 9386SOL    HW129057   3.109   6.132   4.482
 9386SOL    HW229058   3.088   6.085   4.327
 9387SOL     OW29059   4.427   0.353   0.821
 9387SOL    HW129060   4.517   0.392   0.801
 9387SOL    HW229061   4.400   0.291   0.748
 9388SOL     OW29062   1.593   5.986   2.815
 9388SOL    HW129063   1.510   6.042   2.809
 9388SOL    HW229064   1.606   5.956   2.909
 9389SOL     OW29065   2.641   0.398   5.001
 9389SOL    HW129066   2.584   0.413   5.081
 9389SOL    HW229067   2.736   0.381   5.029
 9390SOL     OW29068   3.718   6.076   3.457
 9390SOL    HW129069   3.815   6.058   3.441
 9390SOL    HW229070   3.708   6.145   3.528
 9391SOL     OW29071   2.053   1.041   5.569
 9391SOL    HW129072   2.109   1.121   5.544
 9391SOL    HW229073   2.113   0.965   5.593
 9392SOL     OW29074   0.185   0.163   4.776
 9392SOL    HW129075   0.191   0.213   4.863
 9392SOL    HW229076   0.241   0.209   4.707
 9393SOL     OW29077   3.559   1.613   4.487
 9393SOL    HW129078   3.567   1.514   4.493
 9393SOL    HW229079   3.649   1.653   4.469
 9394SOL     OW29080   6.163   2.317   3.341
 9394SOL    HW129081   6.228   2.269   3.281
 9394SOL    HW229082   6.208   2.395   3.383
 9395SOL     OW29083   2.364   2.028   0.492
 9395SOL    HW129084   2.421   2.061   0.417
 9395SOL    HW229085   2.272   2.068   0.485
 9396SOL     OW29086   0.690   6.649   4.706
 9396SOL    HW129087   0.777   6.601   4.713
 9396SOL    HW229088   0.694   6.734   4.758
 9397SOL     OW29089   2.649   6.981   0.096
 9397SOL    HW129090   2.612   6.970   0.188
 9397SOL    HW229091   2.660   0.055   0.075
 9398SOL     OW29092   1.720   0.368   6.142
 9398SOL    HW129093   1.668   0.283   6.139
 9398SOL    HW229094   1.743   0.396   6.049
 9399SOL     OW29095   0.302   1.988   6.840
 9399SOL    HW129096   0.353   2.063   6.883
 9399SOL    HW229097   0.343   1.901   6.867
 9400SOL     OW29098   5.362   3.455   1.702
 9400SOL    HW129099   5.276   3.414   1.733
 9400SOL    HW229100   5.373   3.545   1.745
 9401SOL     OW29101   3.059   6.163   3.611
 9401SOL    HW129102   2.981   6.128   3.665
 9401SOL    HW229103   3.108   6.086   3.572
 9402SOL     OW29104   1.305   4.674   5.778
 9402SOL    HW129105   1.357   4.610   5.834
 9402SOL    HW229106   1.213   4.637   5.761
 9403SOL     OW29107   4.977   1.727   2.810
 9403SOL    HW129108   5.065   1.773   2.823
 9403SOL    HW229109   4.980   1.636   2.852
 9404SOL     OW29110   1.128   4.163   6.557
 9404SOL    HW129111   1.123   4.218   6.474
 9404SOL    HW229112   1.221   4.128   6.568
 9405SOL     OW29113   6.518   6.802   2.418
 9405SOL    HW129114   6.499   6.739   2.343
 9405SOL    HW229115   6.539   6.751   2.501
 9406SOL     OW29116   6.874   1.844   6.090
 9406SOL    HW129117   6.800   1.791   6.131
 9406SOL    HW229118   6.848   1.873   5.998
 9407SOL     OW29119   2.737   6.020   2.644
 9407SOL    HW129120   2.773   5.955   2.578
 9407SOL    HW229121   2.783   6.108   2.633
 9408SOL     OW29122   4.042   1.666   5.920
 9408SOL    HW129123   3.952   1.678   5.961
 9408SOL    HW229124   4.061   1.743   5.858
 9409SOL     OW29125   5.123   4.502   5.270
 9409SOL    HW129126   5.036   4.457   5.253
 9409SOL    HW229127   5.197   4.450   5.228
 9410SOL     OW29128   3.870   5.663   1.862
 9410SOL    HW129129   3.785   5.610   1.857
 9410SOL    HW229130   3.874   5.727   1.786
 9411SOL     OW29131   3.673   4.305   0.879
 9411SOL    HW129132   3.700   4.400   0.893
 9411SOL    HW229133   3.575   4.296   0.894
 9412SOL     OW29134   0.223   3.324   1.480
 9412SOL    HW129135   0.190   3.411   1.442
 9412SOL    HW229136   0.247   3.262   1.406
 9413SOL     OW29137   4.335   5.376   5.008
 9413SOL    HW129138   4.330   5.330   5.097
 9413SOL    HW229139   4.404   5.332   4.951
 9414SOL     OW29140   3.360   1.805   3.682
 9414SOL    HW129141   3.382   1.891   3.729
 9414SOL    HW229142   3.379   1.815   3.584
 9415SOL     OW29143   2.152   6.767   2.682
 9415SOL    HW129144   2.164   6.705   2.605
 9415SOL    HW229145   2.169   6.861   2.652
 9416SOL     OW29146   0.567   1.608   1.827
 9416SOL    HW129147   0.528   1.545   1.894
 9416SOL    HW229148   0.548   1.702   1.853
 9417SOL     OW29149   3.474   0.522   5.894
 9417SOL    HW129150   3.481   0.533   5.994
 9417SOL    HW229151   3.395   0.464   5.873
 9418SOL     OW29152   3.336   6.591   0.585
 9418SOL    HW129153   3.257   6.623   0.532
 9418SOL    HW229154   3.332   6.630   0.677
 9419SOL     OW29155   3.496   6.049   5.519
 9419SOL    HW129156   3.483   6.142   5.553
 9419SOL    HW229157   3.516   5.987   5.595
 9420SOL     OW29158   0.393   2.056   4.534
 9420SOL    HW129159   0.476   2.077   4.585
 9420SOL    HW229160   0.418   2.023   4.443
 9421SOL     OW29161   2.061   6.250   5.203
 9421SOL    HW129162   2.139   6.198   5.240
 9421SOL    HW229163   2.047   6.332   5.259
 9422SOL     OW29164   5.105   7.008   2.694
 9422SOL    HW129165   5.137   0.003   2.787
 9422SOL    HW229166   5.177   6.960   2.643
 9423SOL     OW29167   3.784   0.475   3.172
 9423SOL    HW129168   3.790   0.524   3.085
 9423SOL    HW229169   3.831   0.387   3.164
 9424SOL     OW29170   4.534   0.621   5.086
 9424SOL    HW129171   4.619   0.613   5.034
 9424SOL    HW229172   4.532   0.551   5.157
 9425SOL     OW29173   6.880   3.763   6.388
 9425SOL    HW129174   6.871   3.718   6.299
 9425SOL    HW229175   6.888   3.862   6.375
 9426SOL     OW29176   3.144   1.533   0.243
 9426SOL    HW129177   3.097   1.621   0.233
 9426SOL    HW229178   3.242   1.548   0.249
 9427SOL     OW29179   2.863   4.980   5.044
 9427SOL    HW129180   2.781   5.032   5.022
 9427SOL    HW229181   2.839   4.903   5.104
 9428SOL     OW29182   5.088   1.004   1.538
 9428SOL    HW129183   5.068   0.908   1.520
 9428SOL    HW229184   5.069   1.057   1.455
 9429SOL     OW29185   1.432   4.509   1.712
 9429SOL    HW129186   1.419   4.428   1.654
 9429SOL    HW229187   1.518   4.501   1.761
 9430SOL     OW29188   0.089   6.141   2.383
 9430SOL    HW129189   0.058   6.120   2.290
 9430SOL    HW229190   0.187   6.162   2.381
 9431SOL     OW29191   6.166   4.935   0.638
 9431SOL    HW129192   6.144   4.925   0.541
 9431SOL    HW229193   6.184   4.845   0.678
 9432SOL     OW29194   0.073   0.609   3.500
 9432SOL    HW129195   0.076   0.708   3.506
 9432SOL    HW229196   0.029   0.582   3.414
 9433SOL     OW29197   3.389   4.935   4.035
 9433SOL    HW129198   3.296   4.961   4.009
 9433SOL    HW229199   3.410   4.845   3.996
 9434SOL     OW29200   5.914   4.465   3.517
 9434SOL    HW129201   5.969   4.468   3.600
 9434SOL    HW229202   5.866   4.551   3.504
 9435SOL     OW29203   0.845   1.675   3.824
 9435SOL    HW129204   0.861   1.746   3.755
 9435SOL    HW229205   0.762   1.624   3.800
 9436SOL     OW29206   1.011   4.449   1.840
 9436SOL    HW129207   1.102   4.469   1.877
 9436SOL    HW229208   0.948   4.522   1.864
 9437SOL     OW29209   1.062   6.396   3.599
 9437SOL    HW129210   1.031   6.341   3.521
 9437SOL    HW229211   1.020   6.487   3.594
 9438SOL     OW29212   1.339   6.458   1.610
 9438SOL    HW129213   1.271   6.531   1.604
 9438SOL    HW229214   1.322   6.390   1.539
 9439SOL     OW29215   0.381   2.815   1.825
 9439SOL    HW129216   0.423   2.784   1.910
 9439SOL    HW229217   0.431   2.894   1.790
 9440SOL     OW29218   4.932   5.995   4.093
 9440SOL    HW129219   4.893   6.087   4.103
 9440SOL    HW229220   4.872   5.939   4.036
 9441SOL     OW29221   1.473   5.062   4.981
 9441SOL    HW129222   1.559   5.052   4.933
 9441SOL    HW229223   1.414   5.127   4.933
 9442SOL     OW29224   5.930   2.580   0.167
 9442SOL    HW129225   5.892   2.505   0.112
 9442SOL    HW229226   6.011   2.547   0.216
 9443SOL     OW29227   2.296   4.620   1.590
 9443SOL    HW129228   2.272   4.705   1.542
 9443SOL    HW229229   2.394   4.618   1.606
 9444SOL     OW29230   0.817   4.080   6.163
 9444SOL    HW129231   0.873   4.017   6.218
 9444SOL    HW229232   0.774   4.147   6.224
 9445SOL     OW29233   5.261   3.399   2.112
 9445SOL    HW129234   5.269   3.327   2.181
 9445SOL    HW229235   5.170   3.396   2.071
 9446SOL     OW29236   6.757   6.875   3.679
 9446SOL    HW129237   6.843   6.832   3.651
 9446SOL    HW229238   6.704   6.900   3.598
 9447SOL     OW29239   6.076   3.133   3.379
 9447SOL    HW129240   6.113   3.180   3.300
 9447SOL    HW229241   6.050   3.200   3.449
 9448SOL     OW29242   5.887   6.149   5.755
 9448SOL    HW129243   5.860   6.227   5.699
 9448SOL    HW229244   5.978   6.118   5.727
 9449SOL     OW29245   0.123   5.985   6.319
 9449SOL    HW129246   0.155   5.905   6.268
 9449SOL    HW229247   0.197   6.052   6.325
 9450SOL     OW29248   3.110   4.855   4.621
 9450SOL    HW129249   3.127   4.765   4.662
 9450SOL    HW229250   3.045   4.905   4.677
 9451SOL     OW29251   4.173   6.074   6.444
 9451SOL    HW129252   4.123   5.988   6.444
 9451SOL    HW229253   4.133   6.136   6.376
 9452SOL     OW29254   1.294   2.913   0.896
 9452SOL    HW129255   1.315   2.817   0.878
 9452SOL    HW229256   1.295   2.930   0.994
 9453SOL     OW29257   2.159   4.515   3.425
 9453SOL    HW129258   2.093   4.540   3.496
 9453SOL    HW229259   2.246   4.491   3.466
 9454SOL     OW29260   1.685   3.372   5.854
 9454SOL    HW129261   1.704   3.359   5.757
 9454SOL    HW229262   1.681   3.283   5.900
 9455SOL     OW29263   3.692   1.361   2.786
 9455SOL    HW129264   3.681   1.420   2.707
 9455SOL    HW229265   3.673   1.413   2.870
 9456SOL     OW29266   0.068   4.301   6.570
 9456SOL    HW129267   0.113   4.285   6.658
 9456SOL    HW229268   6.997   4.268   6.575
 9457SOL     OW29269   1.919   3.571   5.903
 9457SOL    HW129270   1.819   3.561   5.898
 9457SOL    HW229271   1.956   3.579   5.810
 9458SOL     OW29272   1.224   3.693   6.003
 9458SOL    HW129273   1.163   3.761   5.962
 9458SOL    HW229274   1.173   3.608   6.020
 9459SOL     OW29275   5.948   4.251   2.831
 9459SOL    HW129276   5.924   4.161   2.795
 9459SOL    HW229277   5.886   4.320   2.792
 9460SOL     OW29278   0.351   1.684   4.491
 9460SOL    HW129279   0.317   1.631   4.569
 9460SOL    HW229280   0.378   1.621   4.418
 9461SOL     OW29281   6.734   1.632   3.703
 9461SOL    HW129282   6.808   1.658   3.765
 9461SOL    HW229283   6.708   1.712   3.649
 9462SOL     OW29284   2.246   4.024   2.984
 9462SOL    HW129285   2.342   4.048   3.000
 9462SOL    HW229286   2.225   4.034   2.887
 9463SOL     OW29287   0.417   1.012   1.532
 9463SOL    HW129288   0.360   1.016   1.614
 9463SOL    HW229289   0.477   1.092   1.529
 9464SOL     OW29290   5.586   6.524   0.471
 9464SOL    HW129291   5.595   6.622   0.491
 9464SOL    HW229292   5.491   6.504   0.449
 9465SOL     OW29293   0.474   6.712   3.400
 9465SOL    HW129294   0.442   6.797   3.359
 9465SOL    HW229295   0.438   6.704   3.493
 9466SOL     OW29296   3.693   3.895   5.211
 9466SOL    HW129297   3.646   3.901   5.123
 9466SOL    HW229298   3.757   3.971   5.220
 9467SOL     OW29299   0.897   2.882   1.770
 9467SOL    HW129300   0.888   2.787   1.798
 9467SOL    HW229301   0.866   2.893   1.675
 9468SOL     OW29302   5.557   2.210   6.333
 9468SOL    HW129303   5.487   2.281   6.345
 9468SOL    HW229304   5.562   2.185   6.236
 9469SOL     OW29305   5.969   5.435   1.385
 9469SOL    HW129306   5.883   5.384   1.394
 9469SOL    HW229307   5.974   5.503   1.459
 9470SOL     OW29308   5.527   2.749   6.075
 9470SOL    HW129309   5.447   2.809   6.065
 9470SOL    HW229310   5.608   2.804   6.093
 9471SOL     OW29311   6.092   2.226   4.872
 9471SOL    HW129312   6.025   2.301   4.871
 9471SOL    HW229313   6.130   2.214   4.780
 9472SOL     OW29314   6.857   3.854   4.076
 9472SOL    HW129315   6.923   3.924   4.047
 9472SOL    HW229316   6.827   3.802   3.996
 9473SOL     OW29317   3.493   5.924   5.991
 9473SOL    HW129318   3.563   5.858   6.019
 9473SOL    HW229319   3.520   6.016   6.021
 9474SOL     OW29320   6.403   3.743   0.891
 9474SOL    HW129321   6.471   3.803   0.848
 9474SOL    HW229322   6.447   3.687   0.961
 9475SOL     OW29323   2.950   3.208   0.486
 9475SOL    HW129324   3.014   3.213   0.562
 9475SOL    HW229325   2.875   3.146   0.509
 9476SOL     OW29326   3.584   3.852   4.886
 9476SOL    HW129327   3.530   3.813   4.961
 9476SOL    HW229328   3.632   3.779   4.838
 9477SOL     OW29329   6.883   3.312   2.380
 9477SOL    HW129330   6.949   3.286   2.310
 9477SOL    HW229331   6.790   3.294   2.346
 9478SOL     OW29332   6.154   3.230   6.167
 9478SOL    HW129333   6.120   3.231   6.261
 9478SOL    HW229334   6.201   3.143   6.149
 9479SOL     OW29335   5.743   6.448   6.185
 9479SOL    HW129336   5.774   6.420   6.276
 9479SOL    HW229337   5.791   6.395   6.115
 9480SOL     OW29338   4.300   4.455   6.793
 9480SOL    HW129339   4.330   4.442   6.888
 9480SOL    HW229340   4.235   4.531   6.789
 9481SOL     OW29341   6.069   3.713   1.330
 9481SOL    HW129342   6.098   3.715   1.425
 9481SOL    HW229343   6.001   3.640   1.317
 9482SOL     OW29344   6.184   1.441   3.448
 9482SOL    HW129345   6.187   1.403   3.356
 9482SOL    HW229346   6.263   1.501   3.462
 9483SOL     OW29347   1.294   1.731   0.925
 9483SOL    HW129348   1.235   1.672   0.980
 9483SOL    HW229349   1.332   1.679   0.848
 9484SOL     OW29350   4.479   1.255   3.404
 9484SOL    HW129351   4.404   1.268   3.469
 9484SOL    HW229352   4.511   1.343   3.372
 9485SOL     OW29353   0.914   0.122   2.199
 9485SOL    HW129354   0.958   0.138   2.111
 9485SOL    HW229355   0.887   0.209   2.240
 9486SOL     OW29356   2.212   5.032   1.599
 9486SOL    HW129357   2.200   5.124   1.637
 9486SOL    HW229358   2.214   4.966   1.674
 9487SOL     OW29359   2.989   3.650   3.217
 9487SOL    HW129360   2.914   3.596   3.179
 9487SOL    HW229361   3.062   3.588   3.247
 9488SOL     OW29362   2.795   6.436   1.105
 9488SOL    HW129363   2.858   6.489   1.161
 9488SOL    HW229364   2.846   6.368   1.053
 9489SOL     OW29365   3.530   4.194   1.580
 9489SOL    HW129366   3.562   4.278   1.623
 9489SOL    HW229367   3.604   4.127   1.576
 9490SOL     OW29368   6.639   6.124   0.078
 9490SOL    HW129369   6.731   6.114   0.116
 9490SOL    HW229370   6.645   6.127   7.001
 9491SOL     OW29371   0.485   4.888   3.568
 9491SOL    HW129372   0.501   4.824   3.493
 9491SOL    HW229373   0.388   4.913   3.571
 9492SOL     OW29374   3.397   3.565   2.615
 9492SOL    HW129375   3.362   3.604   2.530
 9492SOL    HW229376   3.362   3.618   2.693
 9493SOL     OW29377   4.018   5.210   4.012
 9493SOL    HW129378   3.939   5.149   4.000
 9493SOL    HW229379   4.100   5.165   3.977
 9494SOL     OW29380   4.080   4.307   1.050
 9494SOL    HW129381   4.020   4.233   1.020
 9494SOL    HW229382   4.143   4.331   0.977
 9495SOL     OW29383   6.207   2.190   4.213
 9495SOL    HW129384   6.179   2.097   4.240
 9495SOL    HW229385   6.218   2.247   4.294
 9496SOL     OW29386   5.454   4.766   0.680
 9496SOL    HW129387   5.426   4.842   0.623
 9496SOL    HW229388   5.548   4.780   0.711
 9497SOL     OW29389   5.249   4.676   0.184
 9497SOL    HW129390   5.304   4.703   0.105
 9497SOL    HW229391   5.157   4.714   0.176
 9498SOL     OW29392   5.816   0.842   6.292
 9498SOL    HW129393   5.773   0.882   6.211
 9498SOL    HW229394   5.752   0.777   6.334
 9499SOL     OW29395   2.375   3.465   5.861
 9499SOL    HW129396   2.419   3.390   5.909
 9499SOL    HW229397   2.442   3.535   5.839
 9500SOL     OW29398   3.543   6.800   1.534
 9500SOL    HW129399   3.602   6.878   1.513
 9500SOL    HW229400   3.493   6.818   1.618
 9501SOL     OW29401   3.036   1.408   4.364
 9501SOL    HW129402   2.998   1.383   4.275
 9501SOL    HW229403   3.104   1.479   4.353
 9502SOL     OW29404   0.621   1.745   4.661
 9502SOL    HW129405   0.550   1.770   4.594
 9502SOL    HW229406   0.696   1.811   4.655
 9503SOL     OW29407   0.570   1.227   1.631
 9503SOL    HW129408   0.651   1.206   1.576
 9503SOL    HW229409   0.526   1.309   1.596
 9504SOL     OW29410   1.008   2.189   1.182
 9504SOL    HW129411   0.924   2.137   1.184
 9504SOL    HW229412   1.086   2.128   1.197
 9505SOL     OW29413   5.553   4.115   3.483
 9505SOL    HW129414   5.570   4.213   3.471
 9505SOL    HW229415   5.526   4.074   3.395
 9506SOL     OW29416   0.046   3.280   6.491
 9506SOL    HW129417   0.145   3.262   6.492
 9506SOL    HW229418   0.020   3.318   6.402
 9507SOL     OW29419   1.741   1.159   3.719
 9507SOL    HW129420   1.806   1.176   3.793
 9507SOL    HW229421   1.758   1.223   3.644
 9508SOL     OW29422   6.342   2.822   0.537
 9508SOL    HW129423   6.258   2.796   0.585
 9508SOL    HW229424   6.421   2.784   0.584
 9509SOL     OW29425   1.068   6.909   5.582
 9509SOL    HW129426   1.113   6.910   5.671
 9509SOL    HW229427   1.119   6.848   5.520
 9510SOL     OW29428   0.840   3.989   1.729
 9510SOL    HW129429   0.836   3.944   1.818
 9510SOL    HW229430   0.930   3.972   1.688
 9511SOL     OW29431   1.007   1.524   6.981
 9511SOL    HW129432   1.089   1.579   6.999
 9511SOL    HW229433   1.014   1.437   0.007
 9512SOL     OW29434   5.852   1.728   2.988
 9512SOL    HW129435   5.911   1.785   3.045
 9512SOL    HW229436   5.763   1.718   3.031
 9513SOL     OW29437   1.192   2.718   5.262
 9513SOL    HW129438   1.269   2.683   5.208
 9513SOL    HW229439   1.175   2.657   5.339
 9514SOL     OW29440   1.557   3.771   6.676
 9514SOL    HW129441   1.473   3.822   6.662
 9514SOL    HW229442   1.626   3.802   6.610
 9515SOL     OW29443   1.764   5.790   0.504
 9515SOL    HW129444   1.701   5.776   0.427
 9515SOL    HW229445   1.826   5.866   0.483
 9516SOL     OW29446   5.098   3.373   4.779
 9516SOL    HW129447   5.092   3.423   4.865
 9516SOL    HW229448   5.078   3.435   4.703
 9517SOL     OW29449   1.377   5.166   0.147
 9517SOL    HW129450   1.458   5.174   0.090
 9517SOL    HW229451   1.354   5.069   0.159
 9518SOL     OW29452   0.813   2.228   6.975
 9518SOL    HW129453   0.756   2.146   6.980
 9518SOL    HW229454   0.850   2.248   0.043
 9519SOL     OW29455   3.715   3.546   3.471
 9519SOL    HW129456   3.648   3.476   3.448
 9519SOL    HW229457   3.775   3.514   3.544
 9520SOL     OW29458   6.978   1.553   3.544
 9520SOL    HW129459   6.911   1.588   3.478
 9520SOL    HW229460   6.990   1.455   3.530
 9521SOL     OW29461   3.753   3.740   1.441
 9521SOL    HW129462   3.733   3.668   1.507
 9521SOL    HW229463   3.851   3.737   1.417
 9522SOL     OW29464   4.039   5.679   2.826
 9522SOL    HW129465   4.037   5.642   2.919
 9522SOL    HW229466   3.965   5.746   2.816
 9523SOL     OW29467   2.669   5.143   4.931
 9523SOL    HW129468   2.658   5.214   5.000
 9523SOL    HW229469   2.639   5.178   4.842
 9524SOL     OW29470   1.654   2.787   0.881
 9524SOL    HW129471   1.651   2.775   0.981
 9524SOL    HW229472   1.646   2.698   0.837
 9525SOL     OW29473   1.383   2.206   4.858
 9525SOL    HW129474   1.285   2.224   4.871
 9525SOL    HW229475   1.422   2.173   4.944
 9526SOL     OW29476   5.974   4.594   1.526
 9526SOL    HW129477   5.935   4.516   1.477
 9526SOL    HW229478   5.931   4.679   1.495
 9527SOL     OW29479   2.824   0.779   5.086
 9527SOL    HW129480   2.758   0.781   5.161
 9527SOL    HW229481   2.849   0.872   5.061
 9528SOL     OW29482   6.016   1.308   1.089
 9528SOL    HW129483   6.017   1.386   1.027
 9528SOL    HW229484   5.922   1.277   1.102
 9529SOL     OW29485   5.877   4.073   0.173
 9529SOL    HW129486   5.808   4.140   0.200
 9529SOL    HW229487   5.857   3.985   0.217
 9530SOL     OW29488   0.698   4.585   4.048
 9530SOL    HW129489   0.749   4.505   4.081
 9530SOL    HW229490   0.661   4.564   3.957
 9531SOL     OW29491   4.673   4.234   2.762
 9531SOL    HW129492   4.694   4.199   2.670
 9531SOL    HW229493   4.590   4.289   2.758
 9532SOL     OW29494   0.262   5.089   1.027
 9532SOL    HW129495   0.276   5.119   0.932
 9532SOL    HW229496   0.294   5.160   1.089
 9533SOL     OW29497   1.037   5.146   3.836
 9533SOL    HW129498   1.099   5.157   3.913
 9533SOL    HW229499   0.946   5.180   3.862
 9534SOL     OW29500   5.975   4.190   4.785
 9534SOL    HW129501   5.890   4.240   4.771
 9534SOL    HW229502   6.002   4.146   4.700
 9535SOL     OW29503   1.934   1.087   5.983
 9535SOL    HW129504   1.882   1.097   5.898
 9535SOL    HW229505   1.889   1.136   6.056
 9536SOL     OW29506   3.148   3.890   5.610
 9536SOL    HW129507   3.218   3.961   5.608
 9536SOL    HW229508   3.066   3.924   5.656
 9537SOL     OW29509   2.657   1.184   4.902
 9537SOL    HW129510   2.707   1.234   4.973
 9537SOL    HW229511   2.664   1.233   4.815
 9538SOL     OW29512   5.022   0.392   4.503
 9538SOL    HW129513   5.001   0.397   4.601
 9538SOL    HW229514   5.067   0.306   4.483
 9539SOL     OW29515   2.904   3.662   4.493
 9539SOL    HW129516   2.830   3.727   4.473
 9539SOL    HW229517   2.992   3.707   4.481
 9540SOL     OW29518   5.559   4.806   4.235
 9540SOL    HW129519   5.631   4.741   4.214
 9540SOL    HW229520   5.571   4.841   4.328
 9541SOL     OW29521   2.436   0.929   6.174
 9541SOL    HW129522   2.453   0.836   6.144
 9541SOL    HW229523   2.343   0.956   6.148
 9542SOL     OW29524   5.328   4.811   4.579
 9542SOL    HW129525   5.241   4.834   4.622
 9542SOL    HW229526   5.321   4.722   4.534
 9543SOL     OW29527   3.750   0.782   6.386
 9543SOL    HW129528   3.774   0.843   6.461
 9543SOL    HW229529   3.784   0.690   6.406
 9544SOL     OW29530   5.564   3.074   4.300
 9544SOL    HW129531   5.569   3.167   4.262
 9544SOL    HW229532   5.590   3.008   4.230
 9545SOL     OW29533   5.812   5.455   2.553
 9545SOL    HW129534   5.807   5.449   2.454
 9545SOL    HW229535   5.764   5.377   2.593
 9546SOL     OW29536   4.221   1.015   5.839
 9546SOL    HW129537   4.305   1.065   5.861
 9546SOL    HW229538   4.177   0.984   5.923
 9547SOL     OW29539   2.429   5.334   3.790
 9547SOL    HW129540   2.499   5.300   3.727
 9547SOL    HW229541   2.365   5.261   3.812
 9548SOL     OW29542   7.010   4.980   4.370
 9548SOL    HW129543   6.928   5.023   4.407
 9548SOL    HW229544   6.993   4.883   4.355
 9549SOL     OW29545   2.883   1.313   1.789
 9549SOL    HW129546   2.832   1.234   1.754
 9549SOL    HW229547   2.822   1.372   1.843
 9550SOL     OW29548   0.173   1.005   6.976
 9550SOL    HW129549   0.269   1.026   6.961
 9550SOL    HW229550   0.158   0.986   0.050
 9551SOL     OW29551   5.420   3.052   6.009
 9551SOL    HW129552   5.347   3.120   6.019
 9551SOL    HW229553   5.416   3.012   5.917
 9552SOL     OW29554   2.254   5.832   5.706
 9552SOL    HW129555   2.288   5.765   5.640
 9552SOL    HW229556   2.245   5.922   5.661
 9553SOL     OW29557   5.656   2.396   0.298
 9553SOL    HW129558   5.627   2.472   0.357
 9553SOL    HW229559   5.755   2.388   0.300
 9554SOL     OW29560   1.657   6.467   3.445
 9554SOL    HW129561   1.595   6.522   3.501
 9554SOL    HW229562   1.700   6.396   3.502
 9555SOL     OW29563   0.280   1.044   3.315
 9555SOL    HW129564   0.199   1.096   3.288
 9555SOL    HW229565   0.356   1.069   3.256
 9556SOL     OW29566   1.337   3.598   1.107
 9556SOL    HW129567   1.267   3.607   1.178
 9556SOL    HW229568   1.423   3.638   1.140
 9557SOL     OW29569   5.702   6.871   1.540
 9557SOL    HW129570   5.634   6.899   1.608
 9557SOL    HW229571   5.752   6.792   1.574
 9558SOL     OW29572   5.918   5.754   5.751
 9558SOL    HW129573   5.886   5.661   5.766
 9558SOL    HW229574   5.864   5.818   5.806
 9559SOL     OW29575   0.584   4.757   0.510
 9559SOL    HW129576   0.496   4.794   0.538
 9559SOL    HW229577   0.569   4.674   0.456
 9560SOL     OW29578   2.251   1.260   2.475
 9560SOL    HW129579   2.314   1.199   2.524
 9560SOL    HW229580   2.304   1.333   2.431
 9561SOL     OW29581   0.769   1.035   1.579
 9561SOL    HW129582   0.735   0.940   1.578
 9561SOL    HW229583   0.789   1.063   1.485
 9562SOL     OW29584   2.705   0.129   4.898
 9562SOL    HW129585   2.803   0.148   4.890
 9562SOL    HW229586   2.653   0.214   4.891
 9563SOL     OW29587   7.013   6.877   0.255
 9563SOL    HW129588   6.921   6.898   0.222
 9563SOL    HW229589   7.012   6.789   0.303
 9564SOL     OW29590   2.609   0.763   0.310
 9564SOL    HW129591   2.679   0.742   0.378
 9564SOL    HW229592   2.567   0.851   0.331
 9565SOL     OW29593   3.858   0.874   5.205
 9565SOL    HW129594   3.827   0.969   5.212
 9565SOL    HW229595   3.799   0.815   5.260
 9566SOL     OW29596   3.286   5.341   6.876
 9566SOL    HW129597   3.353   5.273   6.905
 9566SOL    HW229598   3.333   5.419   6.835
 9567SOL     OW29599   5.193   4.569   0.846
 9567SOL    HW129600   5.270   4.509   0.869
 9567SOL    HW229601   5.177   4.633   0.922
 9568SOL     OW29602   4.516   1.810   6.757
 9568SOL    HW129603   4.452   1.822   6.680
 9568SOL    HW229604   4.605   1.848   6.733
 9569SOL     OW29605   6.999   1.704   2.402
 9569SOL    HW129606   6.987   1.793   2.445
 9569SOL    HW229607   6.994   1.632   2.471
 9570SOL     OW29608   0.489   3.360   1.856
 9570SOL    HW129609   0.407   3.417   1.859
 9570SOL    HW229610   0.570   3.418   1.858
 9571SOL     OW29611   3.442   3.006   5.548
 9571SOL    HW129612   3.416   3.019   5.452
 9571SOL    HW229613   3.541   3.020   5.558
 9572SOL     OW29614   1.934   4.820   2.132
 9572SOL    HW129615   1.955   4.918   2.132
 9572SOL    HW229616   1.937   4.785   2.038
 9573SOL     OW29617   0.872   2.585   6.864
 9573SOL    HW129618   0.964   2.576   6.902
 9573SOL    HW229619   0.805   2.547   6.927
 9574SOL     OW29620   3.832   2.991   2.837
 9574SOL    HW129621   3.757   3.046   2.800
 9574SOL    HW229622   3.829   2.900   2.798
 9575SOL     OW29623   0.968   1.082   1.768
 9575SOL    HW129624   1.030   1.004   1.772
 9575SOL    HW229625   0.892   1.061   1.707
 9576SOL     OW29626   2.214   1.699   0.178
 9576SOL    HW129627   2.135   1.688   0.117
 9576SOL    HW229628   2.191   1.664   0.269
 9577SOL     OW29629   0.489   0.650   6.031
 9577SOL    HW129630   0.436   0.606   5.958
 9577SOL    HW229631   0.498   0.586   6.107
 9578SOL     OW29632   1.409   3.598   2.495
 9578SOL    HW129633   1.440   3.691   2.477
 9578SOL    HW229634   1.403   3.583   2.594
 9579SOL     OW29635   0.501   5.136   3.922
 9579SOL    HW129636   0.532   5.041   3.924
 9579SOL    HW229637   0.505   5.170   3.828
 9580SOL     OW29638   4.555   3.734   0.757
 9580SOL    HW129639   4.478   3.671   0.743
 9580SOL    HW229640   4.533   3.823   0.717
 9581SOL     OW29641   0.505   0.069   6.291
 9581SOL    HW129642   0.409   0.048   6.310
 9581SOL    HW229643   0.512   0.120   6.206
 9582SOL     OW29644   4.713   5.221   5.305
 9582SOL    HW129645   4.767   5.277   5.368
 9582SOL    HW229646   4.695   5.274   5.222
 9583SOL     OW29647   3.253   3.901   1.545
 9583SOL    HW129648   3.270   3.955   1.628
 9583SOL    HW229649   3.330   3.839   1.530
 9584SOL     OW29650   0.166   5.016   6.021
 9584SOL    HW129651   0.120   5.104   6.017
 9584SOL    HW229652   0.216   5.001   5.935
 9585SOL     OW29653   6.262   6.519   3.636
 9585SOL    HW129654   6.164   6.527   3.657
 9585SOL    HW229655   6.290   6.598   3.582
 9586SOL     OW29656   5.069   4.860   2.237
 9586SOL    HW129657   4.992   4.802   2.211
 9586SOL    HW229658   5.060   4.886   2.334
 9587SOL     OW29659   1.004   0.010   1.261
 9587SOL    HW129660   0.942   6.957   1.240
 9587SOL    HW229661   0.975   0.055   1.345
 9588SOL     OW29662   6.545   6.752   1.733
 9588SOL    HW129663   6.483   6.822   1.769
 9588SOL    HW229664   6.637   6.791   1.723
 9589SOL     OW29665   2.027   5.158   6.813
 9589SOL    HW129666   1.971   5.213   6.751
 9589SOL    HW229667   1.986   5.159   6.904
 9590SOL     OW29668   5.931   3.111   1.818
 9590SOL    HW129669   5.927   3.035   1.883
 9590SOL    HW229670   5.905   3.196   1.865
 9591SOL     OW29671   2.887   5.409   5.713
 9591SOL    HW129672   2.959   5.386   5.779
 9591SOL    HW229673   2.803   5.361   5.738
 9592SOL     OW29674   2.901   4.547   0.373
 9592SOL    HW129675   2.874   4.485   0.300
 9592SOL    HW229676   2.828   4.552   0.441
 9593SOL     OW29677   0.195   0.978   6.170
 9593SOL    HW129678   0.274   1.031   6.201
 9593SOL    HW229679   0.144   0.945   6.249
 9594SOL     OW29680   1.485   5.376   3.154
 9594SOL    HW129681   1.429   5.454   3.126
 9594SOL    HW229682   1.438   5.325   3.225
 9595SOL     OW29683   0.535   2.748   4.571
 9595SOL    HW129684   0.473   2.670   4.582
 9595SOL    HW229685   0.628   2.720   4.596
 9596SOL     OW29686   0.628   5.068   6.356
 9596SOL    HW129687   0.633   4.971   6.376
 9596SOL    HW229688   0.717   5.111   6.371
 9597SOL     OW29689   0.247   4.096   0.995
 9597SOL    HW129690   0.170   4.138   0.947
 9597SOL    HW229691   0.244   4.123   1.092
 9598SOL     OW29692   1.494   4.674   3.311
 9598SOL    HW129693   1.432   4.625   3.372
 9598SOL    HW229694   1.447   4.753   3.272
 9599SOL     OW29695   2.886   0.576   4.518
 9599SOL    HW129696   2.893   0.604   4.614
 9599SOL    HW229697   2.832   0.643   4.467
 9600SOL     OW29698   3.142   6.391   0.047
 9600SOL    HW129699   3.074   6.319   0.053
 9600SOL    HW229700   3.099   6.480   0.064
 9601SOL     OW29701   4.623   3.873   1.031
 9601SOL    HW129702   4.585   3.965   1.034
 9601SOL    HW229703   4.566   3.815   0.971
 9602SOL     OW29704   6.037   4.056   5.964
 9602SOL    HW129705   5.975   4.133   5.953
 9602SOL    HW229706   6.131   4.090   5.973
 9603SOL     OW29707   4.510   1.493   5.049
 9603SOL    HW129708   4.573   1.501   5.126
 9603SOL    HW229709   4.447   1.571   5.049
 9604SOL     OW29710   4.817   0.347   0.123
 9604SOL    HW129711   4.749   0.300   0.180
 9604SOL    HW229712   4.800   0.324   0.026
 9605SOL     OW29713   1.014   5.880   3.505
 9605SOL    HW129714   0.921   5.876   3.540
 9605SOL    HW229715   1.039   5.793   3.464
 9606SOL     OW29716   1.931   6.218   0.159
 9606SOL    HW129717   1.985   6.278   0.218
 9606SOL    HW229718   1.987   6.190   0.081
 9607SOL     OW29719   1.871   1.673   6.695
 9607SOL    HW129720   1.880   1.767   6.726
 9607SOL    HW229721   1.933   1.614   6.747
 9608SOL     OW29722   6.870   5.333   2.133
 9608SOL    HW129723   6.803   5.296   2.069
 9608SOL    HW229724   6.946   5.374   2.082
 9609SOL     OW29725   2.035   3.769   6.988
 9609SOL    HW129726   2.020   3.842   6.921
 9609SOL    HW229727   2.118   3.788   0.018
 9610SOL     OW29728   1.634   5.032   3.503
 9610SOL    HW129729   1.685   5.117   3.519
 9610SOL    HW229730   1.679   4.980   3.430
 9611SOL     OW29731   1.158   6.407   6.966
 9611SOL    HW129732   1.200   6.491   7.000
 9611SOL    HW229733   1.060   6.421   6.953
 9612SOL     OW29734   0.218   4.196   1.257
 9612SOL    HW129735   0.318   4.196   1.255
 9612SOL    HW229736   0.186   4.264   1.322
 9613SOL     OW29737   5.197   0.416   3.629
 9613SOL    HW129738   5.205   0.406   3.530
 9613SOL    HW229739   5.233   0.334   3.674
 9614SOL     OW29740   3.415   2.376   1.421
 9614SOL    HW129741   3.350   2.449   1.400
 9614SOL    HW229742   3.365   2.289   1.431
 9615SOL     OW29743   2.730   6.670   0.144
 9615SOL    HW129744   2.643   6.654   0.189
 9615SOL    HW229745   2.742   6.769   0.130
 9616SOL     OW29746   3.826   3.823   1.056
 9616SOL    HW129747   3.811   3.912   1.099
 9616SOL    HW229748   3.826   3.834   0.957
 9617SOL     OW29749   1.402   3.350   3.365
 9617SOL    HW129750   1.489   3.336   3.318
 9617SOL    HW229751   1.401   3.298   3.450
 9618SOL     OW29752   4.077   6.832   6.527
 9618SOL    HW129753   4.051   6.814   6.432
 9618SOL    HW229754   4.168   6.873   6.530
 9619SOL     OW29755   1.424   6.910   6.784
 9619SOL    HW129756   1.435   6.976   6.710
 9619SOL    HW229757   1.396   6.957   6.868
 9620SOL     OW29758   4.474   1.131   6.179
 9620SOL    HW129759   4.452   1.106   6.273
 9620SOL    HW229760   4.542   1.067   6.142
 9621SOL     OW29761   1.086   1.239   2.180
 9621SOL    HW129762   0.994   1.224   2.144
 9621SOL    HW229763   1.104   1.337   2.184
 9622SOL     OW29764   0.145   1.040   0.638
 9622SOL    HW129765   0.148   1.103   0.561
 9622SOL    HW229766   0.119   1.090   0.721
 9623SOL     OW29767   2.817   3.958   5.516
 9623SOL    HW129768   2.794   4.035   5.456
 9623SOL    HW229769   2.884   3.988   5.584
 9624SOL     OW29770   6.949   4.133   2.131
 9624SOL    HW129771   6.971   4.089   2.218
 9624SOL    HW229772   6.990   4.081   2.056
 9625SOL     OW29773   5.058   5.342   6.782
 9625SOL    HW129774   4.977   5.399   6.767
 9625SOL    HW229775   5.029   5.249   6.805
 9626SOL     OW29776   3.768   4.373   6.819
 9626SOL    HW129777   3.740   4.302   6.884
 9626SOL    HW229778   3.686   4.416   6.780
 9627SOL     OW29779   7.022   5.906   4.509
 9627SOL    HW129780   0.005   6.003   4.532
 9627SOL    HW229781   0.055   5.889   4.428
 9628SOL     OW29782   4.958   4.760   0.147
 9628SOL    HW129783   4.935   4.666   0.172
 9628SOL    HW229784   4.886   4.797   0.089
 9629SOL     OW29785   0.173   6.811   1.952
 9629SOL    HW129786   0.251   6.873   1.959
 9629SOL    HW229787   0.177   6.745   2.027
 9630SOL     OW29788   6.525   0.195   5.108
 9630SOL    HW129789   6.583   0.113   5.106
 9630SOL    HW229790   6.475   0.203   5.021
 9631SOL     OW29791   0.014   6.692   6.578
 9631SOL    HW129792   0.022   6.770   6.641
 9631SOL    HW229793   0.067   6.615   6.614
 9632SOL     OW29794   0.912   0.004   3.350
 9632SOL    HW129795   0.877   6.940   3.384
 9632SOL    HW229796   1.012   0.005   3.360
 9633SOL     OW29797   5.364   4.776   5.785
 9633SOL    HW129798   5.309   4.850   5.823
 9633SOL    HW229799   5.424   4.812   5.713
 9634SOL     OW29800   1.295   5.418   4.097
 9634SOL    HW129801   1.215   5.389   4.045
 9634SOL    HW229802   1.358   5.342   4.107
 9635SOL     OW29803   1.969   4.537   5.398
 9635SOL    HW129804   1.883   4.493   5.374
 9635SOL    HW229805   1.971   4.629   5.360
 9636SOL     OW29806   4.128   1.828   5.715
 9636SOL    HW129807   4.071   1.900   5.677
 9636SOL    HW229808   4.214   1.867   5.748
 9637SOL     OW29809   2.181   2.046   6.414
 9637SOL    HW129810   2.086   2.016   6.427
 9637SOL    HW229811   2.193   2.076   6.319
 9638SOL     OW29812   6.740   3.319   6.709
 9638SOL    HW129813   6.667   3.293   6.773
 9638SOL    HW229814   6.724   3.412   6.676
 9639SOL     OW29815   3.331   1.493   2.170
 9639SOL    HW129816   3.369   1.481   2.079
 9639SOL    HW229817   3.279   1.411   2.195
 9640SOL     OW29818   2.270   2.774   3.351
 9640SOL    HW129819   2.215   2.719   3.288
 9640SOL    HW229820   2.305   2.855   3.304
 9641SOL     OW29821   4.207   6.392   1.143
 9641SOL    HW129822   4.225   6.461   1.213
 9641SOL    HW229823   4.109   6.370   1.143
 9642SOL     OW29824   3.380   6.673   5.006
 9642SOL    HW129825   3.442   6.739   4.963
 9642SOL    HW229826   3.320   6.634   4.936
 9643SOL     OW29827   5.136   5.235   4.136
 9643SOL    HW129828   5.192   5.225   4.218
 9643SOL    HW229829   5.189   5.210   4.055
 9644SOL     OW29830   1.328   4.246   5.445
 9644SOL    HW129831   1.413   4.297   5.458
 9644SOL    HW229832   1.349   4.152   5.422
 9645SOL     OW29833   3.573   5.422   3.490
 9645SOL    HW129834   3.533   5.464   3.572
 9645SOL    HW229835   3.619   5.337   3.516
 9646SOL     OW29836   2.894   4.795   2.194
 9646SOL    HW129837   2.860   4.719   2.138
 9646SOL    HW229838   2.884   4.773   2.291
 9647SOL     OW29839   5.782   5.234   1.328
 9647SOL    HW129840   5.850   5.163   1.311
 9647SOL    HW229841   5.702   5.193   1.372
 9648SOL     OW29842   4.104   1.530   0.048
 9648SOL    HW129843   4.078   1.559   6.979
 9648SOL    HW229844   4.040   1.569   0.115
 9649SOL     OW29845   2.809   6.520   6.925
 9649SOL    HW129846   2.771   6.563   7.007
 9649SOL    HW229847   2.876   6.581   6.883
 9650SOL     OW29848   5.709   4.924   2.577
 9650SOL    HW129849   5.696   4.857   2.503
 9650SOL    HW229850   5.787   4.897   2.633
 9651SOL     OW29851   6.864   0.731   6.250
 9651SOL    HW129852   6.821   0.821   6.246
 9651SOL    HW229853   6.876   0.696   6.157
 9652SOL     OW29854   2.219   4.742   0.832
 9652SOL    HW129855   2.265   4.769   0.917
 9652SOL    HW229856   2.144   4.679   0.854
 9653SOL     OW29857   4.055   5.461   4.614
 9653SOL    HW129858   4.026   5.496   4.525
 9653SOL    HW229859   3.979   5.464   4.678
 9654SOL     OW29860   3.242   3.355   1.407
 9654SOL    HW129861   3.294   3.441   1.407
 9654SOL    HW229862   3.243   3.316   1.499
 9655SOL     OW29863   6.876   1.782   6.820
 9655SOL    HW129864   6.932   1.813   6.743
 9655SOL    HW229865   6.783   1.815   6.809
 9656SOL     OW29866   2.770   2.093   0.924
 9656SOL    HW129867   2.729   2.184   0.911
 9656SOL    HW229868   2.698   2.024   0.918
 9657SOL     OW29869   6.396   0.836   4.034
 9657SOL    HW129870   6.475   0.776   4.046
 9657SOL    HW229871   6.335   0.797   3.965
 9658SOL     OW29872   6.078   2.245   2.832
 9658SOL    HW129873   6.011   2.226   2.904
 9658SOL    HW229874   6.143   2.169   2.826
 9659SOL     OW29875   6.182   4.300   0.544
 9659SOL    HW129876   6.123   4.360   0.599
 9659SOL    HW229877   6.156   4.308   0.447
 9660SOL     OW29878   0.830   5.881   0.459
 9660SOL    HW129879   0.808   5.818   0.385
 9660SOL    HW229880   0.922   5.863   0.493
 9661SOL     OW29881   3.443   6.584   2.087
 9661SOL    HW129882   3.374   6.551   2.152
 9661SOL    HW229883   3.407   6.664   2.038
 9662SOL     OW29884   5.854   2.341   5.288
 9662SOL    HW129885   5.763   2.300   5.292
 9662SOL    HW229886   5.845   2.440   5.276
 9663SOL     OW29887   0.871   5.578   4.273
 9663SOL    HW129888   0.853   5.488   4.313
 9663SOL    HW229889   0.805   5.596   4.200
 9664SOL     OW29890   6.356   6.724   3.479
 9664SOL    HW129891   6.375   6.822   3.485
 9664SOL    HW229892   6.425   6.681   3.421
 9665SOL     OW29893   5.550   5.695   5.637
 9665SOL    HW129894   5.591   5.784   5.620
 9665SOL    HW229895   5.526   5.652   5.550
 9666SOL     OW29896   5.529   4.291   2.349
 9666SOL    HW129897   5.477   4.223   2.401
 9666SOL    HW229898   5.624   4.291   2.380
 9667SOL     OW29899   3.273   2.925   4.147
 9667SOL    HW129900   3.222   2.962   4.226
 9667SOL    HW229901   3.212   2.919   4.068
 9668SOL     OW29902   6.048   0.994   6.894
 9668SOL    HW129903   6.045   1.081   6.845
 9668SOL    HW229904   6.070   1.010   6.990
 9669SOL     OW29905   1.006   0.411   1.710
 9669SOL    HW129906   0.911   0.383   1.697
 9669SOL    HW229907   1.067   0.341   1.671
 9670SOL     OW29908   5.044   4.969   6.109
 9670SOL    HW129909   5.080   4.974   6.202
 9670SOL    HW229910   4.974   4.898   6.103
 9671SOL     OW29911   0.648   5.460   6.360
 9671SOL    HW129912   0.620   5.488   6.268
 9671SOL    HW229913   0.570   5.468   6.422
 9672SOL     OW29914   1.290   6.391   4.738
 9672SOL    HW129915   1.333   6.350   4.657
 9672SOL    HW229916   1.349   6.377   4.817
 9673SOL     OW29917   4.979   4.200   0.052
 9673SOL    HW129918   5.012   4.287   0.090
 9673SOL    HW229919   5.045   4.166   7.008
 9674SOL     OW29920   2.598   6.369   3.386
 9674SOL    HW129921   2.627   6.364   3.290
 9674SOL    HW229922   2.673   6.403   3.442
 9675SOL     OW29923   5.605   1.697   1.115
 9675SOL    HW129924   5.620   1.773   1.179
 9675SOL    HW229925   5.686   1.686   1.058
 9676SOL     OW29926   1.355   3.378   5.770
 9676SOL    HW129927   1.361   3.417   5.862
 9676SOL    HW229928   1.437   3.324   5.752
 9677SOL     OW29929   2.681   5.223   5.820
 9677SOL    HW129930   2.612   5.228   5.748
 9677SOL    HW229931   2.688   5.129   5.853
 9678SOL     OW29932   3.287   3.744   2.447
 9678SOL    HW129933   3.229   3.746   2.366
 9678SOL    HW229934   3.264   3.822   2.506
 9679SOL     OW29935   1.644   1.612   2.301
 9679SOL    HW129936   1.649   1.541   2.231
 9679SOL    HW229937   1.600   1.576   2.383
 9680SOL     OW29938   6.369   0.436   4.129
 9680SOL    HW129939   6.275   0.423   4.161
 9680SOL    HW229940   6.419   0.492   4.195
 9681SOL     OW29941   2.850   1.393   0.791
 9681SOL    HW129942   2.779   1.446   0.745
 9681SOL    HW229943   2.825   1.378   0.886
 9682SOL     OW29944   4.877   5.144   3.846
 9682SOL    HW129945   4.960   5.122   3.795
 9682SOL    HW229946   4.800   5.154   3.782
 9683SOL     OW29947   3.186   4.884   0.544
 9683SOL    HW129948   3.119   4.849   0.479
 9683SOL    HW229949   3.244   4.809   0.576
 9684SOL     OW29950   0.150   2.609   5.068
 9684SOL    HW129951   0.199   2.618   4.982
 9684SOL    HW229952   0.108   2.519   5.074
 9685SOL     OW29953   2.212   3.335   0.850
 9685SOL    HW129954   2.298   3.289   0.871
 9685SOL    HW229955   2.208   3.423   0.897
 9686SOL     OW29956   5.720   2.010   0.990
 9686SOL    HW129957   5.768   2.098   0.987
 9686SOL    HW229958   5.784   1.936   0.969
 9687SOL     OW29959   2.351   0.655   4.242
 9687SOL    HW129960   2.447   0.667   4.218
 9687SOL    HW229961   2.296   0.657   4.159
 9688SOL     OW29962   6.991   2.264   3.773
 9688SOL    HW129963   6.901   2.278   3.732
 9688SOL    HW229964   0.033   2.330   3.735
 9689SOL     OW29965   2.105   6.182   1.180
 9689SOL    HW129966   2.173   6.237   1.229
 9689SOL    HW229967   2.144   6.092   1.159
 9690SOL     OW29968   5.590   5.532   6.499
 9690SOL    HW129969   5.571   5.481   6.583
 9690SOL    HW229970   5.510   5.527   6.439
 9691SOL     OW29971   2.513   4.385   1.615
 9691SOL    HW129972   2.572   4.418   1.541
 9691SOL    HW229973   2.426   4.353   1.577
 9692SOL     OW29974   2.745   4.866   2.769
 9692SOL    HW129975   2.810   4.909   2.707
 9692SOL    HW229976   2.782   4.866   2.862
 9693SOL     OW29977   6.246   5.256   1.807
 9693SOL    HW129978   6.302   5.174   1.793
 9693SOL    HW229979   6.227   5.299   1.719
 9694SOL     OW29980   2.493   1.295   6.026
 9694SOL    HW129981   2.421   1.255   5.970
 9694SOL    HW229982   2.551   1.222   6.062
 9695SOL     OW29983   6.791   3.909   1.452
 9695SOL    HW129984   6.742   3.871   1.373
 9695SOL    HW229985   6.735   3.980   1.494
 9696SOL     OW29986   5.092   2.374   1.053
 9696SOL    HW129987   5.082   2.383   0.954
 9696SOL    HW229988   5.013   2.326   1.091
 9697SOL     OW29989   6.866   5.500   6.814
 9697SOL    HW129990   6.836   5.584   6.859
 9697SOL    HW229991   6.794   5.466   6.754
 9698SOL     OW29992   5.523   1.129   6.119
 9698SOL    HW129993   5.480   1.165   6.202
 9698SOL    HW229994   5.504   1.191   6.043
 9699SOL     OW29995   0.122   4.591   6.507
 9699SOL    HW129996   0.100   4.507   6.555
 9699SOL    HW229997   0.064   4.600   6.426
 9700SOL     OW29998   4.098   5.516   5.133
 9700SOL    HW129999   4.183   5.545   5.090
 9700SOL    HW230000   4.111   5.509   5.232
 9701SOL     OW30001   3.569   5.430   4.582
 9701SOL    HW130002   3.585   5.339   4.544
 9701SOL    HW230003   3.647   5.489   4.561
 9702SOL     OW30004   5.915   0.323   0.250
 9702SOL    HW130005   5.838   0.265   0.222
 9702SOL    HW230006   5.916   0.331   0.349
 9703SOL     OW30007   3.938   5.646   3.577
 9703SOL    HW130008   3.869   5.718   3.570
 9703SOL    HW230009   3.903   5.572   3.636
 9704SOL     OW30010   3.174   1.267   2.133
 9704SOL    HW130011   3.202   1.172   2.146
 9704SOL    HW230012   3.171   1.289   2.036
 9705SOL     OW30013   5.217   5.848   0.645
 9705SOL    HW130014   5.311   5.881   0.641
 9705SOL    HW230015   5.203   5.797   0.730
 9706SOL     OW30016   0.950   2.691   0.785
 9706SOL    HW130017   0.862   2.737   0.797
 9706SOL    HW230018   0.978   2.651   0.872
 9707SOL     OW30019   6.587   4.108   1.555
 9707SOL    HW130020   6.494   4.117   1.589
 9707SOL    HW230021   6.601   4.170   1.478
 9708SOL     OW30022   1.480   2.130   3.127
 9708SOL    HW130023   1.484   2.160   3.222
 9708SOL    HW230024   1.546   2.182   3.072
 9709SOL     OW30025   6.278   5.682   2.867
 9709SOL    HW130026   6.204   5.615   2.874
 9709SOL    HW230027   6.333   5.680   2.951
 9710SOL     OW30028   0.683   1.650   2.465
 9710SOL    HW130029   0.650   1.686   2.552
 9710SOL    HW230030   0.703   1.725   2.402
 9711SOL     OW30031   1.520   3.004   5.740
 9711SOL    HW130032   1.534   3.077   5.674
 9711SOL    HW230033   1.509   3.044   5.831
 9712SOL     OW30034   5.391   3.895   5.411
 9712SOL    HW130035   5.436   3.864   5.327
 9712SOL    HW230036   5.455   3.890   5.487
 9713SOL     OW30037   1.133   4.558   3.666
 9713SOL    HW130038   1.052   4.588   3.615
 9713SOL    HW230039   1.105   4.500   3.742
 9714SOL     OW30040   2.166   1.639   1.472
 9714SOL    HW130041   2.142   1.590   1.389
 9714SOL    HW230042   2.247   1.695   1.455
 9715SOL     OW30043   6.230   4.632   5.259
 9715SOL    HW130044   6.131   4.617   5.254
 9715SOL    HW230045   6.265   4.651   5.167
 9716SOL     OW30046   4.134   2.628   6.862
 9716SOL    HW130047   4.149   2.613   6.960
 9716SOL    HW230048   4.056   2.689   6.849
 9717SOL     OW30049   6.039   5.416   5.996
 9717SOL    HW130050   6.117   5.399   6.056
 9717SOL    HW230051   5.960   5.445   6.050
 9718SOL     OW30052   4.915   2.898   1.858
 9718SOL    HW130053   4.849   2.943   1.918
 9718SOL    HW230054   4.990   2.961   1.838
 9719SOL     OW30055   0.433   2.134   7.019
 9719SOL    HW130056   0.389   2.076   0.064
 9719SOL    HW230057   0.514   2.088   6.983
 9720SOL     OW30058   0.581   5.792   1.625
 9720SOL    HW130059   0.629   5.835   1.701
 9720SOL    HW230060   0.483   5.791   1.644
 9721SOL     OW30061   0.753   2.848   1.338
 9721SOL    HW130062   0.655   2.869   1.339
 9721SOL    HW230063   0.766   2.752   1.365
 9722SOL     OW30064   0.338   6.988   3.540
 9722SOL    HW130065   0.380   7.013   3.453
 9722SOL    HW230066   0.410   6.971   3.607
 9723SOL     OW30067   2.064   5.995   3.506
 9723SOL    HW130068   2.035   6.055   3.432
 9723SOL    HW230069   2.119   5.920   3.470
 9724SOL     OW30070   2.702   3.126   0.779
 9724SOL    HW130071   2.672   3.122   0.874
 9724SOL    HW230072   2.726   3.220   0.755
 9725SOL     OW30073   4.036   3.525   6.662
 9725SOL    HW130074   4.130   3.536   6.694
 9725SOL    HW230075   4.032   3.449   6.597
 9726SOL     OW30076   4.425   6.813   4.197
 9726SOL    HW130077   4.376   6.732   4.229
 9726SOL    HW230078   4.513   6.820   4.245
 9727SOL     OW30079   0.828   3.796   5.139
 9727SOL    HW130080   0.825   3.813   5.238
 9727SOL    HW230081   0.736   3.782   5.104
 9728SOL     OW30082   0.759   6.937   6.352
 9728SOL    HW130083   0.688   6.893   6.408
 9728SOL    HW230084   0.735   6.927   6.256
 9729SOL     OW30085   0.758   4.532   2.158
 9729SOL    HW130086   0.763   4.631   2.172
 9729SOL    HW230087   0.805   4.508   2.073
 9730SOL     OW30088   0.173   3.619   2.685
 9730SOL    HW130089   0.187   3.536   2.738
 9730SOL    HW230090   0.106   3.602   2.613
 9731SOL     OW30091   4.382   4.342   0.633
 9731SOL    HW130092   4.298   4.365   0.584
 9731SOL    HW230093   4.414   4.252   0.605
 9732SOL     OW30094   5.087   5.845   3.129
 9732SOL    HW130095   5.029   5.880   3.202
 9732SOL    HW230096   5.181   5.878   3.143
 9733SOL     OW30097   5.315   5.205   5.896
 9733SOL    HW130098   5.367   5.244   5.820
 9733SOL    HW230099   5.228   5.253   5.905
 9734SOL     OW30100   4.979   1.972   3.580
 9734SOL    HW130101   4.995   1.988   3.482
 9734SOL    HW230102   4.956   2.058   3.625
 9735SOL     OW30103   1.688   4.380   2.608
 9735SOL    HW130104   1.764   4.400   2.546
 9735SOL    HW230105   1.686   4.282   2.627
 9736SOL     OW30106   6.216   1.520   5.986
 9736SOL    HW130107   6.273   1.600   5.968
 9736SOL    HW230108   6.133   1.526   5.932
 9737SOL     OW30109   6.223   3.327   5.117
 9737SOL    HW130110   6.155   3.286   5.177
 9737SOL    HW230111   6.314   3.316   5.158
 9738SOL     OW30112   1.414   0.314   3.172
 9738SOL    HW130113   1.444   0.257   3.249
 9738SOL    HW230114   1.492   0.366   3.137
 9739SOL     OW30115   7.002   5.317   1.633
 9739SOL    HW130116   0.066   5.269   1.617
 9739SOL    HW230117   6.947   5.265   1.699
 9740SOL     OW30118   6.977   3.411   3.526
 9740SOL    HW130119   6.913   3.481   3.557
 9740SOL    HW230120   0.043   3.426   3.570
 9741SOL     OW30121   4.419   1.376   2.453
 9741SOL    HW130122   4.336   1.323   2.437
 9741SOL    HW230123   4.443   1.427   2.370
 9742SOL     OW30124   4.262   0.045   2.700
 9742SOL    HW130125   4.316   0.111   2.752
 9742SOL    HW230126   4.305   0.031   2.611
 9743SOL     OW30127   1.642   2.202   4.550
 9743SOL    HW130128   1.722   2.200   4.609
 9743SOL    HW230129   1.578   2.131   4.577
 9744SOL     OW30130   6.977   6.861   2.578
 9744SOL    HW130131   6.892   6.815   2.551
 9744SOL    HW230132   0.022   6.793   2.604
 9745SOL     OW30133   6.937   2.611   6.026
 9745SOL    HW130134   6.956   2.653   5.937
 9745SOL    HW230135   6.996   2.652   6.095
 9746SOL     OW30136   5.830   1.684   6.222
 9746SOL    HW130137   5.765   1.695   6.297
 9746SOL    HW230138   5.781   1.691   6.135
 9747SOL     OW30139   1.802   0.862   1.380
 9747SOL    HW130140   1.740   0.901   1.448
 9747SOL    HW230141   1.820   0.766   1.403
 9748SOL     OW30142   1.397   1.036   4.343
 9748SOL    HW130143   1.390   1.092   4.260
 9748SOL    HW230144   1.359   1.086   4.421
 9749SOL     OW30145   2.166   2.078   5.098
 9749SOL    HW130146   2.211   1.991   5.115
 9749SOL    HW230147   2.073   2.062   5.063
 9750SOL     OW30148   4.661   5.182   3.695
 9750SOL    HW130149   4.703   5.247   3.631
 9750SOL    HW230150   4.579   5.224   3.736
 9751SOL     OW30151   2.039   1.738   0.460
 9751SOL    HW130152   1.939   1.745   0.458
 9751SOL    HW230153   2.078   1.808   0.401
 9752SOL     OW30154   4.558   0.930   0.070
 9752SOL    HW130155   4.487   0.866   0.041
 9752SOL    HW230156   4.558   0.936   0.170
 9753SOL     OW30157   5.792   5.806   4.860
 9753SOL    HW130158   5.870   5.760   4.902
 9753SOL    HW230159   5.801   5.805   4.761
 9754SOL     OW30160   1.042   1.700   0.239
 9754SOL    HW130161   1.067   1.628   0.173
 9754SOL    HW230162   0.950   1.682   0.274
 9755SOL     OW30163   4.198   3.474   5.093
 9755SOL    HW130164   4.162   3.504   5.181
 9755SOL    HW230165   4.295   3.454   5.102
 9756SOL     OW30166   6.198   3.195   0.312
 9756SOL    HW130167   6.243   3.232   0.231
 9756SOL    HW230168   6.249   3.116   0.345
 9757SOL     OW30169   5.441   3.030   3.252
 9757SOL    HW130170   5.386   2.972   3.191
 9757SOL    HW230171   5.381   3.073   3.319
 9758SOL     OW30172   2.067   6.735   6.396
 9758SOL    HW130173   2.041   6.706   6.304
 9758SOL    HW230174   2.160   6.705   6.415
 9759SOL     OW30175   2.302   6.563   0.373
 9759SOL    HW130176   2.368   6.630   0.407
 9759SOL    HW230177   2.225   6.556   0.437
 9760SOL     OW30178   4.764   3.634   5.453
 9760SOL    HW130179   4.669   3.639   5.423
 9760SOL    HW230180   4.775   3.560   5.519
 9761SOL     OW30181   6.117   6.235   2.165
 9761SOL    HW130182   6.137   6.329   2.140
 9761SOL    HW230183   6.023   6.213   2.139
 9762SOL     OW30184   2.653   2.281   4.858
 9762SOL    HW130185   2.739   2.239   4.886
 9762SOL    HW230186   2.630   2.253   4.765
 9763SOL     OW30187   4.190   2.422   1.786
 9763SOL    HW130188   4.191   2.364   1.705
 9763SOL    HW230189   4.111   2.398   1.843
 9764SOL     OW30190   0.963   2.458   3.163
 9764SOL    HW130191   0.940   2.545   3.207
 9764SOL    HW230192   1.045   2.470   3.108
 9765SOL     OW30193   6.508   2.319   4.512
 9765SOL    HW130194   6.526   2.258   4.589
 9765SOL    HW230195   6.579   2.309   4.443
 9766SOL     OW30196   2.412   0.733   2.842
 9766SOL    HW130197   2.417   0.643   2.799
 9766SOL    HW230198   2.323   0.744   2.887
 9767SOL     OW30199   5.219   1.765   5.382
 9767SOL    HW130200   5.130   1.749   5.424
 9767SOL    HW230201   5.215   1.847   5.325
 9768SOL     OW30202   4.740   1.735   1.939
 9768SOL    HW130203   4.816   1.797   1.922
 9768SOL    HW230204   4.749   1.654   1.881
 9769SOL     OW30205   1.818   1.573   1.876
 9769SOL    HW130206   1.903   1.559   1.928
 9769SOL    HW230207   1.796   1.670   1.875
 9770SOL     OW30208   5.992   6.989   6.803
 9770SOL    HW130209   5.986   6.889   6.799
 9770SOL    HW230210   5.918   0.001   6.860
 9771SOL     OW30211   3.866   4.627   1.466
 9771SOL    HW130212   3.857   4.627   1.566
 9771SOL    HW230213   3.790   4.679   1.426
 9772SOL     OW30214   0.718   6.464   1.806
 9772SOL    HW130215   0.650   6.424   1.868
 9772SOL    HW230216   0.756   6.547   1.847
 9773SOL     OW30217   5.317   6.755   4.263
 9773SOL    HW130218   5.400   6.753   4.207
 9773SOL    HW230219   5.243   6.798   4.211
 9774SOL     OW30220   6.325   5.042   2.199
 9774SOL    HW130221   6.256   5.072   2.133
 9774SOL    HW230222   6.280   4.994   2.274
 9775SOL     OW30223   2.920   1.371   4.062
 9775SOL    HW130224   2.846   1.308   4.083
 9775SOL    HW230225   2.898   1.424   3.980
 9776SOL     OW30226   6.830   5.682   4.476
 9776SOL    HW130227   6.867   5.775   4.479
 9776SOL    HW230228   6.871   5.627   4.549
 9777SOL     OW30229   5.444   5.116   6.148
 9777SOL    HW130230   5.495   5.031   6.152
 9777SOL    HW230231   5.393   5.121   6.061
 9778SOL     OW30232   6.483   0.389   3.881
 9778SOL    HW130233   6.450   0.413   3.972
 9778SOL    HW230234   6.442   0.451   3.814
 9779SOL     OW30235   2.603   1.840   4.893
 9779SOL    HW130236   2.518   1.892   4.900
 9779SOL    HW230237   2.606   1.792   4.805
 9780SOL     OW30238   2.027   1.878   0.845
 9780SOL    HW130239   2.078   1.964   0.853
 9780SOL    HW230240   2.079   1.814   0.788
 9781SOL     OW30241   1.931   4.137   3.545
 9781SOL    HW130242   1.984   4.164   3.465
 9781SOL    HW230243   1.972   4.177   3.627
 9782SOL     OW30244   0.059   0.825   1.683
 9782SOL    HW130245   0.017   0.848   1.595
 9782SOL    HW230246   0.113   0.741   1.673
 9783SOL     OW30247   4.987   1.603   1.783
 9783SOL    HW130248   5.011   1.700   1.794
 9783SOL    HW230249   4.902   1.596   1.731
 9784SOL     OW30250   5.025   1.089   3.993
 9784SOL    HW130251   5.111   1.040   3.978
 9784SOL    HW230252   4.950   1.039   3.950
 9785SOL     OW30253   0.158   4.143   4.649
 9785SOL    HW130254   0.109   4.210   4.703
 9785SOL    HW230255   0.226   4.096   4.706
 9786SOL     OW30256   1.932   4.950   6.113
 9786SOL    HW130257   1.872   4.896   6.172
 9786SOL    HW230258   1.896   5.043   6.105
 9787SOL     OW30259   5.155   3.842   1.164
 9787SOL    HW130260   5.249   3.834   1.196
 9787SOL    HW230261   5.136   3.937   1.139
 9788SOL     OW30262   0.655   0.704   3.887
 9788SOL    HW130263   0.623   0.667   3.974
 9788SOL    HW230264   0.741   0.661   3.862
 9789SOL     OW30265   2.412   6.240   6.649
 9789SOL    HW130266   2.470   6.180   6.703
 9789SOL    HW230267   2.378   6.191   6.569
 9790SOL     OW30268   5.589   3.547   5.305
 9790SOL    HW130269   5.549   3.613   5.241
 9790SOL    HW230270   5.584   3.455   5.266
 9791SOL     OW30271   0.826   0.613   2.880
 9791SOL    HW130272   0.768   0.567   2.947
 9791SOL    HW230273   0.784   0.605   2.790
 9792SOL     OW30274   4.905   5.245   1.615
 9792SOL    HW130275   4.814   5.205   1.627
 9792SOL    HW230276   4.961   5.226   1.695
 9793SOL     OW30277   5.927   5.678   3.092
 9793SOL    HW130278   5.907   5.581   3.075
 9793SOL    HW230279   5.869   5.735   3.034
 9794SOL     OW30280   6.172   3.510   6.421
 9794SOL    HW130281   6.194   3.534   6.516
 9794SOL    HW230282   6.095   3.447   6.420
 9795SOL     OW30283   1.113   2.649   4.077
 9795SOL    HW130284   1.100   2.627   3.981
 9795SOL    HW230285   1.199   2.697   4.090
 9796SOL     OW30286   3.265   4.044   0.920
 9796SOL    HW130287   3.172   4.073   0.896
 9796SOL    HW230288   3.273   3.945   0.906
 9797SOL     OW30289   3.776   3.720   6.965
 9797SOL    HW130290   3.827   3.802   6.937
 9797SOL    HW230291   3.699   3.747   0.001
 9798SOL     OW30292   2.273   0.383   0.665
 9798SOL    HW130293   2.234   0.371   0.574
 9798SOL    HW230294   2.290   0.480   0.681
 9799SOL     OW30295   3.222   3.338   2.715
 9799SOL    HW130296   3.282   3.392   2.657
 9799SOL    HW230297   3.181   3.396   2.786
 9800SOL     OW30298   3.869   5.776   5.792
 9800SOL    HW130299   3.808   5.718   5.738
 9800SOL    HW230300   3.902   5.851   5.735
 9801SOL     OW30301   4.086   5.055   0.123
 9801SOL    HW130302   4.153   5.042   0.051
 9801SOL    HW230303   4.039   4.969   0.142
 9802SOL     OW30304   6.952   2.952   1.989
 9802SOL    HW130305   6.954   3.047   1.958
 9802SOL    HW230306   6.889   2.944   2.066
 9803SOL     OW30307   6.417   0.663   6.922
 9803SOL    HW130308   6.329   0.700   6.893
 9803SOL    HW230309   6.411   0.564   6.931
 9804SOL     OW30310   0.236   5.412   3.749
 9804SOL    HW130311   0.252   5.330   3.694
 9804SOL    HW230312   0.150   5.401   3.800
 9805SOL     OW30313   1.360   5.547   6.990
 9805SOL    HW130314   1.336   5.642   6.969
 9805SOL    HW230315   1.390   5.541   0.063
 9806SOL     OW30316   0.746   2.065   1.254
 9806SOL    HW130317   0.823   2.077   1.317
 9806SOL    HW230318   0.665   2.109   1.293
 9807SOL     OW30319   2.799   2.464   6.859
 9807SOL    HW130320   2.847   2.552   6.854
 9807SOL    HW230321   2.707   2.474   6.820
 9808SOL     OW30322   5.698   0.664   5.857
 9808SOL    HW130323   5.612   0.627   5.822
 9808SOL    HW230324   5.715   0.629   5.949
 9809SOL     OW30325   0.471   2.029   6.202
 9809SOL    HW130326   0.533   2.105   6.225
 9809SOL    HW230327   0.377   2.062   6.201
 9810SOL     OW30328   2.832   2.302   3.053
 9810SOL    HW130329   2.742   2.289   3.095
 9810SOL    HW230330   2.889   2.221   3.070
 9811SOL     OW30331   6.170   5.926   3.817
 9811SOL    HW130332   6.157   6.024   3.802
 9811SOL    HW230333   6.083   5.878   3.806
 9812SOL     OW30334   3.870   2.317   6.343
 9812SOL    HW130335   3.837   2.278   6.257
 9812SOL    HW230336   3.809   2.289   6.417
 9813SOL     OW30337   5.895   5.954   6.909
 9813SOL    HW130338   5.869   5.916   6.821
 9813SOL    HW230339   5.839   6.034   6.930
 9814SOL     OW30340   0.167   0.633   6.214
 9814SOL    HW130341   0.143   0.716   6.266
 9814SOL    HW230342   0.154   0.651   6.116
 9815SOL     OW30343   6.620   1.881   1.465
 9815SOL    HW130344   6.639   1.979   1.466
 9815SOL    HW230345   6.644   1.843   1.375
 9816SOL     OW30346   6.527   1.140   6.841
 9816SOL    HW130347   6.480   1.055   6.863
 9816SOL    HW230348   6.577   1.128   6.755
 9817SOL     OW30349   2.830   5.963   1.878
 9817SOL    HW130350   2.830   6.058   1.910
 9817SOL    HW230351   2.893   5.953   1.802
 9818SOL     OW30352   1.928   1.363   3.682
 9818SOL    HW130353   1.908   1.459   3.664
 9818SOL    HW230354   1.942   1.316   3.595
 9819SOL     OW30355   5.460   3.856   4.828
 9819SOL    HW130356   5.364   3.830   4.841
 9819SOL    HW230357   5.492   3.823   4.739
 9820SOL     OW30358   2.858   2.443   6.412
 9820SOL    HW130359   2.857   2.354   6.368
 9820SOL    HW230360   2.788   2.445   6.484
 9821SOL     OW30361   4.269   2.107   1.187
 9821SOL    HW130362   4.186   2.119   1.241
 9821SOL    HW230363   4.324   2.033   1.227
 9822SOL     OW30364   3.789   6.420   4.323
 9822SOL    HW130365   3.803   6.325   4.349
 9822SOL    HW230366   3.825   6.480   4.394
 9823SOL     OW30367   1.489   0.735   2.131
 9823SOL    HW130368   1.464   0.708   2.038
 9823SOL    HW230369   1.559   0.807   2.126
 9824SOL     OW30370   2.663   5.909   5.469
 9824SOL    HW130371   2.658   5.991   5.526
 9824SOL    HW230372   2.664   5.828   5.527
 9825SOL     OW30373   5.534   5.894   4.736
 9825SOL    HW130374   5.610   5.838   4.769
 9825SOL    HW230375   5.458   5.889   4.800
 9826SOL     OW30376   3.390   6.607   5.540
 9826SOL    HW130377   3.422   6.520   5.576
 9826SOL    HW230378   3.307   6.593   5.485
 9827SOL     OW30379   2.080   5.380   2.739
 9827SOL    HW130380   2.039   5.296   2.777
 9827SOL    HW230381   2.165   5.357   2.692
 9828SOL     OW30382   3.650   2.138   5.117
 9828SOL    HW130383   3.567   2.134   5.173
 9828SOL    HW230384   3.647   2.218   5.058
 9829SOL     OW30385   5.408   6.536   6.037
 9829SOL    HW130386   5.446   6.534   6.130
 9829SOL    HW230387   5.340   6.464   6.028
 9830SOL     OW30388   5.552   1.313   2.442
 9830SOL    HW130389   5.533   1.248   2.515
 9830SOL    HW230390   5.648   1.306   2.415
 9831SOL     OW30391   0.178   4.362   1.857
 9831SOL    HW130392   0.100   4.304   1.832
 9831SOL    HW230393   0.196   4.353   1.955
 9832SOL     OW30394   5.017   4.828   4.447
 9832SOL    HW130395   4.996   4.788   4.536
 9832SOL    HW230396   5.114   4.855   4.445
 9833SOL     OW30397   3.381   4.146   3.485
 9833SOL    HW130398   3.308   4.077   3.482
 9833SOL    HW230399   3.397   4.181   3.393
 9834SOL     OW30400   2.430   5.259   5.647
 9834SOL    HW130401   2.381   5.172   5.656
 9834SOL    HW230402   2.470   5.266   5.556
 9835SOL     OW30403   3.930   3.969   3.960
 9835SOL    HW130404   4.030   3.973   3.960
 9835SOL    HW230405   3.894   4.016   4.040
 9836SOL     OW30406   0.926   4.485   5.428
 9836SOL    HW130407   0.917   4.503   5.330
 9836SOL    HW230408   1.008   4.531   5.463
 9837SOL     OW30409   5.522   2.120   2.257
 9837SOL    HW130410   5.613   2.159   2.242
 9837SOL    HW230411   5.480   2.100   2.168
 9838SOL     OW30412   1.346   6.451   1.100
 9838SOL    HW130413   1.430   6.472   1.051
 9838SOL    HW230414   1.271   6.504   1.062
 9839SOL     OW30415   4.837   0.949   3.830
 9839SOL    HW130416   4.747   0.924   3.795
 9839SOL    HW230417   4.898   0.870   3.825
 9840SOL     OW30418   5.095   1.400   6.949
 9840SOL    HW130419   5.184   1.426   6.985
 9840SOL    HW230420   5.025   1.414   7.020
 9841SOL     OW30421   0.194   5.262   3.350
 9841SOL    HW130422   0.178   5.214   3.437
 9841SOL    HW230423   0.293   5.270   3.335
 9842SOL     OW30424   3.767   3.181   0.446
 9842SOL    HW130425   3.758   3.280   0.454
 9842SOL    HW230426   3.677   3.142   0.425
 9843SOL     OW30427   6.222   0.138   1.733
 9843SOL    HW130428   6.245   0.106   1.641
 9843SOL    HW230429   6.259   0.229   1.748
 9844SOL     OW30430   5.761   0.426   4.597
 9844SOL    HW130431   5.701   0.348   4.578
 9844SOL    HW230432   5.792   0.466   4.511
 9845SOL     OW30433   1.152   2.445   2.304
 9845SOL    HW130434   1.140   2.419   2.399
 9845SOL    HW230435   1.076   2.409   2.249
 9846SOL     OW30436   5.018   1.629   0.749
 9846SOL    HW130437   5.114   1.612   0.769
 9846SOL    HW230438   4.993   1.721   0.779
 9847SOL     OW30439   3.969   2.985   1.934
 9847SOL    HW130440   4.035   3.046   1.891
 9847SOL    HW230441   3.927   2.927   1.864
 9848SOL     OW30442   3.355   4.053   5.470
 9848SOL    HW130443   3.257   4.062   5.454
 9848SOL    HW230444   3.393   3.985   5.408
 9849SOL     OW30445   0.988   0.643   6.627
 9849SOL    HW130446   0.938   0.557   6.624
 9849SOL    HW230447   1.008   0.674   6.534
 9850SOL     OW30448   0.237   0.272   4.273
 9850SOL    HW130449   0.302   0.208   4.231
 9850SOL    HW230450   0.146   0.259   4.232
 9851SOL     OW30451   2.900   5.418   4.763
 9851SOL    HW130452   2.932   5.490   4.703
 9851SOL    HW230453   2.935   5.330   4.732
 9852SOL     OW30454   1.202   2.199   6.314
 9852SOL    HW130455   1.154   2.257   6.381
 9852SOL    HW230456   1.226   2.112   6.357
 9853SOL     OW30457   0.051   4.110   5.029
 9853SOL    HW130458   6.995   4.101   4.968
 9853SOL    HW230459   0.047   4.040   5.100
 9854SOL     OW30460   1.009   5.611   5.585
 9854SOL    HW130461   1.065   5.574   5.511
 9854SOL    HW230462   1.067   5.634   5.662
 9855SOL     OW30463   1.049   3.433   0.796
 9855SOL    HW130464   1.023   3.351   0.847
 9855SOL    HW230465   0.975   3.458   0.734
 9856SOL     OW30466   5.694   5.051   3.831
 9856SOL    HW130467   5.650   5.067   3.919
 9856SOL    HW230468   5.745   4.965   3.835
 9857SOL     OW30469   5.650   2.780   3.187
 9857SOL    HW130470   5.732   2.788   3.130
 9857SOL    HW230471   5.577   2.836   3.148
 9858SOL     OW30472   1.213   6.630   2.241
 9858SOL    HW130473   1.199   6.627   2.340
 9858SOL    HW230474   1.168   6.552   2.198
 9859SOL     OW30475   6.806   5.067   4.546
 9859SOL    HW130476   6.856   5.006   4.607
 9859SOL    HW230477   6.710   5.038   4.542
 9860SOL     OW30478   2.048   2.346   5.053
 9860SOL    HW130479   1.964   2.364   5.104
 9860SOL    HW230480   2.100   2.274   5.099
 9861SOL     OW30481   3.357   1.547   3.605
 9861SOL    HW130482   3.362   1.494   3.690
 9861SOL    HW230483   3.337   1.642   3.626
 9862SOL     OW30484   2.467   4.084   1.296
 9862SOL    HW130485   2.381   4.053   1.338
 9862SOL    HW230486   2.488   4.026   1.218
 9863SOL     OW30487   3.244   5.627   0.896
 9863SOL    HW130488   3.302   5.577   0.832
 9863SOL    HW230489   3.262   5.596   0.989
 9864SOL     OW30490   2.942   6.518   5.474
 9864SOL    HW130491   3.007   6.570   5.528
 9864SOL    HW230492   2.934   6.425   5.511
 9865SOL     OW30493   0.395   6.973   5.212
 9865SOL    HW130494   0.441   7.016   5.134
 9865SOL    HW230495   0.299   7.001   5.214
 9866SOL     OW30496   6.222   4.377   4.748
 9866SOL    HW130497   6.180   4.290   4.772
 9866SOL    HW230498   6.232   4.433   4.831
 9867SOL     OW30499   4.825   2.222   2.338
 9867SOL    HW130500   4.876   2.267   2.411
 9867SOL    HW230501   4.768   2.150   2.376
 9868SOL     OW30502   0.967   4.114   3.489
 9868SOL    HW130503   0.898   4.043   3.497
 9868SOL    HW230504   1.057   4.072   3.473
 9869SOL     OW30505   0.417   2.553   1.329
 9869SOL    HW130506   0.441   2.482   1.395
 9869SOL    HW230507   0.413   2.513   1.237
 9870SOL     OW30508   3.987   1.428   2.052
 9870SOL    HW130509   4.010   1.451   2.146
 9870SOL    HW230510   3.914   1.359   2.052
 9871SOL     OW30511   6.593   2.971   5.636
 9871SOL    HW130512   6.686   2.939   5.651
 9871SOL    HW230513   6.593   3.070   5.622
 9872SOL     OW30514   2.433   5.458   5.091
 9872SOL    HW130515   2.346   5.409   5.081
 9872SOL    HW230516   2.447   5.481   5.187
 9873SOL     OW30517   1.812   2.304   5.861
 9873SOL    HW130518   1.719   2.339   5.878
 9873SOL    HW230519   1.875   2.381   5.855
 9874SOL     OW30520   0.939   2.815   4.390
 9874SOL    HW130521   0.849   2.850   4.366
 9874SOL    HW230522   1.001   2.891   4.408
 9875SOL     OW30523   0.495   6.180   0.937
 9875SOL    HW130524   0.422   6.231   0.891
 9875SOL    HW230525   0.583   6.224   0.918
 9876SOL     OW30526   3.281   0.173   3.461
 9876SOL    HW130527   3.358   0.235   3.442
 9876SOL    HW230528   3.296   0.086   3.414
 9877SOL     OW30529   6.810   4.272   4.413
 9877SOL    HW130530   6.849   4.349   4.364
 9877SOL    HW230531   6.874   4.195   4.413
 9878SOL     OW30532   1.728   3.044   0.097
 9878SOL    HW130533   1.792   2.992   0.153
 9878SOL    HW230534   1.756   3.140   0.095
 9879SOL     OW30535   1.264   4.397   5.977
 9879SOL    HW130536   1.349   4.365   5.935
 9879SOL    HW230537   1.275   4.491   6.007
 9880SOL     OW30538   2.706   1.106   0.154
 9880SOL    HW130539   2.726   1.025   0.099
 9880SOL    HW230540   2.781   1.122   0.218
 9881SOL     OW30541   5.281   0.730   4.640
 9881SOL    HW130542   5.231   0.694   4.562
 9881SOL    HW230543   5.364   0.676   4.655
 9882SOL     OW30544   4.030   3.218   4.710
 9882SOL    HW130545   4.090   3.263   4.644
 9882SOL    HW230546   3.975   3.149   4.663
 9883SOL     OW30547   1.747   5.735   1.994
 9883SOL    HW130548   1.824   5.733   2.058
 9883SOL    HW230549   1.684   5.809   2.020
 9884SOL     OW30550   1.381   3.226   0.179
 9884SOL    HW130551   1.392   3.181   0.268
 9884SOL    HW230552   1.373   3.325   0.193
 9885SOL     OW30553   0.107   3.083   3.619
 9885SOL    HW130554   0.033   3.116   3.677
 9885SOL    HW230555   0.192   3.132   3.641
 9886SOL     OW30556   5.559   6.112   1.686
 9886SOL    HW130557   5.648   6.156   1.676
 9886SOL    HW230558   5.516   6.103   1.597
 9887SOL     OW30559   4.383   6.749   0.440
 9887SOL    HW130560   4.365   6.829   0.496
 9887SOL    HW230561   4.402   6.670   0.499
 9888SOL     OW30562   5.828   5.731   2.551
 9888SOL    HW130563   5.804   5.638   2.577
 9888SOL    HW230564   5.924   5.735   2.525
 9889SOL     OW30565   6.772   4.856   2.961
 9889SOL    HW130566   6.789   4.874   2.864
 9889SOL    HW230567   6.674   4.857   2.978
 9890SOL     OW30568   6.559   2.726   0.651
 9890SOL    HW130569   6.621   2.651   0.675
 9890SOL    HW230570   6.612   2.807   0.627
 9891SOL     OW30571   5.073   5.017   1.134
 9891SOL    HW130572   4.979   5.042   1.158
 9891SOL    HW230573   5.079   5.000   1.036
 9892SOL     OW30574   2.110   4.927   3.700
 9892SOL    HW130575   2.206   4.910   3.724
 9892SOL    HW230576   2.100   4.928   3.601
 9893SOL     OW30577   5.769   5.981   2.599
 9893SOL    HW130578   5.779   6.014   2.505
 9893SOL    HW230579   5.790   5.884   2.603
 9894SOL     OW30580   3.719   1.695   5.976
 9894SOL    HW130581   3.708   1.668   6.072
 9894SOL    HW230582   3.635   1.739   5.944
 9895SOL     OW30583   5.408   1.990   6.566
 9895SOL    HW130584   5.417   2.064   6.633
 9895SOL    HW230585   5.497   1.947   6.553
 9896SOL     OW30586   3.509   3.260   0.810
 9896SOL    HW130587   3.516   3.268   0.910
 9896SOL    HW230588   3.590   3.213   0.775
 9897SOL     OW30589   4.956   1.458   2.896
 9897SOL    HW130590   4.868   1.412   2.909
 9897SOL    HW230591   5.029   1.402   2.934
 9898SOL     OW30592   1.278   4.737   5.323
 9898SOL    HW130593   1.284   4.642   5.292
 9898SOL    HW230594   1.223   4.743   5.406
 9899SOL     OW30595   5.558   4.426   2.047
 9899SOL    HW130596   5.474   4.457   2.003
 9899SOL    HW230597   5.535   4.372   2.128
 9900SOL     OW30598   1.558   2.036   3.586
 9900SOL    HW130599   1.560   1.938   3.568
 9900SOL    HW230600   1.586   2.053   3.681
 9901SOL     OW30601   1.910   1.987   6.413
 9901SOL    HW130602   1.935   1.890   6.412
 9901SOL    HW230603   1.821   1.998   6.455
 9902SOL     OW30604   3.628   3.473   0.716
 9902SOL    HW130605   3.592   3.555   0.761
 9902SOL    HW230606   3.583   3.392   0.753
 9903SOL     OW30607   4.700   1.062   2.291
 9903SOL    HW130608   4.725   1.126   2.363
 9903SOL    HW230609   4.604   1.035   2.303
 9904SOL     OW30610   6.690   3.076   0.055
 9904SOL    HW130611   6.777   3.120   0.032
 9904SOL    HW230612   6.654   3.030   6.997
 9905SOL     OW30613   1.320   6.219   6.860
 9905SOL    HW130614   1.273   6.300   6.896
 9905SOL    HW230615   1.277   6.190   6.775
 9906SOL     OW30616   1.673   2.789   6.261
 9906SOL    HW130617   1.677   2.848   6.342
 9906SOL    HW230618   1.578   2.771   6.237
 9907SOL     OW30619   2.918   5.817   3.309
 9907SOL    HW130620   2.820   5.806   3.321
 9907SOL    HW230621   2.963   5.818   3.399
 9908SOL     OW30622   0.823   3.564   6.292
 9908SOL    HW130623   0.879   3.536   6.215
 9908SOL    HW230624   0.768   3.644   6.266
 9909SOL     OW30625   2.309   1.678   2.700
 9909SOL    HW130626   2.403   1.652   2.681
 9909SOL    HW230627   2.251   1.596   2.699
 9910SOL     OW30628   0.316   4.821   1.037
 9910SOL    HW130629   0.229   4.772   1.042
 9910SOL    HW230630   0.299   4.919   1.026
 9911SOL     OW30631   4.964   4.996   2.469
 9911SOL    HW130632   4.928   4.976   2.560
 9911SOL    HW230633   4.889   5.019   2.408
 9912SOL     OW30634   4.319   0.766   2.316
 9912SOL    HW130635   4.364   0.688   2.274
 9912SOL    HW230636   4.250   0.734   2.381
 9913SOL     OW30637   5.562   2.922   2.399
 9913SOL    HW130638   5.564   2.892   2.494
 9913SOL    HW230639   5.493   2.869   2.349
 9914SOL     OW30640   1.637   0.853   5.431
 9914SOL    HW130641   1.593   0.821   5.347
 9914SOL    HW230642   1.729   0.887   5.410
 9915SOL     OW30643   5.588   3.367   3.899
 9915SOL    HW130644   5.585   3.292   3.833
 9915SOL    HW230645   5.593   3.454   3.851
 9916SOL     OW30646   2.108   3.208   2.735
 9916SOL    HW130647   2.020   3.176   2.769
 9916SOL    HW230648   2.116   3.307   2.750
 9917SOL     OW30649   3.405   3.797   5.084
 9917SOL    HW130650   3.328   3.825   5.027
 9917SOL    HW230651   3.372   3.743   5.161
 9918SOL     OW30652   2.172   1.489   6.476
 9918SOL    HW130653   2.227   1.515   6.556
 9918SOL    HW230654   2.152   1.391   6.480
 9919SOL     OW30655   1.294   5.607   2.595
 9919SOL    HW130656   1.220   5.620   2.529
 9919SOL    HW230657   1.354   5.688   2.595
 9920SOL     OW30658   3.784   6.841   1.756
 9920SOL    HW130659   3.875   6.881   1.758
 9920SOL    HW230660   3.773   6.786   1.674
 9921SOL     OW30661   5.920   7.002   3.327
 9921SOL    HW130662   5.976   0.024   3.397
 9921SOL    HW230663   5.928   0.028   3.241
 9922SOL     OW30664   4.724   4.857   1.106
 9922SOL    HW130665   4.629   4.834   1.129
 9922SOL    HW230666   4.736   4.852   1.007
 9923SOL     OW30667   6.228   2.326   6.380
 9923SOL    HW130668   6.247   2.414   6.337
 9923SOL    HW230669   6.136   2.295   6.354
 9924SOL     OW30670   5.953   1.335   2.617
 9924SOL    HW130671   5.915   1.294   2.534
 9924SOL    HW230672   6.016   1.409   2.591
 9925SOL     OW30673   2.305   3.582   5.566
 9925SOL    HW130674   2.382   3.618   5.513
 9925SOL    HW230675   2.278   3.649   5.635
 9926SOL     OW30676   1.993   1.826   1.127
 9926SOL    HW130677   1.925   1.886   1.168
 9926SOL    HW230678   2.000   1.844   1.029
 9927SOL     OW30679   0.905   2.041   2.434
 9927SOL    HW130680   0.985   1.997   2.475
 9927SOL    HW230681   0.837   1.972   2.410
 9928SOL     OW30682   0.262   4.840   1.733
 9928SOL    HW130683   0.240   4.850   1.830
 9928SOL    HW230684   0.358   4.812   1.724
 9929SOL     OW30685   3.308   4.286   5.323
 9929SOL    HW130686   3.294   4.225   5.245
 9929SOL    HW230687   3.219   4.313   5.360
 9930SOL     OW30688   0.056   0.567   5.782
 9930SOL    HW130689   0.080   0.595   5.689
 9930SOL    HW230690   0.079   0.640   5.846
 9931SOL     OW30691   1.176   6.628   4.723
 9931SOL    HW130692   1.217   6.693   4.659
 9931SOL    HW230693   1.230   6.544   4.724
 9932SOL     OW30694   1.351   2.082   0.653
 9932SOL    HW130695   1.348   2.135   0.569
 9932SOL    HW230696   1.310   1.992   0.638
 9933SOL     OW30697   2.357   0.306   3.912
 9933SOL    HW130698   2.326   0.338   3.823
 9933SOL    HW230699   2.299   0.343   3.984
 9934SOL     OW30700   6.313   1.289   6.679
 9934SOL    HW130701   6.264   1.368   6.715
 9934SOL    HW230702   6.293   1.209   6.736
 9935SOL     OW30703   2.638   2.146   0.408
 9935SOL    HW130704   2.705   2.210   0.445
 9935SOL    HW230705   2.670   2.052   0.421
 9936SOL     OW30706   5.220   4.965   5.907
 9936SOL    HW130707   5.162   4.948   5.988
 9936SOL    HW230708   5.276   5.046   5.923
 9937SOL     OW30709   6.820   0.092   2.483
 9937SOL    HW130710   6.885   0.090   2.559
 9937SOL    HW230711   6.848   0.025   2.414
 9938SOL     OW30712   6.170   1.329   4.660
 9938SOL    HW130713   6.153   1.428   4.656
 9938SOL    HW230714   6.105   1.286   4.723
 9939SOL     OW30715   1.868   3.334   1.273
 9939SOL    HW130716   1.808   3.255   1.289
 9939SOL    HW230717   1.957   3.317   1.317
 9940SOL     OW30718   0.006   0.058   2.732
 9940SOL    HW130719   0.038   7.020   2.659
 9940SOL    HW230720   6.972   0.006   2.795
 9941SOL     OW30721   3.913   5.346   5.927
 9941SOL    HW130722   3.998   5.301   5.902
 9941SOL    HW230723   3.864   5.289   5.993
 9942SOL     OW30724   4.960   5.210   2.745
 9942SOL    HW130725   4.928   5.123   2.709
 9942SOL    HW230726   4.900   5.240   2.820
 9943SOL     OW30727   1.734   3.836   6.476
 9943SOL    HW130728   1.785   3.750   6.479
 9943SOL    HW230729   1.712   3.857   6.380
 9944SOL     OW30730   1.472   5.346   6.356
 9944SOL    HW130731   1.413   5.394   6.421
 9944SOL    HW230732   1.480   5.250   6.383
 9945SOL     OW30733   6.337   3.568   6.689
 9945SOL    HW130734   6.395   3.634   6.641
 9945SOL    HW230735   6.252   3.612   6.716
 9946SOL     OW30736   6.004   0.775   3.056
 9946SOL    HW130737   5.926   0.774   3.119
 9946SOL    HW230738   5.975   0.807   2.966
 9947SOL     OW30739   1.153   2.249   4.419
 9947SOL    HW130740   1.241   2.249   4.467
 9947SOL    HW230741   1.165   2.291   4.328
 9948SOL     OW30742   6.720   6.718   4.645
 9948SOL    HW130743   6.705   6.700   4.548
 9948SOL    HW230744   6.654   6.665   4.699
 9949SOL     OW30745   6.727   4.281   5.075
 9949SOL    HW130746   6.812   4.327   5.101
 9949SOL    HW230747   6.698   4.222   5.150
 9950SOL     OW30748   6.357   4.528   6.432
 9950SOL    HW130749   6.449   4.503   6.404
 9950SOL    HW230750   6.307   4.565   6.354
 9951SOL     OW30751   1.154   3.044   2.615
 9951SOL    HW130752   1.150   3.062   2.517
 9951SOL    HW230753   1.154   2.945   2.631
 9952SOL     OW30754   0.914   3.725   1.496
 9952SOL    HW130755   0.943   3.678   1.580
 9952SOL    HW230756   0.828   3.686   1.465
 9953SOL     OW30757   6.485   2.765   3.545
 9953SOL    HW130758   6.411   2.827   3.519
 9953SOL    HW230759   6.483   2.750   3.644
 9954SOL     OW30760   2.951   1.495   5.265
 9954SOL    HW130761   2.983   1.583   5.229
 9954SOL    HW230762   2.879   1.511   5.332
 9955SOL     OW30763   4.467   3.277   0.723
 9955SOL    HW130764   4.453   3.198   0.783
 9955SOL    HW230765   4.427   3.258   0.633
 9956SOL     OW30766   0.932   4.272   2.690
 9956SOL    HW130767   0.986   4.277   2.774
 9956SOL    HW230768   0.898   4.364   2.667
 9957SOL     OW30769   5.560   0.262   1.519
 9957SOL    HW130770   5.588   0.234   1.611
 9957SOL    HW230771   5.627   0.229   1.452
 9958SOL     OW30772   3.934   4.950   6.256
 9958SOL    HW130773   3.845   4.963   6.213
 9958SOL    HW230774   3.923   4.952   6.356
 9959SOL     OW30775   4.755   4.015   1.407
 9959SOL    HW130776   4.821   4.018   1.482
 9959SOL    HW230777   4.796   3.970   1.328
 9960SOL     OW30778   6.340   6.524   1.306
 9960SOL    HW130779   6.391   6.605   1.279
 9960SOL    HW230780   6.399   6.463   1.359
 9961SOL     OW30781   1.205   4.138   1.453
 9961SOL    HW130782   1.135   4.198   1.415
 9961SOL    HW230783   1.231   4.070   1.385
 9962SOL     OW30784   3.524   6.334   1.615
 9962SOL    HW130785   3.537   6.239   1.645
 9962SOL    HW230786   3.507   6.335   1.516
 9963SOL     OW30787   2.485   2.314   0.238
 9963SOL    HW130788   2.551   2.301   0.164
 9963SOL    HW230789   2.525   2.282   0.324
 9964SOL     OW30790   4.530   4.460   5.332
 9964SOL    HW130791   4.451   4.405   5.361
 9964SOL    HW230792   4.608   4.438   5.390
 9965SOL     OW30793   3.266   5.937   5.053
 9965SOL    HW130794   3.280   5.840   5.036
 9965SOL    HW230795   3.260   5.953   5.151
 9966SOL     OW30796   2.903   4.758   2.491
 9966SOL    HW130797   2.812   4.717   2.492
 9966SOL    HW230798   2.960   4.715   2.561
 9967SOL     OW30799   5.974   6.285   2.601
 9967SOL    HW130800   5.977   6.259   2.505
 9967SOL    HW230801   6.007   6.379   2.611
 9968SOL     OW30802   4.709   5.459   6.808
 9968SOL    HW130803   4.754   5.453   6.897
 9968SOL    HW230804   4.707   5.554   6.778
 9969SOL     OW30805   1.061   4.397   4.618
 9969SOL    HW130806   1.143   4.425   4.668
 9969SOL    HW230807   1.005   4.338   4.677
 9970SOL     OW30808   5.140   5.367   1.503
 9970SOL    HW130809   5.059   5.372   1.562
 9970SOL    HW230810   5.157   5.271   1.479
 9971SOL     OW30811   1.472   2.856   1.388
 9971SOL    HW130812   1.426   2.768   1.394
 9971SOL    HW230813   1.514   2.878   1.476
 9972SOL     OW30814   3.171   3.965   1.251
 9972SOL    HW130815   3.254   3.982   1.199
 9972SOL    HW230816   3.187   3.889   1.315
 9973SOL     OW30817   4.534   2.525   4.683
 9973SOL    HW130818   4.438   2.538   4.708
 9973SOL    HW230819   4.572   2.448   4.734
 9974SOL     OW30820   6.694   2.462   3.443
 9974SOL    HW130821   6.595   2.450   3.449
 9974SOL    HW230822   6.738   2.374   3.427
 9975SOL     OW30823   1.124   5.096   6.863
 9975SOL    HW130824   1.151   5.170   6.925
 9975SOL    HW230825   1.181   5.016   6.880
 9976SOL     OW30826   1.181   5.116   5.799
 9976SOL    HW130827   1.233   5.031   5.813
 9976SOL    HW230828   1.095   5.095   5.753
 9977SOL     OW30829   5.361   5.496   5.160
 9977SOL    HW130830   5.365   5.396   5.153
 9977SOL    HW230831   5.422   5.537   5.093
 9978SOL     OW30832   0.327   2.195   5.874
 9978SOL    HW130833   0.418   2.234   5.888
 9978SOL    HW230834   0.283   2.238   5.795
 9979SOL     OW30835   5.371   3.877   5.892
 9979SOL    HW130836   5.423   3.942   5.947
 9979SOL    HW230837   5.382   3.785   5.930
 9980SOL     OW30838   1.456   1.089   0.345
 9980SOL    HW130839   1.555   1.083   0.335
 9980SOL    HW230840   1.412   1.036   0.271
 9981SOL     OW30841   1.485   2.080   1.183
 9981SOL    HW130842   1.485   2.085   1.083
 9981SOL    HW230843   1.447   1.992   1.212
 9982SOL     OW30844   1.945   1.262   4.416
 9982SOL    HW130845   2.009   1.235   4.488
 9982SOL    HW230846   1.931   1.361   4.420
 9983SOL     OW30847   6.232   2.950   2.638
 9983SOL    HW130848   6.198   2.921   2.548
 9983SOL    HW230849   6.329   2.929   2.645
 9984SOL     OW30850   0.186   5.504   0.952
 9984SOL    HW130851   0.172   5.600   0.977
 9984SOL    HW230852   0.258   5.465   1.010
 9985SOL     OW30853   3.473   5.194   1.032
 9985SOL    HW130854   3.424   5.109   1.014
 9985SOL    HW230855   3.468   5.253   0.952
 9986SOL     OW30856   5.870   4.687   0.716
 9986SOL    HW130857   5.820   4.646   0.639
 9986SOL    HW230858   5.851   4.786   0.718
 9987SOL     OW30859   5.421   3.263   1.919
 9987SOL    HW130860   5.383   3.307   2.000
 9987SOL    HW230861   5.409   3.323   1.840
 9988SOL     OW30862   0.095   5.439   4.504
 9988SOL    HW130863   0.126   5.344   4.508
 9988SOL    HW230864   0.039   5.459   4.584
 9989SOL     OW30865   6.307   3.497   2.151
 9989SOL    HW130866   6.306   3.410   2.102
 9989SOL    HW230867   6.400   3.532   2.158
 9990SOL     OW30868   0.796   6.132   3.212
 9990SOL    HW130869   0.895   6.123   3.224
 9990SOL    HW230870   0.763   6.057   3.154
 9991SOL     OW30871   1.837   3.621   3.746
 9991SOL    HW130872   1.783   3.594   3.826
 9991SOL    HW230873   1.931   3.642   3.776
 9992SOL     OW30874   3.434   4.012   1.131
 9992SOL    HW130875   3.379   4.028   1.049
 9992SOL    HW230876   3.477   3.922   1.125
 9993SOL     OW30877   2.964   6.085   3.963
 9993SOL    HW130878   2.915   6.162   4.003
 9993SOL    HW230879   2.915   6.053   3.882
 9994SOL     OW30880   6.839   4.353   3.424
 9994SOL    HW130881   6.881   4.332   3.336
 9994SOL    HW230882   6.740   4.343   3.418
 9995SOL     OW30883   3.339   1.003   3.629
 9995SOL    HW130884   3.255   1.053   3.650
 9995SOL    HW230885   3.418   1.056   3.658
 9996SOL     OW30886   3.325   3.768   0.881
 9996SOL    HW130887   3.300   3.683   0.833
 9996SOL    HW230888   3.397   3.749   0.947
 9997SOL     OW30889   4.960   1.447   3.226
 9997SOL    HW130890   5.010   1.503   3.160
 9997SOL    HW230891   5.017   1.370   3.254
 9998SOL     OW30892   4.999   3.980   2.639
 9998SOL    HW130893   5.082   4.019   2.676
 9998SOL    HW230894   5.010   3.964   2.541
 9999SOL     OW30895   0.630   6.818   4.021
 9999SOL    HW130896   0.580   6.776   4.097
 9999SOL    HW230897   0.687   6.892   4.055
10000SOL     OW30898   5.587   1.460   1.619
10000SOL    HW130899   5.577   1.559   1.625
10000SOL    HW230900   5.520   1.424   1.554
10001SOL     OW30901   3.385   6.374   2.366
10001SOL    HW130902   3.377   6.410   2.458
10001SOL    HW230903   3.301   6.390   2.315
10002SOL     OW30904   2.408   1.539   1.190
10002SOL    HW130905   2.424   1.599   1.112
10002SOL    HW230906   2.311   1.515   1.195
10003SOL     OW30907   2.932   1.900   2.281
10003SOL    HW130908   2.899   1.976   2.224
10003SOL    HW230909   3.030   1.914   2.299
10004SOL     OW30910   5.355   4.830   4.957
10004SOL    HW130911   5.377   4.741   4.919
10004SOL    HW230912   5.341   4.822   5.056
10005SOL     OW30913   3.333   5.160   2.635
10005SOL    HW130914   3.309   5.066   2.612
10005SOL    HW230915   3.430   5.176   2.613
10006SOL     OW30916   5.373   0.549   5.445
10006SOL    HW130917   5.374   0.486   5.367
10006SOL    HW230918   5.447   0.616   5.434
10007SOL     OW30919   0.415   3.389   4.392
10007SOL    HW130920   0.367   3.315   4.440
10007SOL    HW230921   0.364   3.412   4.308
10008SOL     OW30922   4.903   1.790   3.856
10008SOL    HW130923   4.955   1.807   3.940
10008SOL    HW230924   4.961   1.806   3.777
10009SOL     OW30925   1.788   4.177   1.246
10009SOL    HW130926   1.807   4.200   1.150
10009SOL    HW230927   1.690   4.185   1.264
10010SOL     OW30928   3.030   5.667   6.876
10010SOL    HW130929   3.057   5.572   6.861
10010SOL    HW230930   2.957   5.692   6.812
10011SOL     OW30931   0.305   4.046   6.783
10011SOL    HW130932   0.377   3.986   6.747
10011SOL    HW230933   0.217   4.018   6.747
10012SOL     OW30934   4.740   0.513   2.274
10012SOL    HW130935   4.755   0.437   2.339
10012SOL    HW230936   4.672   0.575   2.311
10013SOL     OW30937   0.829   4.356   4.156
10013SOL    HW130938   0.805   4.267   4.118
10013SOL    HW230939   0.904   4.346   4.221
10014SOL     OW30940   1.683   6.879   2.486
10014SOL    HW130941   1.757   6.916   2.543
10014SOL    HW230942   1.719   6.853   2.397
10015SOL     OW30943   4.222   5.204   0.306
10015SOL    HW130944   4.182   5.152   0.231
10015SOL    HW230945   4.268   5.285   0.270
10016SOL     OW30946   2.352   1.423   5.102
10016SOL    HW130947   2.436   1.475   5.090
10016SOL    HW230948   2.320   1.389   5.014
10017SOL     OW30949   1.934   1.240   3.427
10017SOL    HW130950   1.972   1.148   3.418
10017SOL    HW230951   1.950   1.291   3.342
10018SOL     OW30952   6.295   3.814   5.615
10018SOL    HW130953   6.214   3.837   5.561
10018SOL    HW230954   6.279   3.837   5.711
10019SOL     OW30955   0.378   0.873   3.044
10019SOL    HW130956   0.323   0.793   3.069
10019SOL    HW230957   0.369   0.889   2.945
10020SOL     OW30958   0.672   0.855   2.533
10020SOL    HW130959   0.675   0.955   2.529
10020SOL    HW230960   0.619   0.820   2.456
10021SOL     OW30961   0.439   3.012   2.212
10021SOL    HW130962   0.415   2.965   2.297
10021SOL    HW230963   0.357   3.020   2.155
10022SOL     OW30964   2.513   5.501   0.239
10022SOL    HW130965   2.536   5.590   0.200
10022SOL    HW230966   2.536   5.499   0.336
10023SOL     OW30967   3.015   5.585   5.559
10023SOL    HW130968   2.962   5.527   5.620
10023SOL    HW230969   3.065   5.653   5.613
10024SOL     OW30970   0.733   5.382   3.117
10024SOL    HW130971   0.826   5.347   3.104
10024SOL    HW230972   0.720   5.406   3.214
10025SOL     OW30973   1.423   2.844   2.478
10025SOL    HW130974   1.424   2.797   2.566
10025SOL    HW230975   1.354   2.802   2.419
10026SOL     OW30976   4.824   0.213   3.682
10026SOL    HW130977   4.793   0.274   3.755
10026SOL    HW230978   4.744   0.179   3.632
10027SOL     OW30979   0.723   2.505   5.325
10027SOL    HW130980   0.666   2.482   5.246
10027SOL    HW230981   0.820   2.494   5.300
10028SOL     OW30982   2.512   1.316   0.985
10028SOL    HW130983   2.583   1.251   1.008
10028SOL    HW230984   2.520   1.398   1.042
10029SOL     OW30985   1.223   3.250   3.879
10029SOL    HW130986   1.145   3.295   3.923
10029SOL    HW230987   1.196   3.214   3.790
10030SOL     OW30988   3.282   0.418   5.035
10030SOL    HW130989   3.235   0.418   4.946
10030SOL    HW230990   3.333   0.503   5.045
10031SOL     OW30991   4.558   5.207   4.890
10031SOL    HW130992   4.468   5.168   4.869
10031SOL    HW230993   4.629   5.140   4.869
10032SOL     OW30994   3.954   0.216   6.026
10032SOL    HW130995   4.025   0.177   5.967
10032SOL    HW230996   3.899   0.142   6.064
10033SOL     OW30997   4.683   1.946   4.576
10033SOL    HW130998   4.632   2.013   4.629
10033SOL    HW230999   4.705   1.867   4.634
10034SOL     OW31000   2.389   0.937   4.047
10034SOL    HW131001   2.417   1.018   3.996
10034SOL    HW231002   2.308   0.897   4.006
10035SOL     OW31003   5.685   4.271   0.239
10035SOL    HW131004   5.639   4.206   0.298
10035SOL    HW231005   5.618   4.311   0.175
10036SOL     OW31006   6.695   1.031   1.038
10036SOL    HW131007   6.618   1.095   1.040
10036SOL    HW231008   6.764   1.064   0.973
10037SOL     OW31009   6.115   6.754   6.603
10037SOL    HW131010   6.072   6.771   6.514
10037SOL    HW231011   6.186   6.822   6.620
10038SOL     OW31012   4.493   0.057   5.914
10038SOL    HW131013   4.456   6.992   5.885
10038SOL    HW231014   4.495   0.120   5.836
10039SOL     OW31015   5.581   6.804   5.271
10039SOL    HW131016   5.507   6.817   5.204
10039SOL    HW231017   5.572   6.873   5.344
10040SOL     OW31018   4.427   6.248   5.669
10040SOL    HW131019   4.341   6.207   5.698
10040SOL    HW231020   4.461   6.309   5.740
10041SOL     OW31021   5.665   5.315   6.146
10041SOL    HW131022   5.592   5.246   6.141
10041SOL    HW231023   5.624   5.406   6.151
10042SOL     OW31024   0.160   1.036   5.481
10042SOL    HW131025   0.140   1.133   5.468
10042SOL    HW231026   0.214   1.002   5.404
10043SOL     OW31027   0.876   0.758   4.141
10043SOL    HW131028   0.895   0.704   4.059
10043SOL    HW231029   0.846   0.849   4.115
10044SOL     OW31030   2.790   2.311   3.567
10044SOL    HW131031   2.877   2.263   3.575
10044SOL    HW231032   2.806   2.402   3.527
10045SOL     OW31033   5.340   0.332   3.943
10045SOL    HW131034   5.282   0.391   3.998
10045SOL    HW231035   5.359   0.247   3.993
10046SOL     OW31036   1.475   2.375   1.326
10046SOL    HW131037   1.461   2.277   1.312
10046SOL    HW231038   1.549   2.390   1.391
10047SOL     OW31039   6.126   3.774   4.884
10047SOL    HW131040   6.100   3.680   4.907
10047SOL    HW231041   6.201   3.772   4.818
10048SOL     OW31042   3.618   2.093   2.809
10048SOL    HW131043   3.706   2.131   2.836
10048SOL    HW231044   3.613   2.089   2.709
10049SOL     OW31045   0.441   1.054   6.955
10049SOL    HW131046   0.504   1.116   7.003
10049SOL    HW231047   0.440   1.077   6.858
10050SOL     OW31048   6.097   2.615   5.290
10050SOL    HW131049   6.030   2.675   5.333
10050SOL    HW231050   6.097   2.526   5.335
10051SOL     OW31051   6.216   2.477   5.061
10051SOL    HW131052   6.229   2.528   5.147
10051SOL    HW231053   6.129   2.505   5.020
10052SOL     OW31054   1.810   2.359   2.385
10052SOL    HW131055   1.869   2.416   2.328
10052SOL    HW231056   1.765   2.416   2.454
10053SOL     OW31057   3.248   5.431   1.706
10053SOL    HW131058   3.312   5.504   1.680
10053SOL    HW231059   3.157   5.470   1.720
10054SOL     OW31060   4.175   6.129   5.739
10054SOL    HW131061   4.190   6.041   5.783
10054SOL    HW231062   4.152   6.198   5.809
10055SOL     OW31063   5.305   1.952   5.909
10055SOL    HW131064   5.401   1.925   5.910
10055SOL    HW231065   5.259   1.910   5.831
10056SOL     OW31066   6.718   5.245   0.477
10056SOL    HW131067   6.729   5.336   0.435
10056SOL    HW231068   6.806   5.198   0.479
10057SOL     OW31069   4.030   1.229   4.312
10057SOL    HW131070   4.100   1.285   4.268
10057SOL    HW231071   4.045   1.133   4.290
10058SOL     OW31072   0.370   3.774   4.673
10058SOL    HW131073   0.444   3.823   4.627
10058SOL    HW231074   0.316   3.838   4.727
10059SOL     OW31075   5.707   6.297   0.224
10059SOL    HW131076   5.616   6.255   0.216
10059SOL    HW231077   5.699   6.396   0.214
10060SOL     OW31078   2.078   1.529   1.988
10060SOL    HW131079   2.128   1.532   1.902
10060SOL    HW231080   2.128   1.475   2.055
10061SOL     OW31081   5.621   0.873   4.523
10061SOL    HW131082   5.541   0.823   4.491
10061SOL    HW231083   5.624   0.963   4.478
10062SOL     OW31084   6.375   6.599   4.636
10062SOL    HW131085   6.457   6.590   4.579
10062SOL    HW231086   6.400   6.589   4.732
10063SOL     OW31087   1.749   1.790   3.283
10063SOL    HW131088   1.730   1.697   3.313
10063SOL    HW231089   1.688   1.815   3.208
10064SOL     OW31090   5.526   6.339   6.701
10064SOL    HW131091   5.574   6.363   6.785
10064SOL    HW231092   5.480   6.419   6.665
10065SOL     OW31093   1.899   0.799   1.724
10065SOL    HW131094   1.980   0.763   1.770
10065SOL    HW231095   1.927   0.866   1.655
10066SOL     OW31096   1.884   1.219   3.963
10066SOL    HW131097   1.951   1.223   4.037
10066SOL    HW231098   1.883   1.307   3.914
10067SOL     OW31099   6.199   3.969   5.334
10067SOL    HW131100   6.138   3.894   5.359
10067SOL    HW231101   6.238   3.953   5.243
10068SOL     OW31102   5.925   3.311   4.040
10068SOL    HW131103   5.957   3.222   4.008
10068SOL    HW231104   5.832   3.326   4.007
10069SOL     OW31105   2.084   5.000   3.422
10069SOL    HW131106   1.996   5.043   3.441
10069SOL    HW231107   2.145   5.066   3.378
10070SOL     OW31108   6.832   0.351   5.478
10070SOL    HW131109   6.843   0.309   5.388
10070SOL    HW231110   6.919   0.344   5.528
10071SOL     OW31111   5.006   5.718   3.800
10071SOL    HW131112   5.035   5.686   3.890
10071SOL    HW231113   4.950   5.801   3.810
10072SOL     OW31114   0.713   5.892   4.105
10072SOL    HW131115   0.748   5.927   4.192
10072SOL    HW231116   0.787   5.891   4.038
10073SOL     OW31117   6.209   4.361   4.464
10073SOL    HW131118   6.284   4.307   4.426
10073SOL    HW231119   6.216   4.362   4.564
10074SOL     OW31120   1.398   0.870   5.238
10074SOL    HW131121   1.388   0.889   5.335
10074SOL    HW231122   1.446   0.947   5.194
10075SOL     OW31123   1.323   2.584   2.779
10075SOL    HW131124   1.388   2.659   2.767
10075SOL    HW231125   1.357   2.521   2.849
10076SOL     OW31126   6.201   0.045   3.731
10076SOL    HW131127   6.297   0.071   3.738
10076SOL    HW231128   6.192   6.990   3.669
10077SOL     OW31129   3.481   2.516   6.254
10077SOL    HW131130   3.466   2.614   6.249
10077SOL    HW231131   3.554   2.490   6.192
10078SOL     OW31132   0.188   6.140   4.206
10078SOL    HW131133   0.214   6.057   4.255
10078SOL    HW231134   0.178   6.216   4.271
10079SOL     OW31135   0.594   3.606   2.359
10079SOL    HW131136   0.509   3.554   2.374
10079SOL    HW231137   0.670   3.560   2.404
10080SOL     OW31138   3.437   1.030   5.801
10080SOL    HW131139   3.532   1.020   5.772
10080SOL    HW231140   3.398   1.113   5.761
10081SOL     OW31141   0.766   0.679   0.743
10081SOL    HW131142   0.818   0.735   0.809
10081SOL    HW231143   0.721   0.739   0.677
10082SOL     OW31144   6.896   4.441   2.297
10082SOL    HW131145   6.937   4.361   2.340
10082SOL    HW231146   6.953   4.470   2.220
10083SOL     OW31147   5.126   0.636   3.089
10083SOL    HW131148   5.123   0.631   3.189
10083SOL    HW231149   5.054   0.697   3.056
10084SOL     OW31150   3.107   1.154   6.086
10084SOL    HW131151   3.185   1.102   6.122
10084SOL    HW231152   3.080   1.115   5.998
10085SOL     OW31153   0.792   6.262   2.560
10085SOL    HW131154   0.727   6.315   2.615
10085SOL    HW231155   0.759   6.169   2.550
10086SOL     OW31156   5.541   5.158   1.427
10086SOL    HW131157   5.542   5.119   1.519
10086SOL    HW231158   5.469   5.114   1.373
10087SOL     OW31159   7.019   6.748   3.968
10087SOL    HW131160   6.988   6.804   4.045
10087SOL    HW231161   0.025   6.808   3.893
10088SOL     OW31162   0.038   0.324   0.198
10088SOL    HW131163   6.964   0.325   0.224
10088SOL    HW231164   0.050   0.265   0.118
10089SOL     OW31165   2.672   2.425   2.861
10089SOL    HW131166   2.735   2.425   2.939
10089SOL    HW231167   2.626   2.514   2.856
10090SOL     OW31168   1.077   4.588   0.841
10090SOL    HW131169   1.048   4.529   0.765
10090SOL    HW231170   1.176   4.584   0.850
10091SOL     OW31171   1.484   3.280   5.276
10091SOL    HW131172   1.513   3.185   5.264
10091SOL    HW231173   1.390   3.282   5.311
10092SOL     OW31174   2.171   3.438   5.020
10092SOL    HW131175   2.134   3.349   4.993
10092SOL    HW231176   2.239   3.468   4.953
10093SOL     OW31177   0.521   4.592   4.612
10093SOL    HW131178   0.512   4.690   4.595
10093SOL    HW231179   0.489   4.541   4.532
10094SOL     OW31180   1.874   6.032   2.109
10094SOL    HW131181   1.915   5.996   2.193
10094SOL    HW231182   1.945   6.047   2.041
10095SOL     OW31183   6.136   1.918   5.551
10095SOL    HW131184   6.153   1.938   5.455
10095SOL    HW231185   6.040   1.935   5.573
10096SOL     OW31186   5.353   5.160   2.301
10096SOL    HW131187   5.361   5.104   2.384
10096SOL    HW231188   5.322   5.102   2.226
10097SOL     OW31189   1.294   1.159   6.925
10097SOL    HW131190   1.318   1.113   7.011
10097SOL    HW231191   1.377   1.183   6.875
10098SOL     OW31192   2.647   0.805   5.287
10098SOL    HW131193   2.682   0.792   5.380
10098SOL    HW231194   2.553   0.773   5.282
10099SOL     OW31195   6.997   4.945   0.410
10099SOL    HW131196   7.008   4.951   0.510
10099SOL    HW231197   6.912   4.897   0.389
10100SOL     OW31198   5.075   0.127   4.481
10100SOL    HW131199   5.142   0.090   4.546
10100SOL    HW231200   5.019   0.052   4.445
10101SOL     OW31201   5.815   3.957   1.445
10101SOL    HW131202   5.786   3.874   1.492
10101SOL    HW231203   5.736   4.018   1.435
10102SOL     OW31204   1.545   0.935   2.405
10102SOL    HW131205   1.531   0.858   2.467
10102SOL    HW231206   1.634   0.977   2.423
10103SOL     OW31207   2.410   1.821   5.961
10103SOL    HW131208   2.384   1.878   5.884
10103SOL    HW231209   2.499   1.851   5.997
10104SOL     OW31210   1.173   2.639   4.390
10104SOL    HW131211   1.220   2.666   4.306
10104SOL    HW231212   1.091   2.695   4.402
10105SOL     OW31213   0.885   1.004   0.047
10105SOL    HW131214   0.917   0.965   0.133
10105SOL    HW231215   0.925   0.953   6.994
10106SOL     OW31216   4.599   6.367   0.805
10106SOL    HW131217   4.521   6.318   0.844
10106SOL    HW231218   4.673   6.370   0.873
10107SOL     OW31219   0.448   1.760   6.867
10107SOL    HW131220   0.499   1.808   6.796
10107SOL    HW231221   0.511   1.704   6.921
10108SOL     OW31222   6.859   6.397   0.022
10108SOL    HW131223   6.865   6.335   0.100
10108SOL    HW231224   6.778   6.455   0.031
10109SOL     OW31225   3.970   6.936   1.168
10109SOL    HW131226   4.059   6.918   1.126
10109SOL    HW231227   3.933   7.022   1.133
10110SOL     OW31228   4.494   6.352   4.715
10110SOL    HW131229   4.485   6.286   4.790
10110SOL    HW231230   4.559   6.424   4.742
10111SOL     OW31231   5.795   3.486   3.545
10111SOL    HW131232   5.830   3.480   3.638
10111SOL    HW231233   5.713   3.429   3.536
10112SOL     OW31234   5.874   3.940   4.011
10112SOL    HW131235   5.912   3.902   3.926
10112SOL    HW231236   5.781   3.906   4.023
10113SOL     OW31237   4.321   0.145   4.880
10113SOL    HW131238   4.260   0.068   4.862
10113SOL    HW231239   4.413   0.123   4.849
10114SOL     OW31240   5.524   0.882   0.746
10114SOL    HW131241   5.484   0.948   0.810
10114SOL    HW231242   5.622   0.898   0.739
10115SOL     OW31243   3.406   1.673   4.008
10115SOL    HW131244   3.400   1.705   4.102
10115SOL    HW231245   3.473   1.728   3.958
10116SOL     OW31246   0.133   6.226   0.450
10116SOL    HW131247   0.150   6.206   0.354
10116SOL    HW231248   0.150   6.144   0.505
10117SOL     OW31249   6.964   6.845   5.140
10117SOL    HW131250   0.009   6.864   5.212
10117SOL    HW231251   7.003   6.865   5.051
10118SOL     OW31252   1.299   5.536   3.000
10118SOL    HW131253   1.293   5.635   2.987
10118SOL    HW231254   1.208   5.496   2.995
10119SOL     OW31255   0.532   6.267   4.415
10119SOL    HW131256   0.563   6.303   4.327
10119SOL    HW231257   0.513   6.169   4.406
10120SOL     OW31258   1.768   3.904   4.976
10120SOL    HW131259   1.761   3.992   4.930
10120SOL    HW231260   1.827   3.843   4.922
10121SOL     OW31261   6.025   4.192   6.275
10121SOL    HW131262   6.072   4.109   6.247
10121SOL    HW231263   6.074   4.234   6.352
10122SOL     OW31264   5.817   3.203   0.667
10122SOL    HW131265   5.795   3.186   0.571
10122SOL    HW231266   5.805   3.119   0.719
10123SOL     OW31267   6.606   0.150   6.809
10123SOL    HW131268   6.550   0.162   6.727
10123SOL    HW231269   6.698   0.184   6.793
10124SOL     OW31270   2.011   3.493   6.977
10124SOL    HW131271   2.031   3.587   7.005
10124SOL    HW231272   1.978   3.493   6.882
10125SOL     OW31273   2.142   0.815   2.435
10125SOL    HW131274   2.164   0.793   2.340
10125SOL    HW231275   2.207   0.883   2.469
10126SOL     OW31276   0.415   6.798   6.096
10126SOL    HW131277   0.344   6.852   6.141
10126SOL    HW231278   0.478   6.859   6.048
10127SOL     OW31279   2.353   4.429   6.150
10127SOL    HW131280   2.375   4.354   6.088
10127SOL    HW231281   2.421   4.432   6.224
10128SOL     OW31282   1.592   0.858   1.121
10128SOL    HW131283   1.538   0.901   1.194
10128SOL    HW231284   1.687   0.889   1.127
10129SOL     OW31285   5.830   2.740   3.627
10129SOL    HW131286   5.800   2.691   3.708
10129SOL    HW231287   5.783   2.828   3.621
10130SOL     OW31288   1.682   4.213   1.956
10130SOL    HW131289   1.628   4.223   2.039
10130SOL    HW231290   1.779   4.214   1.977
10131SOL     OW31291   0.745   0.132   3.825
10131SOL    HW131292   0.722   0.084   3.741
10131SOL    HW231293   0.835   0.175   3.815
10132SOL     OW31294   3.128   7.006   4.564
10132SOL    HW131295   3.179   7.017   4.478
10132SOL    HW231296   3.120   0.072   4.610
10133SOL     OW31297   4.847   6.560   1.223
10133SOL    HW131298   4.843   6.508   1.138
10133SOL    HW231299   4.760   6.605   1.239
10134SOL     OW31300   0.037   5.915   4.071
10134SOL    HW131301   6.962   5.920   4.092
10134SOL    HW231302   0.084   5.992   4.113
10135SOL     OW31303   4.882   3.425   3.321
10135SOL    HW131304   4.881   3.486   3.400
10135SOL    HW231305   4.852   3.476   3.240
10136SOL     OW31306   5.231   0.963   3.127
10136SOL    HW131307   5.180   1.043   3.093
10136SOL    HW231308   5.206   0.883   3.073
10137SOL     OW31309   5.770   4.310   4.400
10137SOL    HW131310   5.857   4.261   4.390
10137SOL    HW231311   5.782   4.386   4.465
10138SOL     OW31312   5.181   2.419   0.676
10138SOL    HW131313   5.227   2.391   0.761
10138SOL    HW231314   5.111   2.487   0.697
10139SOL     OW31315   3.700   4.139   3.414
10139SOL    HW131316   3.750   4.088   3.484
10139SOL    HW231317   3.620   4.183   3.454
10140SOL     OW31318   6.534   6.255   5.950
10140SOL    HW131319   6.494   6.273   6.040
10140SOL    HW231320   6.583   6.336   5.919
10141SOL     OW31321   3.992   1.885   4.775
10141SOL    HW131322   3.974   1.981   4.754
10141SOL    HW231323   3.951   1.862   4.863
10142SOL     OW31324   6.221   6.744   4.488
10142SOL    HW131325   6.275   6.682   4.545
10142SOL    HW231326   6.265   6.755   4.399
10143SOL     OW31327   4.056   0.603   0.232
10143SOL    HW131328   4.035   0.509   0.258
10143SOL    HW231329   4.100   0.605   0.143
10144SOL     OW31330   3.787   0.085   6.567
10144SOL    HW131331   3.782   0.095   6.467
10144SOL    HW231332   3.741   0.000   6.594
10145SOL     OW31333   3.260   5.471   5.460
10145SOL    HW131334   3.250   5.392   5.399
10145SOL    HW231335   3.182   5.533   5.447
10146SOL     OW31336   4.020   5.529   4.347
10146SOL    HW131337   3.941   5.547   4.288
10146SOL    HW231338   4.092   5.485   4.294
10147SOL     OW31339   5.677   3.821   5.013
10147SOL    HW131340   5.609   3.804   4.942
10147SOL    HW231341   5.765   3.844   4.972
10148SOL     OW31342   4.870   5.443   7.023
10148SOL    HW131343   4.883   5.344   0.006
10148SOL    HW231344   4.955   5.490   0.025
10149SOL     OW31345   6.054   2.834   0.228
10149SOL    HW131346   6.146   2.795   0.232
10149SOL    HW231347   5.988   2.762   0.201
10150SOL     OW31348   4.156   3.874   0.616
10150SOL    HW131349   4.221   3.848   0.545
10150SOL    HW231350   4.103   3.953   0.586
10151SOL     OW31351   0.873   6.758   6.922
10151SOL    HW131352   0.794   6.761   6.983
10151SOL    HW231353   0.938   6.690   6.955
10152SOL     OW31354   0.535   6.395   4.844
10152SOL    HW131355   0.575   6.338   4.916
10152SOL    HW231356   0.574   6.488   4.850
10153SOL     OW31357   4.733   6.399   4.018
10153SOL    HW131358   4.778   6.362   3.937
10153SOL    HW231359   4.768   6.351   4.099
10154SOL     OW31360   5.605   0.124   5.007
10154SOL    HW131361   5.690   0.108   4.958
10154SOL    HW231362   5.624   0.178   5.089
10155SOL     OW31363   3.721   2.192   5.563
10155SOL    HW131364   3.641   2.171   5.619
10155SOL    HW231365   3.727   2.291   5.548
10156SOL     OW31366   6.323   1.317   3.130
10156SOL    HW131367   6.231   1.294   3.161
10156SOL    HW231368   6.345   1.410   3.159
10157SOL     OW31369   6.266   2.316   0.006
10157SOL    HW131370   6.307   2.230   0.039
10157SOL    HW231371   6.322   2.351   6.953
10158SOL     OW31372   6.292   3.587   1.237
10158SOL    HW131373   6.262   3.549   1.150
10158SOL    HW231374   6.221   3.647   1.274
10159SOL     OW31375   2.729   2.850   6.850
10159SOL    HW131376   2.681   2.935   6.829
10159SOL    HW231377   2.667   2.786   6.895
10160SOL     OW31378   1.921   2.985   2.180
10160SOL    HW131379   1.996   3.051   2.175
10160SOL    HW231380   1.950   2.905   2.232
10161SOL     OW31381   3.189   2.859   6.561
10161SOL    HW131382   3.092   2.834   6.564
10161SOL    HW231383   3.197   2.959   6.558
10162SOL     OW31384   3.674   4.586   0.794
10162SOL    HW131385   3.739   4.641   0.741
10162SOL    HW231386   3.607   4.646   0.838
10163SOL     OW31387   6.010   4.604   6.037
10163SOL    HW131388   6.092   4.601   6.094
10163SOL    HW231389   6.029   4.560   5.949
10164SOL     OW31390   5.721   3.747   4.702
10164SOL    HW131391   5.780   3.809   4.754
10164SOL    HW231392   5.688   3.795   4.620
10165SOL     OW31393   0.419   2.394   3.408
10165SOL    HW131394   0.319   2.395   3.404
10165SOL    HW231395   0.457   2.430   3.323
10166SOL     OW31396   3.324   1.992   1.602
10166SOL    HW131397   3.373   2.027   1.682
10166SOL    HW231398   3.281   2.068   1.553
10167SOL     OW31399   2.333   3.407   6.953
10167SOL    HW131400   2.326   3.385   6.856
10167SOL    HW231401   2.243   3.401   6.995
10168SOL     OW31402   5.996   3.389   5.682
10168SOL    HW131403   6.049   3.356   5.605
10168SOL    HW231404   5.900   3.361   5.671
10169SOL     OW31405   6.877   4.449   3.785
10169SOL    HW131406   6.917   4.536   3.756
10169SOL    HW231407   6.899   4.378   3.718
10170SOL     OW31408   1.063   5.225   5.337
10170SOL    HW131409   0.984   5.211   5.277
10170SOL    HW231410   1.142   5.177   5.299
10171SOL     OW31411   6.810   2.632   5.477
10171SOL    HW131412   6.859   2.719   5.475
10171SOL    HW231413   6.717   2.645   5.443
10172SOL     OW31414   6.773   6.678   5.064
10172SOL    HW131415   6.826   6.596   5.083
10172SOL    HW231416   6.820   6.758   5.099
10173SOL     OW31417   0.979   3.110   1.495
10173SOL    HW131418   1.037   3.029   1.508
10173SOL    HW231419   0.883   3.085   1.507
10174SOL     OW31420   5.686   5.149   2.404
10174SOL    HW131421   5.721   5.118   2.493
10174SOL    HW231422   5.685   5.072   2.341
10175SOL     OW31423   5.037   2.013   4.036
10175SOL    HW131424   5.052   2.050   3.944
10175SOL    HW231425   5.099   2.057   4.100
10176SOL     OW31426   1.020   3.681   5.818
10176SOL    HW131427   0.997   3.604   5.758
10176SOL    HW231428   0.936   3.728   5.846
10177SOL     OW31429   2.633   0.393   0.590
10177SOL    HW131430   2.690   0.426   0.515
10177SOL    HW231431   2.539   0.426   0.578
10178SOL     OW31432   6.856   0.627   5.991
10178SOL    HW131433   6.764   0.596   6.013
10178SOL    HW231434   6.892   0.573   5.914
10179SOL     OW31435   0.871   1.988   6.749
10179SOL    HW131436   0.908   1.895   6.750
10179SOL    HW231437   0.918   2.043   6.818
10180SOL     OW31438   4.394   0.343   6.209
10180SOL    HW131439   4.489   0.358   6.238
10180SOL    HW231440   4.361   0.424   6.160
10181SOL     OW31441   6.023   2.724   1.701
10181SOL    HW131442   5.957   2.753   1.770
10181SOL    HW231443   6.093   2.795   1.689
10182SOL     OW31444   4.104   1.107   1.379
10182SOL    HW131445   4.071   1.105   1.473
10182SOL    HW231446   4.129   1.015   1.350
10183SOL     OW31447   6.928   2.409   6.860
10183SOL    HW131448   7.004   2.344   6.852
10183SOL    HW231449   6.923   2.466   6.778
10184SOL     OW31450   4.519   0.814   6.427
10184SOL    HW131451   4.550   0.760   6.505
10184SOL    HW231452   4.497   0.753   6.351
10185SOL     OW31453   5.867   6.208   2.079
10185SOL    HW131454   5.842   6.113   2.060
10185SOL    HW231455   5.810   6.244   2.153
10186SOL     OW31456   5.752   3.737   3.831
10186SOL    HW131457   5.753   3.787   3.745
10186SOL    HW231458   5.668   3.758   3.881
10187SOL     OW31459   0.449   3.430   0.699
10187SOL    HW131460   0.521   3.416   0.631
10187SOL    HW231461   0.378   3.360   0.688
10188SOL     OW31462   3.402   5.577   0.648
10188SOL    HW131463   3.450   5.663   0.665
10188SOL    HW231464   3.341   5.588   0.570
10189SOL     OW31465   0.820   1.225   6.255
10189SOL    HW131466   0.852   1.158   6.188
10189SOL    HW231467   0.763   1.179   6.324
10190SOL     OW31468   4.948   3.164   2.118
10190SOL    HW131469   4.884   3.100   2.075
10190SOL    HW231470   4.951   3.248   2.064
10191SOL     OW31471   5.767   5.316   5.316
10191SOL    HW131472   5.848   5.299   5.373
10191SOL    HW231473   5.780   5.273   5.226
10192SOL     OW31474   4.365   0.971   5.468
10192SOL    HW131475   4.291   1.038   5.457
10192SOL    HW231476   4.444   1.016   5.509
10193SOL     OW31477   4.161   3.300   1.994
10193SOL    HW131478   4.157   3.209   1.952
10193SOL    HW231479   4.100   3.303   2.073
10194SOL     OW31480   5.603   6.000   5.619
10194SOL    HW131481   5.696   5.964   5.607
10194SOL    HW231482   5.608   6.095   5.650
10195SOL     OW31483   6.364   5.686   0.523
10195SOL    HW131484   6.304   5.656   0.449
10195SOL    HW231485   6.309   5.733   0.593
10196SOL     OW31486   4.969   1.486   3.761
10196SOL    HW131487   4.896   1.424   3.731
10196SOL    HW231488   4.996   1.545   3.684
10197SOL     OW31489   5.520   1.658   5.664
10197SOL    HW131490   5.594   1.720   5.637
10197SOL    HW231491   5.482   1.614   5.583
10198SOL     OW31492   2.460   6.861   2.395
10198SOL    HW131493   2.473   6.887   2.490
10198SOL    HW231494   2.534   6.800   2.366
10199SOL     OW31495   2.475   2.607   0.235
10199SOL    HW131496   2.458   2.514   0.203
10199SOL    HW231497   2.414   2.628   0.312
10200SOL     OW31498   4.819   1.897   6.922
10200SOL    HW131499   4.850   1.855   7.007
10200SOL    HW231500   4.810   1.826   6.851
10201SOL     OW31501   1.436   4.721   0.754
10201SOL    HW131502   1.451   4.720   0.656
10201SOL    HW231503   1.398   4.633   0.783
10202SOL     OW31504   3.658   3.518   0.303
10202SOL    HW131505   3.718   3.486   0.377
10202SOL    HW231506   3.615   3.604   0.329
10203SOL     OW31507   6.242   3.173   2.820
10203SOL    HW131508   6.220   3.125   2.905
10203SOL    HW231509   6.248   3.108   2.745
10204SOL     OW31510   5.458   5.854   0.080
10204SOL    HW131511   5.437   5.790   0.006
10204SOL    HW231512   5.558   5.861   0.089
10205SOL     OW31513   1.525   0.217   1.296
10205SOL    HW131514   1.499   0.197   1.202
10205SOL    HW231515   1.472   0.296   1.329
10206SOL     OW31516   0.152   0.941   0.241
10206SOL    HW131517   0.110   0.860   0.282
10206SOL    HW231518   0.166   1.011   0.311
10207SOL     OW31519   1.276   2.282   6.880
10207SOL    HW131520   1.235   2.346   6.815
10207SOL    HW231521   1.275   2.322   6.971
10208SOL     OW31522   6.190   4.561   4.266
10208SOL    HW131523   6.167   4.493   4.335
10208SOL    HW231524   6.275   4.608   4.292
10209SOL     OW31525   0.558   0.137   0.350
10209SOL    HW131526   0.534   0.150   0.254
10209SOL    HW231527   0.608   0.217   0.383
10210SOL     OW31528   4.586   6.759   2.265
10210SOL    HW131529   4.562   6.679   2.211
10210SOL    HW231530   4.670   6.740   2.316
10211SOL     OW31531   3.695   6.493   4.981
10211SOL    HW131532   3.628   6.479   4.907
10211SOL    HW231533   3.675   6.578   5.028
10212SOL     OW31534   0.968   0.230   5.106
10212SOL    HW131535   0.895   0.213   5.173
10212SOL    HW231536   0.986   0.146   5.055
10213SOL     OW31537   5.600   2.912   1.358
10213SOL    HW131538   5.632   2.939   1.449
10213SOL    HW231539   5.570   2.817   1.360
10214SOL     OW31540   1.643   1.433   2.074
10214SOL    HW131541   1.589   1.485   2.008
10214SOL    HW231542   1.661   1.341   2.039
10215SOL     OW31543   4.032   3.785   3.098
10215SOL    HW131544   3.976   3.707   3.073
10215SOL    HW231545   3.980   3.847   3.156
10216SOL     OW31546   0.051   1.256   1.646
10216SOL    HW131547   0.025   1.188   1.578
10216SOL    HW231548   0.049   1.347   1.604
10217SOL     OW31549   3.130   2.162   3.325
10217SOL    HW131550   3.228   2.160   3.306
10217SOL    HW231551   3.079   2.164   3.239
10218SOL     OW31552   1.827   1.264   1.082
10218SOL    HW131553   1.743   1.301   1.044
10218SOL    HW231554   1.905   1.291   1.026
10219SOL     OW31555   0.409   1.811   2.390
10219SOL    HW131556   0.362   1.858   2.316
10219SOL    HW231557   0.470   1.874   2.437
10220SOL     OW31558   4.984   1.848   0.890
10220SOL    HW131559   4.966   1.942   0.859
10220SOL    HW231560   4.991   1.847   0.989
10221SOL     OW31561   0.725   5.125   3.611
10221SOL    HW131562   0.733   5.058   3.685
10221SOL    HW231563   0.748   5.082   3.524
10222SOL     OW31564   2.677   3.667   6.231
10222SOL    HW131565   2.658   3.752   6.182
10222SOL    HW231566   2.592   3.616   6.243
10223SOL     OW31567   0.906   5.044   1.156
10223SOL    HW131568   0.992   5.001   1.130
10223SOL    HW231569   0.925   5.125   1.212
10224SOL     OW31570   6.990   3.219   4.096
10224SOL    HW131571   6.909   3.166   4.073
10224SOL    HW231572   0.049   3.163   4.081
10225SOL     OW31573   1.465   4.851   5.639
10225SOL    HW131574   1.401   4.798   5.694
10225SOL    HW231575   1.518   4.911   5.699
10226SOL     OW31576   2.664   1.076   6.126
10226SOL    HW131577   2.579   1.025   6.116
10226SOL    HW231578   2.715   1.041   6.204
10227SOL     OW31579   5.716   4.929   0.736
10227SOL    HW131580   5.746   4.975   0.652
10227SOL    HW231581   5.675   4.996   0.798
10228SOL     OW31582   0.494   6.747   1.862
10228SOL    HW131583   0.492   6.702   1.951
10228SOL    HW231584   0.458   6.840   1.871
10229SOL     OW31585   0.857   3.529   4.721
10229SOL    HW131586   0.933   3.564   4.775
10229SOL    HW231587   0.835   3.436   4.751
10230SOL     OW31588   5.814   6.287   2.949
10230SOL    HW131589   5.730   6.256   2.994
10230SOL    HW231590   5.849   6.215   2.889
10231SOL     OW31591   6.941   5.900   5.323
10231SOL    HW131592   6.922   5.802   5.317
10231SOL    HW231593   6.935   5.929   5.418
10232SOL     OW31594   3.031   1.243   3.452
10232SOL    HW131595   3.002   1.312   3.386
10232SOL    HW231596   3.039   1.155   3.406
10233SOL     OW31597   3.538   4.157   4.705
10233SOL    HW131598   3.556   4.234   4.643
10233SOL    HW231599   3.616   4.143   4.765
10234SOL     OW31600   6.057   1.586   1.826
10234SOL    HW131601   6.120   1.618   1.897
10234SOL    HW231602   5.963   1.613   1.850
10235SOL     OW31603   2.347   2.814   1.889
10235SOL    HW131604   2.263   2.848   1.846
10235SOL    HW231605   2.385   2.740   1.833
10236SOL     OW31606   3.094   6.882   6.966
10236SOL    HW131607   3.187   6.886   7.002
10236SOL    HW231608   3.045   6.966   6.991
10237SOL     OW31609   0.063   3.365   7.005
10237SOL    HW131610   0.016   3.441   0.027
10237SOL    HW231611   0.058   3.376   6.905
10238SOL     OW31612   3.760   4.176   1.792
10238SOL    HW131613   3.707   4.103   1.835
10238SOL    HW231614   3.856   4.148   1.785
10239SOL     OW31615   1.381   2.863   4.599
10239SOL    HW131616   1.434   2.779   4.595
10239SOL    HW231617   1.442   2.941   4.614
10240SOL     OW31618   2.187   5.058   2.179
10240SOL    HW131619   2.179   5.089   2.084
10240SOL    HW231620   2.115   5.098   2.234
10241SOL     OW31621   5.708   0.299   2.108
10241SOL    HW131622   5.689   0.255   2.195
10241SOL    HW231623   5.717   0.398   2.122
10242SOL     OW31624   0.192   1.552   0.671
10242SOL    HW131625   0.175   1.610   0.591
10242SOL    HW231626   0.104   1.525   0.711
10243SOL     OW31627   2.400   4.429   2.122
10243SOL    HW131628   2.434   4.461   2.034
10243SOL    HW231629   2.369   4.335   2.114
10244SOL     OW31630   1.608   4.449   0.497
10244SOL    HW131631   1.705   4.464   0.477
10244SOL    HW231632   1.553   4.490   0.425
10245SOL     OW31633   3.526   3.738   1.082
10245SOL    HW131634   3.624   3.718   1.081
10245SOL    HW231635   3.480   3.679   1.148
10246SOL     OW31636   3.143   4.094   4.206
10246SOL    HW131637   3.082   4.095   4.126
10246SOL    HW231638   3.236   4.111   4.176
10247SOL     OW31639   6.328   4.178   5.927
10247SOL    HW131640   6.386   4.142   6.000
10247SOL    HW231641   6.357   4.270   5.903
10248SOL     OW31642   1.437   6.526   2.922
10248SOL    HW131643   1.455   6.616   2.962
10248SOL    HW231644   1.459   6.455   2.988
10249SOL     OW31645   3.208   5.595   6.529
10249SOL    HW131646   3.174   5.508   6.564
10249SOL    HW231647   3.138   5.665   6.539
10250SOL     OW31648   6.307   2.991   1.203
10250SOL    HW131649   6.208   2.999   1.210
10250SOL    HW231650   6.330   2.915   1.141
10251SOL     OW31651   2.135   1.573   4.696
10251SOL    HW131652   2.114   1.593   4.600
10251SOL    HW231653   2.227   1.606   4.717
10252SOL     OW31654   4.223   3.612   6.204
10252SOL    HW131655   4.134   3.616   6.158
10252SOL    HW231656   4.231   3.526   6.254
10253SOL     OW31657   3.058   5.247   0.840
10253SOL    HW131658   3.114   5.204   0.769
10253SOL    HW231659   3.090   5.217   0.930
10254SOL     OW31660   4.952   1.317   5.239
10254SOL    HW131661   5.033   1.260   5.227
10254SOL    HW231662   4.906   1.328   5.151
10255SOL     OW31663   2.631   6.541   0.919
10255SOL    HW131664   2.668   6.617   0.866
10255SOL    HW231665   2.700   6.510   0.985
10256SOL     OW31666   3.885   1.861   2.209
10256SOL    HW131667   3.909   1.809   2.290
10256SOL    HW231668   3.927   1.818   2.128
10257SOL     OW31669   2.159   5.412   3.763
10257SOL    HW131670   2.243   5.441   3.717
10257SOL    HW231671   2.182   5.349   3.837
10258SOL     OW31672   3.981   2.176   3.410
10258SOL    HW131673   3.982   2.218   3.501
10258SOL    HW231674   4.053   2.217   3.354
10259SOL     OW31675   0.632   4.259   2.950
10259SOL    HW131676   0.705   4.210   2.902
10259SOL    HW231677   0.587   4.196   3.014
10260SOL     OW31678   0.962   1.458   3.249
10260SOL    HW131679   0.992   1.368   3.218
10260SOL    HW231680   0.932   1.452   3.345
10261SOL     OW31681   6.748   5.184   1.269
10261SOL    HW131682   6.802   5.107   1.300
10261SOL    HW231683   6.729   5.175   1.171
10262SOL     OW31684   3.081   6.875   5.957
10262SOL    HW131685   3.025   6.946   5.913
10262SOL    HW231686   3.068   6.879   6.056
10263SOL     OW31687   5.802   0.189   1.123
10263SOL    HW131688   5.867   0.174   1.049
10263SOL    HW231689   5.800   0.286   1.146
10264SOL     OW31690   0.153   6.328   6.467
10264SOL    HW131691   0.068   6.338   6.416
10264SOL    HW231692   0.182   6.417   6.503
10265SOL     OW31693   2.952   2.452   0.769
10265SOL    HW131694   3.038   2.415   0.803
10265SOL    HW231695   2.929   2.409   0.682
10266SOL     OW31696   3.852   3.157   3.522
10266SOL    HW131697   3.853   3.091   3.597
10266SOL    HW231698   3.849   3.108   3.435
10267SOL     OW31699   5.302   1.791   0.415
10267SOL    HW131700   5.343   1.783   0.506
10267SOL    HW231701   5.241   1.870   0.413
10268SOL     OW31702   6.235   6.486   2.064
10268SOL    HW131703   6.325   6.444   2.051
10268SOL    HW231704   6.243   6.585   2.055
10269SOL     OW31705   0.943   3.464   6.059
10269SOL    HW131706   1.001   3.391   6.025
10269SOL    HW231707   0.895   3.507   5.983
10270SOL     OW31708   3.181   5.271   2.431
10270SOL    HW131709   3.240   5.248   2.509
10270SOL    HW231710   3.096   5.218   2.437
10271SOL     OW31711   3.598   2.462   0.256
10271SOL    HW131712   3.611   2.492   0.161
10271SOL    HW231713   3.544   2.530   0.305
10272SOL     OW31714   1.141   1.025   5.519
10272SOL    HW131715   1.227   0.975   5.510
10272SOL    HW231716   1.104   1.012   5.611
10273SOL     OW31717   3.219   5.720   2.870
10273SOL    HW131718   3.168   5.777   2.805
10273SOL    HW231719   3.179   5.730   2.961
10274SOL     OW31720   0.532   4.645   6.148
10274SOL    HW131721   0.596   4.597   6.208
10274SOL    HW231722   0.489   4.720   6.198
10275SOL     OW31723   0.534   0.224   1.893
10275SOL    HW131724   0.498   0.296   1.832
10275SOL    HW231725   0.503   0.242   1.986
10276SOL     OW31726   5.119   6.123   4.916
10276SOL    HW131727   5.173   6.048   4.878
10276SOL    HW231728   5.109   6.111   5.014
10277SOL     OW31729   2.100   6.224   4.761
10277SOL    HW131730   2.002   6.204   4.763
10277SOL    HW231731   2.128   6.262   4.849
10278SOL     OW31732   1.694   1.534   3.328
10278SOL    HW131733   1.599   1.566   3.336
10278SOL    HW231734   1.702   1.472   3.251
10279SOL     OW31735   1.465   4.502   4.418
10279SOL    HW131736   1.418   4.556   4.487
10279SOL    HW231737   1.564   4.511   4.430
10280SOL     OW31738   6.297   2.539   6.221
10280SOL    HW131739   6.377   2.524   6.163
10280SOL    HW231740   6.223   2.576   6.165
10281SOL     OW31741   6.225   1.855   3.502
10281SOL    HW131742   6.278   1.928   3.545
10281SOL    HW231743   6.134   1.851   3.541
10282SOL     OW31744   5.224   3.692   3.977
10282SOL    HW131745   5.229   3.724   3.882
10282SOL    HW231746   5.180   3.602   3.979
10283SOL     OW31747   1.660   3.103   1.302
10283SOL    HW131748   1.605   3.149   1.372
10283SOL    HW231749   1.615   3.112   1.213
10284SOL     OW31750   5.381   1.523   5.402
10284SOL    HW131751   5.431   1.474   5.330
10284SOL    HW231752   5.312   1.583   5.361
10285SOL     OW31753   5.322   6.360   3.194
10285SOL    HW131754   5.369   6.447   3.180
10285SOL    HW231755   5.254   6.347   3.122
10286SOL     OW31756   3.925   0.887   3.731
10286SOL    HW131757   3.881   0.825   3.666
10286SOL    HW231758   3.954   0.970   3.683
10287SOL     OW31759   2.988   5.487   1.693
10287SOL    HW131760   2.962   5.458   1.601
10287SOL    HW231761   2.938   5.433   1.760
10288SOL     OW31762   4.517   6.235   2.816
10288SOL    HW131763   4.582   6.170   2.856
10288SOL    HW231764   4.527   6.324   2.861
10289SOL     OW31765   2.876   6.250   6.971
10289SOL    HW131766   2.891   6.229   6.875
10289SOL    HW231767   2.856   6.348   6.981
10290SOL     OW31768   2.840   3.461   3.062
10290SOL    HW131769   2.753   3.479   3.016
10290SOL    HW231770   2.910   3.441   2.993
10291SOL     OW31771   3.933   1.869   2.671
10291SOL    HW131772   4.025   1.907   2.656
10291SOL    HW231773   3.867   1.944   2.677
10292SOL     OW31774   1.603   1.894   5.004
10292SOL    HW131775   1.703   1.889   4.994
10292SOL    HW231776   1.579   1.974   5.058
10293SOL     OW31777   1.531   3.419   2.224
10293SOL    HW131778   1.631   3.421   2.229
10293SOL    HW231779   1.497   3.335   2.266
10294SOL     OW31780   4.341   1.590   3.579
10294SOL    HW131781   4.310   1.616   3.488
10294SOL    HW231782   4.263   1.561   3.634
10295SOL     OW31783   0.672   3.281   5.782
10295SOL    HW131784   0.646   3.187   5.800
10295SOL    HW231785   0.672   3.333   5.867
10296SOL     OW31786   5.173   1.115   6.953
10296SOL    HW131787   5.175   1.215   6.957
10296SOL    HW231788   5.262   1.079   6.980
10297SOL     OW31789   1.841   0.863   5.745
10297SOL    HW131790   1.933   0.891   5.717
10297SOL    HW231791   1.777   0.937   5.725
10298SOL     OW31792   2.974   4.259   1.092
10298SOL    HW131793   2.949   4.355   1.104
10298SOL    HW231794   2.912   4.201   1.146
10299SOL     OW31795   3.748   4.910   3.102
10299SOL    HW131796   3.839   4.871   3.089
10299SOL    HW231797   3.697   4.905   3.016
10300SOL     OW31798   1.308   4.258   1.946
10300SOL    HW131799   1.310   4.332   1.879
10300SOL    HW231800   1.363   4.283   2.025
10301SOL     OW31801   4.923   2.237   5.100
10301SOL    HW131802   4.984   2.273   5.171
10301SOL    HW231803   4.833   2.219   5.140
10302SOL     OW31804   2.424   6.408   4.642
10302SOL    HW131805   2.446   6.407   4.545
10302SOL    HW231806   2.379   6.494   4.665
10303SOL     OW31807   1.299   5.812   3.485
10303SOL    HW131808   1.293   5.897   3.537
10303SOL    HW231809   1.324   5.737   3.546
10304SOL     OW31810   5.674   0.144   1.735
10304SOL    HW131811   5.665   0.044   1.743
10304SOL    HW231812   5.768   0.171   1.758
10305SOL     OW31813   1.688   4.108   5.858
10305SOL    HW131814   1.763   4.044   5.845
10305SOL    HW231815   1.612   4.084   5.797
10306SOL     OW31816   5.053   5.969   6.831
10306SOL    HW131817   5.002   6.036   6.885
10306SOL    HW231818   5.149   5.996   6.826
10307SOL     OW31819   2.993   2.236   5.351
10307SOL    HW131820   3.058   2.267   5.281
10307SOL    HW231821   2.900   2.257   5.322
10308SOL     OW31822   1.953   3.870   2.710
10308SOL    HW131823   2.016   3.946   2.724
10308SOL    HW231824   1.936   3.858   2.612
10309SOL     OW31825   0.137   2.223   0.074
10309SOL    HW131826   0.229   2.257   0.089
10309SOL    HW231827   0.072   2.277   0.128
10310SOL     OW31828   3.592   3.866   0.679
10310SOL    HW131829   3.510   3.851   0.734
10310SOL    HW231830   3.612   3.964   0.675
10311SOL     OW31831   6.779   5.545   0.647
10311SOL    HW131832   6.879   5.553   0.645
10311SOL    HW231833   6.753   5.458   0.690
10312SOL     OW31834   3.605   6.522   2.309
10312SOL    HW131835   3.574   6.545   2.217
10312SOL    HW231836   3.541   6.458   2.351
10313SOL     OW31837   4.174   5.789   1.954
10313SOL    HW131838   4.268   5.807   1.983
10313SOL    HW231839   4.167   5.802   1.855
10314SOL     OW31840   6.582   0.385   1.663
10314SOL    HW131841   6.672   0.350   1.688
10314SOL    HW231842   6.567   0.369   1.565
10315SOL     OW31843   5.792   5.542   4.528
10315SOL    HW131844   5.727   5.550   4.452
10315SOL    HW231845   5.741   5.527   4.613
10316SOL     OW31846   6.131   2.255   5.714
10316SOL    HW131847   6.200   2.184   5.702
10316SOL    HW231848   6.044   2.214   5.742
10317SOL     OW31849   5.030   6.270   6.203
10317SOL    HW131850   5.096   6.305   6.269
10317SOL    HW231851   4.941   6.261   6.247
10318SOL     OW31852   4.966   0.257   6.823
10318SOL    HW131853   5.005   0.342   6.858
10318SOL    HW231854   5.035   0.185   6.823
10319SOL     OW31855   0.106   3.339   5.360
10319SOL    HW131856   0.126   3.303   5.269
10319SOL    HW231857   0.192   3.354   5.409
10320SOL     OW31858   1.085   6.921   2.610
10320SOL    HW131859   1.014   6.866   2.655
10320SOL    HW231860   1.042   6.986   2.547
10321SOL     OW31861   4.177   1.966   1.897
10321SOL    HW131862   4.082   1.937   1.910
10321SOL    HW231863   4.218   1.987   1.985
10322SOL     OW31864   5.437   5.961   5.117
10322SOL    HW131865   5.459   5.957   5.214
10322SOL    HW231866   5.448   6.055   5.084
10323SOL     OW31867   6.021   4.306   5.046
10323SOL    HW131868   5.932   4.297   5.090
10323SOL    HW231869   6.028   4.241   4.971
10324SOL     OW31870   3.121   2.969   2.213
10324SOL    HW131871   3.188   2.944   2.282
10324SOL    HW231872   3.037   2.917   2.228
10325SOL     OW31873   6.678   4.170   2.087
10325SOL    HW131874   6.769   4.165   2.127
10325SOL    HW231875   6.683   4.142   1.991
10326SOL     OW31876   3.979   4.506   6.932
10326SOL    HW131877   4.022   4.573   6.871
10326SOL    HW231878   3.896   4.471   6.889
10327SOL     OW31879   1.969   2.004   0.579
10327SOL    HW131880   2.006   1.944   0.649
10327SOL    HW231881   1.876   2.032   0.604
10328SOL     OW31882   6.549   2.366   0.940
10328SOL    HW131883   6.519   2.461   0.947
10328SOL    HW231884   6.566   2.330   1.032
10329SOL     OW31885   3.163   1.196   3.697
10329SOL    HW131886   3.150   1.259   3.774
10329SOL    HW231887   3.096   1.217   3.626
10330SOL     OW31888   4.058   1.163   2.522
10330SOL    HW131889   4.059   1.231   2.595
10330SOL    HW231890   3.996   1.088   2.547
10331SOL     OW31891   6.441   0.834   6.066
10331SOL    HW131892   6.392   0.915   6.033
10331SOL    HW231893   6.418   0.817   6.161
10332SOL     OW31894   0.244   0.496   1.198
10332SOL    HW131895   0.226   0.488   1.100
10332SOL    HW231896   0.189   0.572   1.235
10333SOL     OW31897   0.375   4.737   4.986
10333SOL    HW131898   0.414   4.657   5.032
10333SOL    HW231899   0.277   4.722   4.971
10334SOL     OW31900   3.424   0.746   3.926
10334SOL    HW131901   3.462   0.742   3.834
10334SOL    HW231902   3.488   0.793   3.987
10335SOL     OW31903   3.045   4.277   6.301
10335SOL    HW131904   3.094   4.360   6.276
10335SOL    HW231905   3.034   4.219   6.220
10336SOL     OW31906   6.845   6.891   1.540
10336SOL    HW131907   6.813   6.803   1.506
10336SOL    HW231908   6.945   6.892   1.539
10337SOL     OW31909   0.307   6.461   5.914
10337SOL    HW131910   0.341   6.464   6.009
10337SOL    HW231911   0.376   6.418   5.856
10338SOL     OW31912   2.126   6.147   2.377
10338SOL    HW131913   2.213   6.123   2.334
10338SOL    HW231914   2.101   6.240   2.350
10339SOL     OW31915   4.557   3.553   6.500
10339SOL    HW131916   4.514   3.494   6.569
10339SOL    HW231917   4.594   3.634   6.544
10340SOL     OW31918   1.205   3.733   1.319
10340SOL    HW131919   1.119   3.783   1.313
10340SOL    HW231920   1.220   3.702   1.413
10341SOL     OW31921   2.043   3.306   2.479
10341SOL    HW131922   2.047   3.405   2.487
10341SOL    HW231923   2.061   3.264   2.568
10342SOL     OW31924   1.925   0.216   4.989
10342SOL    HW131925   1.893   0.190   4.898
10342SOL    HW231926   1.858   0.185   5.057
10343SOL     OW31927   3.839   5.270   6.860
10343SOL    HW131928   3.798   5.314   6.780
10343SOL    HW231929   3.925   5.315   6.883
10344SOL     OW31930   4.221   3.324   1.082
10344SOL    HW131931   4.245   3.411   1.038
10344SOL    HW231932   4.251   3.326   1.177
10345SOL     OW31933   1.485   1.567   6.279
10345SOL    HW131934   1.390   1.537   6.293
10345SOL    HW231935   1.547   1.504   6.325
10346SOL     OW31936   0.439   5.457   1.549
10346SOL    HW131937   0.506   5.507   1.604
10346SOL    HW231938   0.471   5.454   1.454
10347SOL     OW31939   3.970   1.833   3.655
10347SOL    HW131940   3.949   1.853   3.559
10347SOL    HW231941   4.068   1.824   3.667
10348SOL     OW31942   6.633   1.900   0.268
10348SOL    HW131943   6.728   1.895   0.239
10348SOL    HW231944   6.576   1.931   0.192
10349SOL     OW31945   0.976   0.874   0.280
10349SOL    HW131946   1.069   0.902   0.305
10349SOL    HW231947   0.965   0.776   0.297
10350SOL     OW31948   2.637   6.571   5.074
10350SOL    HW131949   2.676   6.557   4.983
10350SOL    HW231950   2.690   6.519   5.141
10351SOL     OW31951   4.356   4.589   5.742
10351SOL    HW131952   4.413   4.508   5.754
10351SOL    HW231953   4.266   4.562   5.710
10352SOL     OW31954   3.501   1.265   6.015
10352SOL    HW131955   3.451   1.328   5.955
10352SOL    HW231956   3.545   1.195   5.959
10353SOL     OW31957   6.405   2.919   5.421
10353SOL    HW131958   6.474   2.967   5.476
10353SOL    HW231959   6.383   2.832   5.464
10354SOL     OW31960   5.544   2.748   2.644
10354SOL    HW131961   5.628   2.694   2.643
10354SOL    HW231962   5.469   2.694   2.608
10355SOL     OW31963   2.031   6.809   1.732
10355SOL    HW131964   2.015   6.806   1.633
10355SOL    HW231965   1.943   6.818   1.779
10356SOL     OW31966   1.011   4.797   5.118
10356SOL    HW131967   0.923   4.829   5.084
10356SOL    HW231968   1.082   4.865   5.096
10357SOL     OW31969   1.717   2.914   6.502
10357SOL    HW131970   1.747   3.007   6.523
10357SOL    HW231971   1.679   2.872   6.585
10358SOL     OW31972   6.652   3.409   3.099
10358SOL    HW131973   6.702   3.338   3.051
10358SOL    HW231974   6.616   3.373   3.185
10359SOL     OW31975   0.944   1.628   1.436
10359SOL    HW131976   1.041   1.603   1.441
10359SOL    HW231977   0.898   1.600   1.520
10360SOL     OW31978   5.189   4.658   3.053
10360SOL    HW131979   5.273   4.649   3.000
10360SOL    HW231980   5.155   4.752   3.047
10361SOL     OW31981   2.818   6.479   3.490
10361SOL    HW131982   2.830   6.571   3.452
10361SOL    HW231983   2.892   6.420   3.458
10362SOL     OW31984   0.874   5.009   4.685
10362SOL    HW131985   0.812   4.954   4.741
10362SOL    HW231986   0.912   4.953   4.612
10363SOL     OW31987   4.685   0.980   1.458
10363SOL    HW131988   4.621   0.907   1.438
10363SOL    HW231989   4.705   1.031   1.374
10364SOL     OW31990   2.897   3.376   1.620
10364SOL    HW131991   2.972   3.357   1.683
10364SOL    HW231992   2.902   3.312   1.543
10365SOL     OW31993   4.283   4.404   6.117
10365SOL    HW131994   4.210   4.437   6.176
10365SOL    HW231995   4.255   4.319   6.073
10366SOL     OW31996   3.172   0.861   3.925
10366SOL    HW131997   3.250   0.799   3.908
10366SOL    HW231998   3.206   0.948   3.960
10367SOL     OW31999   6.651   2.275   2.751
10367SOL    HW132000   6.551   2.271   2.751
10367SOL    HW232001   6.688   2.195   2.702
10368SOL     OW32002   1.859   1.159   1.350
10368SOL    HW132003   1.845   1.196   1.258
10368SOL    HW232004   1.852   1.059   1.347
10369SOL     OW32005   4.005   0.407   5.598
10369SOL    HW132006   3.950   0.487   5.626
10369SOL    HW232007   4.099   0.436   5.583
10370SOL     OW32008   5.489   1.292   4.912
10370SOL    HW132009   5.532   1.223   4.855
10370SOL    HW232010   5.396   1.309   4.879
10371SOL     OW32011   2.957   6.070   4.846
10371SOL    HW132012   3.012   6.093   4.766
10371SOL    HW232013   2.959   5.971   4.860
10372SOL     OW32014   1.222   1.496   6.299
10372SOL    HW132015   1.180   1.467   6.213
10372SOL    HW232016   1.170   1.572   6.338
10373SOL     OW32017   2.311   6.043   4.668
10373SOL    HW132018   2.266   6.020   4.582
10373SOL    HW232019   2.248   6.095   4.726
10374SOL     OW32020   3.963   1.356   2.706
10374SOL    HW132021   3.956   1.455   2.719
10374SOL    HW232022   3.876   1.313   2.731
10375SOL     OW32023   3.691   1.627   6.257
10375SOL    HW132024   3.668   1.680   6.339
10375SOL    HW232025   3.760   1.559   6.280
10376SOL     OW32026   0.921   6.268   3.793
10376SOL    HW132027   0.981   6.309   3.724
10376SOL    HW232028   0.859   6.203   3.749
10377SOL     OW32029   6.828   0.493   3.892
10377SOL    HW132030   6.787   0.545   3.817
10377SOL    HW232031   6.807   0.396   3.881
10378SOL     OW32032   6.802   0.879   5.465
10378SOL    HW132033   6.851   0.947   5.520
10378SOL    HW232034   6.739   0.925   5.403
10379SOL     OW32035   3.729   0.251   5.004
10379SOL    HW132036   3.771   0.337   4.976
10379SOL    HW232037   3.661   0.269   5.075
10380SOL     OW32038   6.757   1.148   3.146
10380SOL    HW132039   6.845   1.142   3.194
10380SOL    HW232040   6.683   1.144   3.213
10381SOL     OW32041   4.597   5.639   6.037
10381SOL    HW132042   4.574   5.609   6.129
10381SOL    HW232043   4.513   5.647   5.983
10382SOL     OW32044   2.163   4.514   6.476
10382SOL    HW132045   2.228   4.562   6.417
10382SOL    HW232046   2.070   4.533   6.445
10383SOL     OW32047   0.548   3.344   0.949
10383SOL    HW132048   0.644   3.315   0.941
10383SOL    HW232049   0.519   3.387   0.863
10384SOL     OW32050   0.532   0.077   0.776
10384SOL    HW132051   0.580   7.021   0.739
10384SOL    HW232052   0.500   0.056   0.869
10385SOL     OW32053   4.783   0.023   6.648
10385SOL    HW132054   4.826   0.105   6.610
10385SOL    HW232055   4.831   7.017   6.731
10386SOL     OW32056   0.010   3.692   4.715
10386SOL    HW132057   0.074   3.722   4.785
10386SOL    HW232058   0.062   3.650   4.639
10387SOL     OW32059   3.966   2.164   2.503
10387SOL    HW132060   3.969   2.163   2.403
10387SOL    HW232061   4.034   2.100   2.539
10388SOL     OW32062   0.832   5.750   3.672
10388SOL    HW132063   0.763   5.775   3.740
10388SOL    HW232064   0.865   5.657   3.691
10389SOL     OW32065   0.418   6.011   2.065
10389SOL    HW132066   0.465   6.061   1.992
10389SOL    HW232067   0.480   6.002   2.144
10390SOL     OW32068   1.570   3.848   1.778
10390SOL    HW132069   1.511   3.822   1.854
10390SOL    HW232070   1.557   3.944   1.756
10391SOL     OW32071   1.334   5.643   5.558
10391SOL    HW132072   1.277   5.601   5.488
10391SOL    HW232073   1.431   5.624   5.539
10392SOL     OW32074   6.528   3.755   0.409
10392SOL    HW132075   6.623   3.735   0.433
10392SOL    HW232076   6.516   3.854   0.404
10393SOL     OW32077   1.545   1.522   2.794
10393SOL    HW132078   1.523   1.616   2.818
10393SOL    HW232079   1.532   1.510   2.695
10394SOL     OW32080   2.670   6.777   6.317
10394SOL    HW132081   2.601   6.722   6.269
10394SOL    HW232082   2.632   6.809   6.404
10395SOL     OW32083   6.289   0.953   4.778
10395SOL    HW132084   6.230   0.919   4.705
10395SOL    HW232085   6.363   1.008   4.739
10396SOL     OW32086   1.347   0.360   3.936
10396SOL    HW132087   1.297   0.444   3.918
10396SOL    HW232088   1.412   0.342   3.862
10397SOL     OW32089   3.756   1.706   3.746
10397SOL    HW132090   3.737   1.686   3.650
10397SOL    HW232091   3.827   1.776   3.752
10398SOL     OW32092   6.300   2.293   0.406
10398SOL    HW132093   6.332   2.229   0.476
10398SOL    HW232094   6.336   2.266   0.317
10399SOL     OW32095   4.420   1.378   5.557
10399SOL    HW132096   4.363   1.449   5.598
10399SOL    HW232097   4.378   1.346   5.472
10400SOL     OW32098   3.436   5.770   1.724
10400SOL    HW132099   3.398   5.803   1.810
10400SOL    HW232100   3.365   5.722   1.672
10401SOL     OW32101   6.738   6.918   2.287
10401SOL    HW132102   6.674   6.897   2.361
10401SOL    HW232103   6.687   6.950   2.208
10402SOL     OW32104   0.557   3.040   5.846
10402SOL    HW132105   0.569   2.977   5.769
10402SOL    HW232106   0.460   3.051   5.866
10403SOL     OW32107   5.471   1.597   2.468
10403SOL    HW132108   5.432   1.654   2.540
10403SOL    HW232109   5.496   1.508   2.506
10404SOL     OW32110   0.667   6.425   3.537
10404SOL    HW132111   0.581   6.377   3.518
10404SOL    HW232112   0.662   6.467   3.628
10405SOL     OW32113   1.808   5.427   5.435
10405SOL    HW132114   1.864   5.510   5.435
10405SOL    HW232115   1.853   5.356   5.381
10406SOL     OW32116   1.826   4.262   4.912
10406SOL    HW132117   1.912   4.215   4.890
10406SOL    HW232118   1.751   4.220   4.861
10407SOL     OW32119   1.694   0.835   6.599
10407SOL    HW132120   1.606   0.788   6.604
10407SOL    HW232121   1.724   0.841   6.503
10408SOL     OW32122   4.271   6.102   2.837
10408SOL    HW132123   4.361   6.145   2.841
10408SOL    HW232124   4.223   6.131   2.754
10409SOL     OW32125   0.475   4.797   1.275
10409SOL    HW132126   0.448   4.809   1.179
10409SOL    HW232127   0.460   4.702   1.302
10410SOL     OW32128   5.433   0.986   1.234
10410SOL    HW132129   5.423   0.893   1.200
10410SOL    HW232130   5.476   0.983   1.325
10411SOL     OW32131   2.256   4.760   4.220
10411SOL    HW132132   2.175   4.816   4.200
10411SOL    HW232133   2.299   4.794   4.304
10412SOL     OW32134   0.430   1.443   0.591
10412SOL    HW132135   0.330   1.451   0.587
10412SOL    HW232136   0.457   1.352   0.558
10413SOL     OW32137   1.108   2.437   0.802
10413SOL    HW132138   1.027   2.416   0.856
10413SOL    HW232139   1.188   2.393   0.842
10414SOL     OW32140   4.958   6.530   6.310
10414SOL    HW132141   4.905   6.460   6.357
10414SOL    HW232142   5.038   6.554   6.365
10415SOL     OW32143   1.546   4.797   3.606
10415SOL    HW132144   1.573   4.891   3.584
10415SOL    HW232145   1.446   4.791   3.612
10416SOL     OW32146   6.392   1.734   5.944
10416SOL    HW132147   6.423   1.780   5.860
10416SOL    HW232148   6.472   1.699   5.993
10417SOL     OW32149   4.349   4.622   3.274
10417SOL    HW132150   4.374   4.717   3.290
10417SOL    HW232151   4.416   4.561   3.317
10418SOL     OW32152   6.432   4.155   5.400
10418SOL    HW132153   6.390   4.207   5.325
10418SOL    HW232154   6.363   4.097   5.442
10419SOL     OW32155   2.813   1.326   5.101
10419SOL    HW132156   2.874   1.385   5.154
10419SOL    HW232157   2.783   1.249   5.158
10420SOL     OW32158   6.899   3.967   2.367
10420SOL    HW132159   6.803   3.940   2.370
10420SOL    HW232160   6.908   4.062   2.399
10421SOL     OW32161   1.474   3.971   4.090
10421SOL    HW132162   1.554   3.984   4.032
10421SOL    HW232163   1.476   4.036   4.166
10422SOL     OW32164   6.696   4.088   5.290
10422SOL    HW132165   6.604   4.083   5.331
10422SOL    HW232166   6.712   4.006   5.235
10423SOL     OW32167   3.749   4.920   4.245
10423SOL    HW132168   3.654   4.945   4.264
10423SOL    HW232169   3.801   4.920   4.331
10424SOL     OW32170   4.362   1.223   0.276
10424SOL    HW132171   4.456   1.189   0.269
10424SOL    HW232172   4.354   1.312   0.231
10425SOL     OW32173   1.133   6.639   1.595
10425SOL    HW132174   1.103   6.634   1.690
10425SOL    HW232175   1.206   6.707   1.587
10426SOL     OW32176   4.627   3.091   5.287
10426SOL    HW132177   4.597   3.018   5.226
10426SOL    HW232178   4.707   3.136   5.248
10427SOL     OW32179   5.491   5.929   5.390
10427SOL    HW132180   5.396   5.896   5.392
10427SOL    HW232181   5.524   5.941   5.483
10428SOL     OW32182   1.519   1.762   3.560
10428SOL    HW132183   1.524   1.663   3.570
10428SOL    HW232184   1.473   1.785   3.475
10429SOL     OW32185   1.174   3.408   2.376
10429SOL    HW132186   1.148   3.433   2.282
10429SOL    HW232187   1.222   3.485   2.418
10430SOL     OW32188   3.538   5.995   4.392
10430SOL    HW132189   3.638   5.998   4.396
10430SOL    HW232190   3.508   6.021   4.300
10431SOL     OW32191   2.687   1.711   4.637
10431SOL    HW132192   2.619   1.639   4.653
10431SOL    HW232193   2.779   1.672   4.643
10432SOL     OW32194   0.723   0.574   5.164
10432SOL    HW132195   0.714   0.597   5.261
10432SOL    HW232196   0.660   0.630   5.110
10433SOL     OW32197   1.600   6.630   1.872
10433SOL    HW132198   1.648   6.718   1.870
10433SOL    HW232199   1.661   6.559   1.837
10434SOL     OW32200   5.140   0.002   5.119
10434SOL    HW132201   5.046   7.012   5.088
10434SOL    HW232202   5.151   6.983   5.210
10435SOL     OW32203   1.071   2.544   6.364
10435SOL    HW132204   1.024   2.479   6.304
10435SOL    HW232205   1.054   2.637   6.333
10436SOL     OW32206   6.893   3.476   4.837
10436SOL    HW132207   6.912   3.568   4.802
10436SOL    HW232208   6.882   3.413   4.760
10437SOL     OW32209   4.898   4.822   5.266
10437SOL    HW132210   4.943   4.819   5.177
10437SOL    HW232211   4.929   4.903   5.316
10438SOL     OW32212   0.171   6.687   5.586
10438SOL    HW132213   0.127   6.615   5.640
10438SOL    HW232214   0.271   6.677   5.591
10439SOL     OW32215   6.625   1.066   4.751
10439SOL    HW132216   6.545   1.126   4.755
10439SOL    HW232217   6.693   1.105   4.690
10440SOL     OW32218   6.724   1.211   7.021
10440SOL    HW132219   6.652   1.197   6.953
10440SOL    HW232220   6.682   1.234   0.086
10441SOL     OW32221   3.346   1.562   1.321
10441SOL    HW132222   3.272   1.549   1.255
10441SOL    HW232223   3.346   1.657   1.353
10442SOL     OW32224   3.083   0.660   5.341
10442SOL    HW132225   3.179   0.637   5.356
10442SOL    HW232226   3.041   0.685   5.429
10443SOL     OW32227   0.208   2.146   3.032
10443SOL    HW132228   0.255   2.109   2.952
10443SOL    HW232229   0.129   2.088   3.053
10444SOL     OW32230   3.583   5.141   4.013
10444SOL    HW132231   3.521   5.064   4.027
10444SOL    HW232232   3.678   5.111   4.025
10445SOL     OW32233   0.152   3.590   2.269
10445SOL    HW132234   0.239   3.571   2.315
10445SOL    HW232235   0.087   3.628   2.334
10446SOL     OW32236   1.922   4.025   5.308
10446SOL    HW132237   1.902   4.103   5.248
10446SOL    HW232238   2.019   4.001   5.300
10447SOL     OW32239   6.200   1.957   2.834
10447SOL    HW132240   6.262   1.921   2.764
10447SOL    HW232241   6.109   1.918   2.821
10448SOL     OW32242   2.892   1.048   3.762
10448SOL    HW132243   2.862   0.974   3.823
10448SOL    HW232244   2.980   1.083   3.794
10449SOL     OW32245   3.479   5.052   6.697
10449SOL    HW132246   3.459   5.091   6.607
10449SOL    HW232247   3.459   4.954   6.696
10450SOL     OW32248   6.418   0.739   6.365
10450SOL    HW132249   6.481   0.782   6.429
10450SOL    HW232250   6.458   0.653   6.332
10451SOL     OW32251   2.577   0.629   3.724
10451SOL    HW132252   2.599   0.669   3.813
10451SOL    HW232253   2.640   0.554   3.705
10452SOL     OW32254   0.122   2.644   2.987
10452SOL    HW132255   0.168   2.570   3.035
10452SOL    HW232256   0.086   2.710   3.053
10453SOL     OW32257   4.431   6.362   2.429
10453SOL    HW132258   4.383   6.294   2.485
10453SOL    HW232259   4.364   6.426   2.392
10454SOL     OW32260   6.375   1.331   7.005
10454SOL    HW132261   6.326   1.282   0.054
10454SOL    HW232262   6.430   1.267   6.952
10455SOL     OW32263   6.056   6.140   4.211
10455SOL    HW132264   6.122   6.175   4.277
10455SOL    HW232265   6.035   6.211   4.144
10456SOL     OW32266   7.018   5.636   0.080
10456SOL    HW132267   6.941   5.607   0.137
10456SOL    HW232268   0.081   5.617   0.128
10457SOL     OW32269   4.701   3.623   6.938
10457SOL    HW132270   4.781   3.662   6.982
10457SOL    HW232271   4.715   3.525   6.925
10458SOL     OW32272   6.680   0.292   5.828
10458SOL    HW132273   6.658   0.243   5.744
10458SOL    HW232274   6.596   0.307   5.881
10459SOL     OW32275   6.696   5.328   0.795
10459SOL    HW132276   6.628   5.269   0.751
10459SOL    HW232277   6.729   5.284   0.879
10460SOL     OW32278   6.645   4.326   1.769
10460SOL    HW132279   6.649   4.350   1.672
10460SOL    HW232280   6.582   4.388   1.816
10461SOL     OW32281   6.449   4.459   5.230
10461SOL    HW132282   6.370   4.499   5.277
10461SOL    HW232283   6.501   4.402   5.294
10462SOL     OW32284   4.407   1.570   1.758
10462SOL    HW132285   4.361   1.532   1.839
10462SOL    HW232286   4.393   1.668   1.754
10463SOL     OW32287   4.564   1.388   6.253
10463SOL    HW132288   4.529   1.432   6.170
10463SOL    HW232289   4.543   1.291   6.251
10464SOL     OW32290   5.454   5.425   2.249
10464SOL    HW132291   5.425   5.447   2.156
10464SOL    HW232292   5.418   5.336   2.275
10465SOL     OW32293   5.387   4.050   3.269
10465SOL    HW132294   5.300   4.008   3.294
10465SOL    HW232295   5.427   4.000   3.193
10466SOL     OW32296   5.364   4.716   6.104
10466SOL    HW132297   5.301   4.662   6.049
10466SOL    HW232298   5.459   4.693   6.080
10467SOL     OW32299   1.775   2.887   6.852
10467SOL    HW132300   1.699   2.826   6.828
10467SOL    HW232301   1.740   2.964   6.904
10468SOL     OW32302   3.609   5.355   3.827
10468SOL    HW132303   3.637   5.309   3.742
10468SOL    HW232304   3.597   5.288   3.899
10469SOL     OW32305   5.155   4.033   5.850
10469SOL    HW132306   5.086   3.984   5.903
10469SOL    HW232307   5.245   3.995   5.870
10470SOL     OW32308   2.470   1.664   3.460
10470SOL    HW132309   2.546   1.711   3.416
10470SOL    HW232310   2.390   1.664   3.400
10471SOL     OW32311   2.672   0.708   0.055
10471SOL    HW132312   2.660   0.723   0.153
10471SOL    HW232313   2.624   0.779   0.004
10472SOL     OW32314   2.746   4.935   0.885
10472SOL    HW132315   2.668   4.913   0.827
10472SOL    HW232316   2.828   4.942   0.830
10473SOL     OW32317   5.407   5.913   6.302
10473SOL    HW132318   5.311   5.885   6.298
10473SOL    HW232319   5.433   5.927   6.398
10474SOL     OW32320   5.225   0.921   3.877
10474SOL    HW132321   5.303   0.867   3.907
10474SOL    HW232322   5.197   0.891   3.785
10475SOL     OW32323   2.401   6.117   1.728
10475SOL    HW132324   2.393   6.049   1.801
10475SOL    HW232325   2.497   6.141   1.715
10476SOL     OW32326   5.202   6.341   5.998
10476SOL    HW132327   5.167   6.347   5.905
10476SOL    HW232328   5.126   6.326   6.062
10477SOL     OW32329   0.053   6.577   4.181
10477SOL    HW132330   0.038   6.613   4.089
10477SOL    HW232331   0.144   6.535   4.186
10478SOL     OW32332   6.649   6.768   0.271
10478SOL    HW132333   6.555   6.735   0.282
10478SOL    HW232334   6.700   6.755   0.356
10479SOL     OW32335   6.946   2.253   2.140
10479SOL    HW132336   6.886   2.310   2.196
10479SOL    HW232337   0.018   2.279   2.158
10480SOL     OW32338   1.948   0.400   2.171
10480SOL    HW132339   1.908   0.492   2.173
10480SOL    HW232340   1.874   0.332   2.173
10481SOL     OW32341   0.747   6.312   2.945
10481SOL    HW132342   0.660   6.361   2.940
10481SOL    HW232343   0.743   6.245   3.019
10482SOL     OW32344   5.871   4.558   4.552
10482SOL    HW132345   5.888   4.629   4.484
10482SOL    HW232346   5.930   4.573   4.631
10483SOL     OW32347   5.477   5.599   0.544
10483SOL    HW132348   5.412   5.635   0.477
10483SOL    HW232349   5.518   5.515   0.509
10484SOL     OW32350   4.745   1.156   1.255
10484SOL    HW132351   4.645   1.164   1.259
10484SOL    HW232352   4.775   1.161   1.160
10485SOL     OW32353   3.626   3.935   6.832
10485SOL    HW132354   3.582   3.848   6.810
10485SOL    HW232355   3.559   4.009   6.825
10486SOL     OW32356   6.827   1.544   0.942
10486SOL    HW132357   6.770   1.619   0.910
10486SOL    HW232358   6.856   1.561   1.036
10487SOL     OW32359   4.873   6.537   2.269
10487SOL    HW132360   4.952   6.476   2.272
10487SOL    HW232361   4.877   6.601   2.346
10488SOL     OW32362   2.891   2.924   6.427
10488SOL    HW132363   2.898   2.844   6.368
10488SOL    HW232364   2.800   2.964   6.420
10489SOL     OW32365   0.700   0.055   5.666
10489SOL    HW132366   0.624   0.051   5.601
10489SOL    HW232367   0.701   6.994   5.721
10490SOL     OW32368   6.385   1.860   2.617
10490SOL    HW132369   6.403   1.958   2.619
10490SOL    HW232370   6.406   1.823   2.527
10491SOL     OW32371   1.702   3.652   6.882
10491SOL    HW132372   1.625   3.676   6.823
10491SOL    HW232373   1.786   3.647   6.826
10492SOL     OW32374   5.761   3.340   5.529
10492SOL    HW132375   5.694   3.409   5.557
10492SOL    HW232376   5.714   3.261   5.490
10493SOL     OW32377   3.241   0.879   1.679
10493SOL    HW132378   3.197   0.945   1.619
10493SOL    HW232379   3.214   0.786   1.653
10494SOL     OW32380   5.182   2.564   5.333
10494SOL    HW132381   5.275   2.575   5.298
10494SOL    HW232382   5.176   2.604   5.425
10495SOL     OW32383   2.435   6.929   0.312
10495SOL    HW132384   2.346   6.902   0.276
10495SOL    HW232385   2.426   7.016   0.361
10496SOL     OW32386   0.470   6.712   1.227
10496SOL    HW132387   0.546   6.699   1.163
10496SOL    HW232388   0.384   6.718   1.176
10497SOL     OW32389   2.075   6.593   2.142
10497SOL    HW132390   2.168   6.631   2.137
10497SOL    HW232391   2.009   6.665   2.122
10498SOL     OW32392   2.723   6.401   1.885
10498SOL    HW132393   2.739   6.498   1.906
10498SOL    HW232394   2.669   6.394   1.802
10499SOL     OW32395   3.034   6.250   2.391
10499SOL    HW132396   2.954   6.246   2.331
10499SOL    HW232397   3.049   6.344   2.420
10500SOL     OW32398   0.258   1.291   5.889
10500SOL    HW132399   0.227   1.386   5.882
10500SOL    HW232400   0.294   1.261   5.801
10501SOL     OW32401   1.601   5.617   3.476
10501SOL    HW132402   1.548   5.635   3.559
10501SOL    HW232403   1.658   5.696   3.455
10502SOL     OW32404   3.484   0.337   0.623
10502SOL    HW132405   3.437   0.300   0.703
10502SOL    HW232406   3.576   0.298   0.618
10503SOL     OW32407   4.308   2.626   0.582
10503SOL    HW132408   4.289   2.608   0.679
10503SOL    HW232409   4.337   2.721   0.572
10504SOL     OW32410   1.747   2.198   0.346
10504SOL    HW132411   1.679   2.174   0.276
10504SOL    HW232412   1.834   2.153   0.325
10505SOL     OW32413   6.164   5.608   0.369
10505SOL    HW132414   6.067   5.629   0.379
10505SOL    HW232415   6.181   5.575   0.276
10506SOL     OW32416   0.576   5.497   6.100
10506SOL    HW132417   0.479   5.474   6.090
10506SOL    HW232418   0.632   5.436   6.044
10507SOL     OW32419   2.321   6.291   0.063
10507SOL    HW132420   2.384   6.260   0.134
10507SOL    HW232421   2.235   6.242   0.070
10508SOL     OW32422   5.709   5.891   4.364
10508SOL    HW132423   5.635   5.824   4.354
10508SOL    HW232424   5.681   5.961   4.430
10509SOL     OW32425   0.567   6.935   5.902
10509SOL    HW132426   0.492   7.001   5.904
10509SOL    HW232427   0.549   6.864   5.835
10510SOL     OW32428   5.511   5.283   5.416
10510SOL    HW132429   5.599   5.264   5.374
10510SOL    HW232430   5.504   5.381   5.437
10511SOL     OW32431   4.699   2.715   1.359
10511SOL    HW132432   4.600   2.717   1.372
10511SOL    HW232433   4.744   2.755   1.439
10512SOL     OW32434   3.852   0.842   6.019
10512SOL    HW132435   3.760   0.838   6.056
10512SOL    HW232436   3.914   0.880   6.088
10513SOL     OW32437   6.584   3.203   5.517
10513SOL    HW132438   6.664   3.172   5.466
10513SOL    HW232439   6.591   3.302   5.532
10514SOL     OW32440   0.196   3.692   0.170
10514SOL    HW132441   0.205   3.613   0.109
10514SOL    HW232442   0.181   3.775   0.115
10515SOL     OW32443   6.092   3.021   2.994
10515SOL    HW132444   6.048   2.936   2.964
10515SOL    HW232445   6.025   3.077   3.042
10516SOL     OW32446   4.812   0.899   6.695
10516SOL    HW132447   4.829   0.813   6.743
10516SOL    HW232448   4.757   0.959   6.753
10517SOL     OW32449   0.649   2.049   2.888
10517SOL    HW132450   0.593   2.026   2.967
10517SOL    HW232451   0.735   2.089   2.918
10518SOL     OW32452   0.766   4.834   6.829
10518SOL    HW132453   0.778   4.918   6.881
10518SOL    HW232454   0.700   4.849   6.755
10519SOL     OW32455   2.905   2.679   6.276
10519SOL    HW132456   2.807   2.687   6.258
10519SOL    HW232457   2.925   2.589   6.315
10520SOL     OW32458   2.034   2.900   6.578
10520SOL    HW132459   1.966   2.890   6.651
10520SOL    HW232460   2.006   2.974   6.517
10521SOL     OW32461   6.196   5.371   1.575
10521SOL    HW132462   6.111   5.378   1.522
10521SOL    HW232463   6.262   5.438   1.539
10522SOL     OW32464   6.366   0.730   0.957
10522SOL    HW132465   6.464   0.749   0.949
10522SOL    HW232466   6.319   0.763   0.875
10523SOL     OW32467   0.267   6.648   4.667
10523SOL    HW132468   0.336   6.585   4.629
10523SOL    HW232469   0.256   6.725   4.604
10524SOL     OW32470   1.866   1.850   5.074
10524SOL    HW132471   1.882   1.899   5.160
10524SOL    HW232472   1.928   1.771   5.069
10525SOL     OW32473   3.119   6.605   5.942
10525SOL    HW132474   3.165   6.586   5.855
10525SOL    HW232475   3.109   6.704   5.954
10526SOL     OW32476   0.136   0.037   3.114
10526SOL    HW132477   0.204   7.005   3.161
10526SOL    HW232478   0.179   0.119   3.076
10527SOL     OW32479   0.034   2.450   4.232
10527SOL    HW132480   0.008   2.502   4.151
10527SOL    HW232481   7.001   2.480   4.310
10528SOL     OW32482   0.458   4.119   5.067
10528SOL    HW132483   0.394   4.188   5.102
10528SOL    HW232484   0.552   4.150   5.080
10529SOL     OW32485   1.296   6.181   3.268
10529SOL    HW132486   1.277   6.279   3.256
10529SOL    HW232487   1.271   6.154   3.361
10530SOL     OW32488   1.793   1.426   6.293
10530SOL    HW132489   1.854   1.474   6.230
10530SOL    HW232490   1.753   1.347   6.245
10531SOL     OW32491   1.100   3.160   4.798
10531SOL    HW132492   1.038   3.185   4.873
10531SOL    HW232493   1.123   3.063   4.806
10532SOL     OW32494   2.196   3.682   0.370
10532SOL    HW132495   2.186   3.582   0.370
10532SOL    HW232496   2.111   3.723   0.404
10533SOL     OW32497   3.213   1.812   4.264
10533SOL    HW132498   3.154   1.742   4.223
10533SOL    HW232499   3.170   1.847   4.347
10534SOL     OW32500   6.555   5.833   0.903
10534SOL    HW132501   6.480   5.895   0.881
10534SOL    HW232502   6.523   5.739   0.903
10535SOL     OW32503   0.129   2.694   1.768
10535SOL    HW132504   0.133   2.610   1.715
10535SOL    HW232505   0.221   2.725   1.788
10536SOL     OW32506   3.786   0.578   2.903
10536SOL    HW132507   3.710   0.555   2.841
10536SOL    HW232508   3.805   0.676   2.896
10537SOL     OW32509   3.241   5.880   3.180
10537SOL    HW132510   3.329   5.840   3.154
10537SOL    HW232511   3.167   5.824   3.145
10538SOL     OW32512   4.780   2.697   6.611
10538SOL    HW132513   4.741   2.685   6.703
10538SOL    HW232514   4.757   2.618   6.554
10539SOL     OW32515   0.572   4.169   6.479
10539SOL    HW132516   0.477   4.200   6.487
10539SOL    HW232517   0.629   4.245   6.448
10540SOL     OW32518   1.809   1.309   5.838
10540SOL    HW132519   1.901   1.345   5.821
10540SOL    HW232520   1.775   1.264   5.756
10541SOL     OW32521   3.646   3.635   1.681
10541SOL    HW132522   3.714   3.667   1.747
10541SOL    HW232523   3.569   3.698   1.678
10542SOL     OW32524   6.825   2.033   0.089
10542SOL    HW132525   6.902   2.016   0.028
10542SOL    HW232526   6.739   2.010   0.043
10543SOL     OW32527   0.891   1.220   4.696
10543SOL    HW132528   0.842   1.278   4.762
10543SOL    HW232529   0.981   1.260   4.678
10544SOL     OW32530   1.508   0.006   2.695
10544SOL    HW132531   1.438   6.990   2.635
10544SOL    HW232532   1.591   0.024   2.643
10545SOL     OW32533   6.243   0.989   2.751
10545SOL    HW132534   6.258   1.032   2.662
10545SOL    HW232535   6.278   0.895   2.749
10546SOL     OW32536   0.538   0.870   6.191
10546SOL    HW132537   0.545   0.957   6.141
10546SOL    HW232538   0.506   0.799   6.129
10547SOL     OW32539   4.623   2.188   1.095
10547SOL    HW132540   4.626   2.272   1.150
10547SOL    HW232541   4.528   2.163   1.078
10548SOL     OW32542   5.069   3.536   5.015
10548SOL    HW132543   4.983   3.585   5.001
10548SOL    HW232544   5.068   3.491   5.105
10549SOL     OW32545   6.381   0.576   2.046
10549SOL    HW132546   6.460   0.577   1.984
10549SOL    HW232547   6.343   0.668   2.053
10550SOL     OW32548   4.085   6.738   4.701
10550SOL    HW132549   4.070   6.697   4.791
10550SOL    HW232550   4.136   6.675   4.643
10551SOL     OW32551   1.706   2.622   5.452
10551SOL    HW132552   1.679   2.676   5.373
10551SOL    HW232553   1.667   2.663   5.535
10552SOL     OW32554   3.760   2.145   5.902
10552SOL    HW132555   3.690   2.117   5.836
10552SOL    HW232556   3.744   2.098   5.989
10553SOL     OW32557   1.289   4.753   1.775
10553SOL    HW132558   1.365   4.690   1.756
10553SOL    HW232559   1.211   4.730   1.715
10554SOL     OW32560   5.166   5.185   6.546
10554SOL    HW132561   5.151   5.253   6.618
10554SOL    HW232562   5.152   5.228   6.457
10555SOL     OW32563   2.690   2.816   1.140
10555SOL    HW132564   2.727   2.904   1.171
10555SOL    HW232565   2.687   2.814   1.040
10556SOL     OW32566   1.741   3.177   4.971
10556SOL    HW132567   1.777   3.268   4.990
10556SOL    HW232568   1.792   3.109   5.023
10557SOL     OW32569   1.178   2.761   3.050
10557SOL    HW132570   1.141   2.837   2.997
10557SOL    HW232571   1.192   2.790   3.144
10558SOL     OW32572   3.915   6.876   4.473
10558SOL    HW132573   4.009   6.904   4.455
10558SOL    HW232574   3.852   6.943   4.433
10559SOL     OW32575   3.698   1.135   0.945
10559SOL    HW132576   3.638   1.208   0.976
10559SOL    HW232577   3.729   1.154   0.852
10560SOL     OW32578   2.296   5.741   4.108
10560SOL    HW132579   2.358   5.678   4.154
10560SOL    HW232580   2.206   5.737   4.151
10561SOL     OW32581   2.543   4.667   0.129
10561SOL    HW132582   2.639   4.684   0.104
10561SOL    HW232583   2.515   4.577   0.095
10562SOL     OW32584   5.420   6.232   0.231
10562SOL    HW132585   5.367   6.282   0.300
10562SOL    HW232586   5.423   6.135   0.256
10563SOL     OW32587   1.313   0.617   4.102
10563SOL    HW132588   1.408   0.639   4.080
10563SOL    HW232589   1.291   0.650   4.194
10564SOL     OW32590   5.603   6.633   2.217
10564SOL    HW132591   5.601   6.693   2.297
10564SOL    HW232592   5.515   6.638   2.170
10565SOL     OW32593   0.347   0.793   5.675
10565SOL    HW132594   0.399   0.876   5.656
10565SOL    HW232595   0.262   0.794   5.622
10566SOL     OW32596   4.372   2.962   0.038
10566SOL    HW132597   4.272   2.968   0.044
10566SOL    HW232598   4.411   3.052   0.057
10567SOL     OW32599   2.249   3.005   3.802
10567SOL    HW132600   2.333   3.060   3.795
10567SOL    HW232601   2.193   3.020   3.720
10568SOL     OW32602   5.337   1.351   1.462
10568SOL    HW132603   5.297   1.342   1.371
10568SOL    HW232604   5.351   1.260   1.502
10569SOL     OW32605   6.460   2.896   1.629
10569SOL    HW132606   6.493   2.809   1.592
10569SOL    HW232607   6.461   2.966   1.557
10570SOL     OW32608   2.052   5.203   2.523
10570SOL    HW132609   2.037   5.110   2.556
10570SOL    HW232610   1.990   5.265   2.571
10571SOL     OW32611   0.464   5.023   4.301
10571SOL    HW132612   0.537   5.051   4.363
10571SOL    HW232613   0.418   5.104   4.264
10572SOL     OW32614   6.424   3.125   3.543
10572SOL    HW132615   6.431   3.159   3.449
10572SOL    HW232616   6.371   3.040   3.544
10573SOL     OW32617   5.587   6.158   3.977
10573SOL    HW132618   5.560   6.111   3.893
10573SOL    HW232619   5.670   6.117   4.012
10574SOL     OW32620   1.994   2.324   4.253
10574SOL    HW132621   1.897   2.337   4.275
10574SOL    HW232622   2.015   2.227   4.249
10575SOL     OW32623   0.184   0.993   3.772
10575SOL    HW132624   0.255   0.966   3.837
10575SOL    HW232625   0.226   1.039   3.694
10576SOL     OW32626   0.321   6.354   5.514
10576SOL    HW132627   0.296   6.347   5.418
10576SOL    HW232628   0.246   6.318   5.570
10577SOL     OW32629   1.268   2.657   6.699
10577SOL    HW132630   1.276   2.677   6.602
10577SOL    HW232631   1.358   2.635   6.736
10578SOL     OW32632   6.643   0.310   3.346
10578SOL    HW132633   6.722   0.335   3.289
10578SOL    HW232634   6.674   0.250   3.420
10579SOL     OW32635   3.492   2.242   0.351
10579SOL    HW132636   3.525   2.318   0.295
10579SOL    HW232637   3.463   2.276   0.440
10580SOL     OW32638   6.781   0.340   0.235
10580SOL    HW132639   6.695   0.377   0.271
10580SOL    HW232640   6.764   0.300   0.145
10581SOL     OW32641   5.874   0.315   2.561
10581SOL    HW132642   5.922   0.348   2.642
10581SOL    HW232643   5.920   0.233   2.526
10582SOL     OW32644   4.094   4.886   6.593
10582SOL    HW132645   4.017   4.927   6.642
10582SOL    HW232646   4.166   4.955   6.581
10583SOL     OW32647   4.138   0.817   5.692
10583SOL    HW132648   4.140   0.906   5.737
10583SOL    HW232649   4.182   0.823   5.603
10584SOL     OW32650   6.092   6.909   0.928
10584SOL    HW132651   6.132   6.901   0.837
10584SOL    HW232652   5.992   6.900   0.921
10585SOL     OW32653   1.552   3.225   5.583
10585SOL    HW132654   1.596   3.310   5.552
10585SOL    HW232655   1.527   3.170   5.504
10586SOL     OW32656   1.770   5.939   5.727
10586SOL    HW132657   1.854   5.885   5.722
10586SOL    HW232658   1.722   5.919   5.812
10587SOL     OW32659   5.946   4.234   6.980
10587SOL    HW132660   5.869   4.287   6.945
10587SOL    HW232661   5.912   4.165   0.021
10588SOL     OW32662   0.912   4.275   1.641
10588SOL    HW132663   0.885   4.186   1.679
10588SOL    HW232664   0.948   4.333   1.715
10589SOL     OW32665   5.577   1.365   4.443
10589SOL    HW132666   5.671   1.389   4.470
10589SOL    HW232667   5.537   1.440   4.391
10590SOL     OW32668   1.145   0.637   1.805
10590SOL    HW132669   1.234   0.601   1.834
10590SOL    HW232670   1.086   0.561   1.779
10591SOL     OW32671   1.480   1.659   6.015
10591SOL    HW132672   1.508   1.645   6.109
10591SOL    HW232673   1.559   1.653   5.954
10592SOL     OW32674   5.712   2.715   0.693
10592SOL    HW132675   5.693   2.624   0.729
10592SOL    HW232676   5.712   2.712   0.593
10593SOL     OW32677   2.938   5.032   0.656
10593SOL    HW132678   3.035   5.031   0.633
10593SOL    HW232679   2.885   4.997   0.579
10594SOL     OW32680   5.758   1.542   3.810
10594SOL    HW132681   5.729   1.520   3.904
10594SOL    HW232682   5.740   1.464   3.751
10595SOL     OW32683   3.643   0.292   6.337
10595SOL    HW132684   3.722   0.236   6.311
10595SOL    HW232685   3.664   0.389   6.323
10596SOL     OW32686   4.059   6.934   1.799
10596SOL    HW132687   4.099   6.885   1.877
10596SOL    HW232688   4.123   7.006   1.770
10597SOL     OW32689   2.681   1.349   4.678
10597SOL    HW132690   2.651   1.259   4.645
10597SOL    HW232691   2.638   1.420   4.622
10598SOL     OW32692   2.724   2.762   0.264
10598SOL    HW132693   2.647   2.706   0.293
10598SOL    HW232694   2.782   2.710   0.202
10599SOL     OW32695   5.455   2.203   0.205
10599SOL    HW132696   5.457   2.140   0.283
10599SOL    HW232697   5.534   2.264   0.211
10600SOL     OW32698   1.845   3.332   0.616
10600SOL    HW132699   1.850   3.233   0.633
10600SOL    HW232700   1.873   3.351   0.522
10601SOL     OW32701   2.318   5.352   5.912
10601SOL    HW132702   2.352   5.340   5.818
10601SOL    HW232703   2.344   5.273   5.967
10602SOL     OW32704   5.325   1.416   2.947
10602SOL    HW132705   5.375   1.498   2.918
10602SOL    HW232706   5.309   1.357   2.867
10603SOL     OW32707   2.411   5.966   3.299
10603SOL    HW132708   2.438   6.060   3.319
10603SOL    HW232709   2.381   5.959   3.204
10604SOL     OW32710   5.716   4.279   4.735
10604SOL    HW132711   5.687   4.222   4.812
10604SOL    HW232712   5.649   4.272   4.661
10605SOL     OW32713   1.008   4.661   0.433
10605SOL    HW132714   1.061   4.742   0.460
10605SOL    HW232715   0.913   4.674   0.459
10606SOL     OW32716   5.940   0.704   2.157
10606SOL    HW132717   5.975   0.794   2.134
10606SOL    HW232718   6.010   0.635   2.138
10607SOL     OW32719   4.219   3.557   5.620
10607SOL    HW132720   4.222   3.524   5.525
10607SOL    HW232721   4.247   3.653   5.622
10608SOL     OW32722   5.984   2.020   5.017
10608SOL    HW132723   6.029   2.088   4.959
10608SOL    HW232724   5.966   2.060   5.107
10609SOL     OW32725   2.956   6.209   1.960
10609SOL    HW132726   3.024   6.232   1.891
10609SOL    HW232727   2.885   6.279   1.962
10610SOL     OW32728   0.310   4.212   6.459
10610SOL    HW132729   0.275   4.120   6.438
10610SOL    HW232730   0.239   4.263   6.508
10611SOL     OW32731   5.233   3.372   6.697
10611SOL    HW132732   5.180   3.289   6.680
10611SOL    HW232733   5.189   3.449   6.651
10612SOL     OW32734   2.468   7.001   5.596
10612SOL    HW132735   2.568   7.005   5.606
10612SOL    HW232736   2.436   0.062   5.552
10613SOL     OW32737   0.260   6.996   5.638
10613SOL    HW132738   0.226   6.903   5.635
10613SOL    HW232739   0.299   7.015   5.729
10614SOL     OW32740   0.087   1.900   4.523
10614SOL    HW132741   0.025   1.878   4.447
10614SOL    HW232742   0.176   1.860   4.505
10615SOL     OW32743   4.277   5.605   5.605
10615SOL    HW132744   4.301   5.695   5.569
10615SOL    HW232745   4.196   5.571   5.558
10616SOL     OW32746   3.572   6.281   0.598
10616SOL    HW132747   3.487   6.331   0.585
10616SOL    HW232748   3.630   6.291   0.517
10617SOL     OW32749   2.239   2.679   0.702
10617SOL    HW132750   2.210   2.711   0.793
10617SOL    HW232751   2.244   2.579   0.702
10618SOL     OW32752   5.600   2.947   0.051
10618SOL    HW132753   5.551   2.965   6.989
10618SOL    HW232754   5.555   2.873   0.101
10619SOL     OW32755   0.261   3.493   1.728
10619SOL    HW132756   0.294   3.575   1.680
10619SOL    HW232757   0.225   3.428   1.661
10620SOL     OW32758   0.911   6.076   5.131
10620SOL    HW132759   0.843   6.026   5.185
10620SOL    HW232760   0.918   6.035   5.040
10621SOL     OW32761   1.559   5.768   0.886
10621SOL    HW132762   1.650   5.798   0.860
10621SOL    HW232763   1.491   5.830   0.846
10622SOL     OW32764   4.432   1.011   0.903
10622SOL    HW132765   4.529   1.007   0.924
10622SOL    HW232766   4.391   0.920   0.916
10623SOL     OW32767   6.040   3.282   3.618
10623SOL    HW132768   6.119   3.250   3.670
10623SOL    HW232769   6.023   3.378   3.640
10624SOL     OW32770   1.146   1.116   4.513
10624SOL    HW132771   1.144   1.048   4.440
10624SOL    HW232772   1.089   1.194   4.489
10625SOL     OW32773   0.706   4.243   6.933
10625SOL    HW132774   0.778   4.302   6.897
10625SOL    HW232775   0.728   4.147   6.913
10626SOL     OW32776   0.758   2.589   1.487
10626SOL    HW132777   0.747   2.506   1.433
10626SOL    HW232778   0.685   2.595   1.555
10627SOL     OW32779   5.478   6.151   2.195
10627SOL    HW132780   5.504   6.235   2.148
10627SOL    HW232781   5.454   6.171   2.289
10628SOL     OW32782   5.538   5.304   5.735
10628SOL    HW132783   5.502   5.390   5.698
10628SOL    HW232784   5.500   5.227   5.684
10629SOL     OW32785   2.692   4.497   5.356
10629SOL    HW132786   2.766   4.509   5.290
10629SOL    HW232787   2.610   4.465   5.309
10630SOL     OW32788   6.583   0.620   3.377
10630SOL    HW132789   6.570   0.693   3.444
10630SOL    HW232790   6.657   0.645   3.314
10631SOL     OW32791   1.623   5.736   4.542
10631SOL    HW132792   1.711   5.691   4.559
10631SOL    HW232793   1.622   5.772   4.448
10632SOL     OW32794   5.541   2.340   4.241
10632SOL    HW132795   5.458   2.341   4.185
10632SOL    HW232796   5.540   2.260   4.301
10633SOL     OW32797   3.002   3.817   1.512
10633SOL    HW132798   3.098   3.822   1.541
10633SOL    HW232799   2.960   3.907   1.520
10634SOL     OW32800   3.460   5.359   0.780
10634SOL    HW132801   3.500   5.290   0.720
10634SOL    HW232802   3.422   5.434   0.725
10635SOL     OW32803   2.595   1.462   1.414
10635SOL    HW132804   2.680   1.410   1.404
10635SOL    HW232805   2.562   1.489   1.323
10636SOL     OW32806   1.231   2.633   2.026
10636SOL    HW132807   1.194   2.541   2.009
10636SOL    HW232808   1.301   2.654   1.958
10637SOL     OW32809   3.795   3.731   5.706
10637SOL    HW132810   3.701   3.705   5.683
10637SOL    HW232811   3.824   3.805   5.645
10638SOL     OW32812   7.019   5.923   2.632
10638SOL    HW132813   0.075   5.947   2.575
10638SOL    HW232814   6.944   5.893   2.574
10639SOL     OW32815   0.641   1.477   3.559
10639SOL    HW132816   0.621   1.490   3.656
10639SOL    HW232817   0.598   1.550   3.506
10640SOL     OW32818   4.093   0.039   6.700
10640SOL    HW132819   4.080   7.011   6.615
10640SOL    HW232820   4.039   0.123   6.697
10641SOL     OW32821   3.724   2.072   0.110
10641SOL    HW132822   3.805   2.026   0.074
10641SOL    HW232823   3.728   2.075   0.210
10642SOL     OW32824   0.502   3.266   1.522
10642SOL    HW132825   0.438   3.227   1.456
10642SOL    HW232826   0.450   3.302   1.600
10643SOL     OW32827   1.877   4.585   6.094
10643SOL    HW132828   1.970   4.577   6.056
10643SOL    HW232829   1.816   4.621   6.023
10644SOL     OW32830   4.911   2.189   3.730
10644SOL    HW132831   4.852   2.161   3.806
10644SOL    HW232832   4.900   2.287   3.713
10645SOL     OW32833   0.921   1.055   4.136
10645SOL    HW132834   0.851   1.088   4.200
10645SOL    HW232835   0.937   1.125   4.066
10646SOL     OW32836   0.926   1.773   5.540
10646SOL    HW132837   0.956   1.819   5.623
10646SOL    HW232838   1.003   1.762   5.478
10647SOL     OW32839   5.097   6.026   6.459
10647SOL    HW132840   5.014   5.998   6.507
10647SOL    HW232841   5.116   5.962   6.385
10648SOL     OW32842   5.141   3.032   6.228
10648SOL    HW132843   5.200   2.973   6.284
10648SOL    HW232844   5.046   3.016   6.253
10649SOL     OW32845   0.212   4.426   3.646
10649SOL    HW132846   0.162   4.487   3.585
10649SOL    HW232847   0.241   4.477   3.728
10650SOL     OW32848   1.249   6.658   3.298
10650SOL    HW132849   1.203   6.577   3.264
10650SOL    HW232850   1.348   6.646   3.290
10651SOL     OW32851   4.802   6.751   5.724
10651SOL    HW132852   4.792   6.803   5.808
10651SOL    HW232853   4.752   6.797   5.650
10652SOL     OW32854   3.541   0.189   6.938
10652SOL    HW132855   3.449   0.189   6.899
10652SOL    HW232856   3.602   0.241   6.877
10653SOL     OW32857   5.254   4.836   4.223
10653SOL    HW132858   5.308   4.912   4.258
10653SOL    HW232859   5.312   4.755   4.215
10654SOL     OW32860   3.833   0.361   1.396
10654SOL    HW132861   3.871   0.318   1.313
10654SOL    HW232862   3.908   0.396   1.451
10655SOL     OW32863   3.380   5.272   1.443
10655SOL    HW132864   3.426   5.343   1.496
10655SOL    HW232865   3.380   5.187   1.494
10656SOL     OW32866   6.348   2.142   0.629
10656SOL    HW132867   6.286   2.179   0.698
10656SOL    HW232868   6.321   2.048   0.607
10657SOL     OW32869   6.385   6.915   0.253
10657SOL    HW132870   6.453   6.987   0.269
10657SOL    HW232871   6.385   6.891   0.156
10658SOL     OW32872   0.304   4.428   4.748
10658SOL    HW132873   0.401   4.407   4.738
10658SOL    HW232874   0.267   4.458   4.660
10659SOL     OW32875   6.885   6.723   1.187
10659SOL    HW132876   6.786   6.730   1.185
10659SOL    HW232877   6.925   6.796   1.130
10660SOL     OW32878   5.279   4.135   6.347
10660SOL    HW132879   5.253   4.157   6.441
10660SOL    HW232880   5.378   4.145   6.336
10661SOL     OW32881   6.914   6.448   2.698
10661SOL    HW132882   6.910   6.385   2.775
10661SOL    HW232883   7.006   6.446   2.658
10662SOL     OW32884   6.048   1.204   2.114
10662SOL    HW132885   6.041   1.255   2.028
10662SOL    HW232886   6.123   1.240   2.169
10663SOL     OW32887   0.780   0.112   1.055
10663SOL    HW132888   0.776   0.033   0.995
10663SOL    HW232889   0.858   0.104   1.117
10664SOL     OW32890   2.274   4.211   6.464
10664SOL    HW132891   2.282   4.304   6.427
10664SOL    HW232892   2.205   4.210   6.536
10665SOL     OW32893   0.948   0.974   6.655
10665SOL    HW132894   0.910   0.937   6.740
10665SOL    HW232895   0.878   0.973   6.584
10666SOL     OW32896   4.031   4.127   0.046
10666SOL    HW132897   3.945   4.131   7.019
10666SOL    HW232898   4.101   4.178   7.018
10667SOL     OW32899   4.087   1.683   5.452
10667SOL    HW132900   4.103   1.586   5.466
10667SOL    HW232901   4.077   1.728   5.541
10668SOL     OW32902   1.172   1.970   5.711
10668SOL    HW132903   1.088   2.010   5.747
10668SOL    HW232904   1.251   2.016   5.751
10669SOL     OW32905   0.241   6.602   0.716
10669SOL    HW132906   0.240   6.692   0.673
10669SOL    HW232907   0.163   6.548   0.683
10670SOL     OW32908   5.243   4.563   5.902
10670SOL    HW132909   5.293   4.632   5.849
10670SOL    HW232910   5.146   4.568   5.881
10671SOL     OW32911   2.062   3.473   2.784
10671SOL    HW132912   2.105   3.552   2.828
10671SOL    HW232913   1.970   3.460   2.821
10672SOL     OW32914   6.943   2.894   0.717
10672SOL    HW132915   6.910   2.885   0.811
10672SOL    HW232916   6.915   2.815   0.663
10673SOL     OW32917   2.661   2.344   5.790
10673SOL    HW132918   2.654   2.363   5.692
10673SOL    HW232919   2.574   2.365   5.835
10674SOL     OW32920   3.808   3.443   0.516
10674SOL    HW132921   3.764   3.457   0.605
10674SOL    HW232922   3.905   3.464   0.523
10675SOL     OW32923   0.728   0.789   5.366
10675SOL    HW132924   0.741   0.718   5.435
10675SOL    HW232925   0.798   0.860   5.377
10676SOL     OW32926   6.060   0.206   5.953
10676SOL    HW132927   6.115   0.175   5.876
10676SOL    HW232928   6.038   0.128   6.012
10677SOL     OW32929   0.927   0.843   2.111
10677SOL    HW132930   0.849   0.898   2.141
10677SOL    HW232931   1.012   0.889   2.135
10678SOL     OW32932   3.669   5.352   2.878
10678SOL    HW132933   3.718   5.342   2.964
10678SOL    HW232934   3.658   5.449   2.857
10679SOL     OW32935   5.543   5.685   5.033
10679SOL    HW132936   5.611   5.638   5.088
10679SOL    HW232937   5.530   5.778   5.068
10680SOL     OW32938   1.571   3.212   2.965
10680SOL    HW132939   1.500   3.272   2.929
10680SOL    HW232940   1.575   3.221   3.065
10681SOL     OW32941   6.471   4.037   6.768
10681SOL    HW132942   6.537   4.063   6.839
10681SOL    HW232943   6.399   4.106   6.762
10682SOL     OW32944   1.830   1.836   2.797
10682SOL    HW132945   1.859   1.743   2.775
10682SOL    HW232946   1.730   1.839   2.802
10683SOL     OW32947   2.628   2.435   3.997
10683SOL    HW132948   2.711   2.380   3.995
10683SOL    HW232949   2.600   2.451   4.092
10684SOL     OW32950   5.057   3.953   0.478
10684SOL    HW132951   4.986   3.896   0.437
10684SOL    HW232952   5.144   3.905   0.477
10685SOL     OW32953   0.966   3.922   2.959
10685SOL    HW132954   0.886   3.969   2.923
10685SOL    HW232955   0.957   3.824   2.941
10686SOL     OW32956   4.352   5.957   6.862
10686SOL    HW132957   4.448   5.930   6.873
10686SOL    HW232958   4.306   5.893   6.800
10687SOL     OW32959   0.101   5.347   1.970
10687SOL    HW132960   0.152   5.415   1.918
10687SOL    HW232961   0.163   5.297   2.031
10688SOL     OW32962   5.995   4.427   2.333
10688SOL    HW132963   6.051   4.448   2.253
10688SOL    HW232964   5.911   4.382   2.304
10689SOL     OW32965   6.998   6.921   2.959
10689SOL    HW132966   0.049   6.961   3.013
10689SOL    HW232967   0.008   6.836   2.917
10690SOL     OW32968   4.697   5.670   3.102
10690SOL    HW132969   4.713   5.728   3.182
10690SOL    HW232970   4.786   5.643   3.063
10691SOL     OW32971   6.514   1.268   1.756
10691SOL    HW132972   6.465   1.355   1.756
10691SOL    HW232973   6.477   1.208   1.827
10692SOL     OW32974   2.986   5.808   3.573
10692SOL    HW132975   2.936   5.830   3.656
10692SOL    HW232976   3.007   5.711   3.571
10693SOL     OW32977   1.476   1.316   1.212
10693SOL    HW132978   1.546   1.317   1.140
10693SOL    HW232979   1.470   1.225   1.251
10694SOL     OW32980   3.167   6.225   1.394
10694SOL    HW132981   3.231   6.300   1.382
10694SOL    HW232982   3.184   6.154   1.325
10695SOL     OW32983   6.693   2.549   3.976
10695SOL    HW132984   6.603   2.564   4.019
10695SOL    HW232985   6.746   2.633   3.980
10696SOL     OW32986   6.855   5.505   1.550
10696SOL    HW132987   6.827   5.490   1.455
10696SOL    HW232988   6.916   5.430   1.579
10697SOL     OW32989   0.271   6.195   3.632
10697SOL    HW132990   0.243   6.112   3.585
10697SOL    HW232991   0.260   6.182   3.731
10698SOL     OW32992   3.046   0.426   3.711
10698SOL    HW132993   3.107   0.348   3.700
10698SOL    HW232994   3.053   0.485   3.630
10699SOL     OW32995   4.487   1.281   2.911
10699SOL    HW132996   4.421   1.332   2.966
10699SOL    HW232997   4.444   1.200   2.872
10700SOL     OW32998   0.991   0.352   0.382
10700SOL    HW132999   1.059   0.345   0.309
10700SOL    HW233000   1.015   0.290   0.457
10701SOL     OW33001   4.387   6.103   6.617
10701SOL    HW133002   4.314   6.089   6.551
10701SOL    HW233003   4.360   6.065   6.705
10702SOL     OW33004   5.658   2.420   1.381
10702SOL    HW133005   5.721   2.398   1.307
10702SOL    HW233006   5.706   2.473   1.451
10703SOL     OW33007   3.658   3.760   3.053
10703SOL    HW133008   3.745   3.713   3.068
10703SOL    HW233009   3.591   3.695   3.017
10704SOL     OW33010   4.864   6.681   2.045
10704SOL    HW133011   4.880   6.642   2.135
10704SOL    HW233012   4.801   6.622   1.994
10705SOL     OW33013   1.391   3.478   6.528
10705SOL    HW133014   1.414   3.406   6.594
10705SOL    HW233015   1.459   3.551   6.534
10706SOL     OW33016   4.586   0.694   2.414
10706SOL    HW133017   4.545   0.785   2.418
10706SOL    HW233018   4.621   0.669   2.504
10707SOL     OW33019   0.107   6.806   5.920
10707SOL    HW133020   0.025   6.855   5.890
10707SOL    HW233021   0.110   6.715   5.878
10708SOL     OW33022   4.857   0.840   1.168
10708SOL    HW133023   4.852   0.746   1.201
10708SOL    HW233024   4.948   0.877   1.188
10709SOL     OW33025   6.323   0.651   5.451
10709SOL    HW133026   6.417   0.629   5.422
10709SOL    HW233027   6.319   0.747   5.480
10710SOL     OW33028   6.607   5.836   4.002
10710SOL    HW133029   6.549   5.900   4.053
10710SOL    HW233030   6.580   5.742   4.023
10711SOL     OW33031   2.132   0.386   4.072
10711SOL    HW133032   2.105   0.306   4.019
10711SOL    HW233033   2.072   0.395   4.151
10712SOL     OW33034   3.706   1.228   4.990
10712SOL    HW133035   3.754   1.238   4.903
10712SOL    HW233036   3.645   1.149   4.986
10713SOL     OW33037   2.159   5.494   2.164
10713SOL    HW133038   2.197   5.478   2.073
10713SOL    HW233039   2.106   5.579   2.163
10714SOL     OW33040   0.431   4.843   4.708
10714SOL    HW133041   0.358   4.824   4.642
10714SOL    HW233042   0.394   4.838   4.801
10715SOL     OW33043   4.928   1.856   4.251
10715SOL    HW133044   4.993   1.902   4.190
10715SOL    HW233045   4.944   1.758   4.249
10716SOL     OW33046   6.346   1.215   4.051
10716SOL    HW133047   6.399   1.137   4.084
10716SOL    HW233048   6.249   1.199   4.068
10717SOL     OW33049   0.401   1.345   1.384
10717SOL    HW133050   0.314   1.365   1.340
10717SOL    HW233051   0.468   1.316   1.316
10718SOL     OW33052   6.611   5.562   0.433
10718SOL    HW133053   6.680   5.560   0.505
10718SOL    HW233054   6.534   5.618   0.463
10719SOL     OW33055   4.971   0.764   2.659
10719SOL    HW133056   4.893   0.713   2.624
10719SOL    HW233057   5.052   0.705   2.663
10720SOL     OW33058   6.975   3.761   5.918
10720SOL    HW133059   0.025   3.796   5.978
10720SOL    HW233060   6.983   3.662   5.912
10721SOL     OW33061   6.225   2.115   4.631
10721SOL    HW133062   6.274   2.056   4.696
10721SOL    HW233063   6.289   2.149   4.562
10722SOL     OW33064   6.535   3.538   0.213
10722SOL    HW133065   6.623   3.511   0.252
10722SOL    HW233066   6.493   3.608   0.272
10723SOL     OW33067   5.187   4.096   6.905
10723SOL    HW133068   5.168   4.076   6.809
10723SOL    HW233069   5.240   4.021   6.945
10724SOL     OW33070   4.538   6.686   6.000
10724SOL    HW133071   4.500   6.736   6.078
10724SOL    HW233072   4.638   6.688   6.004
10725SOL     OW33073   0.564   6.355   4.173
10725SOL    HW133074   0.638   6.408   4.131
10725SOL    HW233075   0.529   6.289   4.107
10726SOL     OW33076   5.458   0.809   5.068
10726SOL    HW133077   5.405   0.724   5.077
10726SOL    HW233078   5.459   0.857   5.156
10727SOL     OW33079   2.395   5.043   5.018
10727SOL    HW133080   2.475   5.036   4.958
10727SOL    HW233081   2.424   5.040   5.113
10728SOL     OW33082   4.698   0.001   2.515
10728SOL    HW133083   4.604   7.001   2.542
10728SOL    HW233084   4.696   0.059   2.434
10729SOL     OW33085   6.058   2.525   2.918
10729SOL    HW133086   6.074   2.428   2.902
10729SOL    HW233087   6.034   2.540   3.014
10730SOL     OW33088   2.430   6.014   2.593
10730SOL    HW133089   2.528   5.993   2.592
10730SOL    HW233090   2.411   6.089   2.530
10731SOL     OW33091   3.307   5.427   0.272
10731SOL    HW133092   3.324   5.518   0.309
10731SOL    HW233093   3.390   5.372   0.279
10732SOL     OW33094   5.296   6.487   2.842
10732SOL    HW133095   5.202   6.461   2.863
10732SOL    HW233096   5.316   6.464   2.747
10733SOL     OW33097   5.756   1.295   0.149
10733SOL    HW133098   5.746   1.213   0.094
10733SOL    HW233099   5.686   1.362   0.123
10734SOL     OW33100   0.618   0.231   6.496
10734SOL    HW133101   0.693   0.188   6.545
10734SOL    HW233102   0.577   0.166   6.432
10735SOL     OW33103   0.678   5.251   2.363
10735SOL    HW133104   0.734   5.194   2.425
10735SOL    HW233105   0.679   5.345   2.396
10736SOL     OW33106   6.869   0.816   4.138
10736SOL    HW133107   6.942   0.778   4.194
10736SOL    HW233108   6.840   0.904   4.176
10737SOL     OW33109   0.155   2.014   1.090
10737SOL    HW133110   0.136   1.918   1.071
10737SOL    HW233111   0.230   2.046   1.032
10738SOL     OW33112   2.599   1.264   2.455
10738SOL    HW133113   2.545   1.341   2.420
10738SOL    HW233114   2.665   1.296   2.522
10739SOL     OW33115   6.306   2.060   3.056
10739SOL    HW133116   6.243   2.047   3.133
10739SOL    HW233117   6.271   2.014   2.975
10740SOL     OW33118   1.303   6.840   5.778
10740SOL    HW133119   1.299   6.792   5.690
10740SOL    HW233120   1.316   6.774   5.852
10741SOL     OW33121   1.459   2.737   3.129
10741SOL    HW133122   1.421   2.751   3.221
10741SOL    HW233123   1.426   2.808   3.068
10742SOL     OW33124   6.186   5.897   2.003
10742SOL    HW133125   6.167   5.963   1.931
10742SOL    HW233126   6.272   5.920   2.048
10743SOL     OW33127   3.646   1.269   5.415
10743SOL    HW133128   3.634   1.263   5.514
10743SOL    HW233129   3.558   1.259   5.370
10744SOL     OW33130   3.341   0.434   1.500
10744SOL    HW133131   3.305   0.425   1.408
10744SOL    HW233132   3.424   0.380   1.509
10745SOL     OW33133   2.025   4.587   0.921
10745SOL    HW133134   2.018   4.623   1.013
10745SOL    HW233135   2.063   4.494   0.924
10746SOL     OW33136   2.689   5.547   0.495
10746SOL    HW133137   2.599   5.514   0.523
10746SOL    HW233138   2.708   5.634   0.542
10747SOL     OW33139   5.804   2.390   4.280
10747SOL    HW133140   5.823   2.294   4.299
10747SOL    HW233141   5.708   2.400   4.255
10748SOL     OW33142   4.519   5.494   1.008
10748SOL    HW133143   4.567   5.460   0.927
10748SOL    HW233144   4.580   5.488   1.088
10749SOL     OW33145   5.680   4.727   3.425
10749SOL    HW133146   5.604   4.702   3.365
10749SOL    HW233147   5.719   4.815   3.395
10750SOL     OW33148   4.925   3.854   3.770
10750SOL    HW133149   4.906   3.876   3.866
10750SOL    HW233150   4.861   3.903   3.711
10751SOL     OW33151   1.267   3.512   4.992
10751SOL    HW133152   1.242   3.600   4.951
10751SOL    HW233153   1.185   3.471   5.034
10752SOL     OW33154   6.196   4.932   6.493
10752SOL    HW133155   6.212   5.007   6.557
10752SOL    HW233156   6.198   4.845   6.543
10753SOL     OW33157   4.209   6.212   4.453
10753SOL    HW133158   4.173   6.195   4.361
10753SOL    HW233159   4.308   6.205   4.451
10754SOL     OW33160   0.653   2.924   2.074
10754SOL    HW133161   0.696   2.984   2.006
10754SOL    HW233162   0.566   2.964   2.103
10755SOL     OW33163   6.607   2.030   1.881
10755SOL    HW133164   6.636   1.968   1.953
10755SOL    HW233165   6.551   2.103   1.919
10756SOL     OW33166   6.082   2.366   0.641
10756SOL    HW133167   6.155   2.399   0.700
10756SOL    HW233168   6.098   2.396   0.547
10757SOL     OW33169   6.864   3.885   0.223
10757SOL    HW133170   6.857   3.791   0.257
10757SOL    HW233171   6.886   3.945   0.299
10758SOL     OW33172   1.277   5.419   6.521
10758SOL    HW133173   1.235   5.463   6.442
10758SOL    HW233174   1.239   5.327   6.532
10759SOL     OW33175   1.293   2.503   6.197
10759SOL    HW133176   1.230   2.452   6.138
10759SOL    HW233177   1.264   2.496   6.292
10760SOL     OW33178   1.269   6.439   0.367
10760SOL    HW133179   1.309   6.373   0.431
10760SOL    HW233180   1.342   6.482   0.314
10761SOL     OW33181   0.875   2.325   6.352
10761SOL    HW133182   0.868   2.268   6.433
10761SOL    HW233183   0.881   2.268   6.270
10762SOL     OW33184   4.031   0.686   5.900
10762SOL    HW133185   4.070   0.712   5.811
10762SOL    HW233186   3.970   0.759   5.931
10763SOL     OW33187   5.745   0.882   2.631
10763SOL    HW133188   5.742   0.819   2.709
10763SOL    HW233189   5.718   0.834   2.548
10764SOL     OW33190   4.407   0.830   4.904
10764SOL    HW133191   4.328   0.853   4.961
10764SOL    HW233192   4.440   0.739   4.927
10765SOL     OW33193   5.718   1.959   2.604
10765SOL    HW133194   5.692   1.908   2.521
10765SOL    HW233195   5.641   2.017   2.632
10766SOL     OW33196   1.599   5.134   7.002
10766SOL    HW133197   1.607   5.108   6.906
10766SOL    HW233198   1.604   5.053   0.037
10767SOL     OW33199   1.859   6.548   0.372
10767SOL    HW133200   1.873   6.520   0.277
10767SOL    HW233201   1.839   6.645   0.376
10768SOL     OW33202   5.273   5.112   0.296
10768SOL    HW133203   5.217   5.033   0.320
10768SOL    HW233204   5.265   5.129   0.198
10769SOL     OW33205   2.726   4.236   5.436
10769SOL    HW133206   2.796   4.243   5.365
10769SOL    HW233207   2.635   4.239   5.393
10770SOL     OW33208   5.331   6.311   4.622
10770SOL    HW133209   5.400   6.331   4.553
10770SOL    HW233210   5.240   6.332   4.586
10771SOL     OW33211   4.508   0.396   5.298
10771SOL    HW133212   4.602   0.417   5.326
10771SOL    HW233213   4.510   0.337   5.218
10772SOL     OW33214   5.813   6.398   3.827
10772SOL    HW133215   5.779   6.345   3.749
10772SOL    HW233216   5.803   6.496   3.808
10773SOL     OW33217   6.630   4.279   0.296
10773SOL    HW133218   6.572   4.327   0.362
10773SOL    HW233219   6.582   4.197   0.263
10774SOL     OW33220   1.359   2.310   0.902
10774SOL    HW133221   1.407   2.375   0.959
10774SOL    HW233222   1.368   2.218   0.941
10775SOL     OW33223   1.658   4.490   0.756
10775SOL    HW133224   1.622   4.480   0.663
10775SOL    HW233225   1.586   4.469   0.823
10776SOL     OW33226   6.318   0.520   2.897
10776SOL    HW133227   6.236   0.467   2.919
10776SOL    HW233228   6.384   0.510   2.971
10777SOL     OW33229   2.885   0.832   3.933
10777SOL    HW133230   2.840   0.892   3.999
10777SOL    HW233231   2.979   0.864   3.918
10778SOL     OW33232   6.774   6.409   4.697
10778SOL    HW133233   6.693   6.413   4.755
10778SOL    HW233234   6.838   6.342   4.733
10779SOL     OW33235   5.463   4.594   3.258
10779SOL    HW133236   5.408   4.676   3.242
10779SOL    HW233237   5.434   4.522   3.194
10780SOL     OW33238   0.671   6.194   4.632
10780SOL    HW133239   0.626   6.213   4.544
10780SOL    HW233240   0.627   6.246   4.704
10781SOL     OW33241   6.244   1.847   5.162
10781SOL    HW133242   6.281   1.755   5.165
10781SOL    HW233243   6.271   1.891   5.076
10782SOL     OW33244   6.854   3.324   5.222
10782SOL    HW133245   6.759   3.354   5.230
10782SOL    HW233246   6.876   3.264   5.299
10783SOL     OW33247   1.437   2.353   2.288
10783SOL    HW133248   1.468   2.439   2.247
10783SOL    HW233249   1.337   2.348   2.286
10784SOL     OW33250   2.885   6.007   2.193
10784SOL    HW133251   2.954   5.948   2.150
10784SOL    HW233252   2.849   6.071   2.125
10785SOL     OW33253   1.442   4.955   1.691
10785SOL    HW133254   1.379   4.898   1.744
10785SOL    HW233255   1.392   5.003   1.619
10786SOL     OW33256   4.350   2.321   2.496
10786SOL    HW133257   4.287   2.250   2.526
10786SOL    HW233258   4.346   2.398   2.560
10787SOL     OW33259   3.309   1.469   4.176
10787SOL    HW133260   3.275   1.383   4.138
10787SOL    HW233261   3.330   1.533   4.102
10788SOL     OW33262   0.892   4.501   0.266
10788SOL    HW133263   0.831   4.481   0.342
10788SOL    HW233264   0.961   4.567   0.296
10789SOL     OW33265   6.384   0.967   0.280
10789SOL    HW133266   6.364   1.019   0.364
10789SOL    HW233267   6.446   0.892   0.301
10790SOL     OW33268   0.553   2.249   5.350
10790SOL    HW133269   0.624   2.220   5.286
10790SOL    HW233270   0.590   2.319   5.411
10791SOL     OW33271   2.260   1.972   2.238
10791SOL    HW133272   2.223   1.887   2.200
10791SOL    HW233273   2.339   1.951   2.296
10792SOL     OW33274   3.229   2.595   1.383
10792SOL    HW133275   3.198   2.663   1.449
10792SOL    HW233276   3.151   2.539   1.354
10793SOL     OW33277   5.166   1.655   4.863
10793SOL    HW133278   5.147   1.737   4.917
10793SOL    HW233279   5.206   1.681   4.775
10794SOL     OW33280   4.421   3.261   1.775
10794SOL    HW133281   4.484   3.184   1.781
10794SOL    HW233282   4.407   3.300   1.866
10795SOL     OW33283   0.169   3.950   2.351
10795SOL    HW133284   0.249   4.008   2.338
10795SOL    HW233285   0.139   3.915   2.262
10796SOL     OW33286   6.035   6.930   6.412
10796SOL    HW133287   6.048   7.005   6.477
10796SOL    HW233288   5.938   6.906   6.408
10797SOL     OW33289   3.620   2.803   0.492
10797SOL    HW133290   3.710   2.845   0.478
10797SOL    HW233291   3.585   2.830   0.582
10798SOL     OW33292   2.803   0.244   6.319
10798SOL    HW133293   2.838   0.320   6.265
10798SOL    HW233294   2.867   0.167   6.314
10799SOL     OW33295   3.280   1.805   2.536
10799SOL    HW133296   3.288   1.874   2.464
10799SOL    HW233297   3.292   1.849   2.626
10800SOL     OW33298   1.489   0.127   0.673
10800SOL    HW133299   1.496   0.094   0.767
10800SOL    HW233300   1.411   0.190   0.666
10801SOL     OW33301   2.110   6.295   5.501
10801SOL    HW133302   2.013   6.318   5.509
10801SOL    HW233303   2.165   6.363   5.550
10802SOL     OW33304   1.539   3.711   4.100
10802SOL    HW133305   1.507   3.804   4.085
10802SOL    HW233306   1.553   3.696   4.198
10803SOL     OW33307   5.524   4.919   5.250
10803SOL    HW133308   5.573   4.918   5.163
10803SOL    HW233309   5.561   4.847   5.310
10804SOL     OW33310   6.336   4.113   1.644
10804SOL    HW133311   6.275   4.178   1.597
10804SOL    HW233312   6.298   4.092   1.734
10805SOL     OW33313   4.116   6.560   0.914
10805SOL    HW133314   4.178   6.491   0.950
10805SOL    HW233315   4.047   6.515   0.857
10806SOL     OW33316   5.707   3.525   0.327
10806SOL    HW133317   5.652   3.447   0.356
10806SOL    HW233318   5.650   3.591   0.279
10807SOL     OW33319   3.372   6.115   3.631
10807SOL    HW133320   3.366   6.101   3.730
10807SOL    HW233321   3.410   6.205   3.612
10808SOL     OW33322   0.615   3.270   6.557
10808SOL    HW133323   0.613   3.370   6.561
10808SOL    HW233324   0.709   3.239   6.542
10809SOL     OW33325   2.945   1.625   4.564
10809SOL    HW133326   3.024   1.684   4.554
10809SOL    HW233327   2.958   1.542   4.509
10810SOL     OW33328   0.231   1.555   5.453
10810SOL    HW133329   0.158   1.590   5.394
10810SOL    HW233330   0.242   1.616   5.532
10811SOL     OW33331   4.333   5.352   5.295
10811SOL    HW133332   4.265   5.359   5.368
10811SOL    HW233333   4.413   5.407   5.319
10812SOL     OW33334   6.767   3.205   2.892
10812SOL    HW133335   6.857   3.177   2.925
10812SOL    HW233336   6.703   3.128   2.899
10813SOL     OW33337   2.713   5.691   1.837
10813SOL    HW133338   2.710   5.637   1.921
10813SOL    HW233339   2.801   5.737   1.830
10814SOL     OW33340   2.403   0.363   5.223
10814SOL    HW133341   2.402   0.275   5.176
10814SOL    HW233342   2.410   0.349   5.321
10815SOL     OW33343   5.495   4.119   2.712
10815SOL    HW133344   5.522   4.129   2.808
10815SOL    HW233345   5.550   4.048   2.669
10816SOL     OW33346   1.926   0.964   2.180
10816SOL    HW133347   1.997   1.034   2.180
10816SOL    HW233348   1.875   0.967   2.266
10817SOL     OW33349   5.464   0.280   2.444
10817SOL    HW133350   5.543   0.261   2.385
10817SOL    HW233351   5.484   0.360   2.500
10818SOL     OW33352   5.361   3.047   6.858
10818SOL    HW133353   5.369   3.022   6.762
10818SOL    HW233354   5.314   2.974   6.908
10819SOL     OW33355   0.389   4.242   6.168
10819SOL    HW133356   0.378   4.231   6.266
10819SOL    HW233357   0.299   4.245   6.125
10820SOL     OW33358   0.497   6.922   3.806
10820SOL    HW133359   0.539   6.879   3.885
10820SOL    HW233360   0.447   7.004   3.835
10821SOL     OW33361   0.082   6.975   1.499
10821SOL    HW133362   0.118   7.013   1.585
10821SOL    HW233363   0.076   0.025   1.431
10822SOL     OW33364   0.702   3.054   2.404
10822SOL    HW133365   0.619   3.071   2.457
10822SOL    HW233366   0.706   2.957   2.379
10823SOL     OW33367   2.656   6.154   1.591
10823SOL    HW133368   2.751   6.126   1.578
10823SOL    HW233369   2.596   6.090   1.542
10824SOL     OW33370   5.091   0.596   3.366
10824SOL    HW133371   5.120   0.500   3.365
10824SOL    HW233372   5.170   0.655   3.381
10825SOL     OW33373   2.792   1.278   1.294
10825SOL    HW133374   2.775   1.208   1.225
10825SOL    HW233375   2.859   1.343   1.260
10826SOL     OW33376   0.013   3.738   1.780
10826SOL    HW133377   6.966   3.702   1.718
10826SOL    HW233378   6.991   3.790   1.853
10827SOL     OW33379   0.041   3.699   4.353
10827SOL    HW133380   0.041   3.664   4.260
10827SOL    HW233381   0.109   3.649   4.407
10828SOL     OW33382   1.250   5.646   1.073
10828SOL    HW133383   1.224   5.722   1.133
10828SOL    HW233384   1.307   5.582   1.123
10829SOL     OW33385   2.943   3.878   1.829
10829SOL    HW133386   3.001   3.959   1.820
10829SOL    HW233387   2.954   3.840   1.921
10830SOL     OW33388   5.598   3.449   4.820
10830SOL    HW133389   5.617   3.546   4.803
10830SOL    HW233390   5.598   3.399   4.733
10831SOL     OW33391   5.036   1.199   2.501
10831SOL    HW133392   5.124   1.161   2.528
10831SOL    HW233393   5.047   1.252   2.417
10832SOL     OW33394   1.108   1.954   0.312
10832SOL    HW133395   1.027   2.005   0.343
10832SOL    HW233396   1.085   1.857   0.303
10833SOL     OW33397   2.728   0.859   4.382
10833SOL    HW133398   2.635   0.845   4.416
10833SOL    HW233399   2.778   0.919   4.445
10834SOL     OW33400   0.559   0.963   5.624
10834SOL    HW133401   0.625   1.036   5.639
10834SOL    HW233402   0.580   0.916   5.538
10835SOL     OW33403   6.096   1.777   2.529
10835SOL    HW133404   6.037   1.792   2.608
10835SOL    HW233405   6.143   1.863   2.506
10836SOL     OW33406   0.508   1.496   5.400
10836SOL    HW133407   0.421   1.512   5.445
10836SOL    HW233408   0.582   1.501   5.467
10837SOL     OW33409   6.855   4.399   0.158
10837SOL    HW133410   6.769   4.379   0.205
10837SOL    HW233411   6.875   4.496   0.164
10838SOL     OW33412   5.941   0.101   6.583
10838SOL    HW133413   5.974   0.066   6.671
10838SOL    HW233414   5.857   0.052   6.557
10839SOL     OW33415   2.708   1.630   6.861
10839SOL    HW133416   2.645   1.694   6.906
10839SOL    HW233417   2.796   1.675   6.847
10840SOL     OW33418   3.442   5.899   1.413
10840SOL    HW133419   3.388   5.950   1.347
10840SOL    HW233420   3.466   5.810   1.375
10841SOL     OW33421   4.064   6.323   5.895
10841SOL    HW133422   4.131   6.396   5.905
10841SOL    HW233423   3.984   6.343   5.950
10842SOL     OW33424   6.483   2.671   0.929
10842SOL    HW133425   6.471   2.667   0.830
10842SOL    HW233426   6.557   2.734   0.951
10843SOL     OW33427   1.424   1.685   2.157
10843SOL    HW133428   1.396   1.780   2.168
10843SOL    HW233429   1.512   1.671   2.202
10844SOL     OW33430   6.442   6.590   3.834
10844SOL    HW133431   6.395   6.574   3.747
10844SOL    HW233432   6.472   6.503   3.873
10845SOL     OW33433   1.108   1.229   1.442
10845SOL    HW133434   1.084   1.175   1.362
10845SOL    HW233435   1.185   1.186   1.489
10846SOL     OW33436   4.426   2.289   0.908
10846SOL    HW133437   4.387   2.325   0.994
10846SOL    HW233438   4.357   2.233   0.862
10847SOL     OW33439   3.156   1.967   6.053
10847SOL    HW133440   3.156   1.901   6.128
10847SOL    HW233441   3.174   1.921   5.966
10848SOL     OW33442   2.310   0.960   0.078
10848SOL    HW133443   2.285   1.057   0.068
10848SOL    HW233444   2.235   0.913   0.125
10849SOL     OW33445   2.885   4.918   4.103
10849SOL    HW133446   2.871   4.882   4.195
10849SOL    HW233447   2.806   4.974   4.077
10850SOL     OW33448   5.286   6.706   0.113
10850SOL    HW133449   5.272   6.607   0.124
10850SOL    HW233450   5.316   6.724   0.020
10851SOL     OW33451   2.625   2.695   6.218
10851SOL    HW133452   2.552   2.714   6.284
10851SOL    HW233453   2.627   2.767   6.149
10852SOL     OW33454   0.201   1.148   6.427
10852SOL    HW133455   0.102   1.157   6.417
10852SOL    HW233456   0.221   1.082   6.499
10853SOL     OW33457   2.841   1.932   5.016
10853SOL    HW133458   2.912   1.874   4.977
10853SOL    HW233459   2.756   1.920   4.964
10854SOL     OW33460   5.624   6.903   6.718
10854SOL    HW133461   5.526   6.896   6.700
10854SOL    HW233462   5.655   6.823   6.769
10855SOL     OW33463   1.830   6.093   2.400
10855SOL    HW133464   1.776   6.017   2.364
10855SOL    HW233465   1.769   6.166   2.429
10856SOL     OW33466   6.292   6.341   6.909
10856SOL    HW133467   6.230   6.264   6.891
10856SOL    HW233468   6.375   6.331   6.854
10857SOL     OW33469   6.105   2.482   3.713
10857SOL    HW133470   6.014   2.450   3.688
10857SOL    HW233471   6.098   2.561   3.774
10858SOL     OW33472   1.869   3.680   0.384
10858SOL    HW133473   1.778   3.688   0.425
10858SOL    HW233474   1.866   3.715   0.290
10859SOL     OW33475   0.953   4.213   3.249
10859SOL    HW133476   1.012   4.169   3.181
10859SOL    HW233477   0.967   4.170   3.338
10860SOL     OW33478   6.861   1.043   0.519
10860SOL    HW133479   6.823   0.967   0.466
10860SOL    HW233480   6.909   1.006   0.599
10861SOL     OW33481   3.018   2.709   1.717
10861SOL    HW133482   2.952   2.784   1.714
10861SOL    HW233483   2.988   2.641   1.784
10862SOL     OW33484   2.861   2.334   6.036
10862SOL    HW133485   2.959   2.341   6.014
10862SOL    HW233486   2.808   2.342   5.953
10863SOL     OW33487   2.329   0.357   3.326
10863SOL    HW133488   2.382   0.441   3.340
10863SOL    HW233489   2.275   0.366   3.242
10864SOL     OW33490   2.737   4.494   1.447
10864SOL    HW133491   2.737   4.411   1.391
10864SOL    HW233492   2.753   4.573   1.389
10865SOL     OW33493   5.437   2.880   3.735
10865SOL    HW133494   5.501   2.929   3.676
10865SOL    HW233495   5.405   2.941   3.807
10866SOL     OW33496   6.510   2.623   1.381
10866SOL    HW133497   6.593   2.597   1.429
10866SOL    HW233498   6.434   2.566   1.412
10867SOL     OW33499   2.811   2.556   0.480
10867SOL    HW133500   2.850   2.643   0.510
10867SOL    HW233501   2.718   2.547   0.517
10868SOL     OW33502   0.461   1.911   3.370
10868SOL    HW133503   0.362   1.910   3.385
10868SOL    HW233504   0.502   1.986   3.422
10869NA      NA33505   0.248   1.992   5.919
10870NA      NA33506   4.461   4.615   5.184
10871NA      NA33507   1.653   5.326   2.601
10872NA      NA33508   5.195   4.280   3.838
10873NA      NA33509   4.298   2.493   5.340
10874NA      NA33510   2.696   4.953   1.275
10875NA      NA33511   1.190   5.397   0.578
10876NA      NA33512   3.536   4.089   1.346
10877NA      NA33513   4.549   4.492   0.523
10878NA      NA33514   3.401   1.149   6.483
10879NA      NA33515   5.259   5.978   2.182
10880NA      NA33516   1.537   0.284   5.184
10881NA      NA33517   4.611   5.104   1.923
10882NA      NA33518   3.191   3.391   0.173
   7.02280   7.02280   7.02280
