Generated by trjconv : CNT in water t= 566.00000
33518
    1C        C    1   2.839   2.762   4.747
    1C        C    2   2.897   2.713   4.866
    1C        C    3   2.840   2.768   4.982
    1C        C    4   2.845   2.766   4.260
    1C        C    5   2.895   2.718   4.383
    1C        C    6   2.843   2.766   4.505
    1C        C    7   3.009   2.633   4.625
    1C        C    8   2.892   2.712   4.626
    1C        C    9   3.078   2.605   4.745
    1C        C   10   3.009   2.629   4.866
    1C        C   11   3.184   2.489   4.976
    1C        C   12   3.061   2.556   4.975
    1C        C   13   2.846   2.764   3.770
    1C        C   14   2.898   2.718   3.893
    1C        C   15   2.844   2.766   4.015
    1C        C   16   3.012   2.636   4.140
    1C        C   17   2.898   2.720   4.137
    1C        C   18   3.078   2.608   4.262
    1C        C   19   3.010   2.637   4.382
    1C        C   20   3.207   2.556   4.504
    1C        C   21   3.072   2.599   4.503
    1C        C   22   3.277   2.530   4.624
    1C        C   23   3.209   2.549   4.746
    1C        C   24   3.413   2.481   4.864
    1C        C   25   3.271   2.498   4.863
    1C        C   26   3.489   2.474   4.982
    1C        C   27   2.846   2.764   3.281
    1C        C   28   2.902   2.718   3.402
    1C        C   29   2.850   2.767   3.525
    1C        C   30   3.013   2.635   3.648
    1C        C   31   2.898   2.717   3.648
    1C        C   32   3.071   2.597   3.772
    1C        C   33   3.012   2.636   3.894
    1C        C   34   3.204   2.550   4.017
    1C        C   35   3.073   2.602   4.018
    1C        C   36   3.275   2.532   4.138
    1C        C   37   3.208   2.553   4.261
    1C        C   38   3.416   2.512   4.381
    1C        C   39   3.276   2.532   4.383
    1C        C   40   3.485   2.503   4.504
    1C        C   41   3.415   2.501   4.627
    1C        C   42   3.633   2.487   4.744
    1C        C   43   3.491   2.487   4.745
    1C        C   44   3.706   2.487   4.865
    1C        C   45   3.627   2.482   4.980
    1C        C   46   2.834   2.747   2.793
    1C        C   47   2.889   2.703   2.915
    1C        C   48   2.844   2.760   3.037
    1C        C   49   3.013   2.634   3.162
    1C        C   50   2.899   2.716   3.159
    1C        C   51   3.074   2.595   3.283
    1C        C   52   3.014   2.632   3.405
    1C        C   53   3.206   2.544   3.526
    1C        C   54   3.075   2.596   3.528
    1C        C   55   3.273   2.526   3.649
    1C        C   56   3.202   2.546   3.770
    1C        C   57   3.408   2.506   3.893
    1C        C   58   3.268   2.528   3.893
    1C        C   59   3.483   2.505   4.012
    1C        C   60   3.414   2.509   4.136
    1C        C   61   3.626   2.511   4.258
    1C        C   62   3.485   2.504   4.258
    1C        C   63   3.697   2.519   4.380
    1C        C   64   3.626   2.504   4.501
    1C        C   65   3.835   2.547   4.621
    1C        C   66   3.700   2.505   4.621
    1C        C   67   3.905   2.562   4.743
    1C        C   68   3.842   2.526   4.864
    1C        C   69   4.050   2.587   4.975
    1C        C   70   3.924   2.526   4.978
    1C        C   71   2.825   2.735   2.307
    1C        C   72   2.885   2.691   2.427
    1C        C   73   2.835   2.745   2.547
    1C        C   74   3.004   2.622   2.674
    1C        C   75   2.885   2.698   2.671
    1C        C   76   3.071   2.591   2.795
    1C        C   77   3.009   2.628   2.917
    1C        C   78   3.203   2.545   3.037
    1C        C   79   3.072   2.597   3.039
    1C        C   80   3.271   2.518   3.158
    1C        C   81   3.205   2.541   3.281
    1C        C   82   3.413   2.500   3.403
    1C        C   83   3.274   2.523   3.404
    1C        C   84   3.482   2.497   3.527
    1C        C   85   3.413   2.506   3.650
    1C        C   86   3.623   2.505   3.768
    1C        C   87   3.482   2.498   3.773
    1C        C   88   3.692   2.515   3.891
    1C        C   89   3.624   2.510   4.014
    1C        C   90   3.833   2.552   4.136
    1C        C   91   3.695   2.520   4.136
    1C        C   92   3.902   2.575   4.257
    1C        C   93   3.835   2.549   4.378
    1C        C   94   4.029   2.636   4.499
    1C        C   95   3.901   2.578   4.500
    1C        C   96   4.090   2.672   4.621
    1C        C   97   4.032   2.627   4.741
    1C        C   98   4.193   2.767   4.860
    1C        C   99   4.101   2.657   4.861
    1C        C  100   4.211   2.845   4.975
    1C        C  101   2.814   2.726   2.073
    1C        C  102   2.991   2.591   2.183
    1C        C  103   2.875   2.674   2.188
    1C        C  104   3.059   2.573   2.307
    1C        C  105   3.003   2.613   2.430
    1C        C  106   3.198   2.534   2.551
    1C        C  107   3.067   2.586   2.553
    1C        C  108   3.272   2.521   2.670
    1C        C  109   3.204   2.545   2.792
    1C        C  110   3.408   2.492   2.913
    1C        C  111   3.271   2.523   2.915
    1C        C  112   3.480   2.490   3.035
    1C        C  113   3.410   2.496   3.158
    1C        C  114   3.623   2.501   3.281
    1C        C  115   3.482   2.493   3.280
    1C        C  116   3.694   2.518   3.402
    1C        C  117   3.623   2.504   3.524
    1C        C  118   3.831   2.546   3.646
    1C        C  119   3.694   2.514   3.645
    1C        C  120   3.894   2.577   3.769
    1C        C  121   3.829   2.552   3.892
    1C        C  122   4.025   2.638   4.012
    1C        C  123   3.898   2.575   4.012
    1C        C  124   4.086   2.679   4.132
    1C        C  125   4.026   2.642   4.255
    1C        C  126   4.199   2.765   4.376
    1C        C  127   4.088   2.678   4.377
    1C        C  128   4.247   2.819   4.498
    1C        C  129   4.197   2.765   4.618
    1C        C  130   4.332   2.933   4.742
    1C        C  131   4.248   2.818   4.739
    1C        C  132   4.360   3.005   4.859
    1C        C  133   4.292   2.958   4.972
    1C        C  134   3.173   2.463   2.082
    1C        C  135   3.040   2.508   2.077
    1C        C  136   3.259   2.482   2.191
    1C        C  137   3.192   2.522   2.309
    1C        C  138   3.402   2.481   2.426
    1C        C  139   3.263   2.502   2.429
    1C        C  140   3.478   2.479   2.545
    1C        C  141   3.410   2.491   2.668
    1C        C  142   3.621   2.496   2.790
    1C        C  143   3.479   2.490   2.791
    1C        C  144   3.690   2.512   2.912
    1C        C  145   3.621   2.501   3.034
    1C        C  146   3.827   2.543   3.157
    1C        C  147   3.690   2.508   3.157
    1C        C  148   3.894   2.575   3.277
    1C        C  149   3.830   2.556   3.401
    1C        C  150   4.024   2.636   3.522
    1C        C  151   3.898   2.572   3.524
    1C        C  152   4.084   2.672   3.645
    1C        C  153   4.020   2.641   3.767
    1C        C  154   4.194   2.763   3.888
    1C        C  155   4.081   2.678   3.888
    1C        C  156   4.246   2.815   4.008
    1C        C  157   4.194   2.770   4.131
    1C        C  158   4.344   2.919   4.252
    1C        C  159   4.248   2.815   4.254
    1C        C  160   4.385   2.979   4.373
    1C        C  161   4.337   2.928   4.496
    1C        C  162   4.440   3.113   4.617
    1C        C  163   4.371   2.990   4.619
    1C        C  164   4.473   3.182   4.735
    1C        C  165   4.438   3.123   4.859
    1C        C  166   4.519   3.321   4.973
    1C        C  167   4.479   3.187   4.976
    1C        C  168   3.477   2.431   2.074
    1C        C  169   3.398   2.459   2.186
    1C        C  170   3.616   2.471   2.302
    1C        C  171   3.474   2.468   2.305
    1C        C  172   3.689   2.495   2.421
    1C        C  173   3.619   2.491   2.544
    1C        C  174   3.825   2.540   2.666
    1C        C  175   3.688   2.503   2.666
    1C        C  176   3.892   2.564   2.788
    1C        C  177   3.828   2.542   2.912
    1C        C  178   4.018   2.633   3.031
    1C        C  179   3.894   2.567   3.034
    1C        C  180   4.082   2.669   3.152
    1C        C  181   4.023   2.634   3.275
    1C        C  182   4.196   2.752   3.397
    1C        C  183   4.084   2.666   3.398
    1C        C  184   4.248   2.804   3.518
    1C        C  185   4.194   2.761   3.642
    1C        C  186   4.340   2.914   3.764
    1C        C  187   4.243   2.811   3.764
    1C        C  188   4.384   2.976   3.883
    1C        C  189   4.337   2.924   4.006
    1C        C  190   4.448   3.102   4.129
    1C        C  191   4.379   2.978   4.129
    1C        C  192   4.472   3.170   4.250
    1C        C  193   4.448   3.105   4.373
    1C        C  194   4.509   3.311   4.491
    1C        C  195   4.470   3.175   4.494
    1C        C  196   4.526   3.384   4.611
    1C        C  197   4.511   3.319   4.735
    1C        C  198   4.552   3.536   4.851
    1C        C  199   4.532   3.394   4.854
    1C        C  200   4.578   3.620   4.964
    1C        C  201   3.616   2.414   2.074
    1C        C  202   3.829   2.510   2.182
    1C        C  203   3.694   2.461   2.183
    1C        C  204   3.897   2.543   2.303
    1C        C  205   3.827   2.525   2.424
    1C        C  206   4.020   2.621   2.542
    1C        C  207   3.892   2.560   2.544
    1C        C  208   4.078   2.663   2.663
    1C        C  209   4.018   2.629   2.786
    1C        C  210   4.192   2.752   2.907
    1C        C  211   4.078   2.668   2.908
    1C        C  212   4.248   2.799   3.028
    1C        C  213   4.196   2.753   3.151
    1C        C  214   4.335   2.910   3.274
    1C        C  215   4.246   2.800   3.274
    1C        C  216   4.372   2.972   3.395
    1C        C  217   4.336   2.914   3.519
    1C        C  218   4.441   3.098   3.638
    1C        C  219   4.377   2.972   3.641
    1C        C  220   4.467   3.167   3.759
    1C        C  221   4.445   3.103   3.883
    1C        C  222   4.505   3.303   4.003
    1C        C  223   4.476   3.165   4.006
    1C        C  224   4.518   3.376   4.124
    1C        C  225   4.505   3.308   4.247
    1C        C  226   4.519   3.521   4.365
    1C        C  227   4.517   3.380   4.368
    1C        C  228   4.513   3.593   4.487
    1C        C  229   4.530   3.525   4.610
    1C        C  230   4.504   3.742   4.726
    1C        C  231   4.537   3.604   4.727
    1C        C  232   4.495   3.819   4.844
    1C        C  233   4.547   3.756   4.958
    1C        C  234   4.016   2.608   2.063
    1C        C  235   3.895   2.539   2.062
    1C        C  236   4.085   2.646   2.179
    1C        C  237   4.021   2.611   2.300
    1C        C  238   4.200   2.735   2.423
    1C        C  239   4.085   2.651   2.420
    1C        C  240   4.256   2.784   2.543
    1C        C  241   4.192   2.746   2.663
    1C        C  242   4.339   2.903   2.784
    1C        C  243   4.242   2.800   2.784
    1C        C  244   4.385   2.958   2.905
    1C        C  245   4.336   2.909   3.029
    1C        C  246   4.440   3.094   3.149
    1C        C  247   4.374   2.969   3.151
    1C        C  248   4.466   3.160   3.271
    1C        C  249   4.439   3.096   3.394
    1C        C  250   4.500   3.300   3.514
    1C        C  251   4.466   3.163   3.516
    1C        C  252   4.513   3.373   3.635
    1C        C  253   4.504   3.304   3.758
    1C        C  254   4.520   3.514   3.878
    1C        C  255   4.516   3.373   3.880
    1C        C  256   4.517   3.587   3.999
    1C        C  257   4.523   3.517   4.122
    1C        C  258   4.486   3.729   4.242
    1C        C  259   4.512   3.590   4.242
    1C        C  260   4.466   3.798   4.363
    1C        C  261   4.481   3.730   4.486
    1C        C  262   4.424   3.939   4.603
    1C        C  263   4.472   3.807   4.605
    1C        C  264   4.398   4.009   4.723
    1C        C  265   4.431   3.945   4.845
    1C        C  266   4.319   4.130   4.957
    1C        C  267   4.388   4.009   4.961
    1C        C  268   4.267   2.770   2.066
    1C        C  269   4.197   2.731   2.181
    1C        C  270   4.343   2.892   2.300
    1C        C  271   4.250   2.785   2.300
    1C        C  272   4.389   2.950   2.420
    1C        C  273   4.350   2.889   2.541
    1C        C  274   4.449   3.082   2.662
    1C        C  275   4.386   2.956   2.661
    1C        C  276   4.476   3.149   2.783
    1C        C  277   4.454   3.081   2.905
    1C        C  278   4.508   3.290   3.024
    1C        C  279   4.471   3.154   3.025
    1C        C  280   4.517   3.363   3.145
    1C        C  281   4.506   3.296   3.269
    1C        C  282   4.515   3.509   3.389
    1C        C  283   4.513   3.368   3.391
    1C        C  284   4.514   3.582   3.510
    1C        C  285   4.518   3.514   3.633
    1C        C  286   4.486   3.723   3.753
    1C        C  287   4.514   3.585   3.755
    1C        C  288   4.467   3.790   3.876
    1C        C  289   4.486   3.725   4.000
    1C        C  290   4.425   3.932   4.116
    1C        C  291   4.467   3.797   4.120
    1C        C  292   4.394   3.999   4.237
    1C        C  293   4.420   3.932   4.358
    1C        C  294   4.320   4.121   4.478
    1C        C  295   4.391   3.999   4.479
    1C        C  296   4.280   4.184   4.598
    1C        C  297   4.323   4.130   4.721
    1C        C  298   4.199   4.313   4.838
    1C        C  299   4.284   4.198   4.840
    1C        C  300   4.171   4.401   4.948
    1C        C  301   4.357   2.876   2.059
    1C        C  302   4.470   3.062   2.177
    1C        C  303   4.397   2.939   2.177
    1C        C  304   4.490   3.137   2.296
    1C        C  305   4.457   3.074   2.418
    1C        C  306   4.512   3.281   2.536
    1C        C  307   4.482   3.143   2.539
    1C        C  308   4.515   3.355   2.657
    1C        C  309   4.504   3.287   2.780
    1C        C  310   4.525   3.499   2.898
    1C        C  311   4.520   3.358   2.901
    1C        C  312   4.516   3.572   3.019
    1C        C  313   4.517   3.504   3.143
    1C        C  314   4.484   3.714   3.263
    1C        C  315   4.508   3.575   3.264
    1C        C  316   4.467   3.786   3.384
    1C        C  317   4.489   3.721   3.508
    1C        C  318   4.421   3.922   3.623
    1C        C  319   4.471   3.790   3.630
    1C        C  320   4.390   3.983   3.747
    1C        C  321   4.420   3.923   3.871
    1C        C  322   4.318   4.110   3.990
    1C        C  323   4.395   3.992   3.992
    1C        C  324   4.277   4.171   4.110
    1C        C  325   4.322   4.120   4.234
    1C        C  326   4.184   4.282   4.351
    1C        C  327   4.280   4.179   4.355
    1C        C  328   4.134   4.335   4.473
    1C        C  329   4.190   4.292   4.595
    1C        C  330   4.027   4.435   4.711
    1C        C  331   4.141   4.351   4.714
    1C        C  332   3.971   4.493   4.827
    1C        C  333   4.050   4.472   4.940
    1C        C  334   4.552   3.263   2.062
    1C        C  335   4.526   3.125   2.061
    1C        C  336   4.538   3.347   2.173
    1C        C  337   4.520   3.276   2.294
    1C        C  338   4.524   3.492   2.412
    1C        C  339   4.520   3.351   2.414
    1C        C  340   4.518   3.567   2.532
    1C        C  341   4.521   3.496   2.654
    1C        C  342   4.495   3.707   2.773
    1C        C  343   4.522   3.569   2.775
    1C        C  344   4.476   3.778   2.893
    1C        C  345   4.495   3.712   3.016
    1C        C  346   4.420   3.911   3.135
    1C        C  347   4.467   3.778   3.138
    1C        C  348   4.389   3.979   3.255
    1C        C  349   4.416   3.918   3.380
    1C        C  350   4.315   4.105   3.499
    1C        C  351   4.390   3.986   3.501
    1C        C  352   4.273   4.161   3.622
    1C        C  353   4.318   4.105   3.744
    1C        C  354   4.177   4.264   3.866
    1C        C  355   4.275   4.162   3.865
    1C        C  356   4.125   4.319   3.985
    1C        C  357   4.180   4.274   4.108
    1C        C  358   4.017   4.411   4.228
    1C        C  359   4.131   4.328   4.229
    1C        C  360   3.957   4.454   4.348
    1C        C  361   4.017   4.414   4.470
    1C        C  362   3.826   4.510   4.591
    1C        C  363   3.956   4.456   4.590
    1C        C  364   3.763   4.549   4.712
    1C        C  365   3.839   4.542   4.830
    1C        C  366   3.630   4.586   4.949
    1C        C  367   3.768   4.572   4.947
    1C        C  368   4.511   3.558   2.051
    1C        C  369   4.523   3.487   2.171
    1C        C  370   4.503   3.703   2.284
    1C        C  371   4.518   3.563   2.290
    1C        C  372   4.483   3.774   2.404
    1C        C  373   4.496   3.706   2.527
    1C        C  374   4.422   3.904   2.648
    1C        C  375   4.479   3.775   2.650
    1C        C  376   4.389   3.970   2.768
    1C        C  377   4.423   3.909   2.891
    1C        C  378   4.320   4.096   3.009
    1C        C  379   4.392   3.975   3.012
    1C        C  380   4.276   4.154   3.130
    1C        C  381   4.316   4.099   3.254
    1C        C  382   4.177   4.263   3.376
    1C        C  383   4.271   4.157   3.375
    1C        C  384   4.121   4.308   3.497
    1C        C  385   4.173   4.261   3.620
    1C        C  386   4.009   4.391   3.742
    1C        C  387   4.123   4.308   3.743
    1C        C  388   3.948   4.431   3.862
    1C        C  389   4.010   4.401   3.985
    1C        C  390   3.817   4.489   4.106
    1C        C  391   3.949   4.439   4.107
    1C        C  392   3.753   4.516   4.229
    1C        C  393   3.825   4.504   4.350
    1C        C  394   3.616   4.551   4.472
    1C        C  395   3.755   4.526   4.470
    1C        C  396   3.546   4.562   4.595
    1C        C  397   3.622   4.561   4.714
    1C        C  398   3.412   4.540   4.839
    1C        C  399   3.550   4.566   4.835
    1C        C  400   3.344   4.514   4.959
    1C        C  401   4.499   3.697   2.048
    1C        C  402   4.448   3.910   2.165
    1C        C  403   4.491   3.776   2.164
    1C        C  404   4.406   3.971   2.285
    1C        C  405   4.434   3.906   2.408
    1C        C  406   4.327   4.095   2.524
    1C        C  407   4.402   3.975   2.527
    1C        C  408   4.276   4.149   2.643
    1C        C  409   4.317   4.092   2.766
    1C        C  410   4.175   4.251   2.886
    1C        C  411   4.276   4.152   2.886
    1C        C  412   4.122   4.300   3.008
    1C        C  413   4.175   4.253   3.130
    1C        C  414   4.001   4.375   3.253
    1C        C  415   4.122   4.302   3.252
    1C        C  416   3.939   4.412   3.375
    1C        C  417   4.002   4.384   3.498
    1C        C  418   3.812   4.475   3.619
    1C        C  419   3.943   4.423   3.621
    1C        C  420   3.748   4.506   3.742
    1C        C  421   3.817   4.485   3.863
    1C        C  422   3.609   4.532   3.986
    1C        C  423   3.748   4.504   3.984
    1C        C  424   3.542   4.541   4.109
    1C        C  425   3.614   4.543   4.231
    1C        C  426   3.402   4.547   4.354
    1C        C  427   3.542   4.557   4.352
    1C        C  428   3.334   4.545   4.478
    1C        C  429   3.405   4.550   4.599
    1C        C  430   3.194   4.519   4.723
    1C        C  431   3.334   4.542   4.721
    1C        C  432   3.125   4.494   4.844
    1C        C  433   3.206   4.493   4.959
    1C        C  434   4.386   4.122   2.051
    1C        C  435   4.446   3.995   2.053
    1C        C  436   4.306   4.162   2.162
    1C        C  437   4.335   4.095   2.283
    1C        C  438   4.179   4.247   2.400
    1C        C  439   4.281   4.149   2.402
    1C        C  440   4.122   4.292   2.520
    1C        C  441   4.173   4.247   2.644
    1C        C  442   4.006   4.380   2.765
    1C        C  443   4.121   4.298   2.765
    1C        C  444   3.945   4.417   2.887
    1C        C  445   4.004   4.377   3.009
    1C        C  446   3.814   4.473   3.128
    1C        C  447   3.940   4.410   3.131
    1C        C  448   3.747   4.493   3.251
    1C        C  449   3.810   4.468   3.375
    1C        C  450   3.609   4.533   3.495
    1C        C  451   3.745   4.498   3.497
    1C        C  452   3.541   4.541   3.618
    1C        C  453   3.610   4.536   3.742
    1C        C  454   3.397   4.538   3.863
    1C        C  455   3.539   4.543   3.864
    1C        C  456   3.328   4.532   3.987
    1C        C  457   3.400   4.539   4.108
    1C        C  458   3.195   4.500   4.234
    1C        C  459   3.332   4.535   4.231
    1C        C  460   3.129   4.486   4.358
    1C        C  461   3.196   4.512   4.479
    1C        C  462   2.999   4.433   4.600
    1C        C  463   3.127   4.493   4.601
    1C        C  464   2.931   4.405   4.720
    1C        C  465   2.991   4.444   4.843
    1C        C  466   2.801   4.338   4.956
    1C        C  467   2.904   4.433   4.956
    1C        C  468   4.130   4.286   2.041
    1C        C  469   4.188   4.243   2.161
    1C        C  470   4.004   4.369   2.276
    1C        C  471   4.124   4.292   2.278
    1C        C  472   3.939   4.397   2.398
    1C        C  473   4.000   4.364   2.521
    1C        C  474   3.811   4.463   2.643
    1C        C  475   3.941   4.407   2.642
    1C        C  476   3.744   4.490   2.764
    1C        C  477   3.814   4.470   2.884
    1C        C  478   3.605   4.513   3.005
    1C        C  479   3.744   4.489   3.006
    1C        C  480   3.535   4.523   3.128
    1C        C  481   3.608   4.516   3.249
    1C        C  482   3.398   4.531   3.376
    1C        C  483   3.539   4.535   3.372
    1C        C  484   3.327   4.525   3.498
    1C        C  485   3.400   4.536   3.619
    1C        C  486   3.191   4.495   3.746
    1C        C  487   3.328   4.528   3.741
    1C        C  488   3.125   4.472   3.869
    1C        C  489   3.192   4.496   3.990
    1C        C  490   2.997   4.416   4.115
    1C        C  491   3.125   4.475   4.113
    1C        C  492   2.941   4.381   4.240
    1C        C  493   3.003   4.423   4.360
    1C        C  494   2.825   4.305   4.482
    1C        C  495   2.936   4.391   4.480
    1C        C  496   2.777   4.252   4.604
    1C        C  497   2.822   4.313   4.724
    1C        C  498   2.667   4.163   4.848
    1C        C  499   2.754   4.274   4.841
    1C        C  500   2.590   4.121   4.957
    1C        C  501   4.007   4.352   2.039
    1C        C  502   3.814   4.458   2.154
    1C        C  503   3.944   4.402   2.153
    1C        C  504   3.744   4.475   2.276
    1C        C  505   3.808   4.450   2.399
    1C        C  506   3.604   4.509   2.520
    1C        C  507   3.741   4.476   2.521
    1C        C  508   3.533   4.521   2.642
    1C        C  509   3.605   4.519   2.763
    1C        C  510   3.392   4.527   2.885
    1C        C  511   3.533   4.525   2.884
    1C        C  512   3.324   4.523   3.009
    1C        C  513   3.394   4.527   3.131
    1C        C  514   3.189   4.493   3.255
    1C        C  515   3.326   4.527   3.255
    1C        C  516   3.123   4.466   3.377
    1C        C  517   3.192   4.486   3.499
    1C        C  518   2.999   4.408   3.624
    1C        C  519   3.126   4.470   3.623
    1C        C  520   2.940   4.372   3.747
    1C        C  521   2.999   4.407   3.870
    1C        C  522   2.834   4.279   3.996
    1C        C  523   2.940   4.372   3.994
    1C        C  524   2.780   4.236   4.120
    1C        C  525   2.834   4.289   4.239
    1C        C  526   2.692   4.135   4.365
    1C        C  527   2.780   4.245   4.362
    1C        C  528   2.647   4.079   4.486
    1C        C  529   2.686   4.144   4.605
    1C        C  530   2.590   3.959   4.731
    1C        C  531   2.642   4.092   4.729
    1C        C  532   2.544   3.900   4.852
    1C        C  533   2.524   3.998   4.954
    1C        C  534   3.619   4.551   2.038
    1C        C  535   3.750   4.503   2.038
    1C        C  536   3.537   4.534   2.155
    1C        C  537   3.605   4.508   2.277
    1C        C  538   3.394   4.519   2.397
    1C        C  539   3.535   4.523   2.398
    1C        C  540   3.323   4.511   2.519
    1C        C  541   3.392   4.515   2.642
    1C        C  542   3.182   4.485   2.764
    1C        C  543   3.320   4.514   2.764
    1C        C  544   3.119   4.466   2.888
    1C        C  545   3.186   4.489   3.010
    1C        C  546   2.997   4.401   3.133
    1C        C  547   3.121   4.469   3.134
    1C        C  548   2.939   4.364   3.256
    1C        C  549   2.995   4.406   3.379
    1C        C  550   2.831   4.276   3.507
    1C        C  551   2.938   4.368   3.503
    1C        C  552   2.777   4.229   3.629
    1C        C  553   2.832   4.280   3.749
    1C        C  554   2.698   4.120   3.874
    1C        C  555   2.788   4.229   3.873
    1C        C  556   2.651   4.066   3.996
    1C        C  557   2.691   4.126   4.117
    1C        C  558   2.592   3.947   4.247
    1C        C  559   2.656   4.073   4.243
    1C        C  560   2.568   3.879   4.369
    1C        C  561   2.590   3.950   4.489
    1C        C  562   2.533   3.749   4.614
    1C        C  563   2.565   3.886   4.613
    1C        C  564   2.516   3.680   4.736
    1C        C  565   2.524   3.758   4.855
    1C        C  566   2.530   3.545   4.977
    1C        C  567   2.523   3.684   4.974
    1C        C  568   3.328   4.471   2.039
    1C        C  569   3.397   4.508   2.155
    1C        C  570   3.183   4.474   2.279
    1C        C  571   3.323   4.501   2.276
    1C        C  572   3.118   4.453   2.403
    1C        C  573   3.186   4.478   2.524
    1C        C  574   2.982   4.406   2.647
    1C        C  575   3.113   4.459   2.643
    1C        C  576   2.928   4.365   2.771
    1C        C  577   2.992   4.403   2.891
    1C        C  578   2.829   4.267   3.017
    1C        C  579   2.935   4.360   3.012
    1C        C  580   2.781   4.217   3.140
    1C        C  581   2.831   4.274   3.259
    1C        C  582   2.699   4.113   3.384
    1C        C  583   2.785   4.225   3.384
    1C        C  584   2.654   4.059   3.507
    1C        C  585   2.686   4.121   3.630
    1C        C  586   2.589   3.935   3.756
    1C        C  587   2.649   4.063   3.754
    1C        C  588   2.563   3.873   3.880
    1C        C  589   2.592   3.938   4.002
    1C        C  590   2.530   3.741   4.128
    1C        C  591   2.567   3.877   4.127
    1C        C  592   2.518   3.670   4.250
    1C        C  593   2.532   3.742   4.371
    1C        C  594   2.520   3.534   4.496
    1C        C  595   2.518   3.675   4.494
    1C        C  596   2.528   3.463   4.618
    1C        C  597   2.519   3.538   4.738
    1C        C  598   2.532   3.326   4.863
    1C        C  599   2.529   3.468   4.860
    1C        C  600   2.529   3.243   4.976
    1C        C  601   3.196   4.431   2.044
    1C        C  602   2.983   4.389   2.161
    1C        C  603   3.115   4.445   2.158
    1C        C  604   2.926   4.352   2.286
    1C        C  605   2.988   4.398   2.404
    1C        C  606   2.817   4.273   2.530
    1C        C  607   2.922   4.367   2.525
    1C        C  608   2.767   4.223   2.652
    1C        C  609   2.824   4.269   2.773
    1C        C  610   2.687   4.109   2.895
    1C        C  611   2.773   4.221   2.896
    1C        C  612   2.648   4.051   3.018
    1C        C  613   2.691   4.107   3.140
    1C        C  614   2.591   3.925   3.264
    1C        C  615   2.657   4.050   3.264
    1C        C  616   2.563   3.865   3.389
    1C        C  617   2.586   3.935   3.509
    1C        C  618   2.528   3.734   3.637
    1C        C  619   2.565   3.870   3.633
    1C        C  620   2.519   3.666   3.761
    1C        C  621   2.529   3.736   3.883
    1C        C  622   2.514   3.529   4.008
    1C        C  623   2.515   3.670   4.007
    1C        C  624   2.522   3.457   4.130
    1C        C  625   2.518   3.529   4.251
    1C        C  626   2.541   3.321   4.379
    1C        C  627   2.520   3.461   4.375
    1C        C  628   2.562   3.251   4.499
    1C        C  629   2.545   3.323   4.619
    1C        C  630   2.603   3.122   4.743
    1C        C  631   2.559   3.257   4.743
    1C        C  632   2.621   3.051   4.865
    1C        C  633   2.560   3.107   4.982
    1C        C  634   2.772   4.310   2.057
    1C        C  635   2.891   4.384   2.052
    1C        C  636   2.746   4.231   2.169
    1C        C  637   2.808   4.273   2.289
    1C        C  638   2.671   4.112   2.412
    1C        C  639   2.759   4.223   2.411
    1C        C  640   2.633   4.051   2.534
    1C        C  641   2.677   4.114   2.653
    1C        C  642   2.580   3.924   2.775
    1C        C  643   2.643   4.050   2.774
    1C        C  644   2.560   3.858   2.898
    1C        C  645   2.583   3.925   3.020
    1C        C  646   2.525   3.723   3.145
    1C        C  647   2.559   3.860   3.143
    1C        C  648   2.513   3.657   3.269
    1C        C  649   2.524   3.729   3.390
    1C        C  650   2.516   3.522   3.519
    1C        C  651   2.514   3.664   3.515
    1C        C  652   2.522   3.453   3.642
    1C        C  653   2.516   3.525   3.763
    1C        C  654   2.540   3.317   3.891
    1C        C  655   2.519   3.456   3.887
    1C        C  656   2.559   3.248   4.013
    1C        C  657   2.542   3.317   4.135
    1C        C  658   2.610   3.119   4.257
    1C        C  659   2.557   3.250   4.258
    1C        C  660   2.640   3.055   4.380
    1C        C  661   2.607   3.117   4.503
    1C        C  662   2.706   2.929   4.625
    1C        C  663   2.636   3.052   4.625
    1C        C  664   2.749   2.872   4.747
    1C        C  665   2.702   2.932   4.867
    1C        C  666   2.744   2.868   4.985
    1C        C  667   2.680   4.027   2.054
    1C        C  668   2.677   4.108   2.168
    1C        C  669   2.589   3.914   2.291
    1C        C  670   2.643   4.046   2.290
    1C        C  671   2.562   3.849   2.414
    1C        C  672   2.583   3.919   2.534
    1C        C  673   2.514   3.717   2.658
    1C        C  674   2.554   3.853   2.656
    1C        C  675   2.509   3.648   2.781
    1C        C  676   2.522   3.722   2.901
    1C        C  677   2.510   3.510   3.030
    1C        C  678   2.512   3.652   3.024
    1C        C  679   2.512   3.443   3.155
    1C        C  680   2.506   3.516   3.276
    1C        C  681   2.535   3.309   3.402
    1C        C  682   2.509   3.448   3.399
    1C        C  683   2.561   3.243   3.524
    1C        C  684   2.545   3.313   3.646
    1C        C  685   2.610   3.115   3.769
    1C        C  686   2.558   3.246   3.769
    1C        C  687   2.641   3.053   3.893
    1C        C  688   2.608   3.116   4.015
    1C        C  689   2.710   2.929   4.139
    1C        C  690   2.638   3.051   4.137
    1C        C  691   2.755   2.875   4.261
    1C        C  692   2.713   2.934   4.382
    1C        C  693   2.749   2.873   4.504
    1C        C  694   2.631   3.896   2.061
    1C        C  695   2.524   3.704   2.176
    1C        C  696   2.581   3.833   2.176
    1C        C  697   2.505   3.637   2.298
    1C        C  698   2.521   3.714   2.416
    1C        C  699   2.489   3.505   2.544
    1C        C  700   2.499   3.645   2.537
    1C        C  701   2.504   3.435   2.666
    1C        C  702   2.508   3.507   2.787
    1C        C  703   2.532   3.297   2.910
    1C        C  704   2.512   3.437   2.910
    1C        C  705   2.545   3.232   3.035
    1C        C  706   2.532   3.303   3.157
    1C        C  707   2.596   3.105   3.277
    1C        C  708   2.547   3.237   3.280
    1C        C  709   2.631   3.044   3.400
    1C        C  710   2.606   3.109   3.523
    1C        C  711   2.711   2.929   3.649
    1C        C  712   2.641   3.052   3.647
    1C        C  713   2.754   2.872   3.771
    1C        C  714   2.716   2.933   3.893
    1C        C  715   2.754   2.875   4.016
    1C        C  716   2.451   3.497   2.062
    1C        C  717   2.490   3.631   2.060
    1C        C  718   2.468   3.423   2.183
    1C        C  719   2.482   3.497   2.304
    1C        C  720   2.515   3.287   2.426
    1C        C  721   2.488   3.426   2.426
    1C        C  722   2.537   3.221   2.549
    1C        C  723   2.530   3.296   2.668
    1C        C  724   2.600   3.094   2.789
    1C        C  725   2.550   3.226   2.789
    1C        C  726   2.624   3.032   2.914
    1C        C  727   2.594   3.100   3.034
    1C        C  728   2.706   2.921   3.160
    1C        C  729   2.625   3.037   3.157
    1C        C  730   2.755   2.872   3.284
    1C        C  731   2.714   2.930   3.406
    1C        C  732   2.754   2.871   3.528
    1C        C  733   2.491   3.196   2.076
    1C        C  734   2.487   3.282   2.187
    1C        C  735   2.579   3.081   2.305
    1C        C  736   2.528   3.214   2.306
    1C        C  737   2.611   3.016   2.426
    1C        C  738   2.584   3.088   2.545
    1C        C  739   2.701   2.910   2.669
    1C        C  740   2.624   3.028   2.667
    1C        C  741   2.743   2.855   2.792
    1C        C  742   2.705   2.917   2.914
    1C        C  743   2.748   2.864   3.038
    1C        C  744   2.549   3.070   2.068
    1C        C  745   2.682   2.896   2.184
    1C        C  746   2.602   3.012   2.184
    1C        C  747   2.727   2.838   2.304
    1C        C  748   2.688   2.898   2.426
    1C        C  749   2.739   2.848   2.548
    1C        C  750   2.739   2.843   2.067
    1C        C  751   3.659   2.293   1.999
    1C        O  752   3.610   2.179   2.020
    1C        O  753   3.695   2.311   1.865
    1C        C  754   4.620   3.050   1.976
    1C        O  755   4.582   3.030   1.857
    1C        O  756   4.759   3.056   1.989
    1C        C  757   4.440   4.210   1.945
    1C        O  758   4.514   4.305   1.982
    1C        O  759   4.401   4.200   1.811
    1C        C  760   3.591   4.647   1.928
    1C        O  761   3.617   4.770   1.925
    1C        O  762   3.573   4.607   1.795
    1C        C  763   2.893   4.485   1.943
    1C        O  764   2.947   4.454   1.834
    1C        O  765   2.817   4.602   1.943
    1C        C  766   2.326   3.480   1.984
    1C        O  767   2.310   3.475   1.859
    1C        O  768   2.206   3.529   2.037
    1C        C  769   4.675   3.574   5.066
    1C        O  770   4.647   3.579   5.188
    1C        O  771   4.811   3.609   5.062
    1C        C  772   4.281   4.463   5.024
    1C        O  773   4.296   4.456   5.149
    1C        O  774   4.320   4.590   4.981
    1C        C  775   4.148   2.543   5.078
    1C        O  776   4.168   2.420   5.095
    1C        O  777   4.147   2.606   5.203
    1C        C  778   2.893   4.545   5.051
    1C        O  779   2.913   4.664   5.013
    1C        O  780   2.937   4.507   5.179
    1C        C  781   2.465   3.033   5.068
    1C        O  782   2.381   2.950   5.025
    1C        O  783   2.471   3.032   5.207
    1C        C  784   2.401   3.998   5.036
    1C        O  785   2.292   4.040   4.990
    1C        O  786   2.404   3.950   5.168
    1C        C  787   2.942   2.419   2.010
    1C        O  788   2.951   2.410   1.885
    1C        O  789   2.903   2.301   2.073
    1C        C  790   3.178   2.371   5.065
    1C        O  791   3.099   2.275   5.047
    1C        O  792   3.193   2.380   5.204
    1C        H  793   4.312   2.995   5.070
    1C        H  794   4.184   2.803   5.070
    1C        H  795   4.477   3.139   5.071
    1C        H  796   4.495   3.375   5.062
    1C        H  797   4.555   3.818   5.045
    1C        H  798   4.456   4.005   5.044
    1C        H  799   4.310   4.175   5.054
    1C        H  800   3.995   4.458   5.031
    1C        H  801   3.824   4.613   5.029
    1C        H  802   3.589   4.658   5.016
    1C        H  803   3.391   4.530   5.054
    1C        H  804   3.155   4.490   5.053
    1C        H  805   3.927   2.435   5.033
    1C        H  806   3.673   2.452   5.072
    1C        H  807   2.996   2.530   5.055
    1C        H  808   3.444   2.437   5.072
    1C        H  809   2.858   2.712   5.072
    1C        H  810   2.674   2.872   5.066
    1C        H  811   2.479   3.281   5.063
    1C        H  812   2.505   3.496   5.069
    1C        H  813   2.474   3.730   5.057
    1C        H  814   2.591   4.180   5.047
    1C        H  815   2.781   4.296   5.052
    1C        H  816   2.780   2.913   1.997
    1C        H  817   2.800   2.658   1.992
    1C        H  818   3.213   2.423   1.991
    1C        H  819   3.433   2.457   1.979
    1C        H  820   3.838   2.540   1.972
    1C        H  821   4.029   2.673   1.979
    1C        H  822   4.285   2.690   1.997
    1C        H  823   4.397   2.904   1.964
    1C        H  824   4.581   3.304   1.967
    1C        H  825   4.478   3.508   1.962
    1C        H  826   4.545   3.745   1.964
    1C        H  827   3.808   4.515   1.949
    1C        H  828   3.971   4.373   1.941
    1C        H  829   4.179   4.273   1.947
    1C        H  830   4.475   3.956   1.958
    1C        H  831   2.669   3.827   1.988
    1C        H  832   2.714   4.065   1.960
    1C        H  833   2.686   4.344   2.004
    1C        H  834   3.362   4.508   1.944
    1C        H  835   3.164   4.355   1.976
    1C        H  836   2.564   3.032   1.970
    1C        H  837   2.417   3.217   2.001
    1C        H  838   2.458   3.690   1.976
    2V3OU   H29  839   2.797   3.543   6.144
    2V3OU   C27  840   2.780   3.505   6.248
    2V3OU   H27  841   2.725   3.571   6.319
    2V3OU   H28  842   2.730   3.405   6.242
    2V3OU   O11  843   2.910   3.477   6.302
    2V3OU   C15  844   2.917   3.396   6.414
    2V3OU   C13  845   3.047   3.374   6.464
    2V3OU   C14  846   3.074   3.266   6.549
    2V3OU   C16  847   2.970   3.189   6.597
    2V3OU    H6  848   2.996   3.104   6.663
    2V3OU   C12  849   3.212   3.227   6.585
    2V3OU    O2  850   3.238   3.121   6.645
    2V3OU   C10  851   3.322   3.306   6.527
    2V3OU    C8  852   3.455   3.271   6.547
    2V3OU   O10  853   3.486   3.146   6.591
    2V3OU   H26  854   3.398   3.108   6.609
    2V3OU    C6  855   3.566   3.349   6.503
    2V3OU    C5  856   3.533   3.465   6.432
    2V3OU    C4  857   3.703   3.292   6.511
    2V3OU    H4  858   3.721   3.229   6.603
    2V3OU    H5  859   3.707   3.223   6.421
    2V3OU    C2  860   3.815   3.396   6.503
    2V3OU    O6  861   3.811   3.477   6.620
    2V3OU   H21  862   3.766   3.558   6.591
    2V3OU    C3  863   3.782   3.499   6.395
    2V3OU    H2  864   3.863   3.575   6.384
    2V3OU    H3  865   3.783   3.437   6.302
    2V3OU   C25  866   3.949   3.325   6.479
    2V3OU    O7  867   3.995   3.302   6.367
    2V3OU   C26  868   4.028   3.286   6.602
    2V3OU   H22  869   4.062   3.377   6.659
    2V3OU   H23  870   4.117   3.224   6.575
    2V3OU    O8  871   3.961   3.209   6.700
    2V3OU   H24  872   3.918   3.262   6.769
    2V3OU    C1  873   3.645   3.562   6.410
    2V3OU    H1  874   3.621   3.617   6.314
    2V3OU    O3  875   3.646   3.650   6.523
    2V3OU   C19  876   3.615   3.789   6.512
    2V3OU    H9  877   3.514   3.794   6.461
    2V3OU    O4  878   3.713   3.851   6.432
    2V3OU   C20  879   3.847   3.872   6.477
    2V3OU   H10  880   3.890   3.770   6.497
    2V3OU   C24  881   3.611   3.857   6.649
    2V3OU   H16  882   3.541   3.794   6.709
    2V3OU   H17  883   3.567   3.959   6.638
    2V3OU   C23  884   3.752   3.875   6.707
    2V3OU   H15  885   3.789   3.768   6.716
    2V3OU    N1  886   3.733   3.949   6.830
    2V3OU   H19  887   3.805   3.918   6.893
    2V3OU   H20  888   3.643   3.925   6.867
    2V3OU   C21  889   3.852   3.947   6.611
    2V3OU   H11  890   3.955   3.933   6.653
    2V3OU    O5  891   3.828   4.086   6.618
    2V3OU   H18  892   3.783   4.102   6.702
    2V3OU   C22  893   3.915   3.945   6.362
    2V3OU   H12  894   3.860   4.041   6.339
    2V3OU   H13  895   3.906   3.887   6.267
    2V3OU   H14  896   4.025   3.959   6.378
    2V3OU   C11  897   3.156   3.469   6.440
    2V3OU    O1  898   3.136   3.589   6.411
    2V3OU    C9  899   3.297   3.427   6.456
    2V3OU    C7  900   3.399   3.505   6.402
    2V3OU    O9  901   3.390   3.620   6.327
    2V3OU   H25  902   3.295   3.625   6.306
    2V3OU   C17  903   2.818   3.308   6.463
    2V3OU    H7  904   2.718   3.340   6.432
    2V3OU   C18  905   2.839   3.205   6.553
    2V3OU    H8  906   2.760   3.146   6.604
    3SOL     OW  907   2.925   3.640   4.627
    3SOL    HW1  908   2.932   3.658   4.529
    3SOL    HW2  909   2.954   3.721   4.678
    4SOL     OW  910   0.824   0.126   0.629
    4SOL    HW1  911   0.861   0.041   0.590
    4SOL    HW2  912   0.900   0.189   0.648
    5SOL     OW  913   4.132   1.784   0.889
    5SOL    HW1  914   4.207   1.733   0.846
    5SOL    HW2  915   4.049   1.774   0.834
    6SOL     OW  916   3.620   1.562   2.553
    6SOL    HW1  917   3.522   1.579   2.565
    6SOL    HW2  918   3.633   1.494   2.482
    7SOL     OW  919   2.312   2.836   4.765
    7SOL    HW1  920   2.248   2.765   4.795
    7SOL    HW2  921   2.336   2.894   4.842
    8SOL     OW  922   1.268   1.843   6.113
    8SOL    HW1  923   1.274   1.918   6.046
    8SOL    HW2  924   1.173   1.826   6.136
    9SOL     OW  925   2.159   2.041   5.835
    9SOL    HW1  926   2.177   2.119   5.895
    9SOL    HW2  927   2.176   1.956   5.884
   10SOL     OW  928   5.493   5.117   1.126
   10SOL    HW1  929   5.507   5.206   1.083
   10SOL    HW2  930   5.551   5.049   1.082
   11SOL     OW  931   3.603   1.512   0.253
   11SOL    HW1  932   3.605   1.419   0.289
   11SOL    HW2  933   3.519   1.558   0.284
   12SOL     OW  934   5.511   4.616   1.191
   12SOL    HW1  935   5.471   4.559   1.263
   12SOL    HW2  936   5.443   4.683   1.160
   13SOL     OW  937   4.644   5.541   1.738
   13SOL    HW1  938   4.599   5.628   1.756
   13SOL    HW2  939   4.576   5.468   1.736
   14SOL     OW  940   4.225   5.659   1.141
   14SOL    HW1  941   4.206   5.586   1.076
   14SOL    HW2  942   4.263   5.738   1.093
   15SOL     OW  943   1.005   6.989   6.793
   15SOL    HW1  944   0.992   6.982   6.694
   15SOL    HW2  945   1.033   0.061   6.817
   16SOL     OW  946   1.962   5.210   5.387
   16SOL    HW1  947   1.893   5.160   5.439
   16SOL    HW2  948   1.968   5.174   5.294
   17SOL     OW  949   0.246   1.970   4.028
   17SOL    HW1  950   0.290   1.950   3.940
   17SOL    HW2  951   0.149   1.988   4.013
   18SOL     OW  952   2.696   0.598   5.716
   18SOL    HW1  953   2.658   0.647   5.638
   18SOL    HW2  954   2.621   0.572   5.778
   19SOL     OW  955   3.748   5.599   3.189
   19SOL    HW1  956   3.663   5.591   3.241
   19SOL    HW2  957   3.768   5.695   3.173
   20SOL     OW  958   0.218   1.827   5.058
   20SOL    HW1  959   0.165   1.761   5.111
   20SOL    HW2  960   0.171   1.846   4.972
   21SOL     OW  961   1.221   3.325   2.056
   21SOL    HW1  962   1.162   3.402   2.079
   21SOL    HW2  963   1.281   3.305   2.134
   22SOL     OW  964   0.564   1.122   0.203
   22SOL    HW1  965   0.492   1.108   0.271
   22SOL    HW2  966   0.645   1.161   0.247
   23SOL     OW  967   7.009   5.156   0.384
   23SOL    HW1  968   0.073   5.110   0.407
   23SOL    HW2  969   0.001   5.255   0.385
   24SOL     OW  970   5.121   0.753   0.450
   24SOL    HW1  971   5.102   0.741   0.353
   24SOL    HW2  972   5.124   0.851   0.471
   25SOL     OW  973   0.966   0.927   5.088
   25SOL    HW1  974   1.015   1.012   5.104
   25SOL    HW2  975   0.981   0.864   5.164
   26SOL     OW  976   2.029   6.755   5.709
   26SOL    HW1  977   2.011   6.659   5.730
   26SOL    HW2  978   2.112   6.784   5.756
   27SOL     OW  979   0.197   6.795   2.432
   27SOL    HW1  980   0.224   6.778   2.337
   27SOL    HW2  981   0.102   6.766   2.445
   28SOL     OW  982   1.618   0.574   5.269
   28SOL    HW1  983   1.682   0.522   5.212
   28SOL    HW2  984   1.530   0.582   5.223
   29SOL     OW  985   5.657   1.151   1.403
   29SOL    HW1  986   5.585   1.162   1.472
   29SOL    HW2  987   5.746   1.166   1.445
   30SOL     OW  988   4.514   6.790   4.509
   30SOL    HW1  989   4.608   6.776   4.541
   30SOL    HW2  990   4.479   6.877   4.545
   31SOL     OW  991   6.144   4.654   4.406
   31SOL    HW1  992   6.112   4.668   4.500
   31SOL    HW2  993   6.067   4.626   4.348
   32SOL     OW  994   3.328   1.345   1.169
   32SOL    HW1  995   3.388   1.379   1.097
   32SOL    HW2  996   3.382   1.327   1.252
   33SOL     OW  997   1.722   4.216   6.029
   33SOL    HW1  998   1.667   4.161   5.966
   33SOL    HW2  999   1.815   4.179   6.033
   34SOL     OW 1000   2.391   6.425   5.220
   34SOL    HW1 1001   2.458   6.442   5.147
   34SOL    HW2 1002   2.387   6.503   5.281
   35SOL     OW 1003   2.041   2.863   4.657
   35SOL    HW1 1004   2.136   2.888   4.637
   35SOL    HW2 1005   1.991   2.852   4.571
   36SOL     OW 1006   5.516   1.176   4.351
   36SOL    HW1 1007   5.560   1.175   4.441
   36SOL    HW2 1008   5.508   1.271   4.320
   37SOL     OW 1009   1.760   6.462   4.300
   37SOL    HW1 1010   1.683   6.398   4.311
   37SOL    HW2 1011   1.729   6.543   4.249
   38SOL     OW 1012   1.133   3.641   1.369
   38SOL    HW1 1013   1.056   3.619   1.429
   38SOL    HW2 1014   1.215   3.655   1.424
   39SOL     OW 1015   6.814   5.422   1.335
   39SOL    HW1 1016   6.763   5.344   1.372
   39SOL    HW2 1017   6.756   5.470   1.269
   40SOL     OW 1018   4.018   0.597   6.781
   40SOL    HW1 1019   4.089   0.530   6.803
   40SOL    HW2 1020   4.002   0.597   6.682
   41SOL     OW 1021   6.332   3.488   1.798
   41SOL    HW1 1022   6.266   3.455   1.731
   41SOL    HW2 1023   6.368   3.410   1.850
   42SOL     OW 1024   2.410   3.716   0.567
   42SOL    HW1 1025   2.320   3.754   0.584
   42SOL    HW2 1026   2.461   3.711   0.653
   43SOL     OW 1027   4.920   0.614   3.485
   43SOL    HW1 1028   4.931   0.579   3.392
   43SOL    HW2 1029   4.914   0.538   3.549
   44SOL     OW 1030   7.013   0.591   0.038
   44SOL    HW1 1031   0.014   0.543   0.123
   44SOL    HW2 1032   6.954   0.534   7.004
   45SOL     OW 1033   2.385   3.717   5.618
   45SOL    HW1 1034   2.409   3.660   5.539
   45SOL    HW2 1035   2.441   3.692   5.696
   46SOL     OW 1036   1.421   4.328   4.380
   46SOL    HW1 1037   1.490   4.283   4.437
   46SOL    HW2 1038   1.447   4.423   4.365
   47SOL     OW 1039   6.886   4.280   6.609
   47SOL    HW1 1040   6.884   4.276   6.709
   47SOL    HW2 1041   6.808   4.230   6.572
   48SOL     OW 1042   0.903   3.951   0.226
   48SOL    HW1 1043   0.991   3.918   0.192
   48SOL    HW2 1044   0.916   3.988   0.319
   49SOL     OW 1045   2.851   1.070   6.795
   49SOL    HW1 1046   2.759   1.033   6.805
   49SOL    HW2 1047   2.916   0.994   6.786
   50SOL     OW 1048   4.861   2.092   5.739
   50SOL    HW1 1049   4.908   2.171   5.780
   50SOL    HW2 1050   4.908   2.008   5.765
   51SOL     OW 1051   1.755   6.447   2.048
   51SOL    HW1 1052   1.673   6.410   2.005
   51SOL    HW2 1053   1.753   6.427   2.146
   52SOL     OW 1054   5.500   2.988   2.799
   52SOL    HW1 1055   5.509   3.020   2.893
   52SOL    HW2 1056   5.590   2.959   2.765
   53SOL     OW 1057   4.350   0.276   0.941
   53SOL    HW1 1058   4.352   0.361   0.995
   53SOL    HW2 1059   4.424   0.217   0.971
   54SOL     OW 1060   0.352   1.446   6.122
   54SOL    HW1 1061   0.397   1.443   6.211
   54SOL    HW2 1062   0.389   1.373   6.064
   55SOL     OW 1063   2.059   3.270   6.695
   55SOL    HW1 1064   2.132   3.305   6.753
   55SOL    HW2 1065   1.990   3.341   6.681
   56SOL     OW 1066   1.106   1.960   6.688
   56SOL    HW1 1067   1.173   2.028   6.717
   56SOL    HW2 1068   1.017   1.980   6.730
   57SOL     OW 1069   3.901   5.372   1.475
   57SOL    HW1 1070   3.890   5.470   1.456
   57SOL    HW2 1071   3.962   5.332   1.406
   58SOL     OW 1072   0.540   1.048   6.964
   58SOL    HW1 1073   0.555   1.073   0.038
   58SOL    HW2 1074   0.533   0.949   6.956
   59SOL     OW 1075   3.942   2.927   7.014
   59SOL    HW1 1076   4.020   2.908   6.955
   59SOL    HW2 1077   3.940   3.024   0.014
   60SOL     OW 1078   6.264   2.663   2.760
   60SOL    HW1 1079   6.238   2.568   2.749
   60SOL    HW2 1080   6.184   2.722   2.749
   61SOL     OW 1081   1.839   5.466   2.709
   61SOL    HW1 1082   1.745   5.465   2.742
   61SOL    HW2 1083   1.842   5.507   2.618
   62SOL     OW 1084   4.823   2.976   3.299
   62SOL    HW1 1085   4.823   3.001   3.396
   62SOL    HW2 1086   4.785   2.883   3.289
   63SOL     OW 1087   3.842   6.848   6.246
   63SOL    HW1 1088   3.841   6.763   6.298
   63SOL    HW2 1089   3.752   6.863   6.205
   64SOL     OW 1090   2.068   2.019   6.846
   64SOL    HW1 1091   2.040   2.084   6.776
   64SOL    HW2 1092   2.077   2.066   6.934
   65SOL     OW 1093   0.677   5.378   5.110
   65SOL    HW1 1094   0.616   5.437   5.058
   65SOL    HW2 1095   0.769   5.418   5.112
   66SOL     OW 1096   4.067   1.134   1.281
   66SOL    HW1 1097   4.028   1.219   1.316
   66SOL    HW2 1098   4.044   1.123   1.185
   67SOL     OW 1099   0.115   3.293   1.950
   67SOL    HW1 1100   0.021   3.277   1.921
   67SOL    HW2 1101   0.130   3.391   1.963
   68SOL     OW 1102   1.133   1.168   6.229
   68SOL    HW1 1103   1.039   1.136   6.225
   68SOL    HW2 1104   1.156   1.215   6.144
   69SOL     OW 1105   1.769   0.347   6.242
   69SOL    HW1 1106   1.714   0.430   6.236
   69SOL    HW2 1107   1.843   0.350   6.175
   70SOL     OW 1108   4.661   5.077   3.463
   70SOL    HW1 1109   4.686   5.074   3.366
   70SOL    HW2 1110   4.563   5.097   3.471
   71SOL     OW 1111   5.381   0.493   5.008
   71SOL    HW1 1112   5.417   0.402   5.029
   71SOL    HW2 1113   5.404   0.517   4.913
   72SOL     OW 1114   6.704   1.187   2.421
   72SOL    HW1 1115   6.722   1.233   2.508
   72SOL    HW2 1116   6.770   1.112   2.409
   73SOL     OW 1117   3.087   0.963   0.911
   73SOL    HW1 1118   3.002   0.918   0.937
   73SOL    HW2 1119   3.067   1.050   0.865
   74SOL     OW 1120   2.652   0.719   0.512
   74SOL    HW1 1121   2.712   0.796   0.536
   74SOL    HW2 1122   2.645   0.712   0.413
   75SOL     OW 1123   2.545   2.745   1.715
   75SOL    HW1 1124   2.506   2.710   1.631
   75SOL    HW2 1125   2.642   2.721   1.719
   76SOL     OW 1126   3.224   5.149   6.648
   76SOL    HW1 1127   3.125   5.141   6.632
   76SOL    HW2 1128   3.263   5.057   6.654
   77SOL     OW 1129   0.022   4.945   4.791
   77SOL    HW1 1130   0.041   4.868   4.731
   77SOL    HW2 1131   0.104   5.002   4.799
   78SOL     OW 1132   5.213   1.106   1.463
   78SOL    HW1 1133   5.211   1.006   1.472
   78SOL    HW2 1134   5.266   1.145   1.539
   79SOL     OW 1135   1.822   4.155   3.956
   79SOL    HW1 1136   1.827   4.179   4.053
   79SOL    HW2 1137   1.757   4.215   3.911
   80SOL     OW 1138   3.862   2.364   5.290
   80SOL    HW1 1139   3.808   2.447   5.306
   80SOL    HW2 1140   3.802   2.284   5.293
   81SOL     OW 1141   2.712   4.875   3.507
   81SOL    HW1 1142   2.684   4.967   3.535
   81SOL    HW2 1143   2.700   4.811   3.583
   82SOL     OW 1144   2.863   0.767   1.537
   82SOL    HW1 1145   2.947   0.820   1.528
   82SOL    HW2 1146   2.848   0.745   1.634
   83SOL     OW 1147   5.767   2.388   3.692
   83SOL    HW1 1148   5.729   2.296   3.687
   83SOL    HW2 1149   5.715   2.441   3.759
   84SOL     OW 1150   5.334   2.375   2.728
   84SOL    HW1 1151   5.298   2.465   2.703
   84SOL    HW2 1152   5.337   2.317   2.647
   85SOL     OW 1153   2.463   5.464   3.426
   85SOL    HW1 1154   2.545   5.503   3.384
   85SOL    HW2 1155   2.432   5.524   3.500
   86SOL     OW 1156   4.818   0.793   0.038
   86SOL    HW1 1157   4.896   0.733   0.020
   86SOL    HW2 1158   4.821   0.824   0.134
   87SOL     OW 1159   2.828   2.826   6.651
   87SOL    HW1 1160   2.840   2.780   6.739
   87SOL    HW2 1161   2.916   2.831   6.604
   88SOL     OW 1162   1.630   2.068   1.459
   88SOL    HW1 1163   1.551   2.111   1.416
   88SOL    HW2 1164   1.676   2.134   1.519
   89SOL     OW 1165   4.136   3.554   4.928
   89SOL    HW1 1166   4.128   3.458   4.952
   89SOL    HW2 1167   4.227   3.588   4.952
   90SOL     OW 1168   6.578   3.929   2.189
   90SOL    HW1 1169   6.484   3.929   2.223
   90SOL    HW2 1170   6.607   3.836   2.170
   91SOL     OW 1171   4.961   5.218   0.394
   91SOL    HW1 1172   5.016   5.199   0.476
   91SOL    HW2 1173   4.944   5.316   0.387
   92SOL     OW 1174   5.928   5.964   6.783
   92SOL    HW1 1175   5.838   5.956   6.740
   92SOL    HW2 1176   5.944   6.059   6.810
   93SOL     OW 1177   2.954   3.822   1.707
   93SOL    HW1 1178   2.856   3.838   1.720
   93SOL    HW2 1179   2.975   3.819   1.610
   94SOL     OW 1180   3.336   1.202   4.577
   94SOL    HW1 1181   3.247   1.160   4.560
   94SOL    HW2 1182   3.360   1.260   4.499
   95SOL     OW 1183   0.876   6.425   4.635
   95SOL    HW1 1184   0.928   6.510   4.641
   95SOL    HW2 1185   0.920   6.363   4.570
   96SOL     OW 1186   7.012   6.507   6.769
   96SOL    HW1 1187   0.026   6.598   6.751
   96SOL    HW2 1188   0.030   6.442   6.704
   97SOL     OW 1189   3.836   5.493   4.641
   97SOL    HW1 1190   3.931   5.461   4.649
   97SOL    HW2 1191   3.816   5.514   4.546
   98SOL     OW 1192   0.330   2.699   4.763
   98SOL    HW1 1193   0.290   2.609   4.775
   98SOL    HW2 1194   0.389   2.720   4.841
   99SOL     OW 1195   4.546   4.685   4.578
   99SOL    HW1 1196   4.559   4.784   4.577
   99SOL    HW2 1197   4.462   4.663   4.626
  100SOL     OW 1198   1.716   1.944   5.085
  100SOL    HW1 1199   1.776   1.971   5.010
  100SOL    HW2 1200   1.742   1.853   5.118
  101SOL     OW 1201   5.122   2.976   2.574
  101SOL    HW1 1202   5.109   2.895   2.516
  101SOL    HW2 1203   5.033   3.015   2.596
  102SOL     OW 1204   4.343   6.306   0.595
  102SOL    HW1 1205   4.294   6.393   0.595
  102SOL    HW2 1206   4.408   6.304   0.671
  103SOL     OW 1207   2.018   2.096   1.190
  103SOL    HW1 1208   2.023   2.183   1.141
  103SOL    HW2 1209   1.927   2.084   1.229
  104SOL     OW 1210   0.563   4.207   1.473
  104SOL    HW1 1211   0.648   4.213   1.524
  104SOL    HW2 1212   0.583   4.210   1.375
  105SOL     OW 1213   6.522   2.152   4.987
  105SOL    HW1 1214   6.601   2.203   5.019
  105SOL    HW2 1215   6.443   2.173   5.044
  106SOL     OW 1216   4.508   3.636   1.706
  106SOL    HW1 1217   4.418   3.678   1.694
  106SOL    HW2 1218   4.574   3.706   1.734
  107SOL     OW 1219   4.415   0.169   2.051
  107SOL    HW1 1220   4.448   0.228   1.977
  107SOL    HW2 1221   4.422   0.218   2.138
  108SOL     OW 1222   3.331   1.482   4.897
  108SOL    HW1 1223   3.242   1.447   4.926
  108SOL    HW2 1224   3.376   1.526   4.975
  109SOL     OW 1225   2.350   1.741   5.155
  109SOL    HW1 1226   2.389   1.655   5.122
  109SOL    HW2 1227   2.371   1.815   5.091
  110SOL     OW 1228   4.118   4.735   5.363
  110SOL    HW1 1229   4.150   4.687   5.444
  110SOL    HW2 1230   4.074   4.821   5.390
  111SOL     OW 1231   6.771   3.485   1.241
  111SOL    HW1 1232   6.855   3.430   1.243
  111SOL    HW2 1233   6.698   3.437   1.289
  112SOL     OW 1234   4.160   6.653   4.759
  112SOL    HW1 1235   4.157   6.746   4.797
  112SOL    HW2 1236   4.153   6.587   4.834
  113SOL     OW 1237   1.557   5.240   2.473
  113SOL    HW1 1238   1.570   5.178   2.395
  113SOL    HW2 1239   1.590   5.331   2.449
  114SOL     OW 1240   0.060   2.203   1.685
  114SOL    HW1 1241   0.076   2.106   1.670
  114SOL    HW2 1242   0.029   2.219   1.778
  115SOL     OW 1243   4.139   1.413   3.001
  115SOL    HW1 1244   4.084   1.495   3.018
  115SOL    HW2 1245   4.120   1.345   3.072
  116SOL     OW 1246   5.750   6.044   0.139
  116SOL    HW1 1247   5.844   6.069   0.116
  116SOL    HW2 1248   5.687   6.111   0.101
  117SOL     OW 1249   2.379   1.246   0.617
  117SOL    HW1 1250   2.442   1.174   0.590
  117SOL    HW2 1251   2.299   1.205   0.661
  118SOL     OW 1252   1.089   2.237   2.004
  118SOL    HW1 1253   1.069   2.307   2.072
  118SOL    HW2 1254   1.077   2.276   1.912
  119SOL     OW 1255   5.412   5.415   5.340
  119SOL    HW1 1256   5.442   5.457   5.254
  119SOL    HW2 1257   5.339   5.471   5.380
  120SOL     OW 1258   4.658   1.767   4.425
  120SOL    HW1 1259   4.637   1.777   4.523
  120SOL    HW2 1260   4.735   1.704   4.414
  121SOL     OW 1261   0.281   5.174   6.093
  121SOL    HW1 1262   0.230   5.206   6.013
  121SOL    HW2 1263   0.370   5.138   6.063
  122SOL     OW 1264   0.390   4.534   5.934
  122SOL    HW1 1265   0.457   4.465   5.961
  122SOL    HW2 1266   0.372   4.595   6.011
  123SOL     OW 1267   0.763   2.750   1.126
  123SOL    HW1 1268   0.838   2.698   1.168
  123SOL    HW2 1269   0.681   2.694   1.124
  124SOL     OW 1270   2.209   3.716   0.174
  124SOL    HW1 1271   2.302   3.710   0.211
  124SOL    HW2 1272   2.200   3.653   0.097
  125SOL     OW 1273   4.009   2.698   0.159
  125SOL    HW1 1274   3.998   2.792   0.126
  125SOL    HW2 1275   3.919   2.662   0.184
  126SOL     OW 1276   3.743   3.262   4.899
  126SOL    HW1 1277   3.775   3.308   4.816
  126SOL    HW2 1278   3.780   3.170   4.903
  127SOL     OW 1279   0.381   4.688   5.691
  127SOL    HW1 1280   0.303   4.650   5.640
  127SOL    HW2 1281   0.398   4.634   5.773
  128SOL     OW 1282   4.737   4.337   5.872
  128SOL    HW1 1283   4.807   4.335   5.945
  128SOL    HW2 1284   4.782   4.329   5.783
  129SOL     OW 1285   1.245   5.606   1.942
  129SOL    HW1 1286   1.324   5.549   1.963
  129SOL    HW2 1287   1.272   5.681   1.882
  130SOL     OW 1288   6.636   3.301   4.705
  130SOL    HW1 1289   6.651   3.363   4.782
  130SOL    HW2 1290   6.663   3.346   4.620
  131SOL     OW 1291   0.566   3.561   2.677
  131SOL    HW1 1292   0.510   3.527   2.753
  131SOL    HW2 1293   0.525   3.534   2.590
  132SOL     OW 1294   4.166   3.208   1.963
  132SOL    HW1 1295   4.090   3.164   1.916
  132SOL    HW2 1296   4.250   3.156   1.946
  133SOL     OW 1297   4.211   4.587   5.563
  133SOL    HW1 1298   4.115   4.563   5.581
  133SOL    HW2 1299   4.260   4.507   5.529
  134SOL     OW 1300   6.680   1.719   6.838
  134SOL    HW1 1301   6.713   1.638   6.887
  134SOL    HW2 1302   6.675   1.796   6.902
  135SOL     OW 1303   4.948   5.431   3.644
  135SOL    HW1 1304   5.010   5.401   3.716
  135SOL    HW2 1305   4.973   5.388   3.558
  136SOL     OW 1306   3.827   6.299   5.891
  136SOL    HW1 1307   3.797   6.306   5.986
  136SOL    HW2 1308   3.750   6.274   5.833
  137SOL     OW 1309   2.072   4.566   0.523
  137SOL    HW1 1310   2.165   4.556   0.487
  137SOL    HW2 1311   2.037   4.477   0.550
  138SOL     OW 1312   0.968   5.165   1.006
  138SOL    HW1 1313   1.039   5.095   1.018
  138SOL    HW2 1314   0.894   5.149   1.072
  139SOL     OW 1315   0.997   0.613   1.248
  139SOL    HW1 1316   1.025   0.582   1.157
  139SOL    HW2 1317   1.076   0.609   1.310
  140SOL     OW 1318   2.450   6.858   1.839
  140SOL    HW1 1319   2.386   6.785   1.865
  140SOL    HW2 1320   2.422   6.943   1.884
  141SOL     OW 1321   2.190   1.792   6.950
  141SOL    HW1 1322   2.175   1.875   6.897
  141SOL    HW2 1323   2.285   1.788   6.980
  142SOL     OW 1324   2.076   3.994   6.265
  142SOL    HW1 1325   2.012   4.033   6.330
  142SOL    HW2 1326   2.151   3.949   6.314
  143SOL     OW 1327   5.585   5.884   2.023
  143SOL    HW1 1328   5.603   5.967   1.970
  143SOL    HW2 1329   5.655   5.816   2.002
  144SOL     OW 1330   1.817   5.197   3.123
  144SOL    HW1 1331   1.775   5.239   3.203
  144SOL    HW2 1332   1.813   5.097   3.132
  145SOL     OW 1333   6.913   6.150   3.193
  145SOL    HW1 1334   6.880   6.058   3.173
  145SOL    HW2 1335   6.975   6.180   3.121
  146SOL     OW 1336   6.875   0.725   5.008
  146SOL    HW1 1337   6.951   0.734   5.073
  146SOL    HW2 1338   6.790   0.709   5.058
  147SOL     OW 1339   5.806   0.167   4.444
  147SOL    HW1 1340   5.857   0.097   4.394
  147SOL    HW2 1341   5.869   0.221   4.499
  148SOL     OW 1342   1.598   6.766   2.784
  148SOL    HW1 1343   1.671   6.833   2.796
  148SOL    HW2 1344   1.525   6.786   2.849
  149SOL     OW 1345   2.098   2.150   5.165
  149SOL    HW1 1346   2.168   2.208   5.123
  149SOL    HW2 1347   2.114   2.145   5.263
  150SOL     OW 1348   5.319   2.784   5.009
  150SOL    HW1 1349   5.381   2.848   4.963
  150SOL    HW2 1350   5.243   2.835   5.049
  151SOL     OW 1351   5.539   3.054   1.756
  151SOL    HW1 1352   5.601   3.020   1.826
  151SOL    HW2 1353   5.504   3.144   1.783
  152SOL     OW 1354   6.706   2.725   0.538
  152SOL    HW1 1355   6.635   2.681   0.482
  152SOL    HW2 1356   6.791   2.729   0.486
  153SOL     OW 1357   2.125   1.842   4.213
  153SOL    HW1 1358   2.077   1.869   4.130
  153SOL    HW2 1359   2.077   1.878   4.293
  154SOL     OW 1360   0.125   0.733   4.110
  154SOL    HW1 1361   0.031   0.716   4.081
  154SOL    HW2 1362   0.186   0.669   4.065
  155SOL     OW 1363   5.802   5.216   3.402
  155SOL    HW1 1364   5.889   5.229   3.354
  155SOL    HW2 1365   5.809   5.136   3.462
  156SOL     OW 1366   4.324   0.437   1.366
  156SOL    HW1 1367   4.403   0.450   1.425
  156SOL    HW2 1368   4.258   0.511   1.382
  157SOL     OW 1369   5.526   0.056   0.880
  157SOL    HW1 1370   5.490   6.991   0.847
  157SOL    HW2 1371   5.477   0.132   0.836
  158SOL     OW 1372   1.185   2.568   5.550
  158SOL    HW1 1373   1.189   2.584   5.648
  158SOL    HW2 1374   1.210   2.473   5.530
  159SOL     OW 1375   0.006   4.675   6.614
  159SOL    HW1 1376   6.950   4.626   6.575
  159SOL    HW2 1377   0.076   4.688   6.544
  160SOL     OW 1378   3.925   0.142   1.601
  160SOL    HW1 1379   3.894   0.180   1.514
  160SOL    HW2 1380   3.860   0.166   1.673
  161SOL     OW 1381   6.259   0.002   0.799
  161SOL    HW1 1382   6.299   6.934   0.818
  161SOL    HW2 1383   6.248   0.014   0.701
  162SOL     OW 1384   4.633   0.243   5.334
  162SOL    HW1 1385   4.682   0.233   5.248
  162SOL    HW2 1386   4.540   0.275   5.317
  163SOL     OW 1387   0.966   3.867   2.810
  163SOL    HW1 1388   0.927   3.943   2.861
  163SOL    HW2 1389   0.893   3.811   2.772
  164SOL     OW 1390   2.110   2.348   3.115
  164SOL    HW1 1391   2.131   2.332   3.212
  164SOL    HW2 1392   2.193   2.340   3.061
  165SOL     OW 1393   0.260   6.130   5.018
  165SOL    HW1 1394   0.267   6.215   4.966
  165SOL    HW2 1395   0.164   6.110   5.038
  166SOL     OW 1396   0.768   4.998   4.305
  166SOL    HW1 1397   0.772   5.021   4.208
  166SOL    HW2 1398   0.745   4.902   4.316
  167SOL     OW 1399   6.839   1.312   3.257
  167SOL    HW1 1400   6.875   1.337   3.167
  167SOL    HW2 1401   6.905   1.253   3.304
  168SOL     OW 1402   3.517   3.837   4.018
  168SOL    HW1 1403   3.543   3.748   3.979
  168SOL    HW2 1404   3.582   3.906   3.988
  169SOL     OW 1405   4.863   2.708   6.292
  169SOL    HW1 1406   4.847   2.617   6.254
  169SOL    HW2 1407   4.776   2.756   6.304
  170SOL     OW 1408   0.293   5.415   2.591
  170SOL    HW1 1409   0.311   5.332   2.645
  170SOL    HW2 1410   0.202   5.409   2.549
  171SOL     OW 1411   3.568   2.678   0.814
  171SOL    HW1 1412   3.645   2.713   0.868
  171SOL    HW2 1413   3.490   2.661   0.874
  172SOL     OW 1414   1.561   0.848   0.088
  172SOL    HW1 1415   1.541   0.848   0.186
  172SOL    HW2 1416   1.477   0.840   0.036
  173SOL     OW 1417   5.963   0.514   4.823
  173SOL    HW1 1418   5.981   0.435   4.764
  173SOL    HW2 1419   5.878   0.499   4.874
  174SOL     OW 1420   6.793   3.822   4.744
  174SOL    HW1 1421   6.707   3.857   4.780
  174SOL    HW2 1422   6.779   3.785   4.652
  175SOL     OW 1423   0.711   5.317   2.591
  175SOL    HW1 1424   0.793   5.305   2.646
  175SOL    HW2 1425   0.676   5.410   2.602
  176SOL     OW 1426   5.989   4.347   1.044
  176SOL    HW1 1427   5.902   4.299   1.054
  176SOL    HW2 1428   5.973   4.446   1.042
  177SOL     OW 1429   5.614   2.862   3.406
  177SOL    HW1 1430   5.706   2.825   3.415
  177SOL    HW2 1431   5.549   2.787   3.392
  178SOL     OW 1432   1.468   5.570   4.908
  178SOL    HW1 1433   1.418   5.623   4.976
  178SOL    HW2 1434   1.545   5.524   4.952
  179SOL     OW 1435   3.564   4.105   1.906
  179SOL    HW1 1436   3.555   4.195   1.865
  179SOL    HW2 1437   3.482   4.084   1.961
  180SOL     OW 1438   4.377   0.852   6.297
  180SOL    HW1 1439   4.384   0.853   6.397
  180SOL    HW2 1440   4.367   0.946   6.263
  181SOL     OW 1441   3.668   0.487   5.478
  181SOL    HW1 1442   3.713   0.493   5.567
  181SOL    HW2 1443   3.614   0.569   5.462
  182SOL     OW 1444   2.956   2.932   5.553
  182SOL    HW1 1445   2.910   2.853   5.510
  182SOL    HW2 1446   2.949   3.011   5.491
  183SOL     OW 1447   2.506   1.164   3.296
  183SOL    HW1 1448   2.542   1.114   3.217
  183SOL    HW2 1449   2.415   1.130   3.318
  184SOL     OW 1450   5.376   6.257   3.499
  184SOL    HW1 1451   5.372   6.201   3.581
  184SOL    HW2 1452   5.388   6.199   3.419
  185SOL     OW 1453   0.433   6.187   5.489
  185SOL    HW1 1454   0.388   6.103   5.518
  185SOL    HW2 1455   0.491   6.221   5.563
  186SOL     OW 1456   3.219   5.727   6.791
  186SOL    HW1 1457   3.158   5.692   6.863
  186SOL    HW2 1458   3.264   5.650   6.745
  187SOL     OW 1459   3.465   5.191   0.310
  187SOL    HW1 1460   3.498   5.104   0.274
  187SOL    HW2 1461   3.476   5.262   0.241
  188SOL     OW 1462   1.858   4.241   4.216
  188SOL    HW1 1463   1.933   4.267   4.276
  188SOL    HW2 1464   1.816   4.157   4.249
  189SOL     OW 1465   6.130   4.154   6.001
  189SOL    HW1 1466   6.126   4.191   6.094
  189SOL    HW2 1467   6.198   4.081   5.998
  190SOL     OW 1468   6.064   6.365   0.096
  190SOL    HW1 1469   6.152   6.378   0.051
  190SOL    HW2 1470   6.058   6.426   0.175
  191SOL     OW 1471   2.148   3.487   6.172
  191SOL    HW1 1472   2.069   3.435   6.204
  191SOL    HW2 1473   2.171   3.459   6.079
  192SOL     OW 1474   0.765   0.099   1.417
  192SOL    HW1 1475   0.666   0.090   1.423
  192SOL    HW2 1476   0.797   0.165   1.485
  193SOL     OW 1477   3.408   6.839   1.404
  193SOL    HW1 1478   3.378   6.914   1.462
  193SOL    HW2 1479   3.507   6.841   1.394
  194SOL     OW 1480   4.239   6.377   2.981
  194SOL    HW1 1481   4.251   6.372   2.882
  194SOL    HW2 1482   4.142   6.368   3.004
  195SOL     OW 1483   3.308   1.026   1.332
  195SOL    HW1 1484   3.398   0.997   1.298
  195SOL    HW2 1485   3.320   1.097   1.402
  196SOL     OW 1486   4.049   2.752   1.095
  196SOL    HW1 1487   4.097   2.809   1.162
  196SOL    HW2 1488   4.070   2.656   1.112
  197SOL     OW 1489   1.008   5.894   1.266
  197SOL    HW1 1490   1.057   5.960   1.210
  197SOL    HW2 1491   0.928   5.938   1.308
  198SOL     OW 1492   6.260   0.036   5.872
  198SOL    HW1 1493   6.176   0.084   5.897
  198SOL    HW2 1494   6.335   0.066   5.931
  199SOL     OW 1495   1.727   1.061   3.222
  199SOL    HW1 1496   1.725   0.993   3.149
  199SOL    HW2 1497   1.683   1.145   3.190
  200SOL     OW 1498   1.536   3.802   3.570
  200SOL    HW1 1499   1.455   3.744   3.564
  200SOL    HW2 1500   1.574   3.798   3.662
  201SOL     OW 1501   5.124   0.734   0.153
  201SOL    HW1 1502   5.072   0.688   0.080
  201SOL    HW2 1503   5.219   0.705   0.149
  202SOL     OW 1504   4.316   0.402   2.709
  202SOL    HW1 1505   4.338   0.435   2.617
  202SOL    HW2 1506   4.398   0.404   2.766
  203SOL     OW 1507   6.006   3.183   0.447
  203SOL    HW1 1508   6.030   3.094   0.410
  203SOL    HW2 1509   5.991   3.175   0.546
  204SOL     OW 1510   2.453   5.854   0.617
  204SOL    HW1 1511   2.483   5.946   0.640
  204SOL    HW2 1512   2.428   5.804   0.700
  205SOL     OW 1513   5.415   0.710   1.336
  205SOL    HW1 1514   5.447   0.804   1.337
  205SOL    HW2 1515   5.461   0.660   1.262
  206SOL     OW 1516   0.054   6.039   0.860
  206SOL    HW1 1517   0.073   6.060   0.957
  206SOL    HW2 1518   6.991   6.085   0.833
  207SOL     OW 1519   6.533   2.591   5.843
  207SOL    HW1 1520   6.501   2.647   5.918
  207SOL    HW2 1521   6.614   2.539   5.872
  208SOL     OW 1522   4.073   3.902   0.674
  208SOL    HW1 1523   4.085   3.991   0.629
  208SOL    HW2 1524   4.089   3.913   0.773
  209SOL     OW 1525   6.873   0.128   4.162
  209SOL    HW1 1526   6.950   0.065   4.173
  209SOL    HW2 1527   6.788   0.082   4.184
  210SOL     OW 1528   4.469   1.798   0.518
  210SOL    HW1 1529   4.484   1.699   0.522
  210SOL    HW2 1530   4.374   1.815   0.492
  211SOL     OW 1531   0.035   3.956   2.541
  211SOL    HW1 1532   0.020   4.011   2.458
  211SOL    HW2 1533   0.113   3.895   2.526
  212SOL     OW 1534   1.711   4.878   5.397
  212SOL    HW1 1535   1.766   4.891   5.314
  212SOL    HW2 1536   1.746   4.800   5.448
  213SOL     OW 1537   4.456   2.655   1.150
  213SOL    HW1 1538   4.408   2.625   1.233
  213SOL    HW2 1539   4.444   2.587   1.078
  214SOL     OW 1540   0.465   6.063   3.976
  214SOL    HW1 1541   0.429   5.980   3.933
  214SOL    HW2 1542   0.549   6.040   4.026
  215SOL     OW 1543   3.625   4.007   3.731
  215SOL    HW1 1544   3.671   4.060   3.660
  215SOL    HW2 1545   3.681   4.007   3.814
  216SOL     OW 1546   3.404   0.013   5.737
  216SOL    HW1 1547   3.351   0.066   5.672
  216SOL    HW2 1548   3.477   0.071   5.775
  217SOL     OW 1549   6.483   2.214   5.360
  217SOL    HW1 1550   6.481   2.132   5.416
  217SOL    HW2 1551   6.561   2.210   5.297
  218SOL     OW 1552   2.787   4.301   5.866
  218SOL    HW1 1553   2.778   4.399   5.880
  218SOL    HW2 1554   2.703   4.255   5.894
  219SOL     OW 1555   3.333   5.943   6.660
  219SOL    HW1 1556   3.279   5.887   6.722
  219SOL    HW2 1557   3.361   6.028   6.706
  220SOL     OW 1558   1.709   4.821   0.063
  220SOL    HW1 1559   1.796   4.774   0.077
  220SOL    HW2 1560   1.676   4.803   6.992
  221SOL     OW 1561   6.300   3.444   4.320
  221SOL    HW1 1562   6.224   3.459   4.383
  221SOL    HW2 1563   6.328   3.348   4.323
  222SOL     OW 1564   1.874   7.002   4.020
  222SOL    HW1 1565   1.966   0.018   4.008
  222SOL    HW2 1566   1.880   6.903   4.036
  223SOL     OW 1567   5.519   5.120   2.408
  223SOL    HW1 1568   5.482   5.103   2.499
  223SOL    HW2 1569   5.473   5.199   2.368
  224SOL     OW 1570   5.162   3.882   2.985
  224SOL    HW1 1571   5.232   3.947   3.014
  224SOL    HW2 1572   5.105   3.857   3.064
  225SOL     OW 1573   4.834   5.855   2.042
  225SOL    HW1 1574   4.841   5.927   2.111
  225SOL    HW2 1575   4.750   5.802   2.057
  226SOL     OW 1576   1.277   5.603   2.569
  226SOL    HW1 1577   1.300   5.617   2.665
  226SOL    HW2 1578   1.297   5.686   2.517
  227SOL     OW 1579   0.917   3.999   3.217
  227SOL    HW1 1580   0.914   3.901   3.196
  227SOL    HW2 1581   0.961   4.048   3.141
  228SOL     OW 1582   4.046   6.033   3.125
  228SOL    HW1 1583   3.952   6.068   3.126
  228SOL    HW2 1584   4.045   5.934   3.138
  229SOL     OW 1585   6.064   6.046   2.438
  229SOL    HW1 1586   6.059   5.949   2.463
  229SOL    HW2 1587   6.075   6.101   2.521
  230SOL     OW 1588   1.065   4.578   5.721
  230SOL    HW1 1589   1.117   4.530   5.791
  230SOL    HW2 1590   0.997   4.637   5.764
  231SOL     OW 1591   0.449   1.741   6.335
  231SOL    HW1 1592   0.435   1.648   6.367
  231SOL    HW2 1593   0.448   1.804   6.413
  232SOL     OW 1594   1.612   3.692   5.843
  232SOL    HW1 1595   1.598   3.776   5.895
  232SOL    HW2 1596   1.697   3.649   5.872
  233SOL     OW 1597   3.383   6.955   0.074
  233SOL    HW1 1598   3.364   0.008   0.137
  233SOL    HW2 1599   3.429   6.991   7.014
  234SOL     OW 1600   1.390   4.671   6.795
  234SOL    HW1 1601   1.399   4.581   6.752
  234SOL    HW2 1602   1.355   4.660   6.888
  235SOL     OW 1603   3.852   3.247   6.062
  235SOL    HW1 1604   3.951   3.257   6.073
  235SOL    HW2 1605   3.832   3.186   5.985
  236SOL     OW 1606   6.900   1.053   6.061
  236SOL    HW1 1607   6.835   1.128   6.072
  236SOL    HW2 1608   6.969   1.057   6.134
  237SOL     OW 1609   6.933   6.731   2.424
  237SOL    HW1 1610   6.883   6.788   2.489
  237SOL    HW2 1611   6.876   6.713   2.344
  238SOL     OW 1612   0.880   2.524   3.006
  238SOL    HW1 1613   0.838   2.440   3.038
  238SOL    HW2 1614   0.951   2.503   2.939
  239SOL     OW 1615   6.235   4.895   0.457
  239SOL    HW1 1616   6.225   4.831   0.381
  239SOL    HW2 1617   6.332   4.904   0.481
  240SOL     OW 1618   0.622   2.063   4.574
  240SOL    HW1 1619   0.652   2.118   4.496
  240SOL    HW2 1620   0.702   2.040   4.631
  241SOL     OW 1621   5.963   2.251   4.801
  241SOL    HW1 1622   6.021   2.174   4.776
  241SOL    HW2 1623   5.926   2.293   4.718
  242SOL     OW 1624   2.941   2.165   3.560
  242SOL    HW1 1625   2.976   2.203   3.646
  242SOL    HW2 1626   3.015   2.156   3.494
  243SOL     OW 1627   4.825   1.393   6.798
  243SOL    HW1 1628   4.736   1.412   6.838
  243SOL    HW2 1629   4.815   1.329   6.722
  244SOL     OW 1630   0.759   1.527   6.110
  244SOL    HW1 1631   0.779   1.604   6.049
  244SOL    HW2 1632   0.844   1.479   6.130
  245SOL     OW 1633   5.268   1.772   3.802
  245SOL    HW1 1634   5.362   1.741   3.813
  245SOL    HW2 1635   5.223   1.717   3.732
  246SOL     OW 1636   5.432   3.527   4.329
  246SOL    HW1 1637   5.491   3.606   4.347
  246SOL    HW2 1638   5.488   3.444   4.327
  247SOL     OW 1639   2.458   0.782   2.848
  247SOL    HW1 1640   2.509   0.707   2.805
  247SOL    HW2 1641   2.489   0.869   2.810
  248SOL     OW 1642   0.272   2.629   3.523
  248SOL    HW1 1643   0.266   2.617   3.423
  248SOL    HW2 1644   0.368   2.642   3.549
  249SOL     OW 1645   2.361   5.714   4.994
  249SOL    HW1 1646   2.303   5.795   4.988
  249SOL    HW2 1647   2.420   5.721   5.075
  250SOL     OW 1648   5.175   2.409   6.810
  250SOL    HW1 1649   5.208   2.502   6.792
  250SOL    HW2 1650   5.120   2.408   6.893
  251SOL     OW 1651   1.803   0.387   1.417
  251SOL    HW1 1652   1.801   0.435   1.329
  251SOL    HW2 1653   1.845   0.297   1.404
  252SOL     OW 1654   6.751   2.420   0.389
  252SOL    HW1 1655   6.810   2.501   0.398
  252SOL    HW2 1656   6.684   2.436   0.317
  253SOL     OW 1657   2.160   4.661   5.872
  253SOL    HW1 1658   2.135   4.749   5.833
  253SOL    HW2 1659   2.260   4.652   5.870
  254SOL     OW 1660   4.741   3.112   6.468
  254SOL    HW1 1661   4.784   3.135   6.381
  254SOL    HW2 1662   4.650   3.154   6.472
  255SOL     OW 1663   4.335   2.320   2.527
  255SOL    HW1 1664   4.258   2.257   2.517
  255SOL    HW2 1665   4.312   2.389   2.596
  256SOL     OW 1666   0.360   6.261   1.043
  256SOL    HW1 1667   0.448   6.230   1.008
  256SOL    HW2 1668   0.368   6.281   1.141
  257SOL     OW 1669   3.210   6.010   6.440
  257SOL    HW1 1670   3.244   5.997   6.533
  257SOL    HW2 1671   3.189   5.921   6.399
  258SOL     OW 1672   4.829   5.172   4.684
  258SOL    HW1 1673   4.838   5.272   4.688
  258SOL    HW2 1674   4.768   5.148   4.609
  259SOL     OW 1675   0.645   1.465   2.200
  259SOL    HW1 1676   0.649   1.563   2.221
  259SOL    HW2 1677   0.707   1.415   2.260
  260SOL     OW 1678   6.760   6.454   5.762
  260SOL    HW1 1679   6.665   6.461   5.791
  260SOL    HW2 1680   6.788   6.358   5.765
  261SOL     OW 1681   0.550   0.931   4.157
  261SOL    HW1 1682   0.547   0.838   4.119
  261SOL    HW2 1683   0.593   0.928   4.247
  262SOL     OW 1684   1.706   5.220   1.149
  262SOL    HW1 1685   1.698   5.264   1.059
  262SOL    HW2 1686   1.784   5.157   1.147
  263SOL     OW 1687   0.741   4.370   4.577
  263SOL    HW1 1688   0.687   4.436   4.628
  263SOL    HW2 1689   0.829   4.356   4.623
  264SOL     OW 1690   3.582   3.451   1.101
  264SOL    HW1 1691   3.663   3.509   1.093
  264SOL    HW2 1692   3.500   3.508   1.096
  265SOL     OW 1693   4.359   5.745   3.949
  265SOL    HW1 1694   4.409   5.691   3.881
  265SOL    HW2 1695   4.321   5.683   4.018
  266SOL     OW 1696   4.385   3.606   6.943
  266SOL    HW1 1697   4.475   3.560   6.944
  266SOL    HW2 1698   4.398   3.705   6.945
  267SOL     OW 1699   2.579   2.351   6.156
  267SOL    HW1 1700   2.669   2.349   6.112
  267SOL    HW2 1701   2.524   2.275   6.121
  268SOL     OW 1702   1.711   3.883   3.383
  268SOL    HW1 1703   1.776   3.936   3.437
  268SOL    HW2 1704   1.651   3.831   3.444
  269SOL     OW 1705   3.336   1.392   5.858
  269SOL    HW1 1706   3.252   1.344   5.836
  269SOL    HW2 1707   3.324   1.490   5.843
  270SOL     OW 1708   5.433   5.505   4.727
  270SOL    HW1 1709   5.487   5.470   4.804
  270SOL    HW2 1710   5.443   5.605   4.722
  271SOL     OW 1711   2.797   1.609   0.117
  271SOL    HW1 1712   2.760   1.671   0.049
  271SOL    HW2 1713   2.791   1.515   0.084
  272SOL     OW 1714   5.397   4.836   6.740
  272SOL    HW1 1715   5.475   4.862   6.683
  272SOL    HW2 1716   5.422   4.843   6.837
  273SOL     OW 1717   0.838   6.276   3.668
  273SOL    HW1 1718   0.863   6.332   3.747
  273SOL    HW2 1719   0.831   6.334   3.587
  274SOL     OW 1720   5.389   3.009   2.541
  274SOL    HW1 1721   5.430   3.023   2.631
  274SOL    HW2 1722   5.291   2.996   2.550
  275SOL     OW 1723   5.795   5.243   5.549
  275SOL    HW1 1724   5.760   5.330   5.583
  275SOL    HW2 1725   5.862   5.260   5.476
  276SOL     OW 1726   0.914   0.310   4.374
  276SOL    HW1 1727   0.868   0.358   4.299
  276SOL    HW2 1728   0.938   0.376   4.445
  277SOL     OW 1729   4.022   3.347   5.785
  277SOL    HW1 1730   4.042   3.259   5.743
  277SOL    HW2 1731   4.048   3.345   5.881
  278SOL     OW 1732   5.920   4.539   2.078
  278SOL    HW1 1733   6.014   4.539   2.044
  278SOL    HW2 1734   5.897   4.447   2.111
  279SOL     OW 1735   0.567   3.482   4.436
  279SOL    HW1 1736   0.652   3.509   4.393
  279SOL    HW2 1737   0.490   3.503   4.376
  280SOL     OW 1738   4.888   1.673   2.925
  280SOL    HW1 1739   4.933   1.605   2.866
  280SOL    HW2 1740   4.935   1.761   2.914
  281SOL     OW 1741   4.858   5.225   5.158
  281SOL    HW1 1742   4.920   5.213   5.236
  281SOL    HW2 1743   4.814   5.314   5.164
  282SOL     OW 1744   0.181   2.371   6.988
  282SOL    HW1 1745   0.182   2.290   6.928
  282SOL    HW2 1746   0.110   2.360   0.035
  283SOL     OW 1747   5.841   3.839   2.515
  283SOL    HW1 1748   5.748   3.803   2.511
  283SOL    HW2 1749   5.892   3.792   2.587
  284SOL     OW 1750   5.482   6.807   3.208
  284SOL    HW1 1751   5.537   6.849   3.135
  284SOL    HW2 1752   5.526   6.722   3.238
  285SOL     OW 1753   4.201   6.131   6.512
  285SOL    HW1 1754   4.208   6.113   6.611
  285SOL    HW2 1755   4.206   6.044   6.462
  286SOL     OW 1756   3.576   5.053   5.241
  286SOL    HW1 1757   3.647   4.992   5.276
  286SOL    HW2 1758   3.486   5.019   5.268
  287SOL     OW 1759   3.959   6.348   0.734
  287SOL    HW1 1760   3.993   6.389   0.819
  287SOL    HW2 1761   4.030   6.288   0.696
  288SOL     OW 1762   4.426   0.885   0.283
  288SOL    HW1 1763   4.487   0.811   0.254
  288SOL    HW2 1764   4.438   0.902   0.381
  289SOL     OW 1765   5.313   4.955   5.136
  289SOL    HW1 1766   5.391   4.933   5.194
  289SOL    HW2 1767   5.319   5.050   5.105
  290SOL     OW 1768   2.945   0.575   5.290
  290SOL    HW1 1769   2.960   0.580   5.388
  290SOL    HW2 1770   2.867   0.515   5.271
  291SOL     OW 1771   5.788   1.044   4.894
  291SOL    HW1 1772   5.759   0.997   4.810
  291SOL    HW2 1773   5.844   1.124   4.870
  292SOL     OW 1774   2.606   0.925   3.445
  292SOL    HW1 1775   2.547   1.004   3.425
  292SOL    HW2 1776   2.667   0.910   3.367
  293SOL     OW 1777   5.140   1.062   2.775
  293SOL    HW1 1778   5.192   1.019   2.702
  293SOL    HW2 1779   5.203   1.115   2.833
  294SOL     OW 1780   6.738   1.310   6.766
  294SOL    HW1 1781   6.795   1.321   6.847
  294SOL    HW2 1782   6.790   1.339   6.685
  295SOL     OW 1783   0.112   0.169   4.918
  295SOL    HW1 1784   0.170   0.088   4.925
  295SOL    HW2 1785   0.064   0.184   5.005
  296SOL     OW 1786   6.904   1.806   0.637
  296SOL    HW1 1787   6.840   1.812   0.714
  296SOL    HW2 1788   6.992   1.772   0.670
  297SOL     OW 1789   5.022   3.283   3.544
  297SOL    HW1 1790   4.950   3.214   3.554
  297SOL    HW2 1791   5.002   3.360   3.604
  298SOL     OW 1792   4.222   6.878   5.353
  298SOL    HW1 1793   4.171   6.888   5.267
  298SOL    HW2 1794   4.314   6.845   5.334
  299SOL     OW 1795   0.442   0.979   6.034
  299SOL    HW1 1796   0.373   0.927   5.982
  299SOL    HW2 1797   0.533   0.959   5.997
  300SOL     OW 1798   4.500   6.436   4.252
  300SOL    HW1 1799   4.513   6.400   4.160
  300SOL    HW2 1800   4.419   6.394   4.293
  301SOL     OW 1801   6.742   6.311   5.271
  301SOL    HW1 1802   6.799   6.382   5.313
  301SOL    HW2 1803   6.775   6.293   5.178
  302SOL     OW 1804   0.061   6.654   1.627
  302SOL    HW1 1805   0.141   6.661   1.686
  302SOL    HW2 1806   0.060   6.730   1.562
  303SOL     OW 1807   5.410   5.146   2.663
  303SOL    HW1 1808   5.366   5.073   2.716
  303SOL    HW2 1809   5.365   5.233   2.683
  304SOL     OW 1810   0.887   1.032   3.715
  304SOL    HW1 1811   0.836   1.050   3.799
  304SOL    HW2 1812   0.911   0.936   3.710
  305SOL     OW 1813   2.845   1.972   1.343
  305SOL    HW1 1814   2.818   1.908   1.271
  305SOL    HW2 1815   2.771   2.037   1.360
  306SOL     OW 1816   0.259   6.443   2.446
  306SOL    HW1 1817   0.160   6.442   2.460
  306SOL    HW2 1818   0.298   6.523   2.491
  307SOL     OW 1819   4.100   3.734   4.424
  307SOL    HW1 1820   4.090   3.704   4.519
  307SOL    HW2 1821   4.197   3.734   4.399
  308SOL     OW 1822   6.345   2.298   1.687
  308SOL    HW1 1823   6.428   2.270   1.735
  308SOL    HW2 1824   6.302   2.374   1.735
  309SOL     OW 1825   2.082   4.612   0.234
  309SOL    HW1 1826   2.113   4.611   0.329
  309SOL    HW2 1827   2.130   4.542   0.182
  310SOL     OW 1828   4.901   6.421   4.928
  310SOL    HW1 1829   4.986   6.388   4.888
  310SOL    HW2 1830   4.885   6.516   4.901
  311SOL     OW 1831   1.936   6.242   2.345
  311SOL    HW1 1832   1.858   6.304   2.342
  311SOL    HW2 1833   2.006   6.278   2.407
  312SOL     OW 1834   3.507   0.958   4.522
  312SOL    HW1 1835   3.460   1.046   4.518
  312SOL    HW2 1836   3.442   0.886   4.549
  313SOL     OW 1837   3.437   3.409   3.203
  313SOL    HW1 1838   3.342   3.412   3.235
  313SOL    HW2 1839   3.496   3.457   3.268
  314SOL     OW 1840   2.467   4.432   6.038
  314SOL    HW1 1841   2.498   4.413   5.945
  314SOL    HW2 1842   2.406   4.358   6.068
  315SOL     OW 1843   5.953   6.495   4.948
  315SOL    HW1 1844   5.968   6.493   5.047
  315SOL    HW2 1845   5.891   6.570   4.925
  316SOL     OW 1846   4.044   0.765   4.838
  316SOL    HW1 1847   4.038   0.705   4.917
  316SOL    HW2 1848   4.139   0.771   4.808
  317SOL     OW 1849   0.860   1.903   1.512
  317SOL    HW1 1850   0.890   1.915   1.607
  317SOL    HW2 1851   0.905   1.971   1.454
  318SOL     OW 1852   0.738   1.106   3.489
  318SOL    HW1 1853   0.798   1.081   3.565
  318SOL    HW2 1854   0.716   1.203   3.495
  319SOL     OW 1855   0.764   1.664   2.418
  319SOL    HW1 1856   0.831   1.718   2.469
  319SOL    HW2 1857   0.779   1.566   2.436
  320SOL     OW 1858   5.336   1.017   0.196
  320SOL    HW1 1859   5.335   1.083   0.271
  320SOL    HW2 1860   5.245   0.978   0.185
  321SOL     OW 1861   4.282   3.202   1.373
  321SOL    HW1 1862   4.232   3.261   1.436
  321SOL    HW2 1863   4.318   3.256   1.297
  322SOL     OW 1864   2.893   1.898   6.547
  322SOL    HW1 1865   2.860   1.983   6.506
  322SOL    HW2 1866   2.870   1.897   6.644
  323SOL     OW 1867   0.949   4.185   2.408
  323SOL    HW1 1868   0.948   4.212   2.505
  323SOL    HW2 1869   1.004   4.103   2.397
  324SOL     OW 1870   6.230   0.242   3.911
  324SOL    HW1 1871   6.203   0.288   3.826
  324SOL    HW2 1872   6.172   0.162   3.926
  325SOL     OW 1873   6.376   3.772   0.757
  325SOL    HW1 1874   6.403   3.868   0.748
  325SOL    HW2 1875   6.373   3.729   0.667
  326SOL     OW 1876   6.495   5.968   6.457
  326SOL    HW1 1877   6.490   6.003   6.551
  326SOL    HW2 1878   6.574   6.008   6.411
  327SOL     OW 1879   4.068   6.421   6.067
  327SOL    HW1 1880   4.067   6.321   6.056
  327SOL    HW2 1881   4.086   6.443   6.163
  328SOL     OW 1882   2.198   4.516   3.748
  328SOL    HW1 1883   2.205   4.560   3.838
  328SOL    HW2 1884   2.240   4.426   3.752
  329SOL     OW 1885   3.317   3.402   2.391
  329SOL    HW1 1886   3.348   3.307   2.386
  329SOL    HW2 1887   3.275   3.419   2.480
  330SOL     OW 1888   2.654   3.934   6.627
  330SOL    HW1 1889   2.597   3.983   6.561
  330SOL    HW2 1890   2.631   3.965   6.720
  331SOL     OW 1891   5.190   5.579   3.474
  331SOL    HW1 1892   5.128   5.551   3.402
  331SOL    HW2 1893   5.250   5.503   3.498
  332SOL     OW 1894   6.124   1.998   2.722
  332SOL    HW1 1895   6.042   2.043   2.758
  332SOL    HW2 1896   6.139   1.912   2.770
  333SOL     OW 1897   3.237   6.676   3.500
  333SOL    HW1 1898   3.253   6.771   3.474
  333SOL    HW2 1899   3.272   6.661   3.592
  334SOL     OW 1900   3.900   3.053   4.287
  334SOL    HW1 1901   3.819   3.059   4.346
  334SOL    HW2 1902   3.938   2.960   4.292
  335SOL     OW 1903   4.636   1.368   0.961
  335SOL    HW1 1904   4.624   1.429   1.039
  335SOL    HW2 1905   4.621   1.419   0.876
  336SOL     OW 1906   4.011   1.965   4.904
  336SOL    HW1 1907   4.078   2.036   4.924
  336SOL    HW2 1908   3.935   1.973   4.969
  337SOL     OW 1909   0.291   1.818   5.355
  337SOL    HW1 1910   0.217   1.884   5.365
  337SOL    HW2 1911   0.364   1.858   5.299
  338SOL     OW 1912   4.651   1.119   1.792
  338SOL    HW1 1913   4.735   1.128   1.845
  338SOL    HW2 1914   4.578   1.174   1.834
  339SOL     OW 1915   3.251   4.940   5.914
  339SOL    HW1 1916   3.228   4.913   6.008
  339SOL    HW2 1917   3.241   4.862   5.853
  340SOL     OW 1918   5.343   3.382   4.687
  340SOL    HW1 1919   5.268   3.330   4.647
  340SOL    HW2 1920   5.346   3.473   4.647
  341SOL     OW 1921   6.528   0.360   1.679
  341SOL    HW1 1922   6.534   0.318   1.769
  341SOL    HW2 1923   6.466   0.439   1.684
  342SOL     OW 1924   4.550   1.166   2.173
  342SOL    HW1 1925   4.462   1.210   2.194
  342SOL    HW2 1926   4.562   1.086   2.232
  343SOL     OW 1927   6.041   0.207   1.621
  343SOL    HW1 1928   5.977   0.141   1.582
  343SOL    HW2 1929   6.110   0.159   1.675
  344SOL     OW 1930   6.963   2.484   1.720
  344SOL    HW1 1931   6.999   2.446   1.634
  344SOL    HW2 1932   6.892   2.424   1.755
  345SOL     OW 1933   6.924   2.760   4.446
  345SOL    HW1 1934   6.932   2.768   4.347
  345SOL    HW2 1935   7.015   2.749   4.486
  346SOL     OW 1936   1.385   6.286   2.330
  346SOL    HW1 1937   1.350   6.369   2.287
  346SOL    HW2 1938   1.443   6.311   2.408
  347SOL     OW 1939   1.701   4.176   1.414
  347SOL    HW1 1940   1.682   4.195   1.510
  347SOL    HW2 1941   1.618   4.192   1.360
  348SOL     OW 1942   5.413   4.421   1.399
  348SOL    HW1 1943   5.510   4.432   1.421
  348SOL    HW2 1944   5.386   4.326   1.416
  349SOL     OW 1945   6.015   5.093   0.458
  349SOL    HW1 1946   5.970   5.079   0.546
  349SOL    HW2 1947   6.075   5.016   0.439
  350SOL     OW 1948   2.593   0.914   1.107
  350SOL    HW1 1949   2.552   0.841   1.052
  350SOL    HW2 1950   2.679   0.943   1.065
  351SOL     OW 1951   3.569   4.306   1.227
  351SOL    HW1 1952   3.632   4.281   1.301
  351SOL    HW2 1953   3.537   4.223   1.181
  352SOL     OW 1954   4.017   0.389   2.121
  352SOL    HW1 1955   4.013   0.419   2.216
  352SOL    HW2 1956   4.026   0.469   2.061
  353SOL     OW 1957   2.593   5.962   0.390
  353SOL    HW1 1958   2.529   5.909   0.446
  353SOL    HW2 1959   2.544   6.002   0.313
  354SOL     OW 1960   1.854   2.070   0.469
  354SOL    HW1 1961   1.891   1.987   0.510
  354SOL    HW2 1962   1.780   2.047   0.405
  355SOL     OW 1963   0.433   2.733   3.095
  355SOL    HW1 1964   0.516   2.774   3.132
  355SOL    HW2 1965   0.457   2.670   3.021
  356SOL     OW 1966   2.644   0.156   5.749
  356SOL    HW1 1967   2.667   0.137   5.845
  356SOL    HW2 1968   2.724   0.137   5.692
  357SOL     OW 1969   5.505   5.652   4.300
  357SOL    HW1 1970   5.469   5.656   4.393
  357SOL    HW2 1971   5.442   5.602   4.242
  358SOL     OW 1972   3.181   6.361   0.002
  358SOL    HW1 1973   3.253   6.430   7.016
  358SOL    HW2 1974   3.216   6.282   0.053
  359SOL     OW 1975   1.901   2.921   1.831
  359SOL    HW1 1976   1.829   2.891   1.893
  359SOL    HW2 1977   1.949   2.841   1.795
  360SOL     OW 1978   2.075   4.115   3.325
  360SOL    HW1 1979   2.133   4.161   3.393
  360SOL    HW2 1980   2.097   4.148   3.234
  361SOL     OW 1981   6.767   2.762   2.825
  361SOL    HW1 1982   6.719   2.685   2.784
  361SOL    HW2 1983   6.806   2.735   2.913
  362SOL     OW 1984   4.143   3.328   2.918
  362SOL    HW1 1985   4.186   3.268   2.850
  362SOL    HW2 1986   4.067   3.376   2.876
  363SOL     OW 1987   4.659   4.744   0.322
  363SOL    HW1 1988   4.714   4.689   0.384
  363SOL    HW2 1989   4.709   4.827   0.297
  364SOL     OW 1990   0.970   0.459   6.948
  364SOL    HW1 1991   1.024   0.501   6.875
  364SOL    HW2 1992   1.032   0.417   7.015
  365SOL     OW 1993   4.974   0.450   3.736
  365SOL    HW1 1994   5.067   0.439   3.771
  365SOL    HW2 1995   4.908   0.417   3.803
  366SOL     OW 1996   5.166   2.250   0.483
  366SOL    HW1 1997   5.095   2.239   0.414
  366SOL    HW2 1998   5.161   2.175   0.549
  367SOL     OW 1999   5.541   0.824   0.186
  367SOL    HW1 2000   5.614   0.833   0.119
  367SOL    HW2 2001   5.484   0.906   0.185
  368SOL     OW 2002   3.125   1.508   5.723
  368SOL    HW1 2003   3.174   1.557   5.795
  368SOL    HW2 2004   3.108   1.569   5.646
  369SOL     OW 2005   5.000   4.176   0.130
  369SOL    HW1 2006   4.926   4.151   0.067
  369SOL    HW2 2007   5.088   4.174   0.081
  370SOL     OW 2008   1.628   2.424   3.784
  370SOL    HW1 2009   1.653   2.474   3.867
  370SOL    HW2 2010   1.668   2.470   3.705
  371SOL     OW 2011   2.366   5.219   0.198
  371SOL    HW1 2012   2.392   5.312   0.225
  371SOL    HW2 2013   2.443   5.157   0.212
  372SOL     OW 2014   2.805   5.818   6.223
  372SOL    HW1 2015   2.782   5.880   6.147
  372SOL    HW2 2016   2.750   5.735   6.216
  373SOL     OW 2017   5.764   5.024   2.461
  373SOL    HW1 2018   5.818   5.097   2.420
  373SOL    HW2 2019   5.666   5.040   2.444
  374SOL     OW 2020   2.661   2.214   2.011
  374SOL    HW1 2021   2.636   2.267   1.930
  374SOL    HW2 2022   2.755   2.237   2.038
  375SOL     OW 2023   6.979   5.915   4.049
  375SOL    HW1 2024   6.902   5.974   4.027
  375SOL    HW2 2025   0.017   5.961   4.115
  376SOL     OW 2026   4.149   0.337   3.417
  376SOL    HW1 2027   4.146   0.286   3.331
  376SOL    HW2 2028   4.244   0.343   3.450
  377SOL     OW 2029   2.784   2.874   6.154
  377SOL    HW1 2030   2.859   2.940   6.145
  377SOL    HW2 2031   2.713   2.895   6.087
  378SOL     OW 2032   4.157   1.322   1.887
  378SOL    HW1 2033   4.106   1.389   1.833
  378SOL    HW2 2034   4.116   1.316   1.979
  379SOL     OW 2035   3.688   2.961   6.728
  379SOL    HW1 2036   3.774   2.933   6.771
  379SOL    HW2 2037   3.704   2.983   6.632
  380SOL     OW 2038   4.865   2.071   0.569
  380SOL    HW1 2039   4.843   2.147   0.508
  380SOL    HW2 2040   4.961   2.077   0.596
  381SOL     OW 2041   1.394   3.586   2.618
  381SOL    HW1 2042   1.459   3.565   2.691
  381SOL    HW2 2043   1.359   3.679   2.630
  382SOL     OW 2044   6.104   0.038   0.168
  382SOL    HW1 2045   6.088   0.118   0.225
  382SOL    HW2 2046   6.124   0.067   0.074
  383SOL     OW 2047   4.921   3.255   0.712
  383SOL    HW1 2048   4.898   3.200   0.633
  383SOL    HW2 2049   4.888   3.210   0.795
  384SOL     OW 2050   1.192   2.927   5.296
  384SOL    HW1 2051   1.205   2.940   5.198
  384SOL    HW2 2052   1.115   2.866   5.312
  385SOL     OW 2053   4.821   2.457   6.223
  385SOL    HW1 2054   4.736   2.452   6.276
  385SOL    HW2 2055   4.801   2.445   6.126
  386SOL     OW 2056   3.621   6.371   5.096
  386SOL    HW1 2057   3.594   6.400   5.004
  386SOL    HW2 2058   3.711   6.409   5.118
  387SOL     OW 2059   2.343   6.564   3.743
  387SOL    HW1 2060   2.424   6.538   3.796
  387SOL    HW2 2061   2.261   6.526   3.786
  388SOL     OW 2062   1.403   5.136   5.913
  388SOL    HW1 2063   1.336   5.126   5.986
  388SOL    HW2 2064   1.492   5.161   5.952
  389SOL     OW 2065   2.880   2.722   0.493
  389SOL    HW1 2066   2.876   2.732   0.394
  389SOL    HW2 2067   2.834   2.800   0.536
  390SOL     OW 2068   2.538   1.659   4.151
  390SOL    HW1 2069   2.588   1.632   4.068
  390SOL    HW2 2070   2.481   1.739   4.132
  391SOL     OW 2071   0.516   2.209   0.426
  391SOL    HW1 2072   0.467   2.123   0.417
  391SOL    HW2 2073   0.578   2.220   0.349
  392SOL     OW 2074   3.615   5.388   4.739
  392SOL    HW1 2075   3.702   5.421   4.703
  392SOL    HW2 2076   3.627   5.295   4.773
  393SOL     OW 2077   6.198   3.408   5.220
  393SOL    HW1 2078   6.138   3.370   5.290
  393SOL    HW2 2079   6.253   3.482   5.259
  394SOL     OW 2080   1.792   1.087   6.245
  394SOL    HW1 2081   1.698   1.122   6.248
  394SOL    HW2 2082   1.834   1.098   6.335
  395SOL     OW 2083   0.112   3.091   1.165
  395SOL    HW1 2084   0.055   3.009   1.158
  395SOL    HW2 2085   0.208   3.064   1.175
  396SOL     OW 2086   3.896   2.342   5.803
  396SOL    HW1 2087   3.846   2.257   5.789
  396SOL    HW2 2088   3.994   2.324   5.798
  397SOL     OW 2089   4.425   0.442   6.300
  397SOL    HW1 2090   4.391   0.348   6.297
  397SOL    HW2 2091   4.523   0.442   6.284
  398SOL     OW 2092   6.954   4.752   2.702
  398SOL    HW1 2093   6.899   4.742   2.619
  398SOL    HW2 2094   6.905   4.808   2.768
  399SOL     OW 2095   4.348   5.278   2.126
  399SOL    HW1 2096   4.280   5.249   2.059
  399SOL    HW2 2097   4.393   5.362   2.095
  400SOL     OW 2098   2.256   5.084   5.268
  400SOL    HW1 2099   2.239   5.027   5.348
  400SOL    HW2 2100   2.330   5.045   5.215
  401SOL     OW 2101   6.321   1.484   1.466
  401SOL    HW1 2102   6.413   1.511   1.439
  401SOL    HW2 2103   6.291   1.542   1.542
  402SOL     OW 2104   0.503   5.191   0.934
  402SOL    HW1 2105   0.403   5.195   0.938
  402SOL    HW2 2106   0.532   5.186   0.839
  403SOL     OW 2107   5.213   4.597   0.786
  403SOL    HW1 2108   5.132   4.592   0.728
  403SOL    HW2 2109   5.190   4.645   0.871
  404SOL     OW 2110   7.003   5.685   4.898
  404SOL    HW1 2111   6.987   5.632   4.815
  404SOL    HW2 2112   6.934   5.662   4.967
  405SOL     OW 2113   1.395   2.089   1.304
  405SOL    HW1 2114   1.341   2.006   1.293
  405SOL    HW2 2115   1.335   2.169   1.302
  406SOL     OW 2116   0.523   2.730   3.591
  406SOL    HW1 2117   0.595   2.671   3.553
  406SOL    HW2 2118   0.563   2.799   3.650
  407SOL     OW 2119   3.797   2.047   4.044
  407SOL    HW1 2120   3.782   2.079   3.951
  407SOL    HW2 2121   3.839   2.119   4.098
  408SOL     OW 2122   2.774   0.531   3.739
  408SOL    HW1 2123   2.690   0.485   3.769
  408SOL    HW2 2124   2.753   0.625   3.713
  409SOL     OW 2125   0.074   4.389   4.153
  409SOL    HW1 2126   0.111   4.478   4.126
  409SOL    HW2 2127   0.114   4.362   4.241
  410SOL     OW 2128   3.014   6.613   6.257
  410SOL    HW1 2129   3.024   6.577   6.350
  410SOL    HW2 2130   3.073   6.692   6.245
  411SOL     OW 2131   0.175   4.215   5.502
  411SOL    HW1 2132   0.195   4.161   5.584
  411SOL    HW2 2133   0.128   4.158   5.435
  412SOL     OW 2134   3.703   6.448   2.136
  412SOL    HW1 2135   3.679   6.530   2.084
  412SOL    HW2 2136   3.635   6.377   2.120
  413SOL     OW 2137   2.101   0.925   2.233
  413SOL    HW1 2138   2.033   0.984   2.275
  413SOL    HW2 2139   2.057   0.842   2.199
  414SOL     OW 2140   4.870   4.919   0.926
  414SOL    HW1 2141   4.843   4.824   0.914
  414SOL    HW2 2142   4.885   4.938   1.023
  415SOL     OW 2143   4.145   0.139   2.388
  415SOL    HW1 2144   4.165   0.193   2.470
  415SOL    HW2 2145   4.208   0.165   2.315
  416SOL     OW 2146   3.995   5.815   0.181
  416SOL    HW1 2147   3.996   5.734   0.240
  416SOL    HW2 2148   3.978   5.897   0.236
  417SOL     OW 2149   5.193   5.125   1.081
  417SOL    HW1 2150   5.172   5.056   1.012
  417SOL    HW2 2151   5.290   5.122   1.104
  418SOL     OW 2152   6.725   4.873   6.572
  418SOL    HW1 2153   6.742   4.898   6.667
  418SOL    HW2 2154   6.677   4.786   6.568
  419SOL     OW 2155   5.158   5.508   0.098
  419SOL    HW1 2156   5.111   5.533   0.182
  419SOL    HW2 2157   5.255   5.490   0.118
  420SOL     OW 2158   4.860   4.136   6.393
  420SOL    HW1 2159   4.900   4.068   6.454
  420SOL    HW2 2160   4.780   4.098   6.347
  421SOL     OW 2161   1.841   6.469   6.849
  421SOL    HW1 2162   1.742   6.480   6.859
  421SOL    HW2 2163   1.882   6.556   6.822
  422SOL     OW 2164   6.503   3.983   6.719
  422SOL    HW1 2165   6.491   3.925   6.800
  422SOL    HW2 2166   6.587   3.956   6.672
  423SOL     OW 2167   1.090   3.570   6.282
  423SOL    HW1 2168   1.111   3.604   6.373
  423SOL    HW2 2169   0.992   3.554   6.274
  424SOL     OW 2170   1.571   4.141   6.266
  424SOL    HW1 2171   1.517   4.142   6.182
  424SOL    HW2 2172   1.664   4.173   6.246
  425SOL     OW 2173   3.466   0.254   0.433
  425SOL    HW1 2174   3.519   0.335   0.412
  425SOL    HW2 2175   3.433   0.260   0.528
  426SOL     OW 2176   0.331   4.090   6.713
  426SOL    HW1 2177   0.421   4.091   6.669
  426SOL    HW2 2178   0.262   4.121   6.648
  427SOL     OW 2179   3.829   3.556   6.907
  427SOL    HW1 2180   3.920   3.595   6.889
  427SOL    HW2 2181   3.820   3.468   6.859
  428SOL     OW 2182   4.156   1.410   5.113
  428SOL    HW1 2183   4.228   1.463   5.158
  428SOL    HW2 2184   4.192   1.369   5.030
  429SOL     OW 2185   3.087   6.618   0.353
  429SOL    HW1 2186   3.064   6.660   0.441
  429SOL    HW2 2187   3.082   6.519   0.360
  430SOL     OW 2188   3.251   0.465   4.611
  430SOL    HW1 2189   3.155   0.438   4.600
  430SOL    HW2 2190   3.302   0.441   4.528
  431SOL     OW 2191   3.917   1.052   0.082
  431SOL    HW1 2192   4.007   1.029   0.118
  431SOL    HW2 2193   3.907   1.017   7.011
  432SOL     OW 2194   6.714   1.324   0.829
  432SOL    HW1 2195   6.654   1.300   0.753
  432SOL    HW2 2196   6.728   1.243   0.887
  433SOL     OW 2197   3.434   6.322   4.918
  433SOL    HW1 2198   3.383   6.373   4.987
  433SOL    HW2 2199   3.414   6.224   4.927
  434SOL     OW 2200   6.085   3.803   0.820
  434SOL    HW1 2201   6.026   3.722   0.822
  434SOL    HW2 2202   6.174   3.779   0.783
  435SOL     OW 2203   3.760   3.723   0.766
  435SOL    HW1 2204   3.798   3.815   0.768
  435SOL    HW2 2205   3.661   3.728   0.757
  436SOL     OW 2206   3.715   1.009   0.772
  436SOL    HW1 2207   3.769   0.994   0.689
  436SOL    HW2 2208   3.772   0.990   0.852
  437SOL     OW 2209   6.852   6.563   6.046
  437SOL    HW1 2210   6.819   6.654   6.072
  437SOL    HW2 2211   6.785   6.520   5.985
  438SOL     OW 2212   1.240   3.118   1.178
  438SOL    HW1 2213   1.182   3.199   1.175
  438SOL    HW2 2214   1.336   3.145   1.181
  439SOL     OW 2215   6.440   5.428   1.628
  439SOL    HW1 2216   6.470   5.504   1.686
  439SOL    HW2 2217   6.361   5.383   1.670
  440SOL     OW 2218   1.681   2.917   2.919
  440SOL    HW1 2219   1.733   2.980   2.976
  440SOL    HW2 2220   1.643   2.968   2.841
  441SOL     OW 2221   7.012   1.346   3.033
  441SOL    HW1 2222   7.007   1.296   2.946
  441SOL    HW2 2223   0.031   1.436   3.017
  442SOL     OW 2224   0.587   4.898   6.215
  442SOL    HW1 2225   0.579   4.988   6.172
  442SOL    HW2 2226   0.617   4.831   6.146
  443SOL     OW 2227   0.605   4.549   5.571
  443SOL    HW1 2228   0.530   4.601   5.610
  443SOL    HW2 2229   0.681   4.610   5.550
  444SOL     OW 2230   5.126   2.867   6.876
  444SOL    HW1 2231   5.197   2.917   6.926
  444SOL    HW2 2232   5.109   2.912   6.788
  445SOL     OW 2233   0.954   3.854   3.593
  445SOL    HW1 2234   0.951   3.952   3.574
  445SOL    HW2 2235   0.949   3.803   3.507
  446SOL     OW 2236   2.236   5.284   4.230
  446SOL    HW1 2237   2.162   5.270   4.295
  446SOL    HW2 2238   2.271   5.196   4.199
  447SOL     OW 2239   6.906   5.975   0.614
  447SOL    HW1 2240   6.853   6.033   0.676
  447SOL    HW2 2241   6.965   5.914   0.668
  448SOL     OW 2242   4.356   0.474   5.839
  448SOL    HW1 2243   4.374   0.433   5.749
  448SOL    HW2 2244   4.350   0.402   5.908
  449SOL     OW 2245   4.946   0.445   4.441
  449SOL    HW1 2246   4.908   0.373   4.383
  449SOL    HW2 2247   4.877   0.475   4.507
  450SOL     OW 2248   6.713   6.885   3.090
  450SOL    HW1 2249   6.705   6.923   3.182
  450SOL    HW2 2250   6.663   6.799   3.085
  451SOL     OW 2251   6.417   3.404   3.972
  451SOL    HW1 2252   6.353   3.477   3.996
  451SOL    HW2 2253   6.393   3.321   4.021
  452SOL     OW 2254   6.561   5.243   5.919
  452SOL    HW1 2255   6.491   5.173   5.900
  452SOL    HW2 2256   6.588   5.236   6.015
  453SOL     OW 2257   3.599   1.676   6.229
  453SOL    HW1 2258   3.584   1.663   6.327
  453SOL    HW2 2259   3.522   1.637   6.178
  454SOL     OW 2260   0.828   6.511   0.420
  454SOL    HW1 2261   0.885   6.444   0.372
  454SOL    HW2 2262   0.885   6.587   0.451
  455SOL     OW 2263   5.533   0.986   5.165
  455SOL    HW1 2264   5.504   0.949   5.077
  455SOL    HW2 2265   5.458   0.980   5.230
  456SOL     OW 2266   4.187   4.786   6.949
  456SOL    HW1 2267   4.270   4.811   6.898
  456SOL    HW2 2268   4.159   4.694   6.922
  457SOL     OW 2269   0.662   4.612   1.752
  457SOL    HW1 2270   0.721   4.534   1.776
  457SOL    HW2 2271   0.566   4.587   1.765
  458SOL     OW 2272   0.644   5.859   5.193
  458SOL    HW1 2273   0.692   5.945   5.211
  458SOL    HW2 2274   0.661   5.795   5.268
  459SOL     OW 2275   1.478   0.723   3.125
  459SOL    HW1 2276   1.534   0.786   3.071
  459SOL    HW2 2277   1.434   0.772   3.199
  460SOL     OW 2278   6.246   2.221   3.618
  460SOL    HW1 2279   6.342   2.236   3.593
  460SOL    HW2 2280   6.197   2.184   3.540
  461SOL     OW 2281   5.639   4.796   5.455
  461SOL    HW1 2282   5.721   4.751   5.489
  461SOL    HW2 2283   5.616   4.759   5.365
  462SOL     OW 2284   3.162   1.829   6.997
  462SOL    HW1 2285   3.108   1.759   6.951
  462SOL    HW2 2286   3.248   1.843   6.948
  463SOL     OW 2287   6.498   5.938   2.071
  463SOL    HW1 2288   6.439   5.974   1.998
  463SOL    HW2 2289   6.529   5.846   2.047
  464SOL     OW 2290   1.725   1.296   5.796
  464SOL    HW1 2291   1.745   1.334   5.886
  464SOL    HW2 2292   1.808   1.296   5.741
  465SOL     OW 2293   0.148   3.492   6.103
  465SOL    HW1 2294   0.074   3.425   6.112
  465SOL    HW2 2295   0.152   3.548   6.186
  466SOL     OW 2296   2.202   0.711   2.925
  466SOL    HW1 2297   2.183   0.779   2.997
  466SOL    HW2 2298   2.292   0.729   2.885
  467SOL     OW 2299   1.842   1.682   5.688
  467SOL    HW1 2300   1.904   1.627   5.743
  467SOL    HW2 2301   1.868   1.778   5.693
  468SOL     OW 2302   3.161   3.586   2.581
  468SOL    HW1 2303   3.232   3.633   2.529
  468SOL    HW2 2304   3.072   3.602   2.538
  469SOL     OW 2305   3.356   6.342   0.375
  469SOL    HW1 2306   3.367   6.326   0.276
  469SOL    HW2 2307   3.436   6.309   0.423
  470SOL     OW 2308   4.437   6.901   3.295
  470SOL    HW1 2309   4.466   6.979   3.240
  470SOL    HW2 2310   4.400   6.830   3.235
  471SOL     OW 2311   2.681   2.373   4.430
  471SOL    HW1 2312   2.735   2.372   4.514
  471SOL    HW2 2313   2.689   2.284   4.385
  472SOL     OW 2314   3.825   4.592   5.392
  472SOL    HW1 2315   3.896   4.581   5.462
  472SOL    HW2 2316   3.835   4.682   5.348
  473SOL     OW 2317   0.754   4.471   3.993
  473SOL    HW1 2318   0.809   4.514   4.065
  473SOL    HW2 2319   0.682   4.533   3.964
  474SOL     OW 2320   4.995   4.269   5.093
  474SOL    HW1 2321   4.969   4.327   5.171
  474SOL    HW2 2322   5.036   4.325   5.022
  475SOL     OW 2323   2.040   6.298   6.700
  475SOL    HW1 2324   2.072   6.254   6.784
  475SOL    HW2 2325   1.964   6.360   6.723
  476SOL     OW 2326   0.067   5.737   2.529
  476SOL    HW1 2327   0.032   5.646   2.549
  476SOL    HW2 2328   0.037   5.800   2.601
  477SOL     OW 2329   2.058   4.814   3.915
  477SOL    HW1 2330   1.988   4.781   3.852
  477SOL    HW2 2331   2.086   4.906   3.887
  478SOL     OW 2332   1.142   5.431   3.241
  478SOL    HW1 2333   1.151   5.518   3.193
  478SOL    HW2 2334   1.214   5.423   3.309
  479SOL     OW 2335   3.949   1.666   1.365
  479SOL    HW1 2336   3.874   1.687   1.428
  479SOL    HW2 2337   3.967   1.745   1.307
  480SOL     OW 2338   1.468   6.820   3.614
  480SOL    HW1 2339   1.526   6.882   3.666
  480SOL    HW2 2340   1.514   6.796   3.528
  481SOL     OW 2341   2.238   6.833   1.039
  481SOL    HW1 2342   2.139   6.831   1.031
  481SOL    HW2 2343   2.276   6.898   0.974
  482SOL     OW 2344   5.815   5.367   0.499
  482SOL    HW1 2345   5.856   5.290   0.549
  482SOL    HW2 2346   5.800   5.443   0.562
  483SOL     OW 2347   6.241   2.126   2.521
  483SOL    HW1 2348   6.205   2.087   2.606
  483SOL    HW2 2349   6.205   2.219   2.510
  484SOL     OW 2350   6.686   2.224   4.193
  484SOL    HW1 2351   6.732   2.299   4.241
  484SOL    HW2 2352   6.722   2.136   4.226
  485SOL     OW 2353   3.410   6.248   1.514
  485SOL    HW1 2354   3.501   6.248   1.473
  485SOL    HW2 2355   3.348   6.193   1.458
  486SOL     OW 2356   0.046   0.810   5.799
  486SOL    HW1 2357   0.041   0.899   5.753
  486SOL    HW2 2358   0.140   0.779   5.801
  487SOL     OW 2359   6.544   2.678   6.596
  487SOL    HW1 2360   6.446   2.677   6.617
  487SOL    HW2 2361   6.584   2.764   6.628
  488SOL     OW 2362   0.995   4.594   2.128
  488SOL    HW1 2363   0.904   4.564   2.099
  488SOL    HW2 2364   1.047   4.624   2.048
  489SOL     OW 2365   3.511   5.886   6.408
  489SOL    HW1 2366   3.581   5.955   6.427
  489SOL    HW2 2367   3.440   5.890   6.479
  490SOL     OW 2368   4.838   0.196   4.318
  490SOL    HW1 2369   4.858   0.129   4.389
  490SOL    HW2 2370   4.743   0.226   4.325
  491SOL     OW 2371   0.450   2.275   3.467
  491SOL    HW1 2372   0.488   2.363   3.440
  491SOL    HW2 2373   0.375   2.289   3.531
  492SOL     OW 2374   1.519   1.314   4.679
  492SOL    HW1 2375   1.594   1.282   4.621
  492SOL    HW2 2376   1.509   1.413   4.669
  493SOL     OW 2377   6.678   3.996   4.077
  493SOL    HW1 2378   6.618   3.926   4.038
  493SOL    HW2 2379   6.740   3.954   4.144
  494SOL     OW 2380   6.143   1.216   6.631
  494SOL    HW1 2381   6.185   1.189   6.718
  494SOL    HW2 2382   6.106   1.135   6.585
  495SOL     OW 2383   5.018   4.400   0.280
  495SOL    HW1 2384   4.946   4.468   0.267
  495SOL    HW2 2385   5.001   4.322   0.220
  496SOL     OW 2386   5.353   3.464   3.126
  496SOL    HW1 2387   5.253   3.463   3.120
  496SOL    HW2 2388   5.392   3.483   3.036
  497SOL     OW 2389   4.026   6.949   3.867
  497SOL    HW1 2390   3.977   7.004   3.799
  497SOL    HW2 2391   3.993   6.973   3.959
  498SOL     OW 2392   1.368   2.747   1.950
  498SOL    HW1 2393   1.366   2.674   2.018
  498SOL    HW2 2394   1.337   2.833   1.991
  499SOL     OW 2395   3.144   1.400   5.083
  499SOL    HW1 2396   3.079   1.467   5.119
  499SOL    HW2 2397   3.229   1.405   5.135
  500SOL     OW 2398   1.964   4.095   2.537
  500SOL    HW1 2399   1.908   4.151   2.476
  500SOL    HW2 2400   1.930   4.001   2.538
  501SOL     OW 2401   0.830   5.093   6.807
  501SOL    HW1 2402   0.767   5.171   6.809
  501SOL    HW2 2403   0.899   5.104   6.878
  502SOL     OW 2404   2.874   4.950   6.115
  502SOL    HW1 2405   2.905   4.876   6.055
  502SOL    HW2 2406   2.903   5.038   6.078
  503SOL     OW 2407   6.377   5.393   4.841
  503SOL    HW1 2408   6.403   5.431   4.929
  503SOL    HW2 2409   6.283   5.357   4.846
  504SOL     OW 2410   1.762   5.784   4.883
  504SOL    HW1 2411   1.859   5.782   4.907
  504SOL    HW2 2412   1.744   5.862   4.823
  505SOL     OW 2413   3.608   6.791   4.939
  505SOL    HW1 2414   3.625   6.769   5.036
  505SOL    HW2 2415   3.528   6.852   4.933
  506SOL     OW 2416   1.905   3.274   0.572
  506SOL    HW1 2417   1.907   3.186   0.620
  506SOL    HW2 2418   1.836   3.270   0.499
  507SOL     OW 2419   3.920   2.200   4.252
  507SOL    HW1 2420   3.870   2.186   4.337
  507SOL    HW2 2421   4.004   2.251   4.271
  508SOL     OW 2422   6.113   4.917   4.317
  508SOL    HW1 2423   6.105   4.822   4.346
  508SOL    HW2 2424   6.168   4.923   4.234
  509SOL     OW 2425   4.147   3.101   0.707
  509SOL    HW1 2426   4.203   3.177   0.741
  509SOL    HW2 2427   4.059   3.136   0.674
  510SOL     OW 2428   1.077   3.856   4.575
  510SOL    HW1 2429   1.162   3.909   4.581
  510SOL    HW2 2430   1.009   3.909   4.523
  511SOL     OW 2431   0.503   6.562   1.365
  511SOL    HW1 2432   0.486   6.535   1.270
  511SOL    HW2 2433   0.417   6.586   1.409
  512SOL     OW 2434   1.207   3.722   6.040
  512SOL    HW1 2435   1.211   3.815   6.004
  512SOL    HW2 2436   1.152   3.720   6.123
  513SOL     OW 2437   1.362   5.064   4.337
  513SOL    HW1 2438   1.402   5.151   4.364
  513SOL    HW2 2439   1.278   5.048   4.390
  514SOL     OW 2440   5.684   1.766   3.005
  514SOL    HW1 2441   5.740   1.694   3.047
  514SOL    HW2 2442   5.705   1.772   2.908
  515SOL     OW 2443   2.454   5.463   0.252
  515SOL    HW1 2444   2.397   5.526   0.304
  515SOL    HW2 2445   2.551   5.484   0.267
  516SOL     OW 2446   1.493   5.120   3.632
  516SOL    HW1 2447   1.577   5.065   3.618
  516SOL    HW2 2448   1.434   5.110   3.552
  517SOL     OW 2449   4.606   0.748   6.720
  517SOL    HW1 2450   4.653   0.814   6.777
  517SOL    HW2 2451   4.672   0.690   6.673
  518SOL     OW 2452   2.554   1.723   0.624
  518SOL    HW1 2453   2.516   1.715   0.717
  518SOL    HW2 2454   2.479   1.727   0.558
  519SOL     OW 2455   0.775   6.952   0.307
  519SOL    HW1 2456   0.725   6.918   0.386
  519SOL    HW2 2457   0.737   6.913   0.223
  520SOL     OW 2458   5.937   4.557   4.252
  520SOL    HW1 2459   5.872   4.485   4.227
  520SOL    HW2 2460   5.898   4.646   4.231
  521SOL     OW 2461   6.293   0.569   0.362
  521SOL    HW1 2462   6.211   0.551   0.417
  521SOL    HW2 2463   6.345   0.643   0.402
  522SOL     OW 2464   3.393   3.893   5.793
  522SOL    HW1 2465   3.414   3.795   5.793
  522SOL    HW2 2466   3.471   3.943   5.832
  523SOL     OW 2467   6.401   6.707   3.910
  523SOL    HW1 2468   6.348   6.784   3.874
  523SOL    HW2 2469   6.354   6.669   3.990
  524SOL     OW 2470   4.104   0.542   5.557
  524SOL    HW1 2471   4.072   0.621   5.506
  524SOL    HW2 2472   4.114   0.566   5.654
  525SOL     OW 2473   2.546   2.166   0.061
  525SOL    HW1 2474   2.519   2.082   0.109
  525SOL    HW2 2475   2.614   2.215   0.116
  526SOL     OW 2476   4.618   5.605   4.468
  526SOL    HW1 2477   4.558   5.617   4.389
  526SOL    HW2 2478   4.713   5.614   4.439
  527SOL     OW 2479   0.020   1.845   0.147
  527SOL    HW1 2480   0.025   1.844   0.247
  527SOL    HW2 2481   6.985   1.922   0.117
  528SOL     OW 2482   1.927   1.340   5.623
  528SOL    HW1 2483   1.862   1.407   5.586
  528SOL    HW2 2484   1.909   1.250   5.582
  529SOL     OW 2485   6.731   5.102   4.351
  529SOL    HW1 2486   6.799   5.164   4.390
  529SOL    HW2 2487   6.643   5.149   4.343
  530SOL     OW 2488   0.266   2.881   5.328
  530SOL    HW1 2489   0.232   2.944   5.258
  530SOL    HW2 2490   0.193   2.820   5.358
  531SOL     OW 2491   6.936   0.849   0.050
  531SOL    HW1 2492   6.968   0.757   0.072
  531SOL    HW2 2493   7.001   0.893   7.009
  532SOL     OW 2494   2.098   0.688   5.732
  532SOL    HW1 2495   2.011   0.639   5.723
  532SOL    HW2 2496   2.085   0.785   5.713
  533SOL     OW 2497   4.896   0.284   4.894
  533SOL    HW1 2498   4.863   0.368   4.851
  533SOL    HW2 2499   4.857   0.205   4.847
  534SOL     OW 2500   3.441   5.586   3.086
  534SOL    HW1 2501   3.371   5.516   3.070
  534SOL    HW2 2502   3.524   5.542   3.120
  535SOL     OW 2503   6.090   3.787   2.301
  535SOL    HW1 2504   6.148   3.783   2.382
  535SOL    HW2 2505   6.012   3.726   2.313
  536SOL     OW 2506   1.172   6.647   0.903
  536SOL    HW1 2507   1.261   6.686   0.924
  536SOL    HW2 2508   1.172   6.612   0.809
  537SOL     OW 2509   2.234   0.081   3.608
  537SOL    HW1 2510   2.314   0.071   3.550
  537SOL    HW2 2511   2.169   0.007   3.589
  538SOL     OW 2512   1.594   4.889   4.347
  538SOL    HW1 2513   1.505   4.931   4.337
  538SOL    HW2 2514   1.666   4.957   4.333
  539SOL     OW 2515   1.034   5.724   1.041
  539SOL    HW1 2516   1.037   5.747   1.138
  539SOL    HW2 2517   0.981   5.793   0.991
  540SOL     OW 2518   1.739   3.230   1.187
  540SOL    HW1 2519   1.735   3.326   1.161
  540SOL    HW2 2520   1.737   3.173   1.106
  541SOL     OW 2521   4.283   5.263   5.172
  541SOL    HW1 2522   4.364   5.227   5.124
  541SOL    HW2 2523   4.263   5.206   5.251
  542SOL     OW 2524   5.795   6.555   6.470
  542SOL    HW1 2525   5.725   6.503   6.421
  542SOL    HW2 2526   5.826   6.631   6.414
  543SOL     OW 2527   6.216   6.965   1.308
  543SOL    HW1 2528   6.131   6.974   1.256
  543SOL    HW2 2529   6.199   6.984   1.404
  544SOL     OW 2530   0.642   5.369   0.321
  544SOL    HW1 2531   0.717   5.323   0.368
  544SOL    HW2 2532   0.648   5.352   0.223
  545SOL     OW 2533   3.646   1.860   3.668
  545SOL    HW1 2534   3.656   1.915   3.585
  545SOL    HW2 2535   3.720   1.793   3.672
  546SOL     OW 2536   2.048   2.263   0.404
  546SOL    HW1 2537   1.995   2.181   0.424
  546SOL    HW2 2538   2.126   2.239   0.346
  547SOL     OW 2539   3.141   1.378   0.150
  547SOL    HW1 2540   3.108   1.470   0.171
  547SOL    HW2 2541   3.129   1.360   0.053
  548SOL     OW 2542   3.244   3.418   5.160
  548SOL    HW1 2543   3.340   3.403   5.137
  548SOL    HW2 2544   3.216   3.351   5.230
  549SOL     OW 2545   0.362   4.092   0.984
  549SOL    HW1 2546   0.277   4.073   0.935
  549SOL    HW2 2547   0.341   4.104   1.082
  550SOL     OW 2548   6.657   3.823   0.513
  550SOL    HW1 2549   6.744   3.825   0.463
  550SOL    HW2 2550   6.672   3.785   0.604
  551SOL     OW 2551   0.183   1.240   0.216
  551SOL    HW1 2552   0.227   1.269   0.132
  551SOL    HW2 2553   0.084   1.238   0.203
  552SOL     OW 2554   4.790   4.679   0.874
  552SOL    HW1 2555   4.723   4.638   0.812
  552SOL    HW2 2556   4.834   4.608   0.929
  553SOL     OW 2557   1.061   2.100   1.501
  553SOL    HW1 2558   1.007   2.174   1.541
  553SOL    HW2 2559   1.140   2.081   1.558
  554SOL     OW 2560   4.463   4.990   4.844
  554SOL    HW1 2561   4.460   5.066   4.909
  554SOL    HW2 2562   4.523   4.918   4.880
  555SOL     OW 2563   1.332   4.801   5.290
  555SOL    HW1 2564   1.253   4.776   5.346
  555SOL    HW2 2565   1.345   4.733   5.218
  556SOL     OW 2566   6.115   3.896   3.069
  556SOL    HW1 2567   6.196   3.955   3.078
  556SOL    HW2 2568   6.141   3.809   3.029
  557SOL     OW 2569   6.564   5.654   5.868
  557SOL    HW1 2570   6.513   5.586   5.815
  557SOL    HW2 2571   6.501   5.725   5.901
  558SOL     OW 2572   4.280   3.481   5.592
  558SOL    HW1 2573   4.308   3.391   5.622
  558SOL    HW2 2574   4.245   3.533   5.670
  559SOL     OW 2575   5.903   4.813   6.266
  559SOL    HW1 2576   5.833   4.876   6.231
  559SOL    HW2 2577   5.941   4.850   6.351
  560SOL     OW 2578   3.996   6.519   0.352
  560SOL    HW1 2579   4.070   6.586   0.364
  560SOL    HW2 2580   3.909   6.561   0.378
  561SOL     OW 2581   5.726   6.834   2.005
  561SOL    HW1 2582   5.633   6.862   2.029
  561SOL    HW2 2583   5.773   6.799   2.085
  562SOL     OW 2584   6.399   0.752   0.506
  562SOL    HW1 2585   6.498   0.739   0.513
  562SOL    HW2 2586   6.358   0.749   0.597
  563SOL     OW 2587   2.779   0.691   5.022
  563SOL    HW1 2588   2.815   0.641   5.101
  563SOL    HW2 2589   2.849   0.693   4.950
  564SOL     OW 2590   0.784   1.823   5.720
  564SOL    HW1 2591   0.754   1.747   5.663
  564SOL    HW2 2592   0.725   1.902   5.704
  565SOL     OW 2593   4.662   3.886   6.059
  565SOL    HW1 2594   4.692   3.791   6.047
  565SOL    HW2 2595   4.729   3.948   6.020
  566SOL     OW 2596   6.667   4.941   2.383
  566SOL    HW1 2597   6.649   4.872   2.312
  566SOL    HW2 2598   6.744   4.998   2.354
  567SOL     OW 2599   3.662   4.110   5.314
  567SOL    HW1 2600   3.649   4.014   5.292
  567SOL    HW2 2601   3.728   4.119   5.388
  568SOL     OW 2602   1.689   0.978   6.550
  568SOL    HW1 2603   1.612   0.914   6.556
  568SOL    HW2 2604   1.653   1.071   6.541
  569SOL     OW 2605   1.711   4.076   6.642
  569SOL    HW1 2606   1.746   4.025   6.720
  569SOL    HW2 2607   1.785   4.096   6.579
  570SOL     OW 2608   6.914   5.983   0.008
  570SOL    HW1 2609   6.989   6.036   6.989
  570SOL    HW2 2610   6.873   6.036   0.082
  571SOL     OW 2611   3.947   6.504   1.957
  571SOL    HW1 2612   3.863   6.557   1.967
  571SOL    HW2 2613   3.934   6.414   1.998
  572SOL     OW 2614   1.440   4.343   4.081
  572SOL    HW1 2615   1.413   4.329   3.986
  572SOL    HW2 2616   1.462   4.255   4.123
  573SOL     OW 2617   3.332   2.583   6.965
  573SOL    HW1 2618   3.315   2.632   6.880
  573SOL    HW2 2619   3.394   2.506   6.948
  574SOL     OW 2620   2.625   2.274   3.816
  574SOL    HW1 2621   2.623   2.368   3.850
  574SOL    HW2 2622   2.718   2.238   3.825
  575SOL     OW 2623   4.913   2.391   6.539
  575SOL    HW1 2624   4.970   2.408   6.619
  575SOL    HW2 2625   4.822   2.431   6.554
  576SOL     OW 2626   1.442   3.143   2.927
  576SOL    HW1 2627   1.486   3.104   2.846
  576SOL    HW2 2628   1.425   3.241   2.913
  577SOL     OW 2629   4.063   1.973   4.238
  577SOL    HW1 2630   4.087   1.954   4.333
  577SOL    HW2 2631   4.007   2.056   4.234
  578SOL     OW 2632   6.955   4.085   4.034
  578SOL    HW1 2633   6.955   4.003   4.092
  578SOL    HW2 2634   6.861   4.109   4.009
  579SOL     OW 2635   3.901   3.478   0.353
  579SOL    HW1 2636   3.918   3.547   0.424
  579SOL    HW2 2637   3.804   3.477   0.330
  580SOL     OW 2638   0.274   6.669   0.126
  580SOL    HW1 2639   0.181   6.639   0.103
  580SOL    HW2 2640   0.311   6.611   0.198
  581SOL     OW 2641   4.150   3.511   3.119
  581SOL    HW1 2642   4.165   3.447   3.044
  581SOL    HW2 2643   4.120   3.599   3.082
  582SOL     OW 2644   6.699   4.320   0.565
  582SOL    HW1 2645   6.724   4.415   0.583
  582SOL    HW2 2646   6.715   4.299   0.469
  583SOL     OW 2647   2.425   6.388   6.493
  583SOL    HW1 2648   2.507   6.332   6.507
  583SOL    HW2 2649   2.451   6.485   6.490
  584SOL     OW 2650   1.564   5.135   4.598
  584SOL    HW1 2651   1.648   5.134   4.653
  584SOL    HW2 2652   1.569   5.064   4.528
  585SOL     OW 2653   5.676   0.812   5.335
  585SOL    HW1 2654   5.632   0.881   5.277
  585SOL    HW2 2655   5.724   0.746   5.277
  586SOL     OW 2656   2.783   5.785   1.178
  586SOL    HW1 2657   2.805   5.786   1.276
  586SOL    HW2 2658   2.866   5.801   1.125
  587SOL     OW 2659   2.121   3.019   6.642
  587SOL    HW1 2660   2.098   2.945   6.706
  587SOL    HW2 2661   2.087   3.106   6.677
  588SOL     OW 2662   2.113   6.957   1.686
  588SOL    HW1 2663   2.176   6.902   1.632
  588SOL    HW2 2664   2.108   0.028   1.648
  589SOL     OW 2665   4.639   4.822   1.539
  589SOL    HW1 2666   4.578   4.901   1.539
  589SOL    HW2 2667   4.626   4.770   1.624
  590SOL     OW 2668   6.795   3.604   1.823
  590SOL    HW1 2669   6.768   3.588   1.918
  590SOL    HW2 2670   6.715   3.595   1.764
  591SOL     OW 2671   2.700   0.431   2.986
  591SOL    HW1 2672   2.771   0.488   2.944
  591SOL    HW2 2673   2.658   0.373   2.917
  592SOL     OW 2674   5.588   0.010   5.888
  592SOL    HW1 2675   5.578   0.103   5.924
  592SOL    HW2 2676   5.582   6.967   5.964
  593SOL     OW 2677   0.117   0.745   4.832
  593SOL    HW1 2678   0.163   0.716   4.916
  593SOL    HW2 2679   0.018   0.736   4.843
  594SOL     OW 2680   5.767   2.059   1.707
  594SOL    HW1 2681   5.764   2.087   1.803
  594SOL    HW2 2682   5.808   2.132   1.652
  595SOL     OW 2683   3.474   0.275   3.524
  595SOL    HW1 2684   3.478   0.193   3.468
  595SOL    HW2 2685   3.540   0.267   3.599
  596SOL     OW 2686   0.916   4.456   1.503
  596SOL    HW1 2687   0.904   4.555   1.515
  596SOL    HW2 2688   0.859   4.424   1.429
  597SOL     OW 2689   4.529   2.149   6.082
  597SOL    HW1 2690   4.591   2.103   6.146
  597SOL    HW2 2691   4.437   2.151   6.120
  598SOL     OW 2692   2.985   3.738   1.436
  598SOL    HW1 2693   2.912   3.691   1.387
  598SOL    HW2 2694   3.058   3.762   1.372
  599SOL     OW 2695   6.229   5.859   3.898
  599SOL    HW1 2696   6.214   5.931   3.967
  599SOL    HW2 2697   6.141   5.827   3.864
  600SOL     OW 2698   2.922   1.222   1.399
  600SOL    HW1 2699   2.953   1.177   1.316
  600SOL    HW2 2700   3.001   1.251   1.454
  601SOL     OW 2701   1.992   4.769   3.086
  601SOL    HW1 2702   2.026   4.688   3.133
  601SOL    HW2 2703   1.892   4.764   3.080
  602SOL     OW 2704   6.812   0.617   2.288
  602SOL    HW1 2705   6.852   0.556   2.220
  602SOL    HW2 2706   6.713   0.602   2.291
  603SOL     OW 2707   4.308   1.816   3.197
  603SOL    HW1 2708   4.325   1.737   3.256
  603SOL    HW2 2709   4.211   1.818   3.172
  604SOL     OW 2710   1.360   3.382   5.786
  604SOL    HW1 2711   1.389   3.294   5.750
  604SOL    HW2 2712   1.369   3.452   5.715
  605SOL     OW 2713   5.493   0.102   4.369
  605SOL    HW1 2714   5.566   0.170   4.367
  605SOL    HW2 2715   5.406   0.146   4.346
  606SOL     OW 2716   2.737   6.408   2.336
  606SOL    HW1 2717   2.820   6.459   2.358
  606SOL    HW2 2718   2.757   6.341   2.264
  607SOL     OW 2719   3.630   0.667   4.270
  607SOL    HW1 2720   3.534   0.650   4.290
  607SOL    HW2 2721   3.641   0.758   4.230
  608SOL     OW 2722   5.535   2.923   1.238
  608SOL    HW1 2723   5.547   2.995   1.170
  608SOL    HW2 2724   5.516   2.836   1.191
  609SOL     OW 2725   3.528   4.030   4.928
  609SOL    HW1 2726   3.601   4.097   4.940
  609SOL    HW2 2727   3.515   3.979   5.013
  610SOL     OW 2728   6.302   1.758   4.685
  610SOL    HW1 2729   6.350   1.846   4.688
  610SOL    HW2 2730   6.206   1.773   4.662
  611SOL     OW 2731   5.864   0.008   0.296
  611SOL    HW1 2732   5.877   0.027   0.394
  611SOL    HW2 2733   5.954   7.020   0.253
  612SOL     OW 2734   2.059   4.599   6.540
  612SOL    HW1 2735   1.979   4.645   6.578
  612SOL    HW2 2736   2.087   4.525   6.602
  613SOL     OW 2737   4.090   1.219   6.709
  613SOL    HW1 2738   4.038   1.194   6.627
  613SOL    HW2 2739   4.026   1.234   6.785
  614SOL     OW 2740   4.856   3.158   0.963
  614SOL    HW1 2741   4.902   3.232   1.011
  614SOL    HW2 2742   4.876   3.071   1.007
  615SOL     OW 2743   6.035   6.216   0.461
  615SOL    HW1 2744   6.037   6.139   0.397
  615SOL    HW2 2745   6.119   6.270   0.451
  616SOL     OW 2746   4.888   1.616   4.413
  616SOL    HW1 2747   4.881   1.563   4.498
  616SOL    HW2 2748   4.974   1.667   4.413
  617SOL     OW 2749   6.589   6.405   4.797
  617SOL    HW1 2750   6.560   6.463   4.872
  617SOL    HW2 2751   6.547   6.315   4.806
  618SOL     OW 2752   5.449   5.022   0.231
  618SOL    HW1 2753   5.504   4.971   0.164
  618SOL    HW2 2754   5.369   5.061   0.185
  619SOL     OW 2755   2.102   0.004   6.667
  619SOL    HW1 2756   2.164   6.957   6.704
  619SOL    HW2 2757   2.113   0.090   6.717
  620SOL     OW 2758   4.598   2.278   2.142
  620SOL    HW1 2759   4.640   2.248   2.227
  620SOL    HW2 2760   4.505   2.311   2.160
  621SOL     OW 2761   2.703   0.365   6.262
  621SOL    HW1 2762   2.741   0.276   6.284
  621SOL    HW2 2763   2.604   0.364   6.279
  622SOL     OW 2764   0.283   3.654   5.925
  622SOL    HW1 2765   0.230   3.654   5.840
  622SOL    HW2 2766   0.232   3.606   5.996
  623SOL     OW 2767   6.710   1.324   2.674
  623SOL    HW1 2768   6.620   1.360   2.702
  623SOL    HW2 2769   6.727   1.238   2.722
  624SOL     OW 2770   6.968   0.981   6.605
  624SOL    HW1 2771   7.016   1.018   6.525
  624SOL    HW2 2772   6.871   1.004   6.599
  625SOL     OW 2773   3.406   1.234   1.497
  625SOL    HW1 2774   3.475   1.301   1.470
  625SOL    HW2 2775   3.319   1.280   1.512
  626SOL     OW 2776   0.414   5.800   3.911
  626SOL    HW1 2777   0.392   5.746   3.830
  626SOL    HW2 2778   0.352   5.775   3.986
  627SOL     OW 2779   6.658   5.250   6.542
  627SOL    HW1 2780   6.708   5.326   6.500
  627SOL    HW2 2781   6.714   5.211   6.616
  628SOL     OW 2782   4.003   4.541   6.473
  628SOL    HW1 2783   3.938   4.526   6.548
  628SOL    HW2 2784   4.068   4.465   6.469
  629SOL     OW 2785   1.872   0.056   0.218
  629SOL    HW1 2786   1.812   7.006   0.182
  629SOL    HW2 2787   1.821   0.113   0.283
  630SOL     OW 2788   6.179   2.398   1.044
  630SOL    HW1 2789   6.163   2.382   0.947
  630SOL    HW2 2790   6.119   2.340   1.098
  631SOL     OW 2791   1.738   3.252   2.764
  631SOL    HW1 2792   1.692   3.340   2.770
  631SOL    HW2 2793   1.834   3.263   2.791
  632SOL     OW 2794   3.338   4.576   1.385
  632SOL    HW1 2795   3.370   4.600   1.477
  632SOL    HW2 2796   3.307   4.659   1.338
  633SOL     OW 2797   0.723   6.000   0.460
  633SOL    HW1 2798   0.631   5.960   0.463
  633SOL    HW2 2799   0.791   5.927   0.453
  634SOL     OW 2800   2.904   3.266   5.586
  634SOL    HW1 2801   2.923   3.269   5.684
  634SOL    HW2 2802   2.806   3.251   5.572
  635SOL     OW 2803   6.151   6.683   6.342
  635SOL    HW1 2804   6.177   6.692   6.246
  635SOL    HW2 2805   6.167   6.589   6.373
  636SOL     OW 2806   2.234   1.426   4.439
  636SOL    HW1 2807   2.280   1.512   4.459
  636SOL    HW2 2808   2.151   1.444   4.387
  637SOL     OW 2809   6.870   1.776   2.149
  637SOL    HW1 2810   6.812   1.749   2.226
  637SOL    HW2 2811   6.867   1.875   2.139
  638SOL     OW 2812   0.016   3.181   5.237
  638SOL    HW1 2813   0.058   3.261   5.280
  638SOL    HW2 2814   6.939   3.195   5.230
  639SOL     OW 2815   5.632   3.298   1.890
  639SOL    HW1 2816   5.707   3.241   1.923
  639SOL    HW2 2817   5.664   3.353   1.813
  640SOL     OW 2818   6.358   3.370   2.838
  640SOL    HW1 2819   6.383   3.389   2.933
  640SOL    HW2 2820   6.258   3.363   2.831
  641SOL     OW 2821   2.438   5.816   4.375
  641SOL    HW1 2822   2.483   5.905   4.389
  641SOL    HW2 2823   2.341   5.824   4.401
  642SOL     OW 2824   0.901   4.960   4.534
  642SOL    HW1 2825   0.938   5.049   4.560
  642SOL    HW2 2826   0.856   4.967   4.445
  643SOL     OW 2827   4.393   4.892   0.439
  643SOL    HW1 2828   4.389   4.886   0.538
  643SOL    HW2 2829   4.464   4.958   0.412
  644SOL     OW 2830   6.000   0.291   4.640
  644SOL    HW1 2831   6.034   0.230   4.712
  644SOL    HW2 2832   6.071   0.301   4.569
  645SOL     OW 2833   4.289   6.592   1.763
  645SOL    HW1 2834   4.261   6.604   1.859
  645SOL    HW2 2835   4.357   6.520   1.757
  646SOL     OW 2836   3.531   2.099   4.877
  646SOL    HW1 2837   3.606   2.132   4.934
  646SOL    HW2 2838   3.521   2.000   4.888
  647SOL     OW 2839   2.931   1.697   0.358
  647SOL    HW1 2840   2.878   1.761   0.414
  647SOL    HW2 2841   2.869   1.644   0.300
  648SOL     OW 2842   5.370   1.411   4.323
  648SOL    HW1 2843   5.360   1.497   4.372
  648SOL    HW2 2844   5.282   1.363   4.321
  649SOL     OW 2845   3.232   5.889   0.767
  649SOL    HW1 2846   3.289   5.821   0.722
  649SOL    HW2 2847   3.236   5.878   0.866
  650SOL     OW 2848   2.262   3.403   1.534
  650SOL    HW1 2849   2.344   3.360   1.498
  650SOL    HW2 2850   2.251   3.378   1.631
  651SOL     OW 2851   0.389   1.682   3.121
  651SOL    HW1 2852   0.366   1.778   3.109
  651SOL    HW2 2853   0.376   1.657   3.217
  652SOL     OW 2854   3.858   6.060   0.595
  652SOL    HW1 2855   3.935   6.121   0.572
  652SOL    HW2 2856   3.774   6.098   0.558
  653SOL     OW 2857   1.448   0.113   2.574
  653SOL    HW1 2858   1.522   0.144   2.634
  653SOL    HW2 2859   1.476   0.028   2.528
  654SOL     OW 2860   1.532   6.970   6.000
  654SOL    HW1 2861   1.572   7.000   5.913
  654SOL    HW2 2862   1.570   0.003   6.075
  655SOL     OW 2863   1.567   3.729   1.068
  655SOL    HW1 2864   1.568   3.642   1.019
  655SOL    HW2 2865   1.657   3.773   1.061
  656SOL     OW 2866   2.489   0.457   6.914
  656SOL    HW1 2867   2.422   0.383   6.918
  656SOL    HW2 2868   2.507   0.480   6.818
  657SOL     OW 2869   3.916   3.408   3.982
  657SOL    HW1 2870   3.959   3.378   4.067
  657SOL    HW2 2871   3.900   3.330   3.922
  658SOL     OW 2872   1.848   0.904   4.663
  658SOL    HW1 2873   1.891   0.994   4.670
  658SOL    HW2 2874   1.749   0.914   4.667
  659SOL     OW 2875   2.025   5.799   6.950
  659SOL    HW1 2876   1.932   5.835   6.961
  659SOL    HW2 2877   2.035   5.762   6.857
  660SOL     OW 2878   5.670   4.106   2.496
  660SOL    HW1 2879   5.748   4.070   2.446
  660SOL    HW2 2880   5.654   4.050   2.577
  661SOL     OW 2881   4.668   5.953   3.930
  661SOL    HW1 2882   4.571   5.979   3.930
  661SOL    HW2 2883   4.677   5.855   3.945
  662SOL     OW 2884   6.296   3.860   6.590
  662SOL    HW1 2885   6.348   3.887   6.671
  662SOL    HW2 2886   6.309   3.762   6.574
  663SOL     OW 2887   1.074   4.260   5.904
  663SOL    HW1 2888   1.063   4.273   6.002
  663SOL    HW2 2889   1.003   4.198   5.870
  664SOL     OW 2890   1.572   0.263   5.534
  664SOL    HW1 2891   1.565   0.172   5.492
  664SOL    HW2 2892   1.534   0.331   5.471
  665SOL     OW 2893   2.456   4.436   3.383
  665SOL    HW1 2894   2.499   4.480   3.461
  665SOL    HW2 2895   2.392   4.499   3.340
  666SOL     OW 2896   3.419   0.380   6.949
  666SOL    HW1 2897   3.407   0.425   0.016
  666SOL    HW2 2898   3.334   0.336   6.922
  667SOL     OW 2899   1.081   2.964   2.488
  667SOL    HW1 2900   1.006   2.909   2.524
  667SOL    HW2 2901   1.132   3.006   2.563
  668SOL     OW 2902   5.294   0.142   0.055
  668SOL    HW1 2903   5.264   0.232   0.087
  668SOL    HW2 2904   5.386   0.124   0.088
  669SOL     OW 2905   0.018   5.346   2.522
  669SOL    HW1 2906   6.946   5.357   2.488
  669SOL    HW2 2907   0.017   5.312   2.615
  670SOL     OW 2908   3.875   3.910   3.128
  670SOL    HW1 2909   3.884   3.994   3.181
  670SOL    HW2 2910   3.806   3.851   3.170
  671SOL     OW 2911   1.892   0.311   6.492
  671SOL    HW1 2912   1.840   0.305   6.406
  671SOL    HW2 2913   1.916   0.219   6.522
  672SOL     OW 2914   1.247   2.646   3.175
  672SOL    HW1 2915   1.343   2.669   3.158
  672SOL    HW2 2916   1.227   2.658   3.272
  673SOL     OW 2917   5.275   0.396   6.676
  673SOL    HW1 2918   5.311   0.311   6.636
  673SOL    HW2 2919   5.246   0.457   6.602
  674SOL     OW 2920   0.213   2.499   4.389
  674SOL    HW1 2921   0.297   2.510   4.336
  674SOL    HW2 2922   0.195   2.401   4.402
  675SOL     OW 2923   5.487   6.368   3.753
  675SOL    HW1 2924   5.582   6.390   3.774
  675SOL    HW2 2925   5.467   6.275   3.782
  676SOL     OW 2926   3.090   4.952   4.530
  676SOL    HW1 2927   3.166   4.924   4.588
  676SOL    HW2 2928   3.008   4.901   4.555
  677SOL     OW 2929   4.834   6.307   0.257
  677SOL    HW1 2930   4.775   6.315   0.337
  677SOL    HW2 2931   4.795   6.240   0.193
  678SOL     OW 2932   2.465   1.159   5.961
  678SOL    HW1 2933   2.456   1.140   6.059
  678SOL    HW2 2934   2.461   1.073   5.910
  679SOL     OW 2935   6.223   0.229   2.399
  679SOL    HW1 2936   6.317   0.196   2.394
  679SOL    HW2 2937   6.202   0.255   2.493
  680SOL     OW 2938   6.103   4.069   4.251
  680SOL    HW1 2939   6.124   4.108   4.340
  680SOL    HW2 2940   6.094   4.142   4.183
  681SOL     OW 2941   1.324   5.791   2.382
  681SOL    HW1 2942   1.370   5.880   2.388
  681SOL    HW2 2943   1.260   5.792   2.305
  682SOL     OW 2944   0.522   0.228   5.871
  682SOL    HW1 2945   0.542   0.135   5.902
  682SOL    HW2 2946   0.461   0.273   5.937
  683SOL     OW 2947   5.092   1.469   1.509
  683SOL    HW1 2948   5.078   1.428   1.599
  683SOL    HW2 2949   5.183   1.444   1.475
  684SOL     OW 2950   0.191   5.926   6.825
  684SOL    HW1 2951   0.197   5.947   6.727
  684SOL    HW2 2952   0.147   5.837   6.837
  685SOL     OW 2953   6.147   0.382   5.649
  685SOL    HW1 2954   6.112   0.290   5.664
  685SOL    HW2 2955   6.072   0.448   5.653
  686SOL     OW 2956   5.579   4.714   1.628
  686SOL    HW1 2957   5.562   4.635   1.688
  686SOL    HW2 2958   5.660   4.696   1.572
  687SOL     OW 2959   5.483   2.081   6.510
  687SOL    HW1 2960   5.551   2.145   6.473
  687SOL    HW2 2961   5.391   2.113   6.488
  688SOL     OW 2962   6.419   3.244   5.183
  688SOL    HW1 2963   6.429   3.239   5.084
  688SOL    HW2 2964   6.322   3.257   5.206
  689SOL     OW 2965   5.367   4.316   4.335
  689SOL    HW1 2966   5.459   4.330   4.372
  689SOL    HW2 2967   5.359   4.362   4.247
  690SOL     OW 2968   0.160   2.917   4.810
  690SOL    HW1 2969   0.161   2.987   4.738
  690SOL    HW2 2970   0.227   2.846   4.787
  691SOL     OW 2971   0.265   3.163   6.941
  691SOL    HW1 2972   0.259   3.071   6.902
  691SOL    HW2 2973   0.361   3.192   6.944
  692SOL     OW 2974   2.824   0.313   3.420
  692SOL    HW1 2975   2.781   0.291   3.333
  692SOL    HW2 2976   2.851   0.410   3.421
  693SOL     OW 2977   6.594   1.656   4.071
  693SOL    HW1 2978   6.638   1.609   3.994
  693SOL    HW2 2979   6.510   1.607   4.096
  694SOL     OW 2980   1.287   0.472   2.742
  694SOL    HW1 2981   1.310   0.399   2.806
  694SOL    HW2 2982   1.196   0.507   2.762
  695SOL     OW 2983   4.439   5.393   6.612
  695SOL    HW1 2984   4.530   5.362   6.584
  695SOL    HW2 2985   4.391   5.432   6.534
  696SOL     OW 2986   5.304   5.711   2.316
  696SOL    HW1 2987   5.344   5.727   2.406
  696SOL    HW2 2988   5.219   5.659   2.326
  697SOL     OW 2989   1.265   3.894   3.319
  697SOL    HW1 2990   1.249   3.977   3.371
  697SOL    HW2 2991   1.219   3.817   3.364
  698SOL     OW 2992   4.969   6.263   3.673
  698SOL    HW1 2993   4.928   6.349   3.642
  698SOL    HW2 2994   4.916   6.228   3.750
  699SOL     OW 2995   1.218   4.850   6.208
  699SOL    HW1 2996   1.229   4.818   6.114
  699SOL    HW2 2997   1.262   4.786   6.270
  700SOL     OW 2998   1.528   1.684   5.289
  700SOL    HW1 2999   1.606   1.733   5.329
  700SOL    HW2 3000   1.554   1.589   5.272
  701SOL     OW 3001   1.353   4.766   4.826
  701SOL    HW1 3002   1.406   4.714   4.758
  701SOL    HW2 3003   1.371   4.863   4.815
  702SOL     OW 3004   6.061   6.262   5.095
  702SOL    HW1 3005   6.046   6.167   5.122
  702SOL    HW2 3006   6.104   6.265   5.005
  703SOL     OW 3007   5.862   3.725   6.159
  703SOL    HW1 3008   5.935   3.728   6.228
  703SOL    HW2 3009   5.902   3.729   6.068
  704SOL     OW 3010   2.504   6.620   1.539
  704SOL    HW1 3011   2.474   6.585   1.450
  704SOL    HW2 3012   2.536   6.543   1.595
  705SOL     OW 3013   1.060   2.005   3.833
  705SOL    HW1 3014   1.025   2.038   3.921
  705SOL    HW2 3015   1.099   2.081   3.781
  706SOL     OW 3016   5.362   3.529   4.071
  706SOL    HW1 3017   5.451   3.494   4.043
  706SOL    HW2 3018   5.347   3.510   4.168
  707SOL     OW 3019   5.047   2.643   2.881
  707SOL    HW1 3020   5.112   2.719   2.892
  707SOL    HW2 3021   5.060   2.601   2.792
  708SOL     OW 3022   5.102   1.546   2.047
  708SOL    HW1 3023   5.054   1.602   1.979
  708SOL    HW2 3024   5.183   1.595   2.079
  709SOL     OW 3025   1.177   5.040   6.654
  709SOL    HW1 3026   1.087   5.056   6.614
  709SOL    HW2 3027   1.213   4.952   6.622
  710SOL     OW 3028   3.036   3.749   2.983
  710SOL    HW1 3029   3.124   3.705   2.996
  710SOL    HW2 3030   2.993   3.765   3.073
  711SOL     OW 3031   0.275   0.934   4.747
  711SOL    HW1 3032   0.211   0.865   4.781
  711SOL    HW2 3033   0.241   0.971   4.661
  712SOL     OW 3034   7.021   4.085   3.371
  712SOL    HW1 3035   6.965   4.114   3.294
  712SOL    HW2 3036   0.002   3.985   3.374
  713SOL     OW 3037   3.102   3.830   5.316
  713SOL    HW1 3038   3.057   3.846   5.228
  713SOL    HW2 3039   3.148   3.913   5.345
  714SOL     OW 3040   4.425   4.961   5.164
  714SOL    HW1 3041   4.348   4.956   5.100
  714SOL    HW2 3042   4.506   4.920   5.122
  715SOL     OW 3043   6.320   0.327   6.398
  715SOL    HW1 3044   6.248   0.282   6.452
  715SOL    HW2 3045   6.326   0.283   6.308
  716SOL     OW 3046   6.014   5.497   0.009
  716SOL    HW1 3047   6.003   5.589   6.992
  716SOL    HW2 3048   5.924   5.459   0.029
  717SOL     OW 3049   6.194   3.247   6.060
  717SOL    HW1 3050   6.293   3.235   6.068
  717SOL    HW2 3051   6.170   3.267   5.965
  718SOL     OW 3052   3.176   2.443   0.112
  718SOL    HW1 3053   3.256   2.409   0.161
  718SOL    HW2 3054   3.196   2.532   0.071
  719SOL     OW 3055   5.930   4.607   6.766
  719SOL    HW1 3056   5.984   4.614   6.850
  719SOL    HW2 3057   5.848   4.664   6.774
  720SOL     OW 3058   4.140   1.141   5.548
  720SOL    HW1 3059   4.109   1.187   5.465
  720SOL    HW2 3060   4.065   1.087   5.586
  721SOL     OW 3061   1.062   0.055   5.545
  721SOL    HW1 3062   1.107   6.994   5.579
  721SOL    HW2 3063   1.124   0.133   5.557
  722SOL     OW 3064   4.742   0.524   5.153
  722SOL    HW1 3065   4.739   0.433   5.193
  722SOL    HW2 3066   4.828   0.569   5.177
  723SOL     OW 3067   0.814   3.522   1.982
  723SOL    HW1 3068   0.744   3.480   2.040
  723SOL    HW2 3069   0.769   3.580   1.914
  724SOL     OW 3070   0.172   1.731   4.778
  724SOL    HW1 3071   0.270   1.746   4.762
  724SOL    HW2 3072   0.119   1.772   4.704
  725SOL     OW 3073   2.622   5.046   2.835
  725SOL    HW1 3074   2.535   5.047   2.885
  725SOL    HW2 3075   2.606   5.067   2.739
  726SOL     OW 3076   5.112   6.014   5.498
  726SOL    HW1 3077   5.085   5.929   5.451
  726SOL    HW2 3078   5.211   6.024   5.494
  727SOL     OW 3079   2.276   4.788   4.346
  727SOL    HW1 3080   2.193   4.842   4.359
  727SOL    HW2 3081   2.297   4.738   4.430
  728SOL     OW 3082   6.537   2.927   5.927
  728SOL    HW1 3083   6.506   3.009   5.879
  728SOL    HW2 3084   6.570   2.952   6.019
  729SOL     OW 3085   4.624   1.594   0.801
  729SOL    HW1 3086   4.717   1.611   0.834
  729SOL    HW2 3087   4.627   1.574   0.703
  730SOL     OW 3088   6.168   1.451   4.681
  730SOL    HW1 3089   6.158   1.544   4.646
  730SOL    HW2 3090   6.174   1.454   4.781
  731SOL     OW 3091   6.765   2.226   3.876
  731SOL    HW1 3092   6.726   2.229   3.968
  731SOL    HW2 3093   6.860   2.196   3.880
  732SOL     OW 3094   0.730   3.323   3.392
  732SOL    HW1 3095   0.822   3.324   3.431
  732SOL    HW2 3096   0.692   3.416   3.395
  733SOL     OW 3097   4.796   4.799   4.130
  733SOL    HW1 3098   4.846   4.838   4.053
  733SOL    HW2 3099   4.851   4.805   4.213
  734SOL     OW 3100   0.869   6.236   0.292
  734SOL    HW1 3101   0.801   6.172   0.328
  734SOL    HW2 3102   0.863   6.239   0.192
  735SOL     OW 3103   3.083   4.923   6.434
  735SOL    HW1 3104   3.065   4.825   6.446
  735SOL    HW2 3105   3.026   4.975   6.498
  736SOL     OW 3106   5.680   1.167   2.575
  736SOL    HW1 3107   5.762   1.174   2.517
  736SOL    HW2 3108   5.700   1.110   2.655
  737SOL     OW 3109   5.425   3.910   6.925
  737SOL    HW1 3110   5.483   3.851   6.868
  737SOL    HW2 3111   5.379   3.977   6.868
  738SOL     OW 3112   0.755   4.119   3.414
  738SOL    HW1 3113   0.843   4.117   3.366
  738SOL    HW2 3114   0.706   4.204   3.392
  739SOL     OW 3115   4.595   6.374   6.162
  739SOL    HW1 3116   4.687   6.348   6.188
  739SOL    HW2 3117   4.593   6.400   6.065
  740SOL     OW 3118   5.445   6.840   0.477
  740SOL    HW1 3119   5.360   6.884   0.448
  740SOL    HW2 3120   5.474   6.775   0.407
  741SOL     OW 3121   2.508   0.119   3.746
  741SOL    HW1 3122   2.502   0.175   3.664
  741SOL    HW2 3123   2.486   0.175   3.826
  742SOL     OW 3124   1.671   6.481   2.850
  742SOL    HW1 3125   1.718   6.442   2.928
  742SOL    HW2 3126   1.686   6.580   2.848
  743SOL     OW 3127   1.819   3.597   3.368
  743SOL    HW1 3128   1.868   3.563   3.288
  743SOL    HW2 3129   1.805   3.695   3.359
  744SOL     OW 3130   6.534   4.954   0.933
  744SOL    HW1 3131   6.570   4.888   0.999
  744SOL    HW2 3132   6.436   4.940   0.921
  745SOL     OW 3133   1.896   5.849   2.525
  745SOL    HW1 3134   1.960   5.845   2.601
  745SOL    HW2 3135   1.822   5.913   2.547
  746SOL     OW 3136   2.952   0.145   3.120
  746SOL    HW1 3137   2.939   0.049   3.144
  746SOL    HW2 3138   2.877   0.199   3.158
  747SOL     OW 3139   6.697   3.658   1.022
  747SOL    HW1 3140   6.735   3.601   1.095
  747SOL    HW2 3141   6.646   3.734   1.062
  748SOL     OW 3142   3.293   2.930   2.920
  748SOL    HW1 3143   3.331   2.912   2.829
  748SOL    HW2 3144   3.197   2.957   2.911
  749SOL     OW 3145   5.679   2.335   5.030
  749SOL    HW1 3146   5.707   2.419   4.984
  749SOL    HW2 3147   5.594   2.301   4.989
  750SOL     OW 3148   3.288   3.695   1.987
  750SOL    HW1 3149   3.247   3.630   2.052
  750SOL    HW2 3150   3.223   3.713   1.913
  751SOL     OW 3151   5.553   1.832   0.249
  751SOL    HW1 3152   5.592   1.858   0.337
  751SOL    HW2 3153   5.588   1.892   0.177
  752SOL     OW 3154   4.428   0.852   1.975
  752SOL    HW1 3155   4.400   0.885   1.885
  752SOL    HW2 3156   4.497   0.914   2.013
  753SOL     OW 3157   3.958   1.702   2.361
  753SOL    HW1 3158   3.907   1.784   2.385
  753SOL    HW2 3159   3.917   1.659   2.280
  754SOL     OW 3160   5.477   5.743   6.758
  754SOL    HW1 3161   5.503   5.679   6.830
  754SOL    HW2 3162   5.383   5.772   6.772
  755SOL     OW 3163   6.232   5.776   2.129
  755SOL    HW1 3164   6.135   5.754   2.142
  755SOL    HW2 3165   6.279   5.698   2.088
  756SOL     OW 3166   2.536   6.736   3.590
  756SOL    HW1 3167   2.619   6.734   3.646
  756SOL    HW2 3168   2.475   6.663   3.617
  757SOL     OW 3169   6.640   0.661   3.867
  757SOL    HW1 3170   6.664   0.692   3.775
  757SOL    HW2 3171   6.722   0.660   3.925
  758SOL     OW 3172   4.632   2.149   0.977
  758SOL    HW1 3173   4.538   2.160   1.008
  758SOL    HW2 3174   4.637   2.168   0.879
  759SOL     OW 3175   2.251   0.567   1.553
  759SOL    HW1 3176   2.274   0.508   1.475
  759SOL    HW2 3177   2.310   0.647   1.553
  760SOL     OW 3178   4.517   1.690   6.252
  760SOL    HW1 3179   4.566   1.730   6.175
  760SOL    HW2 3180   4.520   1.752   6.330
  761SOL     OW 3181   5.209   0.755   6.853
  761SOL    HW1 3182   5.177   0.695   6.780
  761SOL    HW2 3183   5.130   0.801   6.895
  762SOL     OW 3184   2.137   4.694   4.750
  762SOL    HW1 3185   2.052   4.745   4.746
  762SOL    HW2 3186   2.212   4.755   4.777
  763SOL     OW 3187   6.446   4.871   0.097
  763SOL    HW1 3188   6.352   4.847   0.121
  763SOL    HW2 3189   6.508   4.835   0.167
  764SOL     OW 3190   5.982   1.337   2.867
  764SOL    HW1 3191   5.922   1.301   2.797
  764SOL    HW2 3192   6.027   1.261   2.915
  765SOL     OW 3193   0.984   6.818   3.345
  765SOL    HW1 3194   0.926   6.897   3.324
  765SOL    HW2 3195   1.075   6.849   3.371
  766SOL     OW 3196   6.636   6.107   0.075
  766SOL    HW1 3197   6.703   6.145   0.139
  766SOL    HW2 3198   6.597   6.180   0.019
  767SOL     OW 3199   6.090   6.013   1.013
  767SOL    HW1 3200   6.170   6.068   1.036
  767SOL    HW2 3201   6.061   5.960   1.092
  768SOL     OW 3202   3.017   6.720   4.097
  768SOL    HW1 3203   3.070   6.751   4.017
  768SOL    HW2 3204   2.936   6.671   4.065
  769SOL     OW 3205   4.553   0.609   0.204
  769SOL    HW1 3206   4.622   0.565   0.147
  769SOL    HW2 3207   4.570   0.588   0.300
  770SOL     OW 3208   3.310   5.004   4.686
  770SOL    HW1 3209   3.402   4.983   4.652
  770SOL    HW2 3210   3.311   5.013   4.785
  771SOL     OW 3211   0.479   6.097   4.535
  771SOL    HW1 3212   0.511   6.015   4.582
  771SOL    HW2 3213   0.555   6.160   4.521
  772SOL     OW 3214   0.419   4.276   6.238
  772SOL    HW1 3215   0.353   4.209   6.204
  772SOL    HW2 3216   0.372   4.342   6.298
  773SOL     OW 3217   0.013   3.143   2.309
  773SOL    HW1 3218   6.987   3.202   2.373
  773SOL    HW2 3219   6.997   3.050   2.315
  774SOL     OW 3220   1.401   1.116   1.763
  774SOL    HW1 3221   1.468   1.058   1.716
  774SOL    HW2 3222   1.387   1.200   1.711
  775SOL     OW 3223   1.759   2.840   3.988
  775SOL    HW1 3224   1.716   2.861   4.076
  775SOL    HW2 3225   1.764   2.741   3.977
  776SOL     OW 3226   1.787   0.771   4.924
  776SOL    HW1 3227   1.863   0.732   4.975
  776SOL    HW2 3228   1.821   0.828   4.850
  777SOL     OW 3229   4.369   6.918   6.660
  777SOL    HW1 3230   4.357   6.990   6.728
  777SOL    HW2 3231   4.363   6.828   6.704
  778SOL     OW 3232   4.623   5.478   4.804
  778SOL    HW1 3233   4.613   5.574   4.831
  778SOL    HW2 3234   4.563   5.459   4.726
  779SOL     OW 3235   0.605   0.325   2.161
  779SOL    HW1 3236   0.532   0.258   2.146
  779SOL    HW2 3237   0.680   0.282   2.210
  780SOL     OW 3238   5.692   2.320   4.681
  780SOL    HW1 3239   5.754   2.251   4.644
  780SOL    HW2 3240   5.603   2.312   4.636
  781SOL     OW 3241   0.659   2.814   6.465
  781SOL    HW1 3242   0.695   2.904   6.440
  781SOL    HW2 3243   0.559   2.821   6.477
  782SOL     OW 3244   6.938   4.945   0.818
  782SOL    HW1 3245   7.018   4.922   0.763
  782SOL    HW2 3246   6.947   5.037   0.855
  783SOL     OW 3247   1.639   5.349   6.999
  783SOL    HW1 3248   1.681   5.273   0.027
  783SOL    HW2 3249   1.643   5.432   0.033
  784SOL     OW 3250   5.387   5.383   3.241
  784SOL    HW1 3251   5.350   5.464   3.194
  784SOL    HW2 3252   5.375   5.394   3.340
  785SOL     OW 3253   6.510   2.289   3.551
  785SOL    HW1 3254   6.489   2.383   3.577
  785SOL    HW2 3255   6.549   2.288   3.458
  786SOL     OW 3256   6.118   6.687   0.696
  786SOL    HW1 3257   6.080   6.778   0.711
  786SOL    HW2 3258   6.096   6.628   0.773
  787SOL     OW 3259   4.651   1.209   0.081
  787SOL    HW1 3260   4.747   1.234   0.074
  787SOL    HW2 3261   4.621   1.166   7.018
  788SOL     OW 3262   0.278   4.109   3.300
  788SOL    HW1 3263   0.184   4.119   3.330
  788SOL    HW2 3264   0.333   4.186   3.332
  789SOL     OW 3265   5.520   3.189   1.148
  789SOL    HW1 3266   5.542   3.287   1.147
  789SOL    HW2 3267   5.421   3.177   1.147
  790SOL     OW 3268   3.139   0.556   4.230
  790SOL    HW1 3269   3.106   0.642   4.190
  790SOL    HW2 3270   3.125   0.482   4.165
  791SOL     OW 3271   4.225   1.334   4.853
  791SOL    HW1 3272   4.186   1.397   4.785
  791SOL    HW2 3273   4.243   1.246   4.809
  792SOL     OW 3274   5.408   0.763   3.484
  792SOL    HW1 3275   5.399   0.804   3.575
  792SOL    HW2 3276   5.322   0.774   3.434
  793SOL     OW 3277   0.094   0.163   6.649
  793SOL    HW1 3278   0.179   0.134   6.605
  793SOL    HW2 3279   0.075   0.258   6.626
  794SOL     OW 3280   3.527   4.722   5.349
  794SOL    HW1 3281   3.619   4.758   5.327
  794SOL    HW2 3282   3.533   4.664   5.430
  795SOL     OW 3283   5.094   5.134   0.161
  795SOL    HW1 3284   5.045   5.191   0.095
  795SOL    HW2 3285   5.075   5.166   0.254
  796SOL     OW 3286   0.303   1.620   5.530
  796SOL    HW1 3287   0.228   1.554   5.525
  796SOL    HW2 3288   0.281   1.700   5.475
  797SOL     OW 3289   5.708   3.143   5.398
  797SOL    HW1 3290   5.764   3.223   5.417
  797SOL    HW2 3291   5.762   3.075   5.348
  798SOL     OW 3292   6.754   0.826   4.634
  798SOL    HW1 3293   6.767   0.727   4.645
  798SOL    HW2 3294   6.659   0.850   4.652
  799SOL     OW 3295   6.466   3.858   3.378
  799SOL    HW1 3296   6.399   3.787   3.399
  799SOL    HW2 3297   6.554   3.834   3.417
  800SOL     OW 3298   0.374   1.810   2.223
  800SOL    HW1 3299   0.328   1.823   2.135
  800SOL    HW2 3300   0.327   1.739   2.275
  801SOL     OW 3301   0.374   2.683   3.905
  801SOL    HW1 3302   0.429   2.609   3.944
  801SOL    HW2 3303   0.391   2.689   3.807
  802SOL     OW 3304   6.361   1.098   1.267
  802SOL    HW1 3305   6.393   1.027   1.330
  802SOL    HW2 3306   6.408   1.184   1.287
  803SOL     OW 3307   1.623   0.132   4.454
  803SOL    HW1 3308   1.721   0.150   4.441
  803SOL    HW2 3309   1.574   0.219   4.462
  804SOL     OW 3310   6.368   6.644   0.607
  804SOL    HW1 3311   6.448   6.644   0.668
  804SOL    HW2 3312   6.287   6.672   0.659
  805SOL     OW 3313   2.193   3.099   6.297
  805SOL    HW1 3314   2.244   3.134   6.375
  805SOL    HW2 3315   2.096   3.122   6.308
  806SOL     OW 3316   4.257   6.717   0.361
  806SOL    HW1 3317   4.283   6.806   0.398
  806SOL    HW2 3318   4.312   6.697   0.280
  807SOL     OW 3319   0.733   6.731   3.253
  807SOL    HW1 3320   0.707   6.787   3.332
  807SOL    HW2 3321   0.792   6.656   3.283
  808SOL     OW 3322   5.707   3.953   4.876
  808SOL    HW1 3323   5.767   3.948   4.956
  808SOL    HW2 3324   5.640   4.026   4.890
  809SOL     OW 3325   0.740   6.459   5.803
  809SOL    HW1 3326   0.766   6.521   5.729
  809SOL    HW2 3327   0.816   6.450   5.867
  810SOL     OW 3328   6.319   5.475   6.503
  810SOL    HW1 3329   6.221   5.491   6.515
  810SOL    HW2 3330   6.332   5.404   6.432
  811SOL     OW 3331   3.110   4.971   3.232
  811SOL    HW1 3332   3.075   4.942   3.143
  811SOL    HW2 3333   3.083   4.906   3.302
  812SOL     OW 3334   6.814   0.399   2.721
  812SOL    HW1 3335   6.825   0.433   2.815
  812SOL    HW2 3336   6.727   0.429   2.684
  813SOL     OW 3337   5.259   5.502   1.860
  813SOL    HW1 3338   5.288   5.462   1.947
  813SOL    HW2 3339   5.168   5.467   1.837
  814SOL     OW 3340   4.842   5.590   1.485
  814SOL    HW1 3341   4.811   5.520   1.422
  814SOL    HW2 3342   4.767   5.615   1.547
  815SOL     OW 3343   1.391   1.138   0.624
  815SOL    HW1 3344   1.457   1.069   0.594
  815SOL    HW2 3345   1.312   1.093   0.665
  816SOL     OW 3346   5.649   0.814   1.825
  816SOL    HW1 3347   5.718   0.780   1.762
  816SOL    HW2 3348   5.596   0.738   1.862
  817SOL     OW 3349   0.914   2.120   2.427
  817SOL    HW1 3350   0.946   2.036   2.470
  817SOL    HW2 3351   0.829   2.149   2.469
  818SOL     OW 3352   5.491   1.473   2.453
  818SOL    HW1 3353   5.435   1.392   2.463
  818SOL    HW2 3354   5.472   1.537   2.528
  819SOL     OW 3355   0.592   5.174   2.037
  819SOL    HW1 3356   0.591   5.206   2.131
  819SOL    HW2 3357   0.562   5.079   2.033
  820SOL     OW 3358   2.194   2.912   5.629
  820SOL    HW1 3359   2.235   2.942   5.543
  820SOL    HW2 3360   2.103   2.951   5.639
  821SOL     OW 3361   0.793   4.560   0.667
  821SOL    HW1 3362   0.772   4.585   0.762
  821SOL    HW2 3363   0.883   4.595   0.642
  822SOL     OW 3364   1.318   3.002   5.053
  822SOL    HW1 3365   1.286   3.097   5.063
  822SOL    HW2 3366   1.326   2.980   4.956
  823SOL     OW 3367   3.920   3.930   1.812
  823SOL    HW1 3368   3.971   3.863   1.759
  823SOL    HW2 3369   3.958   3.935   1.905
  824SOL     OW 3370   6.287   2.566   6.299
  824SOL    HW1 3371   6.197   2.524   6.310
  824SOL    HW2 3372   6.283   2.662   6.326
  825SOL     OW 3373   1.472   3.365   1.913
  825SOL    HW1 3374   1.373   3.371   1.929
  825SOL    HW2 3375   1.501   3.442   1.857
  826SOL     OW 3376   1.304   3.215   6.126
  826SOL    HW1 3377   1.391   3.209   6.077
  826SOL    HW2 3378   1.314   3.275   6.205
  827SOL     OW 3379   3.412   4.575   1.068
  827SOL    HW1 3380   3.491   4.636   1.069
  827SOL    HW2 3381   3.417   4.515   0.988
  828SOL     OW 3382   6.100   0.186   5.306
  828SOL    HW1 3383   6.190   0.224   5.326
  828SOL    HW2 3384   6.102   0.087   5.318
  829SOL     OW 3385   3.754   3.823   5.703
  829SOL    HW1 3386   3.751   3.731   5.663
  829SOL    HW2 3387   3.839   3.835   5.753
  830SOL     OW 3388   4.569   3.493   5.888
  830SOL    HW1 3389   4.625   3.544   5.823
  830SOL    HW2 3390   4.519   3.556   5.947
  831SOL     OW 3391   5.566   0.297   5.036
  831SOL    HW1 3392   5.631   0.347   4.979
  831SOL    HW2 3393   5.595   0.301   5.132
  832SOL     OW 3394   2.719   1.559   5.927
  832SOL    HW1 3395   2.787   1.588   5.995
  832SOL    HW2 3396   2.720   1.623   5.850
  833SOL     OW 3397   1.312   0.607   5.213
  833SOL    HW1 3398   1.216   0.580   5.220
  833SOL    HW2 3399   1.332   0.630   5.118
  834SOL     OW 3400   3.343   4.506   5.859
  834SOL    HW1 3401   3.277   4.445   5.816
  834SOL    HW2 3402   3.436   4.480   5.831
  835SOL     OW 3403   4.014   1.471   2.502
  835SOL    HW1 3404   3.964   1.398   2.455
  835SOL    HW2 3405   4.001   1.557   2.454
  836SOL     OW 3406   2.460   0.848   6.340
  836SOL    HW1 3407   2.499   0.896   6.418
  836SOL    HW2 3408   2.408   0.912   6.284
  837SOL     OW 3409   4.029   1.705   4.842
  837SOL    HW1 3410   3.984   1.649   4.912
  837SOL    HW2 3411   4.018   1.802   4.864
  838SOL     OW 3412   1.249   6.491   2.175
  838SOL    HW1 3413   1.278   6.587   2.172
  838SOL    HW2 3414   1.270   6.446   2.089
  839SOL     OW 3415   2.343   1.475   1.853
  839SOL    HW1 3416   2.369   1.493   1.948
  839SOL    HW2 3417   2.286   1.393   1.849
  840SOL     OW 3418   1.359   0.711   5.697
  840SOL    HW1 3419   1.375   0.791   5.639
  840SOL    HW2 3420   1.314   0.739   5.782
  841SOL     OW 3421   0.296   3.776   1.403
  841SOL    HW1 3422   0.243   3.839   1.346
  841SOL    HW2 3423   0.251   3.687   1.406
  842SOL     OW 3424   3.753   4.910   4.005
  842SOL    HW1 3425   3.785   4.965   3.928
  842SOL    HW2 3426   3.755   4.813   3.982
  843SOL     OW 3427   0.052   3.601   1.744
  843SOL    HW1 3428   0.023   3.697   1.742
  843SOL    HW2 3429   7.004   3.544   1.700
  844SOL     OW 3430   5.970   4.563   6.379
  844SOL    HW1 3431   6.045   4.577   6.444
  844SOL    HW2 3432   5.932   4.652   6.354
  845SOL     OW 3433   1.977   4.856   5.697
  845SOL    HW1 3434   1.931   4.939   5.667
  845SOL    HW2 3435   1.908   4.787   5.721
  846SOL     OW 3436   4.178   2.508   0.047
  846SOL    HW1 3437   4.269   2.485   0.082
  846SOL    HW2 3438   4.140   2.584   0.100
  847SOL     OW 3439   5.034   4.427   1.908
  847SOL    HW1 3440   5.080   4.486   1.840
  847SOL    HW2 3441   4.940   4.410   1.879
  848SOL     OW 3442   5.870   6.955   5.442
  848SOL    HW1 3443   5.941   7.019   5.469
  848SOL    HW2 3444   5.792   7.006   5.404
  849SOL     OW 3445   0.610   5.765   4.205
  849SOL    HW1 3446   0.579   5.729   4.117
  849SOL    HW2 3447   0.699   5.810   4.193
  850SOL     OW 3448   3.143   0.615   3.189
  850SOL    HW1 3449   3.071   0.644   3.127
  850SOL    HW2 3450   3.207   0.691   3.204
  851SOL     OW 3451   6.782   1.213   5.683
  851SOL    HW1 3452   6.728   1.298   5.685
  851SOL    HW2 3453   6.805   1.191   5.589
  852SOL     OW 3454   2.835   4.984   5.304
  852SOL    HW1 3455   2.878   5.025   5.224
  852SOL    HW2 3456   2.784   4.903   5.275
  853SOL     OW 3457   0.575   4.512   0.538
  853SOL    HW1 3458   0.659   4.520   0.592
  853SOL    HW2 3459   0.554   4.415   0.523
  854SOL     OW 3460   5.758   5.040   1.073
  854SOL    HW1 3461   5.738   4.948   1.040
  854SOL    HW2 3462   5.776   5.037   1.172
  855SOL     OW 3463   5.286   0.289   0.592
  855SOL    HW1 3464   5.322   0.288   0.499
  855SOL    HW2 3465   5.198   0.336   0.593
  856SOL     OW 3466   1.565   0.426   4.612
  856SOL    HW1 3467   1.548   0.450   4.708
  856SOL    HW2 3468   1.654   0.382   4.605
  857SOL     OW 3469   5.526   3.814   1.369
  857SOL    HW1 3470   5.500   3.842   1.277
  857SOL    HW2 3471   5.465   3.741   1.400
  858SOL     OW 3472   3.683   4.133   2.352
  858SOL    HW1 3473   3.689   4.221   2.305
  858SOL    HW2 3474   3.692   4.147   2.450
  859SOL     OW 3475   0.461   4.273   0.229
  859SOL    HW1 3476   0.522   4.233   0.298
  859SOL    HW2 3477   0.493   4.366   0.208
  860SOL     OW 3478   1.648   3.707   6.583
  860SOL    HW1 3479   1.742   3.709   6.618
  860SOL    HW2 3480   1.611   3.800   6.581
  861SOL     OW 3481   3.957   4.620   6.218
  861SOL    HW1 3482   3.968   4.718   6.199
  861SOL    HW2 3483   3.983   4.601   6.312
  862SOL     OW 3484   4.628   4.322   3.497
  862SOL    HW1 3485   4.625   4.272   3.584
  862SOL    HW2 3486   4.723   4.331   3.467
  863SOL     OW 3487   5.655   2.724   1.604
  863SOL    HW1 3488   5.569   2.752   1.647
  863SOL    HW2 3489   5.732   2.755   1.659
  864SOL     OW 3490   0.420   5.492   2.354
  864SOL    HW1 3491   0.345   5.491   2.287
  864SOL    HW2 3492   0.385   5.466   2.444
  865SOL     OW 3493   1.995   0.766   3.622
  865SOL    HW1 3494   2.041   0.724   3.543
  865SOL    HW2 3495   1.934   0.838   3.590
  866SOL     OW 3496   4.366   0.988   1.213
  866SOL    HW1 3497   4.273   1.024   1.225
  866SOL    HW2 3498   4.431   1.062   1.227
  867SOL     OW 3499   2.552   1.655   6.431
  867SOL    HW1 3500   2.519   1.561   6.423
  867SOL    HW2 3501   2.615   1.674   6.356
  868SOL     OW 3502   5.341   2.050   3.473
  868SOL    HW1 3503   5.263   2.045   3.411
  868SOL    HW2 3504   5.308   2.052   3.567
  869SOL     OW 3505   6.584   3.878   1.141
  869SOL    HW1 3506   6.598   3.883   1.240
  869SOL    HW2 3507   6.544   3.963   1.109
  870SOL     OW 3508   5.882   1.866   0.703
  870SOL    HW1 3509   5.867   1.811   0.786
  870SOL    HW2 3510   5.973   1.907   0.707
  871SOL     OW 3511   7.018   4.566   0.710
  871SOL    HW1 3512   0.027   4.659   0.726
  871SOL    HW2 3513   0.071   4.513   0.669
  872SOL     OW 3514   0.026   2.260   1.939
  872SOL    HW1 3515   0.085   2.184   1.966
  872SOL    HW2 3516   0.028   2.331   2.009
  873SOL     OW 3517   3.961   6.949   4.618
  873SOL    HW1 3518   3.974   6.909   4.528
  873SOL    HW2 3519   3.905   6.888   4.674
  874SOL     OW 3520   0.828   4.308   6.631
  874SOL    HW1 3521   0.842   4.402   6.660
  874SOL    HW2 3522   0.771   4.260   6.698
  875SOL     OW 3523   6.172   5.843   6.513
  875SOL    HW1 3524   6.271   5.860   6.516
  875SOL    HW2 3525   6.127   5.897   6.584
  876SOL     OW 3526   2.589   2.017   1.509
  876SOL    HW1 3527   2.612   1.925   1.538
  876SOL    HW2 3528   2.635   2.083   1.568
  877SOL     OW 3529   5.806   5.625   6.396
  877SOL    HW1 3530   5.854   5.698   6.347
  877SOL    HW2 3531   5.719   5.659   6.429
  878SOL     OW 3532   3.805   3.058   0.874
  878SOL    HW1 3533   3.737   3.090   0.940
  878SOL    HW2 3534   3.816   2.959   0.883
  879SOL     OW 3535   4.970   2.866   3.898
  879SOL    HW1 3536   4.956   2.796   3.968
  879SOL    HW2 3537   4.893   2.866   3.835
  880SOL     OW 3538   4.388   5.685   1.359
  880SOL    HW1 3539   4.429   5.775   1.371
  880SOL    HW2 3540   4.321   5.688   1.285
  881SOL     OW 3541   5.233   5.124   3.275
  881SOL    HW1 3542   5.302   5.196   3.288
  881SOL    HW2 3543   5.261   5.042   3.326
  882SOL     OW 3544   0.943   2.424   4.934
  882SOL    HW1 3545   0.971   2.441   5.028
  882SOL    HW2 3546   0.899   2.505   4.897
  883SOL     OW 3547   3.108   4.924   0.092
  883SOL    HW1 3548   3.091   4.969   0.180
  883SOL    HW2 3549   3.020   4.901   0.050
  884SOL     OW 3550   3.983   4.342   1.633
  884SOL    HW1 3551   3.890   4.306   1.626
  884SOL    HW2 3552   4.043   4.271   1.670
  885SOL     OW 3553   4.382   6.044   5.680
  885SOL    HW1 3554   4.342   6.008   5.764
  885SOL    HW2 3555   4.314   6.099   5.631
  886SOL     OW 3556   3.592   2.491   6.218
  886SOL    HW1 3557   3.645   2.562   6.264
  886SOL    HW2 3558   3.536   2.532   6.146
  887SOL     OW 3559   6.170   5.840   4.829
  887SOL    HW1 3560   6.186   5.935   4.803
  887SOL    HW2 3561   6.200   5.780   4.755
  888SOL     OW 3562   6.226   1.091   3.269
  888SOL    HW1 3563   6.178   1.004   3.278
  888SOL    HW2 3564   6.236   1.133   3.359
  889SOL     OW 3565   0.450   0.275   4.909
  889SOL    HW1 3566   0.544   0.301   4.926
  889SOL    HW2 3567   0.439   0.250   4.812
  890SOL     OW 3568   1.639   3.465   1.374
  890SOL    HW1 3569   1.580   3.386   1.359
  890SOL    HW2 3570   1.668   3.503   1.286
  891SOL     OW 3571   6.192   3.482   5.893
  891SOL    HW1 3572   6.131   3.557   5.920
  891SOL    HW2 3573   6.284   3.500   5.928
  892SOL     OW 3574   2.194   4.639   2.084
  892SOL    HW1 3575   2.174   4.546   2.052
  892SOL    HW2 3576   2.140   4.705   2.032
  893SOL     OW 3577   1.957   6.938   2.182
  893SOL    HW1 3578   1.916   6.853   2.149
  893SOL    HW2 3579   2.002   6.985   2.106
  894SOL     OW 3580   1.822   5.612   4.546
  894SOL    HW1 3581   1.737   5.631   4.498
  894SOL    HW2 3582   1.804   5.555   4.626
  895SOL     OW 3583   2.619   0.693   4.647
  895SOL    HW1 3584   2.536   0.737   4.613
  895SOL    HW2 3585   2.699   0.740   4.609
  896SOL     OW 3586   4.708   7.013   3.371
  896SOL    HW1 3587   4.630   6.970   3.417
  896SOL    HW2 3588   4.717   6.975   3.279
  897SOL     OW 3589   6.075   1.030   6.127
  897SOL    HW1 3590   6.061   0.942   6.173
  897SOL    HW2 3591   6.150   1.080   6.172
  898SOL     OW 3592   5.384   6.624   3.772
  898SOL    HW1 3593   5.290   6.589   3.777
  898SOL    HW2 3594   5.448   6.547   3.778
  899SOL     OW 3595   1.384   5.017   0.043
  899SOL    HW1 3596   1.439   4.984   0.119
  899SOL    HW2 3597   1.366   5.115   0.055
  900SOL     OW 3598   0.655   5.150   3.330
  900SOL    HW1 3599   0.725   5.082   3.308
  900SOL    HW2 3600   0.663   5.176   3.426
  901SOL     OW 3601   6.517   1.889   3.430
  901SOL    HW1 3602   6.436   1.879   3.489
  901SOL    HW2 3603   6.599   1.897   3.487
  902SOL     OW 3604   1.454   6.203   0.044
  902SOL    HW1 3605   1.536   6.165   0.088
  902SOL    HW2 3606   1.475   6.293   0.008
  903SOL     OW 3607   0.723   5.061   6.392
  903SOL    HW1 3608   0.670   5.144   6.372
  903SOL    HW2 3609   0.690   4.986   6.336
  904SOL     OW 3610   2.230   1.589   4.150
  904SOL    HW1 3611   2.169   1.522   4.192
  904SOL    HW2 3612   2.236   1.670   4.208
  905SOL     OW 3613   6.110   3.219   3.636
  905SOL    HW1 3614   6.153   3.308   3.651
  905SOL    HW2 3615   6.019   3.232   3.598
  906SOL     OW 3616   6.565   3.300   5.400
  906SOL    HW1 3617   6.518   3.286   5.313
  906SOL    HW2 3618   6.498   3.327   5.470
  907SOL     OW 3619   6.788   3.675   2.453
  907SOL    HW1 3620   6.709   3.619   2.427
  907SOL    HW2 3621   6.762   3.736   2.528
  908SOL     OW 3622   2.575   1.392   3.736
  908SOL    HW1 3623   2.490   1.424   3.695
  908SOL    HW2 3624   2.576   1.292   3.738
  909SOL     OW 3625   3.981   6.917   1.906
  909SOL    HW1 3626   4.021   6.846   1.848
  909SOL    HW2 3627   3.977   7.004   1.856
  910SOL     OW 3628   1.404   0.747   1.753
  910SOL    HW1 3629   1.486   0.754   1.810
  910SOL    HW2 3630   1.401   0.657   1.709
  911SOL     OW 3631   1.025   3.072   1.004
  911SOL    HW1 3632   1.116   3.073   1.046
  911SOL    HW2 3633   0.957   3.045   1.072
  912SOL     OW 3634   2.072   1.176   0.129
  912SOL    HW1 3635   2.036   1.108   0.193
  912SOL    HW2 3636   2.045   1.151   0.036
  913SOL     OW 3637   2.120   1.756   2.600
  913SOL    HW1 3638   2.059   1.752   2.522
  913SOL    HW2 3639   2.099   1.837   2.655
  914SOL     OW 3640   2.771   4.824   2.464
  914SOL    HW1 3641   2.731   4.909   2.429
  914SOL    HW2 3642   2.750   4.749   2.402
  915SOL     OW 3643   2.541   2.124   0.774
  915SOL    HW1 3644   2.527   2.223   0.773
  915SOL    HW2 3645   2.544   2.092   0.868
  916SOL     OW 3646   1.230   3.458   2.453
  916SOL    HW1 3647   1.275   3.391   2.395
  916SOL    HW2 3648   1.298   3.506   2.508
  917SOL     OW 3649   3.660   0.493   6.233
  917SOL    HW1 3650   3.691   0.586   6.212
  917SOL    HW2 3651   3.560   0.489   6.230
  918SOL     OW 3652   0.244   2.436   4.827
  918SOL    HW1 3653   0.160   2.406   4.872
  918SOL    HW2 3654   0.305   2.357   4.816
  919SOL     OW 3655   1.214   0.933   1.034
  919SOL    HW1 3656   1.244   0.909   1.126
  919SOL    HW2 3657   1.141   0.872   1.005
  920SOL     OW 3658   1.483   1.642   2.433
  920SOL    HW1 3659   1.428   1.660   2.515
  920SOL    HW2 3660   1.458   1.707   2.362
  921SOL     OW 3661   4.231   4.461   0.235
  921SOL    HW1 3662   4.177   4.539   0.267
  921SOL    HW2 3663   4.328   4.481   0.245
  922SOL     OW 3664   2.260   5.904   0.049
  922SOL    HW1 3665   2.240   5.887   0.145
  922SOL    HW2 3666   2.175   5.908   7.019
  923SOL     OW 3667   4.111   1.313   0.162
  923SOL    HW1 3668   4.083   1.290   0.069
  923SOL    HW2 3669   4.176   1.244   0.195
  924SOL     OW 3670   6.000   4.758   1.694
  924SOL    HW1 3671   5.975   4.811   1.775
  924SOL    HW2 3672   5.955   4.669   1.698
  925SOL     OW 3673   6.249   2.492   1.860
  925SOL    HW1 3674   6.219   2.576   1.814
  925SOL    HW2 3675   6.319   2.514   1.928
  926SOL     OW 3676   4.049   5.683   1.750
  926SOL    HW1 3677   4.027   5.589   1.727
  926SOL    HW2 3678   4.130   5.712   1.700
  927SOL     OW 3679   4.584   5.293   5.339
  927SOL    HW1 3680   4.552   5.224   5.404
  927SOL    HW2 3681   4.591   5.252   5.248
  928SOL     OW 3682   0.312   1.785   1.374
  928SOL    HW1 3683   0.409   1.803   1.360
  928SOL    HW2 3684   0.286   1.814   1.466
  929SOL     OW 3685   0.438   2.375   2.370
  929SOL    HW1 3686   0.532   2.370   2.405
  929SOL    HW2 3687   0.379   2.417   2.439
  930SOL     OW 3688   5.982   4.873   1.995
  930SOL    HW1 3689   5.906   4.828   2.041
  930SOL    HW2 3690   6.041   4.918   2.063
  931SOL     OW 3691   1.072   2.376   1.759
  931SOL    HW1 3692   1.006   2.369   1.684
  931SOL    HW2 3693   1.102   2.471   1.767
  932SOL     OW 3694   4.420   6.153   1.119
  932SOL    HW1 3695   4.500   6.148   1.060
  932SOL    HW2 3696   4.447   6.186   1.209
  933SOL     OW 3697   1.293   6.637   3.998
  933SOL    HW1 3698   1.339   6.637   3.909
  933SOL    HW2 3699   1.219   6.570   3.997
  934SOL     OW 3700   3.373   1.704   5.521
  934SOL    HW1 3701   3.306   1.708   5.447
  934SOL    HW2 3702   3.412   1.612   5.525
  935SOL     OW 3703   1.536   3.652   4.060
  935SOL    HW1 3704   1.437   3.640   4.046
  935SOL    HW2 3705   1.553   3.745   4.094
  936SOL     OW 3706   1.009   1.453   1.848
  936SOL    HW1 3707   1.084   1.393   1.876
  936SOL    HW2 3708   1.047   1.535   1.805
  937SOL     OW 3709   4.834   1.798   3.280
  937SOL    HW1 3710   4.912   1.854   3.253
  937SOL    HW2 3711   4.757   1.817   3.220
  938SOL     OW 3712   0.790   0.839   6.280
  938SOL    HW1 3713   0.874   0.840   6.335
  938SOL    HW2 3714   0.731   0.765   6.311
  939SOL     OW 3715   6.073   0.796   4.813
  939SOL    HW1 3716   6.160   0.798   4.864
  939SOL    HW2 3717   6.038   0.703   4.812
  940SOL     OW 3718   6.110   0.372   3.714
  940SOL    HW1 3719   6.020   0.335   3.690
  940SOL    HW2 3720   6.107   0.472   3.714
  941SOL     OW 3721   5.888   2.963   5.306
  941SOL    HW1 3722   5.913   2.881   5.254
  941SOL    HW2 3723   5.963   2.988   5.367
  942SOL     OW 3724   4.496   6.799   5.305
  942SOL    HW1 3725   4.512   6.704   5.331
  942SOL    HW2 3726   4.577   6.853   5.324
  943SOL     OW 3727   5.475   2.631   0.075
  943SOL    HW1 3728   5.413   2.608   0.150
  943SOL    HW2 3729   5.569   2.614   0.103
  944SOL     OW 3730   5.023   4.643   3.961
  944SOL    HW1 3731   5.054   4.640   4.056
  944SOL    HW2 3732   5.003   4.551   3.929
  945SOL     OW 3733   5.656   2.942   6.724
  945SOL    HW1 3734   5.560   2.968   6.741
  945SOL    HW2 3735   5.666   2.843   6.732
  946SOL     OW 3736   6.278   3.750   6.269
  946SOL    HW1 3737   6.251   3.654   6.261
  946SOL    HW2 3738   6.266   3.780   6.364
  947SOL     OW 3739   1.146   2.557   6.092
  947SOL    HW1 3740   1.177   2.465   6.118
  947SOL    HW2 3741   1.076   2.551   6.021
  948SOL     OW 3742   3.729   2.295   0.364
  948SOL    HW1 3743   3.801   2.292   0.434
  948SOL    HW2 3744   3.736   2.382   0.314
  949SOL     OW 3745   5.007   5.807   6.027
  949SOL    HW1 3746   5.076   5.734   6.032
  949SOL    HW2 3747   5.040   5.880   5.968
  950SOL     OW 3748   3.378   5.398   0.511
  950SOL    HW1 3749   3.470   5.400   0.550
  950SOL    HW2 3750   3.380   5.356   0.421
  951SOL     OW 3751   1.426   3.008   4.046
  951SOL    HW1 3752   1.383   3.089   4.086
  951SOL    HW2 3753   1.522   3.004   4.073
  952SOL     OW 3754   4.860   0.647   1.414
  952SOL    HW1 3755   4.906   0.701   1.344
  952SOL    HW2 3756   4.778   0.697   1.446
  953SOL     OW 3757   4.331   6.758   5.961
  953SOL    HW1 3758   4.344   6.856   5.943
  953SOL    HW2 3759   4.247   6.727   5.919
  954SOL     OW 3760   6.463   6.936   1.162
  954SOL    HW1 3761   6.473   6.842   1.129
  954SOL    HW2 3762   6.375   6.946   1.208
  955SOL     OW 3763   1.142   5.702   3.134
  955SOL    HW1 3764   1.071   5.719   3.202
  955SOL    HW2 3765   1.190   5.787   3.114
  956SOL     OW 3766   1.881   2.760   1.022
  956SOL    HW1 3767   1.795   2.772   1.072
  956SOL    HW2 3768   1.958   2.783   1.082
  957SOL     OW 3769   2.006   6.204   4.656
  957SOL    HW1 3770   2.027   6.219   4.559
  957SOL    HW2 3771   1.959   6.284   4.693
  958SOL     OW 3772   4.680   2.657   6.894
  958SOL    HW1 3773   4.771   2.651   6.935
  958SOL    HW2 3774   4.689   2.669   6.795
  959SOL     OW 3775   1.374   3.864   0.719
  959SOL    HW1 3776   1.393   3.877   0.816
  959SOL    HW2 3777   1.306   3.931   0.689
  960SOL     OW 3778   1.582   3.889   6.030
  960SOL    HW1 3779   1.506   3.946   5.999
  960SOL    HW2 3780   1.667   3.921   5.988
  961SOL     OW 3781   3.270   6.737   6.592
  961SOL    HW1 3782   3.362   6.773   6.577
  961SOL    HW2 3783   3.228   6.785   6.669
  962SOL     OW 3784   0.795   0.357   3.336
  962SOL    HW1 3785   0.770   0.444   3.294
  962SOL    HW2 3786   0.777   0.282   3.272
  963SOL     OW 3787   5.751   0.298   2.405
  963SOL    HW1 3788   5.702   0.347   2.333
  963SOL    HW2 3789   5.745   0.200   2.389
  964SOL     OW 3790   5.722   4.196   1.437
  964SOL    HW1 3791   5.671   4.128   1.489
  964SOL    HW2 3792   5.668   4.226   1.358
  965SOL     OW 3793   1.993   1.318   0.392
  965SOL    HW1 3794   1.998   1.307   0.293
  965SOL    HW2 3795   1.971   1.413   0.414
  966SOL     OW 3796   5.903   2.762   1.772
  966SOL    HW1 3797   5.952   2.771   1.685
  966SOL    HW2 3798   5.940   2.685   1.823
  967SOL     OW 3799   1.000   5.224   2.950
  967SOL    HW1 3800   0.986   5.323   2.951
  967SOL    HW2 3801   0.913   5.178   2.938
  968SOL     OW 3802   0.463   4.691   0.161
  968SOL    HW1 3803   0.502   4.760   0.099
  968SOL    HW2 3804   0.536   4.631   0.193
  969SOL     OW 3805   3.910   6.588   6.730
  969SOL    HW1 3806   3.970   6.630   6.661
  969SOL    HW2 3807   3.848   6.657   6.767
  970SOL     OW 3808   4.998   3.549   6.221
  970SOL    HW1 3809   4.940   3.469   6.238
  970SOL    HW2 3810   4.960   3.628   6.269
  971SOL     OW 3811   0.171   2.873   6.897
  971SOL    HW1 3812   0.122   2.788   6.911
  971SOL    HW2 3813   0.245   2.880   6.964
  972SOL     OW 3814   4.996   6.858   6.850
  972SOL    HW1 3815   5.074   6.825   6.904
  972SOL    HW2 3816   4.965   6.946   6.887
  973SOL     OW 3817   6.459   3.164   5.772
  973SOL    HW1 3818   6.434   3.260   5.756
  973SOL    HW2 3819   6.508   3.129   5.692
  974SOL     OW 3820   1.900   0.301   4.363
  974SOL    HW1 3821   1.822   0.363   4.352
  974SOL    HW2 3822   1.971   0.325   4.296
  975SOL     OW 3823   2.807   6.985   5.244
  975SOL    HW1 3824   2.786   6.918   5.173
  975SOL    HW2 3825   2.803   6.941   5.334
  976SOL     OW 3826   0.492   4.935   3.957
  976SOL    HW1 3827   0.428   4.998   3.913
  976SOL    HW2 3828   0.492   4.951   4.056
  977SOL     OW 3829   1.138   2.024   2.178
  977SOL    HW1 3830   1.094   2.107   2.143
  977SOL    HW2 3831   1.094   1.944   2.138
  978SOL     OW 3832   5.893   2.802   4.095
  978SOL    HW1 3833   5.913   2.714   4.051
  978SOL    HW2 3834   5.807   2.794   4.146
  979SOL     OW 3835   6.335   2.193   2.919
  979SOL    HW1 3836   6.378   2.109   2.888
  979SOL    HW2 3837   6.250   2.172   2.967
  980SOL     OW 3838   6.620   0.064   5.761
  980SOL    HW1 3839   6.575   0.051   5.849
  980SOL    HW2 3840   6.654   6.997   5.728
  981SOL     OW 3841   6.491   3.175   6.618
  981SOL    HW1 3842   6.405   3.128   6.638
  981SOL    HW2 3843   6.504   3.251   6.681
  982SOL     OW 3844   1.650   4.682   0.710
  982SOL    HW1 3845   1.710   4.703   0.787
  982SOL    HW2 3846   1.557   4.670   0.743
  983SOL     OW 3847   5.674   1.260   3.314
  983SOL    HW1 3848   5.599   1.200   3.287
  983SOL    HW2 3849   5.679   1.264   3.414
  984SOL     OW 3850   4.870   3.195   5.209
  984SOL    HW1 3851   4.871   3.201   5.109
  984SOL    HW2 3852   4.951   3.146   5.240
  985SOL     OW 3853   1.803   4.245   0.361
  985SOL    HW1 3854   1.780   4.250   0.264
  985SOL    HW2 3855   1.845   4.156   0.381
  986SOL     OW 3856   4.896   4.084   5.436
  986SOL    HW1 3857   4.987   4.053   5.408
  986SOL    HW2 3858   4.886   4.181   5.414
  987SOL     OW 3859   3.235   0.552   2.931
  987SOL    HW1 3860   3.243   0.457   2.899
  987SOL    HW2 3861   3.242   0.553   3.031
  988SOL     OW 3862   3.597   2.765   1.483
  988SOL    HW1 3863   3.541   2.793   1.561
  988SOL    HW2 3864   3.611   2.666   1.486
  989SOL     OW 3865   0.523   1.267   4.175
  989SOL    HW1 3866   0.513   1.276   4.076
  989SOL    HW2 3867   0.455   1.203   4.210
  990SOL     OW 3868   5.244   6.587   2.230
  990SOL    HW1 3869   5.342   6.583   2.209
  990SOL    HW2 3870   5.230   6.579   2.328
  991SOL     OW 3871   5.871   1.655   5.830
  991SOL    HW1 3872   5.901   1.567   5.866
  991SOL    HW2 3873   5.880   1.725   5.901
  992SOL     OW 3874   0.034   2.815   1.203
  992SOL    HW1 3875   7.009   2.768   1.278
  992SOL    HW2 3876   0.124   2.773   1.187
  993SOL     OW 3877   4.431   6.992   4.695
  993SOL    HW1 3878   4.338   0.002   4.713
  993SOL    HW2 3879   4.470   6.954   4.779
  994SOL     OW 3880   2.889   3.750   3.222
  994SOL    HW1 3881   2.900   3.652   3.239
  994SOL    HW2 3882   2.912   3.801   3.305
  995SOL     OW 3883   0.571   2.113   5.121
  995SOL    HW1 3884   0.536   2.130   5.214
  995SOL    HW2 3885   0.494   2.104   5.058
  996SOL     OW 3886   1.232   3.393   0.161
  996SOL    HW1 3887   1.288   3.332   0.216
  996SOL    HW2 3888   1.254   3.381   0.064
  997SOL     OW 3889   6.493   1.605   0.644
  997SOL    HW1 3890   6.450   1.516   0.629
  997SOL    HW2 3891   6.579   1.592   0.694
  998SOL     OW 3892   4.989   0.244   2.928
  998SOL    HW1 3893   5.074   0.215   2.883
  998SOL    HW2 3894   4.999   0.338   2.960
  999SOL     OW 3895   6.716   5.486   0.928
  999SOL    HW1 3896   6.784   5.537   0.875
  999SOL    HW2 3897   6.673   5.418   0.869
 1000SOL     OW 3898   4.324   2.032   4.887
 1000SOL    HW1 3899   4.275   2.083   4.957
 1000SOL    HW2 3900   4.332   1.936   4.914
 1001SOL     OW 3901   4.623   1.168   5.276
 1001SOL    HW1 3902   4.717   1.140   5.257
 1001SOL    HW2 3903   4.559   1.104   5.233
 1002SOL     OW 3904   0.516   1.738   0.168
 1002SOL    HW1 3905   0.551   1.645   0.172
 1002SOL    HW2 3906   0.423   1.738   0.131
 1003SOL     OW 3907   4.218   5.142   2.669
 1003SOL    HW1 3908   4.196   5.133   2.572
 1003SOL    HW2 3909   4.317   5.141   2.681
 1004SOL     OW 3910   6.044   5.882   0.358
 1004SOL    HW1 3911   6.040   5.854   0.262
 1004SOL    HW2 3912   6.010   5.808   0.416
 1005SOL     OW 3913   6.176   6.318   3.291
 1005SOL    HW1 3914   6.264   6.320   3.244
 1005SOL    HW2 3915   6.163   6.404   3.341
 1006SOL     OW 3916   1.703   5.119   0.127
 1006SOL    HW1 3917   1.656   5.140   0.213
 1006SOL    HW2 3918   1.700   5.021   0.110
 1007SOL     OW 3919   6.495   1.450   2.761
 1007SOL    HW1 3920   6.524   1.489   2.848
 1007SOL    HW2 3921   6.399   1.424   2.766
 1008SOL     OW 3922   3.298   2.084   5.034
 1008SOL    HW1 3923   3.389   2.123   5.029
 1008SOL    HW2 3924   3.230   2.157   5.042
 1009SOL     OW 3925   3.366   6.291   6.071
 1009SOL    HW1 3926   3.434   6.269   6.002
 1009SOL    HW2 3927   3.383   6.237   6.153
 1010SOL     OW 3928   5.431   6.826   5.285
 1010SOL    HW1 3929   5.378   6.911   5.284
 1010SOL    HW2 3930   5.417   6.777   5.199
 1011SOL     OW 3931   2.720   5.500   4.047
 1011SOL    HW1 3932   2.669   5.571   4.095
 1011SOL    HW2 3933   2.765   5.441   4.113
 1012SOL     OW 3934   3.962   6.476   1.051
 1012SOL    HW1 3935   4.048   6.425   1.059
 1012SOL    HW2 3936   3.975   6.569   1.084
 1013SOL     OW 3937   0.738   0.340   6.936
 1013SOL    HW1 3938   0.726   0.242   6.948
 1013SOL    HW2 3939   0.832   0.366   6.960
 1014SOL     OW 3940   5.813   6.576   5.693
 1014SOL    HW1 3941   5.731   6.629   5.670
 1014SOL    HW2 3942   5.858   6.618   5.772
 1015SOL     OW 3943   2.609   0.501   4.860
 1015SOL    HW1 3944   2.622   0.583   4.805
 1015SOL    HW2 3945   2.612   0.420   4.800
 1016SOL     OW 3946   4.434   2.959   1.382
 1016SOL    HW1 3947   4.525   2.974   1.346
 1016SOL    HW2 3948   4.370   3.022   1.340
 1017SOL     OW 3949   4.693   0.003   5.913
 1017SOL    HW1 3950   4.621   0.044   5.969
 1017SOL    HW2 3951   4.675   0.023   5.817
 1018SOL     OW 3952   1.510   2.430   1.650
 1018SOL    HW1 3953   1.454   2.356   1.687
 1018SOL    HW2 3954   1.606   2.403   1.651
 1019SOL     OW 3955   5.569   1.188   0.582
 1019SOL    HW1 3956   5.590   1.171   0.678
 1019SOL    HW2 3957   5.527   1.106   0.543
 1020SOL     OW 3958   3.712   2.045   1.772
 1020SOL    HW1 3959   3.686   2.126   1.824
 1020SOL    HW2 3960   3.732   2.071   1.678
 1021SOL     OW 3961   6.598   1.595   0.986
 1021SOL    HW1 3962   6.630   1.635   1.071
 1021SOL    HW2 3963   6.638   1.504   0.975
 1022SOL     OW 3964   3.438   2.787   0.097
 1022SOL    HW1 3965   3.529   2.816   0.067
 1022SOL    HW2 3966   3.407   2.712   0.039
 1023SOL     OW 3967   6.848   0.580   4.762
 1023SOL    HW1 3968   6.917   0.508   4.764
 1023SOL    HW2 3969   6.854   0.635   4.846
 1024SOL     OW 3970   6.113   2.345   3.815
 1024SOL    HW1 3971   6.166   2.292   3.749
 1024SOL    HW2 3972   6.033   2.292   3.843
 1025SOL     OW 3973   2.836   4.780   1.164
 1025SOL    HW1 3974   2.754   4.808   1.113
 1025SOL    HW2 3975   2.894   4.860   1.180
 1026SOL     OW 3976   0.657   2.306   6.461
 1026SOL    HW1 3977   0.710   2.365   6.400
 1026SOL    HW2 3978   0.714   2.230   6.491
 1027SOL     OW 3979   2.154   4.896   0.938
 1027SOL    HW1 3980   2.176   4.882   0.842
 1027SOL    HW2 3981   2.133   4.809   0.981
 1028SOL     OW 3982   0.291   5.492   6.945
 1028SOL    HW1 3983   0.315   5.396   6.926
 1028SOL    HW2 3984   0.371   5.549   6.931
 1029SOL     OW 3985   3.533   0.355   4.714
 1029SOL    HW1 3986   3.583   0.440   4.698
 1029SOL    HW2 3987   3.472   0.338   4.637
 1030SOL     OW 3988   4.165   5.233   4.893
 1030SOL    HW1 3989   4.067   5.216   4.908
 1030SOL    HW2 3990   4.208   5.254   4.981
 1031SOL     OW 3991   2.363   6.033   1.065
 1031SOL    HW1 3992   2.332   6.058   0.974
 1031SOL    HW2 3993   2.450   5.984   1.058
 1032SOL     OW 3994   1.160   1.557   5.370
 1032SOL    HW1 3995   1.215   1.563   5.287
 1032SOL    HW2 3996   1.135   1.649   5.400
 1033SOL     OW 3997   2.776   0.053   1.632
 1033SOL    HW1 3998   2.825   0.060   1.719
 1033SOL    HW2 3999   2.717   6.994   1.634
 1034SOL     OW 4000   0.275   6.442   2.040
 1034SOL    HW1 4001   0.296   6.379   2.114
 1034SOL    HW2 4002   0.249   6.531   2.077
 1035SOL     OW 4003   3.281   2.084   2.951
 1035SOL    HW1 4004   3.378   2.107   2.944
 1035SOL    HW2 4005   3.233   2.114   2.868
 1036SOL     OW 4006   4.553   6.651   6.677
 1036SOL    HW1 4007   4.593   6.647   6.585
 1036SOL    HW2 4008   4.623   6.681   6.742
 1037SOL     OW 4009   4.021   1.307   6.261
 1037SOL    HW1 4010   4.055   1.305   6.167
 1037SOL    HW2 4011   4.070   1.377   6.312
 1038SOL     OW 4012   2.760   1.765   5.249
 1038SOL    HW1 4013   2.737   1.764   5.346
 1038SOL    HW2 4014   2.775   1.860   5.219
 1039SOL     OW 4015   5.250   1.588   3.282
 1039SOL    HW1 4016   5.151   1.597   3.298
 1039SOL    HW2 4017   5.266   1.518   3.213
 1040SOL     OW 4018   6.085   4.286   4.069
 1040SOL    HW1 4019   6.016   4.352   4.097
 1040SOL    HW2 4020   6.161   4.334   4.025
 1041SOL     OW 4021   1.783   6.759   4.567
 1041SOL    HW1 4022   1.861   6.752   4.630
 1041SOL    HW2 4023   1.723   6.680   4.579
 1042SOL     OW 4024   4.448   4.064   0.500
 1042SOL    HW1 4025   4.510   4.005   0.551
 1042SOL    HW2 4026   4.386   4.009   0.445
 1043SOL     OW 4027   4.049   0.234   6.613
 1043SOL    HW1 4028   4.137   0.236   6.660
 1043SOL    HW2 4029   3.976   0.224   6.680
 1044SOL     OW 4030   3.650   4.066   3.270
 1044SOL    HW1 4031   3.639   3.967   3.264
 1044SOL    HW2 4032   3.601   4.109   3.193
 1045SOL     OW 4033   3.138   1.103   3.043
 1045SOL    HW1 4034   3.066   1.082   3.109
 1045SOL    HW2 4035   3.227   1.079   3.081
 1046SOL     OW 4036   3.044   0.798   2.421
 1046SOL    HW1 4037   2.956   0.794   2.375
 1046SOL    HW2 4038   3.057   0.714   2.474
 1047SOL     OW 4039   0.244   6.347   1.539
 1047SOL    HW1 4040   0.295   6.309   1.617
 1047SOL    HW2 4041   0.152   6.372   1.569
 1048SOL     OW 4042   6.396   4.278   4.923
 1048SOL    HW1 4043   6.397   4.233   4.834
 1048SOL    HW2 4044   6.471   4.344   4.928
 1049SOL     OW 4045   0.823   3.826   5.188
 1049SOL    HW1 4046   0.915   3.864   5.197
 1049SOL    HW2 4047   0.809   3.756   5.258
 1050SOL     OW 4048   2.906   0.579   1.341
 1050SOL    HW1 4049   2.990   0.547   1.385
 1050SOL    HW2 4050   2.853   0.633   1.407
 1051SOL     OW 4051   4.622   4.665   1.746
 1051SOL    HW1 4052   4.565   4.584   1.753
 1051SOL    HW2 4053   4.594   4.732   1.814
 1052SOL     OW 4054   3.240   0.308   3.842
 1052SOL    HW1 4055   3.304   0.378   3.873
 1052SOL    HW2 4056   3.172   0.349   3.781
 1053SOL     OW 4057   3.786   5.013   3.758
 1053SOL    HW1 4058   3.807   4.967   3.673
 1053SOL    HW2 4059   3.692   5.047   3.755
 1054SOL     OW 4060   3.893   6.033   4.507
 1054SOL    HW1 4061   3.880   6.096   4.583
 1054SOL    HW2 4062   3.880   5.939   4.538
 1055SOL     OW 4063   4.139   4.913   4.388
 1055SOL    HW1 4064   4.238   4.907   4.376
 1055SOL    HW2 4065   4.093   4.866   4.312
 1056SOL     OW 4066   2.630   5.932   0.059
 1056SOL    HW1 4067   2.582   6.002   0.112
 1056SOL    HW2 4068   2.725   5.960   0.045
 1057SOL     OW 4069   3.722   4.032   1.451
 1057SOL    HW1 4070   3.628   4.005   1.428
 1057SOL    HW2 4071   3.721   4.088   1.534
 1058SOL     OW 4072   2.958   6.673   1.824
 1058SOL    HW1 4073   3.034   6.739   1.816
 1058SOL    HW2 4074   2.974   6.615   1.904
 1059SOL     OW 4075   4.391   0.501   1.105
 1059SOL    HW1 4076   4.425   0.490   1.199
 1059SOL    HW2 4077   4.364   0.596   1.091
 1060SOL     OW 4078   3.419   1.645   4.440
 1060SOL    HW1 4079   3.360   1.695   4.377
 1060SOL    HW2 4080   3.365   1.613   4.518
 1061SOL     OW 4081   2.507   5.805   0.944
 1061SOL    HW1 4082   2.447   5.740   0.897
 1061SOL    HW2 4083   2.520   5.776   1.039
 1062SOL     OW 4084   5.180   4.459   4.472
 1062SOL    HW1 4085   5.258   4.403   4.442
 1062SOL    HW2 4086   5.098   4.403   4.475
 1063SOL     OW 4087   3.624   2.006   6.188
 1063SOL    HW1 4088   3.645   2.082   6.126
 1063SOL    HW2 4089   3.685   1.929   6.168
 1064SOL     OW 4090   0.454   3.523   2.927
 1064SOL    HW1 4091   0.484   3.618   2.933
 1064SOL    HW2 4092   0.508   3.467   2.990
 1065SOL     OW 4093   4.656   5.096   6.267
 1065SOL    HW1 4094   4.731   5.030   6.263
 1065SOL    HW2 4095   4.615   5.095   6.358
 1066SOL     OW 4096   4.665   0.413   3.630
 1066SOL    HW1 4097   4.717   0.411   3.715
 1066SOL    HW2 4098   4.712   0.360   3.560
 1067SOL     OW 4099   3.177   3.855   0.256
 1067SOL    HW1 4100   3.153   3.934   0.201
 1067SOL    HW2 4101   3.242   3.798   0.206
 1068SOL     OW 4102   0.792   5.220   1.652
 1068SOL    HW1 4103   0.806   5.207   1.750
 1068SOL    HW2 4104   0.876   5.195   1.603
 1069SOL     OW 4105   3.349   3.143   2.647
 1069SOL    HW1 4106   3.419   3.191   2.595
 1069SOL    HW2 4107   3.354   3.170   2.743
 1070SOL     OW 4108   1.931   5.863   0.681
 1070SOL    HW1 4109   1.868   5.883   0.606
 1070SOL    HW2 4110   2.022   5.900   0.659
 1071SOL     OW 4111   5.273   5.801   3.308
 1071SOL    HW1 4112   5.198   5.852   3.265
 1071SOL    HW2 4113   5.236   5.718   3.351
 1072SOL     OW 4114   4.011   5.782   3.164
 1072SOL    HW1 4115   3.991   5.740   3.253
 1072SOL    HW2 4116   4.096   5.742   3.128
 1073SOL     OW 4117   2.839   5.326   3.328
 1073SOL    HW1 4118   2.880   5.255   3.271
 1073SOL    HW2 4119   2.901   5.349   3.403
 1074SOL     OW 4120   1.782   4.576   3.427
 1074SOL    HW1 4121   1.705   4.538   3.375
 1074SOL    HW2 4122   1.803   4.668   3.393
 1075SOL     OW 4123   0.620   4.136   2.386
 1075SOL    HW1 4124   0.653   4.208   2.447
 1075SOL    HW2 4125   0.565   4.177   2.313
 1076SOL     OW 4126   5.732   3.591   3.257
 1076SOL    HW1 4127   5.704   3.505   3.298
 1076SOL    HW2 4128   5.831   3.604   3.269
 1077SOL     OW 4129   4.464   0.322   1.829
 1077SOL    HW1 4130   4.542   0.291   1.774
 1077SOL    HW2 4131   4.386   0.339   1.769
 1078SOL     OW 4132   6.690   2.839   2.495
 1078SOL    HW1 4133   6.780   2.856   2.535
 1078SOL    HW2 4134   6.628   2.806   2.565
 1079SOL     OW 4135   1.442   4.717   3.185
 1079SOL    HW1 4136   1.379   4.752   3.116
 1079SOL    HW2 4137   1.512   4.786   3.204
 1080SOL     OW 4138   1.962   5.584   3.626
 1080SOL    HW1 4139   1.881   5.633   3.596
 1080SOL    HW2 4140   1.986   5.611   3.719
 1081SOL     OW 4141   1.618   0.316   0.067
 1081SOL    HW1 4142   1.607   0.252   7.012
 1081SOL    HW2 4143   1.600   0.409   0.036
 1082SOL     OW 4144   2.222   0.158   1.178
 1082SOL    HW1 4145   2.252   0.241   1.130
 1082SOL    HW2 4146   2.150   0.114   1.125
 1083SOL     OW 4147   3.761   2.777   1.779
 1083SOL    HW1 4148   3.830   2.840   1.814
 1083SOL    HW2 4149   3.684   2.829   1.741
 1084SOL     OW 4150   6.355   3.903   1.589
 1084SOL    HW1 4151   6.257   3.890   1.574
 1084SOL    HW2 4152   6.394   3.955   1.512
 1085SOL     OW 4153   1.563   5.593   4.194
 1085SOL    HW1 4154   1.584   5.554   4.105
 1085SOL    HW2 4155   1.547   5.692   4.185
 1086SOL     OW 4156   3.112   5.649   2.866
 1086SOL    HW1 4157   3.193   5.699   2.836
 1086SOL    HW2 4158   3.125   5.551   2.849
 1087SOL     OW 4159   3.727   3.051   5.365
 1087SOL    HW1 4160   3.746   2.990   5.288
 1087SOL    HW2 4161   3.813   3.089   5.400
 1088SOL     OW 4162   6.979   4.347   2.756
 1088SOL    HW1 4163   7.012   4.437   2.730
 1088SOL    HW2 4164   7.004   4.328   2.851
 1089SOL     OW 4165   6.391   0.001   3.246
 1089SOL    HW1 4166   6.400   0.099   3.230
 1089SOL    HW2 4167   6.349   6.980   3.167
 1090SOL     OW 4168   2.072   2.689   6.291
 1090SOL    HW1 4169   2.162   2.723   6.316
 1090SOL    HW2 4170   2.081   2.622   6.217
 1091SOL     OW 4171   0.970   2.093   6.035
 1091SOL    HW1 4172   0.978   1.994   6.048
 1091SOL    HW2 4173   0.986   2.115   5.939
 1092SOL     OW 4174   3.077   5.025   1.629
 1092SOL    HW1 4175   3.041   5.069   1.547
 1092SOL    HW2 4176   3.094   4.928   1.610
 1093SOL     OW 4177   0.379   2.389   1.535
 1093SOL    HW1 4178   0.354   2.401   1.631
 1093SOL    HW2 4179   0.419   2.298   1.522
 1094SOL     OW 4180   1.133   6.227   2.423
 1094SOL    HW1 4181   1.110   6.137   2.459
 1094SOL    HW2 4182   1.229   6.227   2.393
 1095SOL     OW 4183   0.765   3.322   6.387
 1095SOL    HW1 4184   0.781   3.405   6.333
 1095SOL    HW2 4185   0.670   3.319   6.416
 1096SOL     OW 4186   3.323   2.887   2.399
 1096SOL    HW1 4187   3.379   2.832   2.337
 1096SOL    HW2 4188   3.227   2.882   2.371
 1097SOL     OW 4189   2.799   5.118   5.544
 1097SOL    HW1 4190   2.738   5.184   5.500
 1097SOL    HW2 4191   2.843   5.061   5.474
 1098SOL     OW 4192   3.122   0.568   2.586
 1098SOL    HW1 4193   3.217   0.599   2.589
 1098SOL    HW2 4194   3.119   0.468   2.584
 1099SOL     OW 4195   3.096   0.333   2.237
 1099SOL    HW1 4196   3.042   0.358   2.317
 1099SOL    HW2 4197   3.142   0.246   2.254
 1100SOL     OW 4198   6.638   0.886   0.094
 1100SOL    HW1 4199   6.714   0.910   0.034
 1100SOL    HW2 4200   6.631   0.786   0.100
 1101SOL     OW 4201   5.321   3.528   1.111
 1101SOL    HW1 4202   5.275   3.561   1.029
 1101SOL    HW2 4203   5.287   3.436   1.134
 1102SOL     OW 4204   6.863   3.593   4.159
 1102SOL    HW1 4205   6.915   3.557   4.082
 1102SOL    HW2 4206   6.895   3.549   4.243
 1103SOL     OW 4207   0.525   2.937   0.272
 1103SOL    HW1 4208   0.624   2.946   0.266
 1103SOL    HW2 4209   0.485   3.025   0.298
 1104SOL     OW 4210   2.361   5.538   5.488
 1104SOL    HW1 4211   2.302   5.532   5.569
 1104SOL    HW2 4212   2.456   5.521   5.514
 1105SOL     OW 4213   3.956   5.651   0.707
 1105SOL    HW1 4214   3.921   5.736   0.746
 1105SOL    HW2 4215   4.055   5.658   0.695
 1106SOL     OW 4216   0.758   1.845   0.085
 1106SOL    HW1 4217   0.845   1.796   0.082
 1106SOL    HW2 4218   0.685   1.782   0.110
 1107SOL     OW 4219   6.516   6.891   1.561
 1107SOL    HW1 4220   6.612   6.868   1.545
 1107SOL    HW2 4221   6.483   6.845   1.643
 1108SOL     OW 4222   1.454   0.842   0.357
 1108SOL    HW1 4223   1.526   0.869   0.421
 1108SOL    HW2 4224   1.369   0.889   0.380
 1109SOL     OW 4225   4.240   1.025   3.560
 1109SOL    HW1 4226   4.144   1.031   3.586
 1109SOL    HW2 4227   4.269   1.111   3.518
 1110SOL     OW 4228   3.547   3.111   3.120
 1110SOL    HW1 4229   3.469   3.067   3.164
 1110SOL    HW2 4230   3.614   3.042   3.094
 1111SOL     OW 4231   4.216   6.467   6.989
 1111SOL    HW1 4232   4.265   6.546   0.004
 1111SOL    HW2 4233   4.129   6.456   0.016
 1112SOL     OW 4234   0.923   1.390   2.702
 1112SOL    HW1 4235   0.845   1.453   2.711
 1112SOL    HW2 4236   0.891   1.296   2.719
 1113SOL     OW 4237   6.580   3.545   1.666
 1113SOL    HW1 4238   6.506   3.537   1.733
 1113SOL    HW2 4239   6.548   3.510   1.577
 1114SOL     OW 4240   6.205   1.403   5.745
 1114SOL    HW1 4241   6.118   1.426   5.787
 1114SOL    HW2 4242   6.196   1.318   5.692
 1115SOL     OW 4243   2.323   5.221   0.543
 1115SOL    HW1 4244   2.268   5.287   0.593
 1115SOL    HW2 4245   2.313   5.237   0.444
 1116SOL     OW 4246   3.778   6.315   6.477
 1116SOL    HW1 4247   3.777   6.215   6.488
 1116SOL    HW2 4248   3.774   6.358   6.566
 1117SOL     OW 4249   2.462   3.234   1.426
 1117SOL    HW1 4250   2.459   3.246   1.327
 1117SOL    HW2 4251   2.498   3.143   1.447
 1118SOL     OW 4252   1.454   2.721   1.698
 1118SOL    HW1 4253   1.431   2.743   1.793
 1118SOL    HW2 4254   1.501   2.633   1.695
 1119SOL     OW 4255   3.008   3.922   3.435
 1119SOL    HW1 4256   3.013   4.011   3.480
 1119SOL    HW2 4257   2.968   3.855   3.498
 1120SOL     OW 4258   3.317   1.131   3.874
 1120SOL    HW1 4259   3.292   1.172   3.787
 1120SOL    HW2 4260   3.403   1.171   3.907
 1121SOL     OW 4261   4.790   4.057   3.155
 1121SOL    HW1 4262   4.782   4.048   3.056
 1121SOL    HW2 4263   4.810   3.968   3.195
 1122SOL     OW 4264   4.345   4.897   6.314
 1122SOL    HW1 4265   4.258   4.922   6.355
 1122SOL    HW2 4266   4.418   4.905   6.383
 1123SOL     OW 4267   3.991   0.860   2.288
 1123SOL    HW1 4268   3.971   0.854   2.385
 1123SOL    HW2 4269   4.081   0.902   2.275
 1124SOL     OW 4270   1.826   5.150   3.985
 1124SOL    HW1 4271   1.889   5.214   3.940
 1124SOL    HW2 4272   1.800   5.078   3.920
 1125SOL     OW 4273   3.275   4.040   5.391
 1125SOL    HW1 4274   3.218   4.113   5.355
 1125SOL    HW2 4275   3.284   4.049   5.490
 1126SOL     OW 4276   6.293   0.491   2.237
 1126SOL    HW1 4277   6.246   0.579   2.233
 1126SOL    HW2 4278   6.255   0.437   2.312
 1127SOL     OW 4279   2.169   5.214   6.176
 1127SOL    HW1 4280   2.252   5.158   6.168
 1127SOL    HW2 4281   2.102   5.184   6.108
 1128SOL     OW 4282   2.477   2.517   4.924
 1128SOL    HW1 4283   2.485   2.599   4.867
 1128SOL    HW2 4284   2.556   2.457   4.906
 1129SOL     OW 4285   4.360   5.919   6.381
 1129SOL    HW1 4286   4.295   5.855   6.340
 1129SOL    HW2 4287   4.416   5.961   6.308
 1130SOL     OW 4288   0.681   4.943   5.725
 1130SOL    HW1 4289   0.599   4.923   5.779
 1130SOL    HW2 4290   0.698   5.041   5.726
 1131SOL     OW 4291   6.994   4.743   6.351
 1131SOL    HW1 4292   6.917   4.767   6.411
 1131SOL    HW2 4293   6.977   4.778   6.259
 1132SOL     OW 4294   5.384   6.721   4.716
 1132SOL    HW1 4295   5.354   6.689   4.626
 1132SOL    HW2 4296   5.348   6.813   4.733
 1133SOL     OW 4297   6.721   2.197   6.925
 1133SOL    HW1 4298   6.755   2.231   6.838
 1133SOL    HW2 4299   6.654   2.260   6.962
 1134SOL     OW 4300   0.260   3.022   5.721
 1134SOL    HW1 4301   0.258   3.015   5.821
 1134SOL    HW2 4302   0.246   2.932   5.681
 1135SOL     OW 4303   6.989   1.428   4.291
 1135SOL    HW1 4304   6.999   1.383   4.203
 1135SOL    HW2 4305   6.891   1.439   4.312
 1136SOL     OW 4306   3.647   5.344   4.044
 1136SOL    HW1 4307   3.650   5.444   4.047
 1136SOL    HW2 4308   3.732   5.308   4.081
 1137SOL     OW 4309   0.751   0.615   0.048
 1137SOL    HW1 4310   0.825   0.567   0.001
 1137SOL    HW2 4311   0.676   0.551   0.064
 1138SOL     OW 4312   1.015   3.245   5.801
 1138SOL    HW1 4313   1.055   3.258   5.710
 1138SOL    HW2 4314   1.037   3.324   5.859
 1139SOL     OW 4315   0.830   0.267   2.308
 1139SOL    HW1 4316   0.879   0.332   2.251
 1139SOL    HW2 4317   0.792   0.314   2.388
 1140SOL     OW 4318   3.969   1.568   3.161
 1140SOL    HW1 4319   3.934   1.545   3.251
 1140SOL    HW2 4320   3.950   1.664   3.141
 1141SOL     OW 4321   6.793   6.127   5.997
 1141SOL    HW1 4322   6.856   6.145   5.921
 1141SOL    HW2 4323   6.774   6.029   6.002
 1142SOL     OW 4324   6.432   6.881   5.258
 1142SOL    HW1 4325   6.451   6.932   5.341
 1142SOL    HW2 4326   6.519   6.853   5.216
 1143SOL     OW 4327   4.934   2.920   1.038
 1143SOL    HW1 4328   5.020   2.934   1.087
 1143SOL    HW2 4329   4.893   2.834   1.067
 1144SOL     OW 4330   1.019   6.370   5.007
 1144SOL    HW1 4331   1.023   6.348   5.105
 1144SOL    HW2 4332   0.926   6.395   4.982
 1145SOL     OW 4333   2.173   4.990   4.676
 1145SOL    HW1 4334   2.257   4.980   4.729
 1145SOL    HW2 4335   2.103   5.034   4.732
 1146SOL     OW 4336   5.946   1.857   1.907
 1146SOL    HW1 4337   5.913   1.919   1.835
 1146SOL    HW2 4338   5.881   1.858   1.983
 1147SOL     OW 4339   6.366   3.695   2.192
 1147SOL    HW1 4340   6.282   3.729   2.151
 1147SOL    HW2 4341   6.352   3.679   2.290
 1148SOL     OW 4342   5.953   0.342   6.272
 1148SOL    HW1 4343   6.025   0.411   6.265
 1148SOL    HW2 4344   5.967   0.272   6.201
 1149SOL     OW 4345   4.872   3.278   3.269
 1149SOL    HW1 4346   4.853   3.179   3.263
 1149SOL    HW2 4347   4.942   3.295   3.337
 1150SOL     OW 4348   1.665   6.062   5.237
 1150SOL    HW1 4349   1.655   5.971   5.196
 1150SOL    HW2 4350   1.701   6.054   5.329
 1151SOL     OW 4351   2.560   5.283   7.016
 1151SOL    HW1 4352   2.472   5.260   0.035
 1151SOL    HW2 4353   2.557   5.376   6.979
 1152SOL     OW 4354   7.002   0.836   3.523
 1152SOL    HW1 4355   0.078   0.818   3.509
 1152SOL    HW2 4356   6.986   0.857   3.619
 1153SOL     OW 4357   2.191   4.719   2.404
 1153SOL    HW1 4358   2.213   4.810   2.369
 1153SOL    HW2 4359   2.245   4.702   2.486
 1154SOL     OW 4360   1.699   4.098   2.152
 1154SOL    HW1 4361   1.743   4.018   2.190
 1154SOL    HW2 4362   1.727   4.180   2.203
 1155SOL     OW 4363   4.559   0.517   2.000
 1155SOL    HW1 4364   4.484   0.453   1.982
 1155SOL    HW2 4365   4.598   0.549   1.914
 1156SOL     OW 4366   2.077   0.869   4.522
 1156SOL    HW1 4367   2.114   0.949   4.568
 1156SOL    HW2 4368   1.993   0.839   4.568
 1157SOL     OW 4369   1.295   3.582   3.632
 1157SOL    HW1 4370   1.299   3.596   3.533
 1157SOL    HW2 4371   1.383   3.547   3.664
 1158SOL     OW 4372   4.677   6.026   6.123
 1158SOL    HW1 4373   4.579   6.009   6.132
 1158SOL    HW2 4374   4.728   5.943   6.144
 1159SOL     OW 4375   6.092   4.430   2.551
 1159SOL    HW1 4376   6.085   4.527   2.575
 1159SOL    HW2 4377   6.093   4.375   2.634
 1160SOL     OW 4378   2.665   2.783   1.093
 1160SOL    HW1 4379   2.744   2.797   1.153
 1160SOL    HW2 4380   2.692   2.726   1.016
 1161SOL     OW 4381   3.928   0.521   3.697
 1161SOL    HW1 4382   3.940   0.570   3.610
 1161SOL    HW2 4383   3.982   0.437   3.694
 1162SOL     OW 4384   3.494   5.164   1.692
 1162SOL    HW1 4385   3.406   5.202   1.720
 1162SOL    HW2 4386   3.519   5.199   1.602
 1163SOL     OW 4387   4.757   6.848   2.450
 1163SOL    HW1 4388   4.682   6.909   2.423
 1163SOL    HW2 4389   4.723   6.755   2.459
 1164SOL     OW 4390   6.458   4.167   4.672
 1164SOL    HW1 4391   6.521   4.243   4.657
 1164SOL    HW2 4392   6.392   4.163   4.597
 1165SOL     OW 4393   0.673   4.611   2.047
 1165SOL    HW1 4394   0.654   4.701   2.086
 1165SOL    HW2 4395   0.655   4.613   1.948
 1166SOL     OW 4396   3.290   0.696   6.671
 1166SOL    HW1 4397   3.292   0.703   6.771
 1166SOL    HW2 4398   3.285   0.788   6.631
 1167SOL     OW 4399   4.418   1.595   5.495
 1167SOL    HW1 4400   4.433   1.518   5.434
 1167SOL    HW2 4401   4.401   1.678   5.441
 1168SOL     OW 4402   5.721   1.098   3.595
 1168SOL    HW1 4403   5.680   1.038   3.527
 1168SOL    HW2 4404   5.660   1.104   3.675
 1169SOL     OW 4405   1.627   2.851   1.098
 1169SOL    HW1 4406   1.530   2.835   1.077
 1169SOL    HW2 4407   1.655   2.940   1.062
 1170SOL     OW 4408   2.444   0.812   1.571
 1170SOL    HW1 4409   2.506   0.776   1.502
 1170SOL    HW2 4410   2.479   0.900   1.604
 1171SOL     OW 4411   4.532   0.541   0.482
 1171SOL    HW1 4412   4.502   0.636   0.482
 1171SOL    HW2 4413   4.493   0.494   0.562
 1172SOL     OW 4414   3.046   3.022   5.788
 1172SOL    HW1 4415   3.102   3.103   5.775
 1172SOL    HW2 4416   3.009   2.992   5.701
 1173SOL     OW 4417   5.163   6.452   5.811
 1173SOL    HW1 4418   5.211   6.531   5.774
 1173SOL    HW2 4419   5.163   6.378   5.744
 1174SOL     OW 4420   3.879   5.864   6.958
 1174SOL    HW1 4421   3.934   5.912   6.891
 1174SOL    HW2 4422   3.929   5.856   0.022
 1175SOL     OW 4423   6.985   5.228   4.646
 1175SOL    HW1 4424   7.016   5.295   4.712
 1175SOL    HW2 4425   0.021   5.146   4.651
 1176SOL     OW 4426   6.022   2.762   1.511
 1176SOL    HW1 4427   5.981   2.757   1.419
 1176SOL    HW2 4428   6.056   2.855   1.526
 1177SOL     OW 4429   6.553   3.515   6.016
 1177SOL    HW1 4430   6.649   3.514   6.045
 1177SOL    HW2 4431   6.547   3.536   5.919
 1178SOL     OW 4432   4.854   5.374   2.489
 1178SOL    HW1 4433   4.805   5.454   2.522
 1178SOL    HW2 4434   4.789   5.302   2.467
 1179SOL     OW 4435   1.177   5.403   6.035
 1179SOL    HW1 4436   1.197   5.417   5.938
 1179SOL    HW2 4437   1.246   5.450   6.090
 1180SOL     OW 4438   2.356   0.433   4.367
 1180SOL    HW1 4439   2.317   0.439   4.459
 1180SOL    HW2 4440   2.397   0.342   4.355
 1181SOL     OW 4441   1.451   4.673   2.325
 1181SOL    HW1 4442   1.418   4.579   2.326
 1181SOL    HW2 4443   1.373   4.736   2.317
 1182SOL     OW 4444   0.828   3.947   3.984
 1182SOL    HW1 4445   0.764   4.009   3.938
 1182SOL    HW2 4446   0.890   4.001   4.042
 1183SOL     OW 4447   4.047   5.452   0.955
 1183SOL    HW1 4448   4.020   5.516   0.884
 1183SOL    HW2 4449   3.966   5.422   1.005
 1184SOL     OW 4450   3.276   2.947   6.381
 1184SOL    HW1 4451   3.265   2.975   6.286
 1184SOL    HW2 4452   3.372   2.953   6.407
 1185SOL     OW 4453   3.334   1.239   6.383
 1185SOL    HW1 4454   3.255   1.268   6.438
 1185SOL    HW2 4455   3.303   1.178   6.310
 1186SOL     OW 4456   3.830   6.967   4.942
 1186SOL    HW1 4457   3.834   6.872   4.910
 1186SOL    HW2 4458   3.784   0.002   4.874
 1187SOL     OW 4459   0.894   2.012   4.662
 1187SOL    HW1 4460   0.936   1.936   4.612
 1187SOL    HW2 4461   0.930   2.015   4.755
 1188SOL     OW 4462   1.581   0.892   5.093
 1188SOL    HW1 4463   1.667   0.854   5.058
 1188SOL    HW2 4464   1.598   0.938   5.180
 1189SOL     OW 4465   1.365   0.870   1.266
 1189SOL    HW1 4466   1.312   0.923   1.333
 1189SOL    HW2 4467   1.462   0.885   1.281
 1190SOL     OW 4468   3.656   6.027   2.262
 1190SOL    HW1 4469   3.643   5.928   2.267
 1190SOL    HW2 4470   3.644   6.066   2.353
 1191SOL     OW 4471   2.282   4.400   1.904
 1191SOL    HW1 4472   2.321   4.320   1.860
 1191SOL    HW2 4473   2.352   4.470   1.915
 1192SOL     OW 4474   3.703   5.583   2.901
 1192SOL    HW1 4475   3.746   5.569   2.811
 1192SOL    HW2 4476   3.731   5.671   2.938
 1193SOL     OW 4477   3.042   0.805   4.121
 1193SOL    HW1 4478   3.035   0.869   4.196
 1193SOL    HW2 4479   3.103   0.842   4.050
 1194SOL     OW 4480   6.835   1.965   2.841
 1194SOL    HW1 4481   6.757   1.993   2.785
 1194SOL    HW2 4482   6.813   1.980   2.938
 1195SOL     OW 4483   3.335   0.074   0.291
 1195SOL    HW1 4484   3.396   0.137   0.338
 1195SOL    HW2 4485   3.250   0.121   0.267
 1196SOL     OW 4486   1.832   5.795   3.403
 1196SOL    HW1 4487   1.858   5.760   3.313
 1196SOL    HW2 4488   1.884   5.879   3.422
 1197SOL     OW 4489   3.833   4.593   6.981
 1197SOL    HW1 4490   3.876   4.618   0.046
 1197SOL    HW2 4491   3.739   4.564   6.997
 1198SOL     OW 4492   3.380   0.777   3.172
 1198SOL    HW1 4493   3.419   0.742   3.088
 1198SOL    HW2 4494   3.451   0.785   3.242
 1199SOL     OW 4495   3.768   3.664   4.037
 1199SOL    HW1 4496   3.806   3.572   4.028
 1199SOL    HW2 4497   3.832   3.730   3.996
 1200SOL     OW 4498   4.569   3.519   1.469
 1200SOL    HW1 4499   4.666   3.495   1.468
 1200SOL    HW2 4500   4.538   3.530   1.564
 1201SOL     OW 4501   1.532   2.100   5.210
 1201SOL    HW1 4502   1.534   2.073   5.306
 1201SOL    HW2 4503   1.602   2.050   5.160
 1202SOL     OW 4504   6.383   6.666   4.402
 1202SOL    HW1 4505   6.474   6.630   4.381
 1202SOL    HW2 4506   6.364   6.650   4.499
 1203SOL     OW 4507   6.486   0.172   2.329
 1203SOL    HW1 4508   6.478   0.188   2.230
 1203SOL    HW2 4509   6.580   0.145   2.351
 1204SOL     OW 4510   2.065   0.131   7.010
 1204SOL    HW1 4511   2.047   0.062   0.058
 1204SOL    HW2 4512   1.993   0.130   6.941
 1205SOL     OW 4513   0.752   3.121   6.055
 1205SOL    HW1 4514   0.829   3.181   6.076
 1205SOL    HW2 4515   0.671   3.150   6.105
 1206SOL     OW 4516   6.270   1.234   5.125
 1206SOL    HW1 4517   6.368   1.250   5.139
 1206SOL    HW2 4518   6.217   1.293   5.186
 1207SOL     OW 4519   6.576   6.232   6.085
 1207SOL    HW1 4520   6.654   6.181   6.050
 1207SOL    HW2 4521   6.491   6.188   6.056
 1208SOL     OW 4522   3.889   3.395   2.821
 1208SOL    HW1 4523   3.856   3.479   2.778
 1208SOL    HW2 4524   3.824   3.364   2.889
 1209SOL     OW 4525   6.965   3.814   4.954
 1209SOL    HW1 4526   6.917   3.848   5.034
 1209SOL    HW2 4527   6.914   3.837   4.871
 1210SOL     OW 4528   2.397   0.191   2.891
 1210SOL    HW1 4529   2.378   0.284   2.923
 1210SOL    HW2 4530   2.376   0.125   2.963
 1211SOL     OW 4531   7.016   3.607   3.501
 1211SOL    HW1 4532   0.088   3.592   3.535
 1211SOL    HW2 4533   6.983   3.524   3.456
 1212SOL     OW 4534   0.937   4.378   3.378
 1212SOL    HW1 4535   0.933   4.460   3.322
 1212SOL    HW2 4536   1.024   4.377   3.429
 1213SOL     OW 4537   5.912   3.598   5.299
 1213SOL    HW1 4538   5.911   3.611   5.200
 1213SOL    HW2 4539   5.983   3.655   5.340
 1214SOL     OW 4540   1.313   1.842   1.264
 1214SOL    HW1 4541   1.343   1.747   1.266
 1214SOL    HW2 4542   1.213   1.845   1.253
 1215SOL     OW 4543   0.988   5.553   2.549
 1215SOL    HW1 4544   0.971   5.626   2.483
 1215SOL    HW2 4545   1.080   5.563   2.586
 1216SOL     OW 4546   2.005   0.194   1.393
 1216SOL    HW1 4547   2.085   0.197   1.333
 1216SOL    HW2 4548   2.027   0.239   1.480
 1217SOL     OW 4549   1.793   2.524   3.294
 1217SOL    HW1 4550   1.851   2.561   3.222
 1217SOL    HW2 4551   1.835   2.442   3.332
 1218SOL     OW 4552   0.352   3.841   3.440
 1218SOL    HW1 4553   0.451   3.854   3.439
 1218SOL    HW2 4554   0.309   3.901   3.372
 1219SOL     OW 4555   2.510   6.079   2.814
 1219SOL    HW1 4556   2.420   6.107   2.847
 1219SOL    HW2 4557   2.581   6.120   2.872
 1220SOL     OW 4558   6.388   5.232   2.592
 1220SOL    HW1 4559   6.429   5.229   2.501
 1220SOL    HW2 4560   6.318   5.304   2.594
 1221SOL     OW 4561   4.742   4.813   5.902
 1221SOL    HW1 4562   4.690   4.894   5.931
 1221SOL    HW2 4563   4.681   4.734   5.897
 1222SOL     OW 4564   6.735   4.200   1.771
 1222SOL    HW1 4565   6.729   4.139   1.850
 1222SOL    HW2 4566   6.754   4.147   1.689
 1223SOL     OW 4567   0.263   4.539   4.662
 1223SOL    HW1 4568   0.220   4.465   4.611
 1223SOL    HW2 4569   0.262   4.518   4.760
 1224SOL     OW 4570   4.592   4.075   1.342
 1224SOL    HW1 4571   4.682   4.120   1.344
 1224SOL    HW2 4572   4.548   4.084   1.431
 1225SOL     OW 4573   4.847   1.770   6.285
 1225SOL    HW1 4574   4.918   1.813   6.341
 1225SOL    HW2 4575   4.832   1.825   6.203
 1226SOL     OW 4576   6.007   5.703   0.563
 1226SOL    HW1 4577   5.916   5.663   0.569
 1226SOL    HW2 4578   6.069   5.654   0.624
 1227SOL     OW 4579   4.974   4.114   6.717
 1227SOL    HW1 4580   4.972   4.192   6.779
 1227SOL    HW2 4581   5.032   4.135   6.638
 1228SOL     OW 4582   4.045   3.674   4.710
 1228SOL    HW1 4583   4.088   3.620   4.783
 1228SOL    HW2 4584   4.035   3.768   4.741
 1229SOL     OW 4585   2.070   5.546   2.293
 1229SOL    HW1 4586   2.132   5.498   2.356
 1229SOL    HW2 4587   2.103   5.639   2.278
 1230SOL     OW 4588   4.884   4.608   0.088
 1230SOL    HW1 4589   4.865   4.659   0.005
 1230SOL    HW2 4590   4.868   4.511   0.072
 1231SOL     OW 4591   2.090   0.729   0.409
 1231SOL    HW1 4592   2.150   0.713   0.487
 1231SOL    HW2 4593   2.071   0.643   0.363
 1232SOL     OW 4594   2.330   1.662   5.828
 1232SOL    HW1 4595   2.251   1.689   5.883
 1232SOL    HW2 4596   2.361   1.572   5.857
 1233SOL     OW 4597   0.411   5.360   4.535
 1233SOL    HW1 4598   0.482   5.379   4.603
 1233SOL    HW2 4599   0.454   5.333   4.448
 1234SOL     OW 4600   6.796   4.344   5.811
 1234SOL    HW1 4601   6.755   4.359   5.901
 1234SOL    HW2 4602   6.887   4.304   5.822
 1235SOL     OW 4603   6.162   5.194   0.888
 1235SOL    HW1 4604   6.220   5.186   0.807
 1235SOL    HW2 4605   6.082   5.134   0.878
 1236SOL     OW 4606   0.132   1.386   2.754
 1236SOL    HW1 4607   0.225   1.361   2.728
 1236SOL    HW2 4608   0.067   1.342   2.692
 1237SOL     OW 4609   0.677   0.254   4.118
 1237SOL    HW1 4610   0.663   0.247   4.019
 1237SOL    HW2 4611   0.737   0.331   4.138
 1238SOL     OW 4612   0.198   0.818   4.456
 1238SOL    HW1 4613   0.128   0.887   4.473
 1238SOL    HW2 4614   0.154   0.731   4.433
 1239SOL     OW 4615   5.329   4.662   3.430
 1239SOL    HW1 4616   5.339   4.675   3.331
 1239SOL    HW2 4617   5.246   4.709   3.462
 1240SOL     OW 4618   0.775   4.402   1.288
 1240SOL    HW1 4619   0.844   4.372   1.222
 1240SOL    HW2 4620   0.683   4.387   1.250
 1241SOL     OW 4621   3.063   5.164   6.046
 1241SOL    HW1 4622   3.071   5.082   6.103
 1241SOL    HW2 4623   3.115   5.151   5.961
 1242SOL     OW 4624   1.907   5.560   0.935
 1242SOL    HW1 4625   1.937   5.502   1.010
 1242SOL    HW2 4626   1.926   5.514   0.848
 1243SOL     OW 4627   6.838   3.733   3.680
 1243SOL    HW1 4628   6.901   3.777   3.743
 1243SOL    HW2 4629   6.889   3.673   3.618
 1244SOL     OW 4630   0.098   6.773   4.592
 1244SOL    HW1 4631   0.031   6.702   4.614
 1244SOL    HW2 4632   0.061   6.862   4.616
 1245SOL     OW 4633   4.890   0.195   1.254
 1245SOL    HW1 4634   4.856   0.113   1.208
 1245SOL    HW2 4635   4.990   0.195   1.253
 1246SOL     OW 4636   5.125   2.793   1.973
 1246SOL    HW1 4637   5.025   2.800   1.981
 1246SOL    HW2 4638   5.148   2.723   1.906
 1247SOL     OW 4639   4.764   6.681   2.044
 1247SOL    HW1 4640   4.735   6.660   1.950
 1247SOL    HW2 4641   4.852   6.637   2.062
 1248SOL     OW 4642   0.810   0.101   4.811
 1248SOL    HW1 4643   0.903   0.081   4.842
 1248SOL    HW2 4644   0.769   0.019   4.771
 1249SOL     OW 4645   6.816   6.626   6.347
 1249SOL    HW1 4646   6.825   6.707   6.288
 1249SOL    HW2 4647   6.748   6.564   6.308
 1250SOL     OW 4648   0.478   4.378   5.080
 1250SOL    HW1 4649   0.415   4.396   5.005
 1250SOL    HW2 4650   0.427   4.367   5.165
 1251SOL     OW 4651   2.590   0.644   3.100
 1251SOL    HW1 4652   2.642   0.560   3.086
 1251SOL    HW2 4653   2.523   0.655   3.027
 1252SOL     OW 4654   2.497   5.165   6.377
 1252SOL    HW1 4655   2.471   5.167   6.280
 1252SOL    HW2 4656   2.416   5.155   6.433
 1253SOL     OW 4657   2.774   5.716   0.417
 1253SOL    HW1 4658   2.708   5.791   0.423
 1253SOL    HW2 4659   2.835   5.720   0.496
 1254SOL     OW 4660   6.262   1.085   3.778
 1254SOL    HW1 4661   6.320   1.081   3.859
 1254SOL    HW2 4662   6.186   1.021   3.788
 1255SOL     OW 4663   6.024   2.195   6.089
 1255SOL    HW1 4664   5.951   2.230   6.148
 1255SOL    HW2 4665   6.038   2.258   6.012
 1256SOL     OW 4666   6.879   5.479   5.887
 1256SOL    HW1 4667   6.862   5.567   5.931
 1256SOL    HW2 4668   6.851   5.484   5.791
 1257SOL     OW 4669   6.971   6.580   3.174
 1257SOL    HW1 4670   6.881   6.538   3.167
 1257SOL    HW2 4671   6.990   6.633   3.092
 1258SOL     OW 4672   5.032   5.299   6.646
 1258SOL    HW1 4673   5.031   5.398   6.632
 1258SOL    HW2 4674   5.097   5.276   6.719
 1259SOL     OW 4675   5.583   6.540   4.941
 1259SOL    HW1 4676   5.567   6.566   4.846
 1259SOL    HW2 4677   5.621   6.447   4.943
 1260SOL     OW 4678   3.417   0.804   0.356
 1260SOL    HW1 4679   3.322   0.779   0.378
 1260SOL    HW2 4680   3.474   0.792   0.438
 1261SOL     OW 4681   0.214   4.254   4.770
 1261SOL    HW1 4682   0.194   4.168   4.817
 1261SOL    HW2 4683   0.197   4.242   4.672
 1262SOL     OW 4684   4.142   6.097   1.710
 1262SOL    HW1 4685   4.058   6.145   1.684
 1262SOL    HW2 4686   4.122   6.034   1.786
 1263SOL     OW 4687   6.800   1.164   1.040
 1263SOL    HW1 4688   6.762   1.236   1.098
 1263SOL    HW2 4689   6.884   1.128   1.081
 1264SOL     OW 4690   6.126   2.746   4.909
 1264SOL    HW1 4691   6.133   2.771   5.006
 1264SOL    HW2 4692   6.186   2.804   4.855
 1265SOL     OW 4693   6.105   5.305   4.895
 1265SOL    HW1 4694   6.045   5.226   4.886
 1265SOL    HW2 4695   6.081   5.374   4.827
 1266SOL     OW 4696   2.704   0.788   3.653
 1266SOL    HW1 4697   2.792   0.837   3.653
 1266SOL    HW2 4698   2.652   0.813   3.571
 1267SOL     OW 4699   0.405   4.220   2.207
 1267SOL    HW1 4700   0.342   4.150   2.239
 1267SOL    HW2 4701   0.388   4.239   2.110
 1268SOL     OW 4702   6.086   5.076   6.951
 1268SOL    HW1 4703   6.059   5.171   6.939
 1268SOL    HW2 4704   6.035   5.037   0.006
 1269SOL     OW 4705   0.602   4.605   6.444
 1269SOL    HW1 4706   0.671   4.560   6.388
 1269SOL    HW2 4707   0.511   4.576   6.414
 1270SOL     OW 4708   1.867   1.730   4.302
 1270SOL    HW1 4709   1.828   1.776   4.382
 1270SOL    HW2 4710   1.885   1.798   4.230
 1271SOL     OW 4711   5.556   3.040   3.089
 1271SOL    HW1 4712   5.590   2.953   3.123
 1271SOL    HW2 4713   5.468   3.061   3.132
 1272SOL     OW 4714   6.317   6.500   0.017
 1272SOL    HW1 4715   6.313   6.544   6.949
 1272SOL    HW2 4716   6.273   6.559   0.085
 1273SOL     OW 4717   2.616   6.995   4.961
 1273SOL    HW1 4718   2.656   0.064   4.947
 1273SOL    HW2 4719   2.689   6.928   4.976
 1274SOL     OW 4720   5.458   2.611   1.895
 1274SOL    HW1 4721   5.407   2.690   1.862
 1274SOL    HW2 4722   5.400   2.557   1.956
 1275SOL     OW 4723   3.749   1.374   3.787
 1275SOL    HW1 4724   3.780   1.331   3.703
 1275SOL    HW2 4725   3.689   1.311   3.837
 1276SOL     OW 4726   5.375   6.823   2.607
 1276SOL    HW1 4727   5.419   6.818   2.696
 1276SOL    HW2 4728   5.353   6.730   2.575
 1277SOL     OW 4729   0.956   1.729   4.542
 1277SOL    HW1 4730   1.050   1.696   4.535
 1277SOL    HW2 4731   0.914   1.730   4.452
 1278SOL     OW 4732   3.245   1.876   4.534
 1278SOL    HW1 4733   3.197   1.809   4.591
 1278SOL    HW2 4734   3.187   1.902   4.457
 1279SOL     OW 4735   1.917   4.993   0.420
 1279SOL    HW1 4736   1.891   4.900   0.444
 1279SOL    HW2 4737   1.949   4.995   0.325
 1280SOL     OW 4738   1.321   6.017   2.818
 1280SOL    HW1 4739   1.417   6.032   2.839
 1280SOL    HW2 4740   1.293   6.078   2.744
 1281SOL     OW 4741   0.739   6.489   3.481
 1281SOL    HW1 4742   0.744   6.427   3.403
 1281SOL    HW2 4743   0.645   6.494   3.514
 1282SOL     OW 4744   1.540   6.439   2.497
 1282SOL    HW1 4745   1.477   6.506   2.536
 1282SOL    HW2 4746   1.584   6.387   2.571
 1283SOL     OW 4747   5.119   4.081   5.230
 1283SOL    HW1 4748   5.141   4.015   5.159
 1283SOL    HW2 4749   5.076   4.161   5.190
 1284SOL     OW 4750   2.818   2.040   2.997
 1284SOL    HW1 4751   2.779   2.099   3.067
 1284SOL    HW2 4752   2.864   1.963   3.041
 1285SOL     OW 4753   5.829   2.611   6.012
 1285SOL    HW1 4754   5.905   2.673   5.992
 1285SOL    HW2 4755   5.824   2.541   5.941
 1286SOL     OW 4756   5.666   5.889   0.794
 1286SOL    HW1 4757   5.699   5.804   0.753
 1286SOL    HW2 4758   5.703   5.898   0.887
 1287SOL     OW 4759   6.555   3.592   5.772
 1287SOL    HW1 4760   6.609   3.590   5.688
 1287SOL    HW2 4761   6.507   3.680   5.778
 1288SOL     OW 4762   6.524   3.578   3.443
 1288SOL    HW1 4763   6.558   3.494   3.486
 1288SOL    HW2 4764   6.452   3.618   3.500
 1289SOL     OW 4765   0.200   5.228   3.046
 1289SOL    HW1 4766   0.285   5.229   2.992
 1289SOL    HW2 4767   0.122   5.237   2.984
 1290SOL     OW 4768   6.906   0.143   2.135
 1290SOL    HW1 4769   6.920   0.083   2.057
 1290SOL    HW2 4770   6.817   0.124   2.177
 1291SOL     OW 4771   1.269   6.404   1.588
 1291SOL    HW1 4772   1.279   6.489   1.640
 1291SOL    HW2 4773   1.173   6.392   1.564
 1292SOL     OW 4774   1.389   5.753   0.226
 1292SOL    HW1 4775   1.404   5.727   0.321
 1292SOL    HW2 4776   1.292   5.771   0.211
 1293SOL     OW 4777   6.367   2.235   6.564
 1293SOL    HW1 4778   6.357   2.225   6.465
 1293SOL    HW2 4779   6.398   2.149   6.603
 1294SOL     OW 4780   0.673   1.795   3.621
 1294SOL    HW1 4781   0.705   1.889   3.610
 1294SOL    HW2 4782   0.573   1.794   3.619
 1295SOL     OW 4783   5.035   3.983   1.336
 1295SOL    HW1 4784   4.996   4.001   1.245
 1295SOL    HW2 4785   5.058   4.069   1.380
 1296SOL     OW 4786   3.823   1.357   0.488
 1296SOL    HW1 4787   3.787   1.316   0.404
 1296SOL    HW2 4788   3.768   1.437   0.512
 1297SOL     OW 4789   6.412   1.066   6.029
 1297SOL    HW1 4790   6.354   1.056   6.110
 1297SOL    HW2 4791   6.486   0.999   6.033
 1298SOL     OW 4792   6.228   2.632   3.351
 1298SOL    HW1 4793   6.175   2.593   3.276
 1298SOL    HW2 4794   6.324   2.604   3.343
 1299SOL     OW 4795   1.833   3.441   4.598
 1299SOL    HW1 4796   1.803   3.483   4.513
 1299SOL    HW2 4797   1.769   3.463   4.672
 1300SOL     OW 4798   3.667   2.933   2.798
 1300SOL    HW1 4799   3.724   2.947   2.717
 1300SOL    HW2 4800   3.578   2.897   2.770
 1301SOL     OW 4801   1.354   1.528   1.989
 1301SOL    HW1 4802   1.279   1.565   1.935
 1301SOL    HW2 4803   1.356   1.428   1.980
 1302SOL     OW 4804   2.771   5.876   5.949
 1302SOL    HW1 4805   2.858   5.858   5.902
 1302SOL    HW2 4806   2.726   5.954   5.907
 1303SOL     OW 4807   3.026   0.078   1.203
 1303SOL    HW1 4808   3.037   0.011   1.130
 1303SOL    HW2 4809   3.096   0.063   1.273
 1304SOL     OW 4810   3.733   0.741   6.136
 1304SOL    HW1 4811   3.790   0.782   6.206
 1304SOL    HW2 4812   3.642   0.782   6.138
 1305SOL     OW 4813   6.038   6.636   3.804
 1305SOL    HW1 4814   6.055   6.730   3.775
 1305SOL    HW2 4815   6.012   6.634   3.900
 1306SOL     OW 4816   1.776   5.098   4.257
 1306SOL    HW1 4817   1.851   5.139   4.309
 1306SOL    HW2 4818   1.793   5.109   4.159
 1307SOL     OW 4819   0.982   1.184   4.195
 1307SOL    HW1 4820   0.918   1.176   4.271
 1307SOL    HW2 4821   1.069   1.220   4.228
 1308SOL     OW 4822   4.973   6.340   3.162
 1308SOL    HW1 4823   4.953   6.435   3.189
 1308SOL    HW2 4824   4.916   6.278   3.215
 1309SOL     OW 4825   5.193   2.895   4.527
 1309SOL    HW1 4826   5.185   2.895   4.427
 1309SOL    HW2 4827   5.275   2.845   4.554
 1310SOL     OW 4828   4.936   3.610   5.589
 1310SOL    HW1 4829   4.927   3.534   5.524
 1310SOL    HW2 4830   5.030   3.643   5.588
 1311SOL     OW 4831   4.815   4.893   6.346
 1311SOL    HW1 4832   4.871   4.866   6.268
 1311SOL    HW2 4833   4.795   4.812   6.403
 1312SOL     OW 4834   6.710   0.424   1.500
 1312SOL    HW1 4835   6.646   0.416   1.577
 1312SOL    HW2 4836   6.669   0.382   1.419
 1313SOL     OW 4837   3.326   5.065   4.951
 1313SOL    HW1 4838   3.261   5.088   5.023
 1313SOL    HW2 4839   3.418   5.092   4.979
 1314SOL     OW 4840   6.962   1.397   5.809
 1314SOL    HW1 4841   6.886   1.342   5.774
 1314SOL    HW2 4842   6.942   1.425   5.903
 1315SOL     OW 4843   1.939   6.964   3.435
 1315SOL    HW1 4844   1.958   6.995   3.528
 1315SOL    HW2 4845   1.889   6.878   3.438
 1316SOL     OW 4846   3.088   6.269   3.480
 1316SOL    HW1 4847   3.107   6.205   3.555
 1316SOL    HW2 4848   3.055   6.219   3.401
 1317SOL     OW 4849   0.520   3.028   4.543
 1317SOL    HW1 4850   0.549   2.973   4.465
 1317SOL    HW2 4851   0.577   3.110   4.549
 1318SOL     OW 4852   0.715   6.762   1.682
 1318SOL    HW1 4853   0.671   6.766   1.593
 1318SOL    HW2 4854   0.778   6.684   1.685
 1319SOL     OW 4855   6.788   0.082   0.461
 1319SOL    HW1 4856   6.778   7.019   0.409
 1319SOL    HW2 4857   6.739   0.156   0.414
 1320SOL     OW 4858   4.791   5.078   4.931
 1320SOL    HW1 4859   4.825   5.118   4.847
 1320SOL    HW2 4860   4.854   5.099   5.006
 1321SOL     OW 4861   3.999   0.916   0.705
 1321SOL    HW1 4862   3.943   0.927   0.623
 1321SOL    HW2 4863   3.949   0.860   0.771
 1322SOL     OW 4864   5.203   1.059   6.174
 1322SOL    HW1 4865   5.292   1.106   6.175
 1322SOL    HW2 4866   5.130   1.126   6.164
 1323SOL     OW 4867   6.534   0.491   4.099
 1323SOL    HW1 4868   6.544   0.536   4.010
 1323SOL    HW2 4869   6.466   0.541   4.153
 1324SOL     OW 4870   1.265   2.364   0.565
 1324SOL    HW1 4871   1.310   2.424   0.500
 1324SOL    HW2 4872   1.219   2.290   0.516
 1325SOL     OW 4873   4.453   5.701   4.270
 1325SOL    HW1 4874   4.397   5.620   4.254
 1325SOL    HW2 4875   4.394   5.778   4.294
 1326SOL     OW 4876   5.503   4.029   4.558
 1326SOL    HW1 4877   5.418   4.011   4.508
 1326SOL    HW2 4878   5.530   4.124   4.544
 1327SOL     OW 4879   2.979   6.262   4.003
 1327SOL    HW1 4880   2.924   6.307   3.933
 1327SOL    HW2 4881   2.977   6.316   4.087
 1328SOL     OW 4882   2.748   0.952   1.377
 1328SOL    HW1 4883   2.811   1.030   1.383
 1328SOL    HW2 4884   2.777   0.881   1.440
 1329SOL     OW 4885   1.549   6.344   1.926
 1329SOL    HW1 4886   1.582   6.288   1.850
 1329SOL    HW2 4887   1.453   6.323   1.944
 1330SOL     OW 4888   5.042   6.964   1.125
 1330SOL    HW1 4889   5.019   7.014   1.041
 1330SOL    HW2 4890   4.960   6.920   1.161
 1331SOL     OW 4891   0.750   2.202   2.041
 1331SOL    HW1 4892   0.708   2.153   2.118
 1331SOL    HW2 4893   0.730   2.299   2.049
 1332SOL     OW 4894   4.870   2.194   1.093
 1332SOL    HW1 4895   4.855   2.166   1.187
 1332SOL    HW2 4896   4.784   2.187   1.042
 1333SOL     OW 4897   4.096   3.240   5.185
 1333SOL    HW1 4898   4.146   3.320   5.220
 1333SOL    HW2 4899   4.057   3.262   5.096
 1334SOL     OW 4900   1.123   3.369   3.792
 1334SOL    HW1 4901   1.027   3.394   3.778
 1334SOL    HW2 4902   1.180   3.415   3.724
 1335SOL     OW 4903   1.897   5.415   3.413
 1335SOL    HW1 4904   1.935   5.476   3.482
 1335SOL    HW2 4905   1.942   5.432   3.325
 1336SOL     OW 4906   0.075   6.841   5.040
 1336SOL    HW1 4907   7.010   6.888   5.054
 1336SOL    HW2 4908   0.061   6.757   4.988
 1337SOL     OW 4909   3.727   6.411   6.749
 1337SOL    HW1 4910   3.809   6.468   6.752
 1337SOL    HW2 4911   3.646   6.468   6.760
 1338SOL     OW 4912   3.353   5.306   1.000
 1338SOL    HW1 4913   3.308   5.246   0.934
 1338SOL    HW2 4914   3.390   5.250   1.075
 1339SOL     OW 4915   0.198   3.831   6.837
 1339SOL    HW1 4916   0.253   3.900   6.789
 1339SOL    HW2 4917   0.167   3.762   6.771
 1340SOL     OW 4918   3.171   1.283   6.045
 1340SOL    HW1 4919   3.254   1.335   6.022
 1340SOL    HW2 4920   3.161   1.207   5.981
 1341SOL     OW 4921   5.381   2.378   4.482
 1341SOL    HW1 4922   5.292   2.401   4.443
 1341SOL    HW2 4923   5.401   2.281   4.464
 1342SOL     OW 4924   0.635   0.420   1.366
 1342SOL    HW1 4925   0.728   0.383   1.372
 1342SOL    HW2 4926   0.635   0.515   1.400
 1343SOL     OW 4927   2.763   6.049   3.821
 1343SOL    HW1 4928   2.807   6.026   3.734
 1343SOL    HW2 4929   2.779   5.976   3.887
 1344SOL     OW 4930   5.519   1.908   2.422
 1344SOL    HW1 4931   5.558   1.981   2.365
 1344SOL    HW2 4932   5.542   1.924   2.518
 1345SOL     OW 4933   6.658   6.072   2.253
 1345SOL    HW1 4934   6.749   6.056   2.214
 1345SOL    HW2 4935   6.589   6.036   2.191
 1346SOL     OW 4936   0.064   1.648   3.055
 1346SOL    HW1 4937   0.063   1.748   3.057
 1346SOL    HW2 4938   0.096   1.612   3.143
 1347SOL     OW 4939   4.730   1.027   3.175
 1347SOL    HW1 4940   4.691   1.007   3.265
 1347SOL    HW2 4941   4.822   0.990   3.169
 1348SOL     OW 4942   4.962   5.667   4.675
 1348SOL    HW1 4943   5.011   5.602   4.618
 1348SOL    HW2 4944   4.958   5.756   4.630
 1349SOL     OW 4945   4.644   2.340   0.442
 1349SOL    HW1 4946   4.683   2.311   0.354
 1349SOL    HW2 4947   4.707   2.404   0.486
 1350SOL     OW 4948   2.684   1.047   4.630
 1350SOL    HW1 4949   2.613   1.068   4.697
 1350SOL    HW2 4950   2.645   1.051   4.538
 1351SOL     OW 4951   1.711   1.539   3.513
 1351SOL    HW1 4952   1.654   1.458   3.503
 1351SOL    HW2 4953   1.653   1.619   3.530
 1352SOL     OW 4954   1.175   6.405   4.553
 1352SOL    HW1 4955   1.235   6.328   4.574
 1352SOL    HW2 4956   1.197   6.482   4.612
 1353SOL     OW 4957   2.260   3.319   5.518
 1353SOL    HW1 4958   2.318   3.307   5.437
 1353SOL    HW2 4959   2.165   3.303   5.493
 1354SOL     OW 4960   0.656   6.798   0.114
 1354SOL    HW1 4961   0.651   6.705   0.150
 1354SOL    HW2 4962   0.716   6.801   0.034
 1355SOL     OW 4963   4.195   3.412   6.996
 1355SOL    HW1 4964   4.254   3.352   0.029
 1355SOL    HW2 4965   4.242   3.498   6.979
 1356SOL     OW 4966   3.185   3.173   2.038
 1356SOL    HW1 4967   3.170   3.127   2.126
 1356SOL    HW2 4968   3.121   3.136   1.971
 1357SOL     OW 4969   3.488   2.371   5.697
 1357SOL    HW1 4970   3.429   2.410   5.626
 1357SOL    HW2 4971   3.552   2.440   5.729
 1358SOL     OW 4972   1.873   3.275   5.958
 1358SOL    HW1 4973   1.808   3.209   5.920
 1358SOL    HW2 4974   1.927   3.316   5.885
 1359SOL     OW 4975   0.052   1.807   6.398
 1359SOL    HW1 4976   0.109   1.867   6.454
 1359SOL    HW2 4977   0.108   1.762   6.329
 1360SOL     OW 4978   3.537   3.398   3.898
 1360SOL    HW1 4979   3.633   3.378   3.877
 1360SOL    HW2 4980   3.526   3.407   3.997
 1361SOL     OW 4981   0.991   6.651   1.109
 1361SOL    HW1 4982   1.050   6.658   1.029
 1361SOL    HW2 4983   1.041   6.607   1.184
 1362SOL     OW 4984   3.091   1.339   6.903
 1362SOL    HW1 4985   3.166   1.378   6.851
 1362SOL    HW2 4986   3.082   1.242   6.883
 1363SOL     OW 4987   6.998   6.450   0.780
 1363SOL    HW1 4988   6.990   6.536   0.729
 1363SOL    HW2 4989   0.072   6.420   0.779
 1364SOL     OW 4990   1.142   3.692   1.101
 1364SOL    HW1 4991   1.119   3.617   1.039
 1364SOL    HW2 4992   1.137   3.660   1.196
 1365SOL     OW 4993   0.979   3.288   6.156
 1365SOL    HW1 4994   1.065   3.291   6.105
 1365SOL    HW2 4995   0.997   3.300   6.254
 1366SOL     OW 4996   3.626   0.683   1.136
 1366SOL    HW1 4997   3.583   0.689   1.046
 1366SOL    HW2 4998   3.578   0.742   1.200
 1367SOL     OW 4999   1.207   0.076   4.594
 1367SOL    HW1 5000   1.173   0.138   4.524
 1367SOL    HW2 5001   1.175   7.005   4.575
 1368SOL     OW 5002   1.359   6.150   4.619
 1368SOL    HW1 5003   1.306   6.065   4.624
 1368SOL    HW2 5004   1.448   6.132   4.577
 1369SOL     OW 5005   2.072   5.998   3.631
 1369SOL    HW1 5006   2.004   5.994   3.704
 1369SOL    HW2 5007   2.058   6.080   3.576
 1370SOL     OW 5008   0.021   2.615   2.683
 1370SOL    HW1 5009   6.974   2.565   2.631
 1370SOL    HW2 5010   7.015   2.710   2.694
 1371SOL     OW 5011   6.021   1.918   6.111
 1371SOL    HW1 5012   5.946   1.896   6.175
 1371SOL    HW2 5013   6.028   2.017   6.102
 1372SOL     OW 5014   5.260   2.218   1.628
 1372SOL    HW1 5015   5.360   2.207   1.626
 1372SOL    HW2 5016   5.228   2.216   1.723
 1373SOL     OW 5017   5.125   2.942   1.236
 1373SOL    HW1 5018   5.186   3.000   1.290
 1373SOL    HW2 5019   5.140   2.846   1.262
 1374SOL     OW 5020   4.090   3.411   2.548
 1374SOL    HW1 5021   4.047   3.452   2.628
 1374SOL    HW2 5022   4.062   3.315   2.540
 1375SOL     OW 5023   5.323   4.482   4.945
 1375SOL    HW1 5024   5.240   4.426   4.936
 1375SOL    HW2 5025   5.299   4.579   4.939
 1376SOL     OW 5026   2.893   4.489   5.632
 1376SOL    HW1 5027   2.942   4.576   5.621
 1376SOL    HW2 5028   2.863   4.480   5.727
 1377SOL     OW 5029   1.136   1.866   3.455
 1377SOL    HW1 5030   1.146   1.823   3.545
 1377SOL    HW2 5031   1.161   1.963   3.462
 1378SOL     OW 5032   4.483   2.165   4.398
 1378SOL    HW1 5033   4.477   2.069   4.370
 1378SOL    HW2 5034   4.448   2.175   4.491
 1379SOL     OW 5035   4.521   5.554   6.831
 1379SOL    HW1 5036   4.499   5.495   6.753
 1379SOL    HW2 5037   4.454   5.538   6.904
 1380SOL     OW 5038   0.218   5.746   4.076
 1380SOL    HW1 5039   0.194   5.843   4.082
 1380SOL    HW2 5040   0.165   5.704   4.001
 1381SOL     OW 5041   6.576   3.074   6.158
 1381SOL    HW1 5042   6.611   3.070   6.251
 1381SOL    HW2 5043   6.517   3.154   6.148
 1382SOL     OW 5044   4.287   1.836   6.116
 1382SOL    HW1 5045   4.324   1.823   6.024
 1382SOL    HW2 5046   4.320   1.763   6.175
 1383SOL     OW 5047   6.162   0.698   1.218
 1383SOL    HW1 5048   6.248   0.696   1.167
 1383SOL    HW2 5049   6.087   0.670   1.158
 1384SOL     OW 5050   5.908   2.501   1.879
 1384SOL    HW1 5051   5.957   2.415   1.862
 1384SOL    HW2 5052   5.821   2.500   1.830
 1385SOL     OW 5053   6.958   6.175   1.702
 1385SOL    HW1 5054   6.975   6.180   1.604
 1385SOL    HW2 5055   0.007   6.227   1.751
 1386SOL     OW 5056   2.112   0.009   3.889
 1386SOL    HW1 5057   2.136   0.073   3.816
 1386SOL    HW2 5058   2.167   6.948   3.879
 1387SOL     OW 5059   1.595   6.092   1.434
 1387SOL    HW1 5060   1.541   6.046   1.364
 1387SOL    HW2 5061   1.654   6.025   1.480
 1388SOL     OW 5062   6.163   0.374   1.804
 1388SOL    HW1 5063   6.205   0.433   1.735
 1388SOL    HW2 5064   6.090   0.320   1.762
 1389SOL     OW 5065   6.258   1.212   2.041
 1389SOL    HW1 5066   6.287   1.306   2.059
 1389SOL    HW2 5067   6.299   1.181   1.955
 1390SOL     OW 5068   1.529   1.866   4.583
 1390SOL    HW1 5069   1.499   1.916   4.663
 1390SOL    HW2 5070   1.455   1.864   4.515
 1391SOL     OW 5071   0.887   2.873   3.787
 1391SOL    HW1 5072   0.979   2.869   3.825
 1391SOL    HW2 5073   0.891   2.881   3.688
 1392SOL     OW 5074   5.425   4.712   4.224
 1392SOL    HW1 5075   5.337   4.672   4.197
 1392SOL    HW2 5076   5.483   4.723   4.143
 1393SOL     OW 5077   3.632   4.883   6.784
 1393SOL    HW1 5078   3.680   4.835   6.711
 1393SOL    HW2 5079   3.656   4.980   6.782
 1394SOL     OW 5080   1.223   6.575   0.047
 1394SOL    HW1 5081   1.225   6.477   0.069
 1394SOL    HW2 5082   1.224   6.586   6.969
 1395SOL     OW 5083   3.528   4.709   5.997
 1395SOL    HW1 5084   3.445   4.764   5.990
 1395SOL    HW2 5085   3.529   4.640   5.925
 1396SOL     OW 5086   5.703   6.034   3.336
 1396SOL    HW1 5087   5.709   5.989   3.247
 1396SOL    HW2 5088   5.613   6.019   3.375
 1397SOL     OW 5089   5.092   6.027   4.890
 1397SOL    HW1 5090   5.023   5.956   4.898
 1397SOL    HW2 5091   5.102   6.074   4.978
 1398SOL     OW 5092   1.877   0.407   4.608
 1398SOL    HW1 5093   1.901   0.349   4.530
 1398SOL    HW2 5094   1.930   0.379   4.688
 1399SOL     OW 5095   3.202   5.703   2.389
 1399SOL    HW1 5096   3.230   5.659   2.304
 1399SOL    HW2 5097   3.104   5.724   2.384
 1400SOL     OW 5098   1.250   0.309   2.512
 1400SOL    HW1 5099   1.260   0.373   2.588
 1400SOL    HW2 5100   1.332   0.252   2.506
 1401SOL     OW 5101   6.811   1.706   4.413
 1401SOL    HW1 5102   6.782   1.610   4.417
 1401SOL    HW2 5103   6.730   1.765   4.422
 1402SOL     OW 5104   6.341   2.986   0.030
 1402SOL    HW1 5105   6.358   2.907   6.992
 1402SOL    HW2 5106   6.279   3.049   7.005
 1403SOL     OW 5107   3.745   0.351   2.041
 1403SOL    HW1 5108   3.829   0.404   2.057
 1403SOL    HW2 5109   3.682   0.405   1.984
 1404SOL     OW 5110   5.258   1.847   0.712
 1404SOL    HW1 5111   5.195   1.851   0.789
 1404SOL    HW2 5112   5.351   1.833   0.747
 1405SOL     OW 5113   3.500   2.630   1.251
 1405SOL    HW1 5114   3.425   2.587   1.300
 1405SOL    HW2 5115   3.549   2.693   1.311
 1406SOL     OW 5116   1.128   3.871   1.936
 1406SOL    HW1 5117   1.162   3.925   2.013
 1406SOL    HW2 5118   1.082   3.789   1.971
 1407SOL     OW 5119   0.217   2.429   2.546
 1407SOL    HW1 5120   0.189   2.498   2.612
 1407SOL    HW2 5121   0.173   2.342   2.567
 1408SOL     OW 5122   5.982   5.801   6.311
 1408SOL    HW1 5123   6.011   5.843   6.224
 1408SOL    HW2 5124   6.054   5.814   6.379
 1409SOL     OW 5125   6.998   1.382   3.866
 1409SOL    HW1 5126   0.014   1.374   3.773
 1409SOL    HW2 5127   0.044   1.353   3.933
 1410SOL     OW 5128   6.363   1.810   6.972
 1410SOL    HW1 5129   6.441   1.866   6.944
 1410SOL    HW2 5130   6.329   1.760   6.892
 1411SOL     OW 5131   1.633   1.017   1.650
 1411SOL    HW1 5132   1.680   1.100   1.680
 1411SOL    HW2 5133   1.681   0.937   1.685
 1412SOL     OW 5134   1.256   2.892   0.026
 1412SOL    HW1 5135   1.173   2.901   0.082
 1412SOL    HW2 5136   1.337   2.908   0.083
 1413SOL     OW 5137   2.618   6.681   2.949
 1413SOL    HW1 5138   2.619   6.772   2.990
 1413SOL    HW2 5139   2.684   6.677   2.874
 1414SOL     OW 5140   1.936   0.710   1.992
 1414SOL    HW1 5141   1.911   0.674   1.902
 1414SOL    HW2 5142   1.915   0.808   1.996
 1415SOL     OW 5143   5.295   5.951   4.733
 1415SOL    HW1 5144   5.276   5.990   4.643
 1415SOL    HW2 5145   5.228   5.985   4.799
 1416SOL     OW 5146   4.665   5.418   3.599
 1416SOL    HW1 5147   4.757   5.457   3.605
 1416SOL    HW2 5148   4.662   5.352   3.524
 1417SOL     OW 5149   3.213   2.880   6.133
 1417SOL    HW1 5150   3.128   2.848   6.175
 1417SOL    HW2 5151   3.195   2.963   6.081
 1418SOL     OW 5152   3.285   3.689   3.067
 1418SOL    HW1 5153   3.293   3.761   3.136
 1418SOL    HW2 5154   3.306   3.601   3.109
 1419SOL     OW 5155   3.797   6.584   3.997
 1419SOL    HW1 5156   3.733   6.507   3.995
 1419SOL    HW2 5157   3.856   6.581   3.916
 1420SOL     OW 5158   0.687   6.161   2.532
 1420SOL    HW1 5159   0.665   6.129   2.439
 1420SOL    HW2 5160   0.674   6.087   2.597
 1421SOL     OW 5161   3.916   0.905   2.604
 1421SOL    HW1 5162   3.989   0.877   2.666
 1421SOL    HW2 5163   3.862   0.825   2.577
 1422SOL     OW 5164   2.717   6.840   0.522
 1422SOL    HW1 5165   2.729   6.850   0.424
 1422SOL    HW2 5166   2.639   6.780   0.541
 1423SOL     OW 5167   5.277   0.742   1.945
 1423SOL    HW1 5168   5.239   0.827   1.911
 1423SOL    HW2 5169   5.329   0.697   1.873
 1424SOL     OW 5170   6.544   5.415   2.774
 1424SOL    HW1 5171   6.486   5.495   2.760
 1424SOL    HW2 5172   6.486   5.334   2.785
 1425SOL     OW 5173   1.459   0.797   4.373
 1425SOL    HW1 5174   1.406   0.738   4.433
 1425SOL    HW2 5175   1.556   0.779   4.385
 1426SOL     OW 5176   1.644   1.408   5.310
 1426SOL    HW1 5177   1.707   1.454   5.372
 1426SOL    HW2 5178   1.562   1.379   5.360
 1427SOL     OW 5179   5.572   1.249   5.057
 1427SOL    HW1 5180   5.578   1.160   5.102
 1427SOL    HW2 5181   5.476   1.270   5.037
 1428SOL     OW 5182   5.798   1.138   0.296
 1428SOL    HW1 5183   5.862   1.214   0.305
 1428SOL    HW2 5184   5.706   1.174   0.282
 1429SOL     OW 5185   5.689   6.669   6.880
 1429SOL    HW1 5186   5.705   6.593   6.942
 1429SOL    HW2 5187   5.639   6.741   6.928
 1430SOL     OW 5188   2.591   4.641   3.132
 1430SOL    HW1 5189   2.564   4.604   3.043
 1430SOL    HW2 5190   2.597   4.567   3.199
 1431SOL     OW 5191   1.938   0.168   0.998
 1431SOL    HW1 5192   1.896   0.078   0.986
 1431SOL    HW2 5193   1.999   0.187   0.921
 1432SOL     OW 5194   3.274   0.305   1.054
 1432SOL    HW1 5195   3.294   0.400   1.078
 1432SOL    HW2 5196   3.283   0.248   1.135
 1433SOL     OW 5197   4.445   0.628   4.142
 1433SOL    HW1 5198   4.409   0.536   4.152
 1433SOL    HW2 5199   4.421   0.681   4.224
 1434SOL     OW 5200   0.794   1.148   5.213
 1434SOL    HW1 5201   0.804   1.068   5.272
 1434SOL    HW2 5202   0.857   1.220   5.244
 1435SOL     OW 5203   0.148   2.404   3.590
 1435SOL    HW1 5204   0.077   2.395   3.520
 1435SOL    HW2 5205   0.191   2.493   3.584
 1436SOL     OW 5206   4.626   3.973   0.828
 1436SOL    HW1 5207   4.564   4.051   0.838
 1436SOL    HW2 5208   4.673   3.979   0.740
 1437SOL     OW 5209   4.809   1.626   2.479
 1437SOL    HW1 5210   4.819   1.542   2.425
 1437SOL    HW2 5211   4.713   1.642   2.498
 1438SOL     OW 5212   2.097   0.314   1.615
 1438SOL    HW1 5213   2.128   0.401   1.577
 1438SOL    HW2 5214   2.138   0.300   1.705
 1439SOL     OW 5215   0.757   5.782   2.253
 1439SOL    HW1 5216   0.718   5.860   2.205
 1439SOL    HW2 5217   0.704   5.700   2.230
 1440SOL     OW 5218   2.091   2.684   1.866
 1440SOL    HW1 5219   2.142   2.738   1.799
 1440SOL    HW2 5220   2.118   2.712   1.958
 1441SOL     OW 5221   5.223   5.710   6.911
 1441SOL    HW1 5222   5.227   5.617   6.949
 1441SOL    HW2 5223   5.207   5.776   6.984
 1442SOL     OW 5224   5.553   5.395   0.559
 1442SOL    HW1 5225   5.621   5.348   0.503
 1442SOL    HW2 5226   5.548   5.491   0.531
 1443SOL     OW 5227   0.396   2.857   1.847
 1443SOL    HW1 5228   0.353   2.947   1.853
 1443SOL    HW2 5229   0.347   2.801   1.779
 1444SOL     OW 5230   0.612   5.869   6.059
 1444SOL    HW1 5231   0.681   5.942   6.059
 1444SOL    HW2 5232   0.546   5.886   6.133
 1445SOL     OW 5233   0.275   2.682   1.123
 1445SOL    HW1 5234   0.258   2.627   1.042
 1445SOL    HW2 5235   0.318   2.625   1.194
 1446SOL     OW 5236   0.045   5.424   0.984
 1446SOL    HW1 5237   0.055   5.509   1.036
 1446SOL    HW2 5238   0.025   5.446   0.888
 1447SOL     OW 5239   6.479   5.997   3.809
 1447SOL    HW1 5240   6.387   5.961   3.823
 1447SOL    HW2 5241   6.478   6.097   3.819
 1448SOL     OW 5242   0.568   1.477   5.796
 1448SOL    HW1 5243   0.523   1.478   5.886
 1448SOL    HW2 5244   0.612   1.388   5.782
 1449SOL     OW 5245   2.068   3.215   3.057
 1449SOL    HW1 5246   2.136   3.234   2.986
 1449SOL    HW2 5247   2.113   3.172   3.136
 1450SOL     OW 5248   3.187   2.121   3.440
 1450SOL    HW1 5249   3.243   2.040   3.453
 1450SOL    HW2 5250   3.183   2.144   3.343
 1451SOL     OW 5251   3.340   1.637   2.652
 1451SOL    HW1 5252   3.346   1.711   2.720
 1451SOL    HW2 5253   3.245   1.610   2.640
 1452SOL     OW 5254   4.365   2.746   6.464
 1452SOL    HW1 5255   4.462   2.759   6.444
 1452SOL    HW2 5256   4.321   2.836   6.473
 1453SOL     OW 5257   1.100   3.396   4.896
 1453SOL    HW1 5258   1.144   3.387   4.985
 1453SOL    HW2 5259   1.004   3.368   4.904
 1454SOL     OW 5260   3.174   2.177   2.720
 1454SOL    HW1 5261   3.110   2.206   2.648
 1454SOL    HW2 5262   3.242   2.115   2.681
 1455SOL     OW 5263   0.069   5.088   2.403
 1455SOL    HW1 5264   0.124   5.033   2.466
 1455SOL    HW2 5265   0.042   5.173   2.448
 1456SOL     OW 5266   6.460   6.033   4.210
 1456SOL    HW1 5267   6.400   6.020   4.131
 1456SOL    HW2 5268   6.545   5.982   4.197
 1457SOL     OW 5269   0.733   5.200   5.822
 1457SOL    HW1 5270   0.667   5.271   5.846
 1457SOL    HW2 5271   0.821   5.220   5.865
 1458SOL     OW 5272   6.545   4.894   5.269
 1458SOL    HW1 5273   6.471   4.935   5.322
 1458SOL    HW2 5274   6.512   4.810   5.225
 1459SOL     OW 5275   6.450   6.529   4.987
 1459SOL    HW1 5276   6.388   6.597   5.025
 1459SOL    HW2 5277   6.519   6.505   5.056
 1460SOL     OW 5278   1.898   6.170   5.087
 1460SOL    HW1 5279   1.803   6.189   5.111
 1460SOL    HW2 5280   1.950   6.148   5.170
 1461SOL     OW 5281   6.073   3.440   3.920
 1461SOL    HW1 5282   6.143   3.389   3.871
 1461SOL    HW2 5283   6.117   3.498   3.990
 1462SOL     OW 5284   0.433   1.482   1.996
 1462SOL    HW1 5285   0.403   1.575   1.975
 1462SOL    HW2 5286   0.506   1.485   2.064
 1463SOL     OW 5287   1.301   5.223   6.810
 1463SOL    HW1 5288   1.378   5.160   6.808
 1463SOL    HW2 5289   1.242   5.206   6.731
 1464SOL     OW 5290   1.189   4.500   4.601
 1464SOL    HW1 5291   1.280   4.543   4.601
 1464SOL    HW2 5292   1.124   4.560   4.554
 1465SOL     OW 5293   1.462   2.521   5.717
 1465SOL    HW1 5294   1.454   2.429   5.680
 1465SOL    HW2 5295   1.376   2.570   5.705
 1466SOL     OW 5296   5.417   1.241   2.565
 1466SOL    HW1 5297   5.514   1.233   2.539
 1466SOL    HW2 5298   5.377   1.149   2.571
 1467SOL     OW 5299   0.459   6.870   3.473
 1467SOL    HW1 5300   0.415   6.848   3.560
 1467SOL    HW2 5301   0.428   6.805   3.403
 1468SOL     OW 5302   3.576   6.498   3.404
 1468SOL    HW1 5303   3.557   6.505   3.306
 1468SOL    HW2 5304   3.491   6.480   3.453
 1469SOL     OW 5305   5.799   4.245   3.128
 1469SOL    HW1 5306   5.867   4.310   3.164
 1469SOL    HW2 5307   5.714   4.253   3.180
 1470SOL     OW 5308   6.327   2.516   2.295
 1470SOL    HW1 5309   6.285   2.594   2.340
 1470SOL    HW2 5310   6.258   2.467   2.241
 1471SOL     OW 5311   4.920   0.115   6.907
 1471SOL    HW1 5312   4.913   0.096   7.005
 1471SOL    HW2 5313   4.839   0.164   6.876
 1472SOL     OW 5314   2.093   0.916   6.711
 1472SOL    HW1 5315   2.166   0.851   6.734
 1472SOL    HW2 5316   2.054   0.892   6.623
 1473SOL     OW 5317   1.831   5.898   3.036
 1473SOL    HW1 5318   1.891   5.833   3.084
 1473SOL    HW2 5319   1.748   5.912   3.089
 1474SOL     OW 5320   2.103   4.444   2.317
 1474SOL    HW1 5321   2.181   4.505   2.301
 1474SOL    HW2 5322   2.050   4.477   2.396
 1475SOL     OW 5323   6.158   0.290   6.632
 1475SOL    HW1 5324   6.065   0.306   6.600
 1475SOL    HW2 5325   6.165   0.198   6.670
 1476SOL     OW 5326   5.567   0.361   6.267
 1476SOL    HW1 5327   5.527   0.448   6.296
 1476SOL    HW2 5328   5.495   0.293   6.256
 1477SOL     OW 5329   3.308   4.206   1.659
 1477SOL    HW1 5330   3.216   4.241   1.674
 1477SOL    HW2 5331   3.308   4.106   1.663
 1478SOL     OW 5332   4.832   4.615   6.458
 1478SOL    HW1 5333   4.859   4.519   6.452
 1478SOL    HW2 5334   4.847   4.648   6.551
 1479SOL     OW 5335   4.916   4.443   1.027
 1479SOL    HW1 5336   4.961   4.501   1.095
 1479SOL    HW2 5337   4.849   4.385   1.072
 1480SOL     OW 5338   2.602   1.084   4.374
 1480SOL    HW1 5339   2.677   1.118   4.317
 1480SOL    HW2 5340   2.524   1.060   4.315
 1481SOL     OW 5341   4.364   2.066   5.710
 1481SOL    HW1 5342   4.440   2.126   5.735
 1481SOL    HW2 5343   4.352   1.996   5.780
 1482SOL     OW 5344   6.478   1.306   1.628
 1482SOL    HW1 5345   6.419   1.344   1.557
 1482SOL    HW2 5346   6.424   1.284   1.709
 1483SOL     OW 5347   6.407   0.048   6.826
 1483SOL    HW1 5348   6.477   0.118   6.843
 1483SOL    HW2 5349   6.328   0.090   6.783
 1484SOL     OW 5350   3.276   6.104   4.966
 1484SOL    HW1 5351   3.202   6.131   5.028
 1484SOL    HW2 5352   3.275   6.005   4.955
 1485SOL     OW 5353   4.946   3.754   3.788
 1485SOL    HW1 5354   4.994   3.710   3.864
 1485SOL    HW2 5355   4.986   3.845   3.772
 1486SOL     OW 5356   4.974   6.278   4.086
 1486SOL    HW1 5357   5.065   6.239   4.066
 1486SOL    HW2 5358   4.974   6.375   4.063
 1487SOL     OW 5359   6.101   1.077   0.344
 1487SOL    HW1 5360   6.137   1.170   0.353
 1487SOL    HW2 5361   6.054   1.067   0.257
 1488SOL     OW 5362   6.737   2.523   2.710
 1488SOL    HW1 5363   6.794   2.534   2.628
 1488SOL    HW2 5364   6.790   2.477   2.781
 1489SOL     OW 5365   3.295   5.321   6.906
 1489SOL    HW1 5366   3.262   5.271   6.826
 1489SOL    HW2 5367   3.232   5.396   6.927
 1490SOL     OW 5368   6.804   3.278   2.135
 1490SOL    HW1 5369   6.896   3.240   2.140
 1490SOL    HW2 5370   6.774   3.279   2.039
 1491SOL     OW 5371   5.156   2.518   3.627
 1491SOL    HW1 5372   5.137   2.590   3.561
 1491SOL    HW2 5373   5.246   2.478   3.609
 1492SOL     OW 5374   0.739   2.362   2.454
 1492SOL    HW1 5375   0.803   2.432   2.420
 1492SOL    HW2 5376   0.734   2.367   2.553
 1493SOL     OW 5377   6.217   2.452   6.603
 1493SOL    HW1 5378   6.166   2.443   6.688
 1493SOL    HW2 5379   6.279   2.373   6.593
 1494SOL     OW 5380   0.853   4.141   6.382
 1494SOL    HW1 5381   0.835   4.194   6.464
 1494SOL    HW2 5382   0.766   4.112   6.341
 1495SOL     OW 5383   6.754   4.240   3.727
 1495SOL    HW1 5384   6.806   4.286   3.800
 1495SOL    HW2 5385   6.786   4.272   3.638
 1496SOL     OW 5386   6.546   6.193   5.691
 1496SOL    HW1 5387   6.599   6.187   5.606
 1496SOL    HW2 5388   6.569   6.279   5.738
 1497SOL     OW 5389   5.350   2.591   2.405
 1497SOL    HW1 5390   5.371   2.528   2.330
 1497SOL    HW2 5391   5.436   2.631   2.438
 1498SOL     OW 5392   3.798   4.699   0.449
 1498SOL    HW1 5393   3.820   4.648   0.532
 1498SOL    HW2 5394   3.736   4.645   0.392
 1499SOL     OW 5395   0.519   4.554   4.270
 1499SOL    HW1 5396   0.528   4.462   4.307
 1499SOL    HW2 5397   0.428   4.590   4.290
 1500SOL     OW 5398   2.326   5.564   2.040
 1500SOL    HW1 5399   2.362   5.609   2.122
 1500SOL    HW2 5400   2.262   5.492   2.068
 1501SOL     OW 5401   6.122   1.699   1.026
 1501SOL    HW1 5402   6.108   1.740   1.117
 1501SOL    HW2 5403   6.208   1.734   0.988
 1502SOL     OW 5404   0.178   6.243   6.312
 1502SOL    HW1 5405   0.254   6.262   6.374
 1502SOL    HW2 5406   0.199   6.163   6.257
 1503SOL     OW 5407   0.183   5.078   1.594
 1503SOL    HW1 5408   0.102   5.117   1.551
 1503SOL    HW2 5409   0.255   5.066   1.526
 1504SOL     OW 5410   1.597   0.133   3.256
 1504SOL    HW1 5411   1.666   0.080   3.206
 1504SOL    HW2 5412   1.623   0.229   3.258
 1505SOL     OW 5413   6.796   5.089   4.860
 1505SOL    HW1 5414   6.890   5.062   4.839
 1505SOL    HW2 5415   6.738   5.007   4.859
 1506SOL     OW 5416   1.515   0.878   0.859
 1506SOL    HW1 5417   1.516   0.787   0.899
 1506SOL    HW2 5418   1.446   0.882   0.787
 1507SOL     OW 5419   2.933   2.283   3.131
 1507SOL    HW1 5420   2.925   2.311   3.035
 1507SOL    HW2 5421   2.878   2.344   3.188
 1508SOL     OW 5422   1.602   0.338   2.077
 1508SOL    HW1 5423   1.530   0.274   2.053
 1508SOL    HW2 5424   1.571   0.432   2.062
 1509SOL     OW 5425   4.933   1.390   4.253
 1509SOL    HW1 5426   4.876   1.457   4.301
 1509SOL    HW2 5427   4.993   1.437   4.189
 1510SOL     OW 5428   3.330   6.546   5.047
 1510SOL    HW1 5429   3.289   6.621   5.099
 1510SOL    HW2 5430   3.423   6.572   5.019
 1511SOL     OW 5431   3.420   4.283   5.316
 1511SOL    HW1 5432   3.364   4.282   5.234
 1511SOL    HW2 5433   3.498   4.220   5.304
 1512SOL     OW 5434   5.372   6.319   0.581
 1512SOL    HW1 5435   5.439   6.346   0.650
 1512SOL    HW2 5436   5.410   6.248   0.523
 1513SOL     OW 5437   2.948   0.676   5.802
 1513SOL    HW1 5438   2.860   0.652   5.761
 1513SOL    HW2 5439   2.933   0.739   5.879
 1514SOL     OW 5440   2.929   2.388   0.025
 1514SOL    HW1 5441   2.936   2.361   6.951
 1514SOL    HW2 5442   3.020   2.396   0.065
 1515SOL     OW 5443   3.788   0.683   2.515
 1515SOL    HW1 5444   3.755   0.679   2.421
 1515SOL    HW2 5445   3.754   0.603   2.565
 1516SOL     OW 5446   6.461   6.616   6.188
 1516SOL    HW1 5447   6.440   6.599   6.092
 1516SOL    HW2 5448   6.528   6.549   6.220
 1517SOL     OW 5449   2.596   6.353   3.013
 1517SOL    HW1 5450   2.582   6.269   3.065
 1517SOL    HW2 5451   2.507   6.391   2.987
 1518SOL     OW 5452   1.001   3.183   0.055
 1518SOL    HW1 5453   1.065   3.193   7.001
 1518SOL    HW2 5454   0.923   3.127   0.026
 1519SOL     OW 5455   0.334   4.305   6.879
 1519SOL    HW1 5456   0.321   4.224   6.822
 1519SOL    HW2 5457   0.245   4.344   6.904
 1520SOL     OW 5458   0.058   6.910   3.356
 1520SOL    HW1 5459   7.010   6.981   3.362
 1520SOL    HW2 5460   0.141   6.948   3.315
 1521SOL     OW 5461   2.081   4.732   6.306
 1521SOL    HW1 5462   2.014   4.806   6.303
 1521SOL    HW2 5463   2.072   4.683   6.393
 1522SOL     OW 5464   5.181   6.670   4.429
 1522SOL    HW1 5465   5.233   6.586   4.442
 1522SOL    HW2 5466   5.180   6.694   4.332
 1523SOL     OW 5467   2.560   6.660   0.672
 1523SOL    HW1 5468   2.477   6.604   0.663
 1523SOL    HW2 5469   2.601   6.646   0.761
 1524SOL     OW 5470   1.680   2.584   3.993
 1524SOL    HW1 5471   1.581   2.578   4.005
 1524SOL    HW2 5472   1.725   2.528   4.063
 1525SOL     OW 5473   5.468   4.030   6.181
 1525SOL    HW1 5474   5.423   3.945   6.156
 1525SOL    HW2 5475   5.549   4.010   6.236
 1526SOL     OW 5476   0.924   1.557   1.203
 1526SOL    HW1 5477   0.850   1.559   1.136
 1526SOL    HW2 5478   0.887   1.569   1.295
 1527SOL     OW 5479   4.889   1.381   5.034
 1527SOL    HW1 5480   4.791   1.377   5.012
 1527SOL    HW2 5481   4.926   1.468   5.004
 1528SOL     OW 5482   3.435   3.143   2.357
 1528SOL    HW1 5483   3.464   3.129   2.262
 1528SOL    HW2 5484   3.400   3.057   2.394
 1529SOL     OW 5485   4.195   1.338   5.725
 1529SOL    HW1 5486   4.165   1.421   5.677
 1529SOL    HW2 5487   4.177   1.258   5.668
 1530SOL     OW 5488   2.345   7.008   1.370
 1530SOL    HW1 5489   2.319   0.052   1.300
 1530SOL    HW2 5490   2.378   6.924   1.325
 1531SOL     OW 5491   4.966   6.341   4.495
 1531SOL    HW1 5492   4.871   6.310   4.493
 1531SOL    HW2 5493   5.007   6.328   4.405
 1532SOL     OW 5494   2.742   5.931   1.636
 1532SOL    HW1 5495   2.835   5.894   1.631
 1532SOL    HW2 5496   2.680   5.873   1.583
 1533SOL     OW 5497   6.003   6.137   0.800
 1533SOL    HW1 5498   6.045   6.080   0.870
 1533SOL    HW2 5499   5.977   6.080   0.721
 1534SOL     OW 5500   2.146   4.663   6.831
 1534SOL    HW1 5501   2.224   4.716   6.796
 1534SOL    HW2 5502   2.061   4.711   6.811
 1535SOL     OW 5503   5.067   3.998   3.777
 1535SOL    HW1 5504   5.087   4.062   3.851
 1535SOL    HW2 5505   5.091   4.041   3.689
 1536SOL     OW 5506   4.365   3.989   6.449
 1536SOL    HW1 5507   4.360   4.067   6.387
 1536SOL    HW2 5508   4.384   4.022   6.542
 1537SOL     OW 5509   3.166   5.394   2.711
 1537SOL    HW1 5510   3.227   5.465   2.676
 1537SOL    HW2 5511   3.211   5.305   2.702
 1538SOL     OW 5512   2.883   0.877   0.534
 1538SOL    HW1 5513   2.965   0.934   0.526
 1538SOL    HW2 5514   2.899   0.789   0.490
 1539SOL     OW 5515   0.002   3.245   0.923
 1539SOL    HW1 5516   0.093   3.260   0.882
 1539SOL    HW2 5517   0.012   3.218   1.018
 1540SOL     OW 5518   3.321   6.408   3.443
 1540SOL    HW1 5519   3.292   6.503   3.430
 1540SOL    HW2 5520   3.241   6.352   3.468
 1541SOL     OW 5521   4.260   2.889   5.755
 1541SOL    HW1 5522   4.189   2.834   5.712
 1541SOL    HW2 5523   4.319   2.830   5.811
 1542SOL     OW 5524   6.768   5.460   3.054
 1542SOL    HW1 5525   6.784   5.363   3.035
 1542SOL    HW2 5526   6.856   5.509   3.057
 1543SOL     OW 5527   3.093   5.580   0.846
 1543SOL    HW1 5528   3.053   5.488   0.839
 1543SOL    HW2 5529   3.174   5.586   0.788
 1544SOL     OW 5530   4.151   3.553   3.974
 1544SOL    HW1 5531   4.163   3.578   3.878
 1544SOL    HW2 5532   4.066   3.501   3.984
 1545SOL     OW 5533   5.960   5.283   1.365
 1545SOL    HW1 5534   5.926   5.264   1.457
 1545SOL    HW2 5535   6.056   5.312   1.370
 1546SOL     OW 5536   6.328   6.397   5.345
 1546SOL    HW1 5537   6.321   6.313   5.398
 1546SOL    HW2 5538   6.289   6.382   5.254
 1547SOL     OW 5539   1.570   3.263   6.346
 1547SOL    HW1 5540   1.587   3.338   6.281
 1547SOL    HW2 5541   1.598   3.292   6.438
 1548SOL     OW 5542   6.416   2.284   0.597
 1548SOL    HW1 5543   6.358   2.324   0.668
 1548SOL    HW2 5544   6.379   2.195   0.570
 1549SOL     OW 5545   4.751   1.013   4.780
 1549SOL    HW1 5546   4.808   1.052   4.708
 1549SOL    HW2 5547   4.801   0.939   4.825
 1550SOL     OW 5548   2.956   3.408   4.171
 1550SOL    HW1 5549   2.930   3.389   4.266
 1550SOL    HW2 5550   2.958   3.507   4.156
 1551SOL     OW 5551   6.910   5.199   5.965
 1551SOL    HW1 5552   6.869   5.275   5.914
 1551SOL    HW2 5553   6.873   5.196   6.057
 1552SOL     OW 5554   2.050   4.239   1.546
 1552SOL    HW1 5555   2.071   4.316   1.606
 1552SOL    HW2 5556   2.015   4.273   1.459
 1553SOL     OW 5557   1.900   1.961   5.797
 1553SOL    HW1 5558   1.888   2.011   5.712
 1553SOL    HW2 5559   1.997   1.963   5.824
 1554SOL     OW 5560   4.576   1.762   3.159
 1554SOL    HW1 5561   4.487   1.808   3.161
 1554SOL    HW2 5562   4.572   1.679   3.214
 1555SOL     OW 5563   5.714   5.006   5.700
 1555SOL    HW1 5564   5.734   5.085   5.642
 1555SOL    HW2 5565   5.703   4.925   5.643
 1556SOL     OW 5566   1.672   0.907   5.817
 1556SOL    HW1 5567   1.587   0.954   5.841
 1556SOL    HW2 5568   1.746   0.940   5.875
 1557SOL     OW 5569   0.839   1.946   5.302
 1557SOL    HW1 5570   0.891   1.865   5.327
 1557SOL    HW2 5571   0.744   1.922   5.286
 1558SOL     OW 5572   6.982   6.529   4.665
 1558SOL    HW1 5573   0.002   6.441   4.642
 1558SOL    HW2 5574   6.883   6.524   4.649
 1559SOL     OW 5575   1.289   1.270   6.019
 1559SOL    HW1 5576   1.340   1.342   5.973
 1559SOL    HW2 5577   1.242   1.214   5.952
 1560SOL     OW 5578   0.113   0.444   0.246
 1560SOL    HW1 5579   0.066   0.365   0.285
 1560SOL    HW2 5580   0.199   0.459   0.294
 1561SOL     OW 5581   5.904   6.187   1.664
 1561SOL    HW1 5582   5.846   6.269   1.655
 1561SOL    HW2 5583   5.912   6.163   1.761
 1562SOL     OW 5584   5.454   0.293   4.120
 1562SOL    HW1 5585   5.369   0.259   4.160
 1562SOL    HW2 5586   5.522   0.219   4.118
 1563SOL     OW 5587   3.131   0.044   5.897
 1563SOL    HW1 5588   3.164   0.076   5.986
 1563SOL    HW2 5589   3.199   0.064   5.827
 1564SOL     OW 5590   1.881   2.051   3.267
 1564SOL    HW1 5591   1.878   2.073   3.364
 1564SOL    HW2 5592   1.815   2.107   3.217
 1565SOL     OW 5593   6.265   4.816   1.306
 1565SOL    HW1 5594   6.355   4.804   1.264
 1565SOL    HW2 5595   6.207   4.872   1.247
 1566SOL     OW 5596   6.371   4.685   2.069
 1566SOL    HW1 5597   6.365   4.740   1.986
 1566SOL    HW2 5598   6.321   4.599   2.056
 1567SOL     OW 5599   6.578   5.671   5.370
 1567SOL    HW1 5600   6.489   5.633   5.394
 1567SOL    HW2 5601   6.631   5.686   5.453
 1568SOL     OW 5602   6.964   6.552   0.458
 1568SOL    HW1 5603   6.915   6.542   0.545
 1568SOL    HW2 5604   0.023   6.608   0.472
 1569SOL     OW 5605   3.058   6.352   5.500
 1569SOL    HW1 5606   3.046   6.451   5.511
 1569SOL    HW2 5607   2.971   6.311   5.472
 1570SOL     OW 5608   2.980   2.139   1.883
 1570SOL    HW1 5609   2.970   2.236   1.903
 1570SOL    HW2 5610   2.901   2.089   1.919
 1571SOL     OW 5611   0.312   3.457   1.146
 1571SOL    HW1 5612   0.288   3.361   1.163
 1571SOL    HW2 5613   0.395   3.461   1.090
 1572SOL     OW 5614   0.272   5.598   3.364
 1572SOL    HW1 5615   0.241   5.634   3.276
 1572SOL    HW2 5616   0.320   5.511   3.350
 1573SOL     OW 5617   4.680   6.753   0.240
 1573SOL    HW1 5618   4.690   6.815   0.162
 1573SOL    HW2 5619   4.692   6.804   0.325
 1574SOL     OW 5620   5.447   3.541   2.257
 1574SOL    HW1 5621   5.472   3.582   2.169
 1574SOL    HW2 5622   5.359   3.577   2.287
 1575SOL     OW 5623   3.637   2.015   0.640
 1575SOL    HW1 5624   3.620   1.933   0.695
 1575SOL    HW2 5625   3.602   2.001   0.547
 1576SOL     OW 5626   6.370   5.214   3.125
 1576SOL    HW1 5627   6.293   5.157   3.157
 1576SOL    HW2 5628   6.337   5.276   3.054
 1577SOL     OW 5629   1.607   0.498   0.582
 1577SOL    HW1 5630   1.527   0.542   0.541
 1577SOL    HW2 5631   1.593   0.489   0.680
 1578SOL     OW 5632   5.937   5.689   4.512
 1578SOL    HW1 5633   5.864   5.632   4.474
 1578SOL    HW2 5634   5.989   5.730   4.437
 1579SOL     OW 5635   6.974   0.066   2.902
 1579SOL    HW1 5636   6.877   0.090   2.904
 1579SOL    HW2 5637   7.006   0.065   2.807
 1580SOL     OW 5638   3.089   3.788   5.855
 1580SOL    HW1 5639   3.102   3.706   5.912
 1580SOL    HW2 5640   3.040   3.857   5.908
 1581SOL     OW 5641   6.152   2.851   4.318
 1581SOL    HW1 5642   6.105   2.939   4.329
 1581SOL    HW2 5643   6.250   2.866   4.305
 1582SOL     OW 5644   6.229   6.364   4.260
 1582SOL    HW1 5645   6.303   6.312   4.302
 1582SOL    HW2 5646   6.268   6.434   4.200
 1583SOL     OW 5647   2.122   2.322   1.875
 1583SOL    HW1 5648   2.045   2.385   1.867
 1583SOL    HW2 5649   2.088   2.229   1.889
 1584SOL     OW 5650   2.482   6.940   6.436
 1584SOL    HW1 5651   2.544   7.018   6.437
 1584SOL    HW2 5652   2.392   6.969   6.405
 1585SOL     OW 5653   5.921   0.846   5.928
 1585SOL    HW1 5654   6.006   0.859   5.979
 1585SOL    HW2 5655   5.902   0.928   5.874
 1586SOL     OW 5656   3.772   3.324   3.075
 1586SOL    HW1 5657   3.819   3.374   3.148
 1586SOL    HW2 5658   3.799   3.228   3.078
 1587SOL     OW 5659   2.141   6.769   6.131
 1587SOL    HW1 5660   2.117   6.778   6.228
 1587SOL    HW2 5661   2.170   6.675   6.113
 1588SOL     OW 5662   6.020   3.557   0.487
 1588SOL    HW1 5663   6.020   3.536   0.389
 1588SOL    HW2 5664   6.074   3.640   0.502
 1589SOL     OW 5665   4.888   4.914   3.074
 1589SOL    HW1 5666   4.855   4.843   3.136
 1589SOL    HW2 5667   4.826   4.922   2.996
 1590SOL     OW 5668   2.179   6.494   5.024
 1590SOL    HW1 5669   2.254   6.438   5.059
 1590SOL    HW2 5670   2.208   6.590   5.020
 1591SOL     OW 5671   2.216   3.447   0.068
 1591SOL    HW1 5672   2.302   3.406   0.098
 1591SOL    HW2 5673   2.140   3.393   0.102
 1592SOL     OW 5674   4.052   3.806   4.003
 1592SOL    HW1 5675   4.121   3.734   4.004
 1592SOL    HW2 5676   4.033   3.833   3.909
 1593SOL     OW 5677   1.484   4.598   4.397
 1593SOL    HW1 5678   1.399   4.631   4.355
 1593SOL    HW2 5679   1.549   4.674   4.403
 1594SOL     OW 5680   0.409   5.141   2.868
 1594SOL    HW1 5681   0.377   5.147   2.774
 1594SOL    HW2 5682   0.440   5.232   2.898
 1595SOL     OW 5683   0.053   3.534   4.755
 1595SOL    HW1 5684   0.147   3.558   4.729
 1595SOL    HW2 5685   0.047   3.529   4.854
 1596SOL     OW 5686   2.771   5.140   6.922
 1596SOL    HW1 5687   2.840   5.196   6.876
 1596SOL    HW2 5688   2.698   5.199   6.956
 1597SOL     OW 5689   2.526   0.498   0.618
 1597SOL    HW1 5690   2.575   0.581   0.593
 1597SOL    HW2 5691   2.483   0.458   0.536
 1598SOL     OW 5692   0.294   5.520   1.498
 1598SOL    HW1 5693   0.273   5.527   1.596
 1598SOL    HW2 5694   0.209   5.515   1.446
 1599SOL     OW 5695   3.167   5.561   0.426
 1599SOL    HW1 5696   3.243   5.529   0.483
 1599SOL    HW2 5697   3.092   5.592   0.485
 1600SOL     OW 5698   3.397   1.670   5.109
 1600SOL    HW1 5699   3.344   1.744   5.150
 1600SOL    HW2 5700   3.381   1.585   5.161
 1601SOL     OW 5701   1.653   5.418   5.019
 1601SOL    HW1 5702   1.612   5.329   5.037
 1601SOL    HW2 5703   1.681   5.461   5.105
 1602SOL     OW 5704   0.600   3.608   2.212
 1602SOL    HW1 5705   0.599   3.530   2.274
 1602SOL    HW2 5706   0.522   3.667   2.232
 1603SOL     OW 5707   5.870   6.854   0.665
 1603SOL    HW1 5708   5.922   6.936   0.640
 1603SOL    HW2 5709   5.843   6.806   0.581
 1604SOL     OW 5710   0.976   5.613   4.626
 1604SOL    HW1 5711   1.061   5.621   4.573
 1604SOL    HW2 5712   0.999   5.606   4.723
 1605SOL     OW 5713   5.027   5.148   2.488
 1605SOL    HW1 5714   4.973   5.232   2.495
 1605SOL    HW2 5715   5.055   5.119   2.579
 1606SOL     OW 5716   5.756   5.548   4.366
 1606SOL    HW1 5717   5.807   5.500   4.295
 1606SOL    HW2 5718   5.676   5.593   4.326
 1607SOL     OW 5719   4.727   3.264   1.558
 1607SOL    HW1 5720   4.731   3.292   1.462
 1607SOL    HW2 5721   4.742   3.166   1.565
 1608SOL     OW 5722   2.817   0.491   0.839
 1608SOL    HW1 5723   2.904   0.512   0.795
 1608SOL    HW2 5724   2.833   0.465   0.935
 1609SOL     OW 5725   5.645   1.266   5.320
 1609SOL    HW1 5726   5.546   1.276   5.331
 1609SOL    HW2 5727   5.675   1.318   5.240
 1610SOL     OW 5728   4.819   6.554   2.829
 1610SOL    HW1 5729   4.815   6.642   2.781
 1610SOL    HW2 5730   4.913   6.538   2.860
 1611SOL     OW 5731   4.362   3.646   1.312
 1611SOL    HW1 5732   4.393   3.710   1.242
 1611SOL    HW2 5733   4.439   3.623   1.372
 1612SOL     OW 5734   3.174   0.628   5.147
 1612SOL    HW1 5735   3.175   0.579   5.060
 1612SOL    HW2 5736   3.088   0.608   5.196
 1613SOL     OW 5737   1.789   0.533   1.171
 1613SOL    HW1 5738   1.759   0.445   1.134
 1613SOL    HW2 5739   1.883   0.551   1.142
 1614SOL     OW 5740   0.241   2.368   5.278
 1614SOL    HW1 5741   0.269   2.454   5.237
 1614SOL    HW2 5742   0.302   2.345   5.354
 1615SOL     OW 5743   6.537   5.138   5.559
 1615SOL    HW1 5744   6.522   5.224   5.608
 1615SOL    HW2 5745   6.628   5.103   5.581
 1616SOL     OW 5746   2.433   2.015   6.113
 1616SOL    HW1 5747   2.495   1.976   6.045
 1616SOL    HW2 5748   2.414   1.947   6.184
 1617SOL     OW 5749   3.705   1.125   3.652
 1617SOL    HW1 5750   3.621   1.091   3.609
 1617SOL    HW2 5751   3.704   1.103   3.749
 1618SOL     OW 5752   5.329   2.919   2.097
 1618SOL    HW1 5753   5.304   3.016   2.101
 1618SOL    HW2 5754   5.260   2.870   2.043
 1619SOL     OW 5755   1.760   2.688   4.803
 1619SOL    HW1 5756   1.716   2.776   4.785
 1619SOL    HW2 5757   1.767   2.673   4.902
 1620SOL     OW 5758   3.476   6.291   1.768
 1620SOL    HW1 5759   3.448   6.214   1.825
 1620SOL    HW2 5760   3.454   6.272   1.673
 1621SOL     OW 5761   1.965   2.101   1.960
 1621SOL    HW1 5762   1.883   2.082   1.905
 1621SOL    HW2 5763   2.025   2.021   1.959
 1622SOL     OW 5764   2.380   2.429   5.255
 1622SOL    HW1 5765   2.330   2.393   5.176
 1622SOL    HW2 5766   2.385   2.529   5.248
 1623SOL     OW 5767   2.024   2.216   4.825
 1623SOL    HW1 5768   2.058   2.290   4.767
 1623SOL    HW2 5769   1.965   2.255   4.896
 1624SOL     OW 5770   2.347   0.693   0.578
 1624SOL    HW1 5771   2.377   0.602   0.605
 1624SOL    HW2 5772   2.367   0.708   0.482
 1625SOL     OW 5773   0.880   6.625   1.389
 1625SOL    HW1 5774   0.912   6.610   1.295
 1625SOL    HW2 5775   0.802   6.688   1.387
 1626SOL     OW 5776   2.529   2.997   6.376
 1626SOL    HW1 5777   2.580   2.918   6.410
 1626SOL    HW2 5778   2.475   3.037   6.450
 1627SOL     OW 5779   4.819   4.029   3.494
 1627SOL    HW1 5780   4.809   4.095   3.419
 1627SOL    HW2 5781   4.791   4.071   3.580
 1628SOL     OW 5782   3.083   3.237   0.002
 1628SOL    HW1 5783   3.029   3.302   6.970
 1628SOL    HW2 5784   3.022   3.171   0.045
 1629SOL     OW 5785   2.953   2.254   2.849
 1629SOL    HW1 5786   3.050   2.232   2.837
 1629SOL    HW2 5787   2.899   2.169   2.845
 1630SOL     OW 5788   5.603   5.193   3.917
 1630SOL    HW1 5789   5.689   5.159   3.956
 1630SOL    HW2 5790   5.562   5.260   3.979
 1631SOL     OW 5791   1.223   7.003   6.137
 1631SOL    HW1 5792   1.212   0.063   6.194
 1631SOL    HW2 5793   1.320   6.988   6.118
 1632SOL     OW 5794   4.691   6.927   0.010
 1632SOL    HW1 5795   4.691   6.900   6.936
 1632SOL    HW2 5796   4.653   7.019   0.019
 1633SOL     OW 5797   6.237   3.658   2.961
 1633SOL    HW1 5798   6.332   3.686   2.950
 1633SOL    HW2 5799   6.234   3.577   3.021
 1634SOL     OW 5800   3.924   1.097   0.943
 1634SOL    HW1 5801   3.953   1.050   0.860
 1634SOL    HW2 5802   3.950   1.193   0.938
 1635SOL     OW 5803   1.085   4.675   3.518
 1635SOL    HW1 5804   1.130   4.606   3.575
 1635SOL    HW2 5805   1.124   4.673   3.426
 1636SOL     OW 5806   2.581   6.604   0.025
 1636SOL    HW1 5807   2.662   6.608   0.084
 1636SOL    HW2 5808   2.552   6.508   0.016
 1637SOL     OW 5809   0.998   2.944   2.822
 1637SOL    HW1 5810   1.088   2.959   2.781
 1637SOL    HW2 5811   1.004   2.871   2.889
 1638SOL     OW 5812   1.284   2.321   5.910
 1638SOL    HW1 5813   1.362   2.372   5.947
 1638SOL    HW2 5814   1.210   2.320   5.976
 1639SOL     OW 5815   4.228   4.699   2.421
 1639SOL    HW1 5816   4.291   4.761   2.467
 1639SOL    HW2 5817   4.168   4.655   2.489
 1640SOL     OW 5818   5.810   6.539   1.229
 1640SOL    HW1 5819   5.777   6.575   1.316
 1640SOL    HW2 5820   5.845   6.615   1.174
 1641SOL     OW 5821   6.967   2.759   4.910
 1641SOL    HW1 5822   7.002   2.842   4.867
 1641SOL    HW2 5823   6.981   2.681   4.849
 1642SOL     OW 5824   0.731   2.479   2.086
 1642SOL    HW1 5825   0.788   2.494   2.167
 1642SOL    HW2 5826   0.781   2.506   2.005
 1643SOL     OW 5827   3.767   0.457   5.742
 1643SOL    HW1 5828   3.780   0.523   5.816
 1643SOL    HW2 5829   3.853   0.410   5.723
 1644SOL     OW 5830   4.399   1.054   0.516
 1644SOL    HW1 5831   4.332   1.015   0.580
 1644SOL    HW2 5832   4.486   1.066   0.563
 1645SOL     OW 5833   2.274   6.000   6.642
 1645SOL    HW1 5834   2.335   5.969   6.569
 1645SOL    HW2 5835   2.181   5.971   6.621
 1646SOL     OW 5836   2.503   4.020   0.314
 1646SOL    HW1 5837   2.556   4.102   0.338
 1646SOL    HW2 5838   2.557   3.939   0.334
 1647SOL     OW 5839   5.447   3.385   2.808
 1647SOL    HW1 5840   5.350   3.371   2.785
 1647SOL    HW2 5841   5.497   3.411   2.725
 1648SOL     OW 5842   3.283   0.301   2.926
 1648SOL    HW1 5843   3.337   0.297   3.010
 1648SOL    HW2 5844   3.205   0.238   2.934
 1649SOL     OW 5845   2.552   0.304   3.517
 1649SOL    HW1 5846   2.651   0.322   3.517
 1649SOL    HW2 5847   2.506   0.374   3.462
 1650SOL     OW 5848   3.276   7.021   4.245
 1650SOL    HW1 5849   3.247   0.037   4.157
 1650SOL    HW2 5850   3.196   6.995   4.299
 1651SOL     OW 5851   1.012   6.370   2.231
 1651SOL    HW1 5852   1.072   6.437   2.187
 1651SOL    HW2 5853   1.065   6.314   2.294
 1652SOL     OW 5854   3.433   3.187   1.674
 1652SOL    HW1 5855   3.472   3.251   1.740
 1652SOL    HW2 5856   3.367   3.235   1.616
 1653SOL     OW 5857   1.137   4.710   1.266
 1653SOL    HW1 5858   1.191   4.785   1.303
 1653SOL    HW2 5859   1.040   4.732   1.272
 1654SOL     OW 5860   0.647   2.127   3.838
 1654SOL    HW1 5861   0.671   2.202   3.776
 1654SOL    HW2 5862   0.558   2.090   3.812
 1655SOL     OW 5863   4.331   4.356   5.483
 1655SOL    HW1 5864   4.379   4.305   5.554
 1655SOL    HW2 5865   4.262   4.298   5.441
 1656SOL     OW 5866   0.202   4.039   2.216
 1656SOL    HW1 5867   0.214   3.972   2.143
 1656SOL    HW2 5868   0.114   4.025   2.261
 1657SOL     OW 5869   1.077   0.772   5.343
 1657SOL    HW1 5870   1.151   0.736   5.287
 1657SOL    HW2 5871   1.047   0.702   5.408
 1658SOL     OW 5872   6.089   6.996   2.425
 1658SOL    HW1 5873   6.074   6.982   2.523
 1658SOL    HW2 5874   6.127   0.065   2.409
 1659SOL     OW 5875   5.299   2.188   6.350
 1659SOL    HW1 5876   5.331   2.273   6.392
 1659SOL    HW2 5877   5.201   2.177   6.368
 1660SOL     OW 5878   2.088   6.209   3.478
 1660SOL    HW1 5879   2.171   6.261   3.498
 1660SOL    HW2 5880   2.105   6.146   3.403
 1661SOL     OW 5881   2.739   0.855   3.184
 1661SOL    HW1 5882   2.685   0.774   3.160
 1661SOL    HW2 5883   2.830   0.848   3.143
 1662SOL     OW 5884   6.356   0.666   3.154
 1662SOL    HW1 5885   6.434   0.654   3.094
 1662SOL    HW2 5886   6.386   0.663   3.249
 1663SOL     OW 5887   1.774   0.551   3.502
 1663SOL    HW1 5888   1.831   0.475   3.532
 1663SOL    HW2 5889   1.832   0.630   3.480
 1664SOL     OW 5890   2.080   5.493   4.828
 1664SOL    HW1 5891   1.984   5.519   4.831
 1664SOL    HW2 5892   2.112   5.472   4.921
 1665SOL     OW 5893   6.997   1.103   3.426
 1665SOL    HW1 5894   0.018   1.092   3.336
 1665SOL    HW2 5895   7.007   1.018   3.478
 1666SOL     OW 5896   5.537   2.600   5.950
 1666SOL    HW1 5897   5.633   2.577   5.966
 1666SOL    HW2 5898   5.492   2.619   6.037
 1667SOL     OW 5899   6.930   0.693   0.645
 1667SOL    HW1 5900   6.934   0.594   0.633
 1667SOL    HW2 5901   6.872   0.733   0.574
 1668SOL     OW 5902   1.349   0.602   4.523
 1668SOL    HW1 5903   1.427   0.540   4.533
 1668SOL    HW2 5904   1.362   0.681   4.583
 1669SOL     OW 5905   5.344   5.923   5.920
 1669SOL    HW1 5906   5.389   5.876   5.844
 1669SOL    HW2 5907   5.385   5.894   6.007
 1670SOL     OW 5908   6.868   3.232   6.371
 1670SOL    HW1 5909   6.800   3.161   6.388
 1670SOL    HW2 5910   6.845   3.313   6.424
 1671SOL     OW 5911   5.418   5.371   7.021
 1671SOL    HW1 5912   5.373   5.355   0.087
 1671SOL    HW2 5913   5.364   5.330   6.948
 1672SOL     OW 5914   1.839   4.934   2.676
 1672SOL    HW1 5915   1.749   4.957   2.713
 1672SOL    HW2 5916   1.908   4.996   2.713
 1673SOL     OW 5917   6.331   3.042   3.563
 1673SOL    HW1 5918   6.399   3.056   3.635
 1673SOL    HW2 5919   6.260   3.112   3.569
 1674SOL     OW 5920   2.231   5.638   0.372
 1674SOL    HW1 5921   2.170   5.563   0.347
 1674SOL    HW2 5922   2.190   5.725   0.345
 1675SOL     OW 5923   4.714   1.775   0.290
 1675SOL    HW1 5924   4.617   1.791   0.305
 1675SOL    HW2 5925   4.764   1.787   0.376
 1676SOL     OW 5926   2.965   1.496   3.796
 1676SOL    HW1 5927   2.991   1.534   3.884
 1676SOL    HW2 5928   3.046   1.462   3.748
 1677SOL     OW 5929   5.994   0.144   5.607
 1677SOL    HW1 5930   5.935   0.203   5.552
 1677SOL    HW2 5931   5.939   0.102   5.680
 1678SOL     OW 5932   5.146   6.603   1.636
 1678SOL    HW1 5933   5.216   6.662   1.597
 1678SOL    HW2 5934   5.149   6.610   1.736
 1679SOL     OW 5935   5.660   4.293   0.237
 1679SOL    HW1 5936   5.681   4.197   0.252
 1679SOL    HW2 5937   5.599   4.326   0.309
 1680SOL     OW 5938   0.858   2.360   5.561
 1680SOL    HW1 5939   0.856   2.261   5.547
 1680SOL    HW2 5940   0.831   2.405   5.476
 1681SOL     OW 5941   4.464   5.353   0.206
 1681SOL    HW1 5942   4.447   5.256   0.192
 1681SOL    HW2 5943   4.551   5.378   0.165
 1682SOL     OW 5944   6.833   2.571   5.560
 1682SOL    HW1 5945   6.913   2.592   5.504
 1682SOL    HW2 5946   6.816   2.473   5.558
 1683SOL     OW 5947   5.342   5.335   5.947
 1683SOL    HW1 5948   5.398   5.418   5.947
 1683SOL    HW2 5949   5.364   5.280   5.867
 1684SOL     OW 5950   0.353   6.724   4.189
 1684SOL    HW1 5951   0.382   6.819   4.194
 1684SOL    HW2 5952   0.339   6.697   4.094
 1685SOL     OW 5953   0.859   1.978   0.686
 1685SOL    HW1 5954   0.782   2.039   0.706
 1685SOL    HW2 5955   0.859   1.956   0.588
 1686SOL     OW 5956   2.068   6.717   6.390
 1686SOL    HW1 5957   2.104   6.654   6.458
 1686SOL    HW2 5958   1.971   6.698   6.376
 1687SOL     OW 5959   3.332   6.516   1.875
 1687SOL    HW1 5960   3.373   6.427   1.854
 1687SOL    HW2 5961   3.327   6.571   1.792
 1688SOL     OW 5962   0.208   1.394   4.052
 1688SOL    HW1 5963   0.201   1.330   4.129
 1688SOL    HW2 5964   0.255   1.477   4.081
 1689SOL     OW 5965   3.548   1.437   1.371
 1689SOL    HW1 5966   3.603   1.449   1.288
 1689SOL    HW2 5967   3.540   1.524   1.419
 1690SOL     OW 5968   0.895   2.325   0.373
 1690SOL    HW1 5969   0.960   2.316   0.449
 1690SOL    HW2 5970   0.933   2.280   0.292
 1691SOL     OW 5971   4.531   4.409   3.246
 1691SOL    HW1 5972   4.574   4.356   3.172
 1691SOL    HW2 5973   4.560   4.371   3.334
 1692SOL     OW 5974   0.987   0.218   3.591
 1692SOL    HW1 5975   0.940   0.301   3.620
 1692SOL    HW2 5976   0.940   0.138   3.628
 1693SOL     OW 5977   3.336   1.947   3.894
 1693SOL    HW1 5978   3.389   1.873   3.934
 1693SOL    HW2 5979   3.315   1.926   3.798
 1694SOL     OW 5980   5.853   5.774   4.753
 1694SOL    HW1 5981   5.905   5.757   4.670
 1694SOL    HW2 5982   5.905   5.740   4.832
 1695SOL     OW 5983   3.628   1.074   6.395
 1695SOL    HW1 5984   3.630   1.095   6.297
 1695SOL    HW2 5985   3.686   1.139   6.445
 1696SOL     OW 5986   3.528   5.899   1.702
 1696SOL    HW1 5987   3.551   5.807   1.736
 1696SOL    HW2 5988   3.613   5.948   1.682
 1697SOL     OW 5989   1.180   1.668   2.259
 1697SOL    HW1 5990   1.120   1.690   2.181
 1697SOL    HW2 5991   1.124   1.658   2.341
 1698SOL     OW 5992   4.795   1.918   0.802
 1698SOL    HW1 5993   4.702   1.887   0.782
 1698SOL    HW2 5994   4.821   1.990   0.737
 1699SOL     OW 5995   2.769   4.823   0.649
 1699SOL    HW1 5996   2.713   4.740   0.639
 1699SOL    HW2 5997   2.711   4.898   0.683
 1700SOL     OW 5998   5.833   2.366   4.311
 1700SOL    HW1 5999   5.801   2.390   4.220
 1700SOL    HW2 6000   5.893   2.438   4.345
 1701SOL     OW 6001   6.250   2.801   5.194
 1701SOL    HW1 6002   6.284   2.733   5.260
 1701SOL    HW2 6003   6.321   2.869   5.177
 1702SOL     OW 6004   4.573   2.692   1.570
 1702SOL    HW1 6005   4.609   2.600   1.583
 1702SOL    HW2 6006   4.642   2.749   1.527
 1703SOL     OW 6007   1.798   3.370   0.831
 1703SOL    HW1 6008   1.817   3.309   0.754
 1703SOL    HW2 6009   1.700   3.368   0.852
 1704SOL     OW 6010   0.190   1.622   2.303
 1704SOL    HW1 6011   0.132   1.624   2.222
 1704SOL    HW2 6012   0.138   1.656   2.382
 1705SOL     OW 6013   3.763   3.000   2.552
 1705SOL    HW1 6014   3.837   3.046   2.502
 1705SOL    HW2 6015   3.702   2.956   2.487
 1706SOL     OW 6016   2.026   0.761   6.263
 1706SOL    HW1 6017   2.125   0.747   6.252
 1706SOL    HW2 6018   1.999   0.730   6.354
 1707SOL     OW 6019   5.257   1.606   2.850
 1707SOL    HW1 6020   5.281   1.563   2.938
 1707SOL    HW2 6021   5.204   1.688   2.866
 1708SOL     OW 6022   0.356   4.302   1.651
 1708SOL    HW1 6023   0.411   4.294   1.568
 1708SOL    HW2 6024   0.262   4.327   1.626
 1709SOL     OW 6025   3.100   5.301   3.878
 1709SOL    HW1 6026   3.022   5.245   3.905
 1709SOL    HW2 6027   3.152   5.253   3.808
 1710SOL     OW 6028   6.694   4.879   4.485
 1710SOL    HW1 6029   6.716   4.968   4.444
 1710SOL    HW2 6030   6.763   4.813   4.457
 1711SOL     OW 6031   1.501   4.580   5.579
 1711SOL    HW1 6032   1.593   4.613   5.558
 1711SOL    HW2 6033   1.454   4.557   5.495
 1712SOL     OW 6034   1.883   4.541   2.057
 1712SOL    HW1 6035   1.923   4.492   2.135
 1712SOL    HW2 6036   1.807   4.597   2.089
 1713SOL     OW 6037   2.229   3.226   0.652
 1713SOL    HW1 6038   2.250   3.159   0.724
 1713SOL    HW2 6039   2.178   3.180   0.579
 1714SOL     OW 6040   4.205   1.165   1.679
 1714SOL    HW1 6041   4.179   1.225   1.755
 1714SOL    HW2 6042   4.132   1.099   1.662
 1715SOL     OW 6043   0.620   2.921   3.761
 1715SOL    HW1 6044   0.607   3.021   3.764
 1715SOL    HW2 6045   0.710   2.898   3.796
 1716SOL     OW 6046   0.397   0.409   6.658
 1716SOL    HW1 6047   0.465   0.352   6.612
 1716SOL    HW2 6048   0.305   0.374   6.639
 1717SOL     OW 6049   2.994   0.379   6.473
 1717SOL    HW1 6050   3.094   0.369   6.469
 1717SOL    HW2 6051   2.954   0.340   6.390
 1718SOL     OW 6052   1.693   3.931   5.604
 1718SOL    HW1 6053   1.748   3.968   5.679
 1718SOL    HW2 6054   1.716   3.835   5.590
 1719SOL     OW 6055   1.775   3.525   1.127
 1719SOL    HW1 6056   1.812   3.617   1.135
 1719SOL    HW2 6057   1.792   3.490   1.034
 1720SOL     OW 6058   6.795   2.147   2.438
 1720SOL    HW1 6059   6.818   2.181   2.529
 1720SOL    HW2 6060   6.749   2.058   2.445
 1721SOL     OW 6061   0.714   6.339   4.076
 1721SOL    HW1 6062   0.649   6.387   4.134
 1721SOL    HW2 6063   0.702   6.241   4.087
 1722SOL     OW 6064   5.794   0.219   1.903
 1722SOL    HW1 6065   5.721   0.228   1.836
 1722SOL    HW2 6066   5.851   0.302   1.901
 1723SOL     OW 6067   5.325   1.140   2.969
 1723SOL    HW1 6068   5.379   1.224   2.965
 1723SOL    HW2 6069   5.323   1.105   3.062
 1724SOL     OW 6070   5.027   0.272   0.344
 1724SOL    HW1 6071   5.078   0.340   0.292
 1724SOL    HW2 6072   5.030   0.293   0.441
 1725SOL     OW 6073   3.734   5.642   1.968
 1725SOL    HW1 6074   3.756   5.737   1.989
 1725SOL    HW2 6075   3.635   5.632   1.957
 1726SOL     OW 6076   6.914   4.127   4.711
 1726SOL    HW1 6077   6.993   4.066   4.722
 1726SOL    HW2 6078   6.876   4.148   4.801
 1727SOL     OW 6079   2.691   3.622   5.458
 1727SOL    HW1 6080   2.593   3.614   5.439
 1727SOL    HW2 6081   2.716   3.718   5.465
 1728SOL     OW 6082   4.433   5.551   3.526
 1728SOL    HW1 6083   4.518   5.546   3.579
 1728SOL    HW2 6084   4.421   5.643   3.491
 1729SOL     OW 6085   0.572   3.400   2.407
 1729SOL    HW1 6086   0.662   3.362   2.387
 1729SOL    HW2 6087   0.508   3.325   2.428
 1730SOL     OW 6088   5.053   2.016   4.873
 1730SOL    HW1 6089   5.065   2.086   4.802
 1730SOL    HW2 6090   5.141   1.997   4.916
 1731SOL     OW 6091   0.439   6.911   0.334
 1731SOL    HW1 6092   0.512   6.853   0.370
 1731SOL    HW2 6093   0.350   6.871   0.358
 1732SOL     OW 6094   0.822   4.007   6.983
 1732SOL    HW1 6095   0.802   4.105   6.973
 1732SOL    HW2 6096   0.847   3.988   0.056
 1733SOL     OW 6097   1.299   4.301   0.040
 1733SOL    HW1 6098   1.207   4.305   0.002
 1733SOL    HW2 6099   1.359   4.248   7.001
 1734SOL     OW 6100   5.033   3.972   1.036
 1734SOL    HW1 6101   5.058   4.001   0.943
 1734SOL    HW2 6102   4.948   4.016   1.063
 1735SOL     OW 6103   4.921   5.771   6.892
 1735SOL    HW1 6104   4.849   5.835   6.918
 1735SOL    HW2 6105   4.948   5.718   6.972
 1736SOL     OW 6106   2.936   3.115   0.303
 1736SOL    HW1 6107   2.948   3.028   0.256
 1736SOL    HW2 6108   2.993   3.116   0.386
 1737SOL     OW 6109   0.612   5.737   3.217
 1737SOL    HW1 6110   0.563   5.789   3.147
 1737SOL    HW2 6111   0.595   5.778   3.307
 1738SOL     OW 6112   0.577   1.184   2.003
 1738SOL    HW1 6113   0.543   1.263   1.951
 1738SOL    HW2 6114   0.504   1.117   2.013
 1739SOL     OW 6115   4.329   2.076   6.256
 1739SOL    HW1 6116   4.348   2.084   6.354
 1739SOL    HW2 6117   4.315   1.980   6.233
 1740SOL     OW 6118   0.553   2.044   6.237
 1740SOL    HW1 6119   0.512   1.984   6.168
 1740SOL    HW2 6120   0.652   2.045   6.226
 1741SOL     OW 6121   1.515   1.016   2.483
 1741SOL    HW1 6122   1.573   1.044   2.407
 1741SOL    HW2 6123   1.481   1.098   2.530
 1742SOL     OW 6124   5.911   5.958   4.019
 1742SOL    HW1 6125   5.987   5.958   4.084
 1742SOL    HW2 6126   5.923   5.885   3.952
 1743SOL     OW 6127   4.917   1.210   0.372
 1743SOL    HW1 6128   4.915   1.243   0.277
 1743SOL    HW2 6129   4.824   1.203   0.408
 1744SOL     OW 6130   3.640   6.188   1.380
 1744SOL    HW1 6131   3.716   6.226   1.328
 1744SOL    HW2 6132   3.611   6.101   1.338
 1745SOL     OW 6133   0.177   3.015   5.102
 1745SOL    HW1 6134   0.123   3.090   5.140
 1745SOL    HW2 6135   0.133   2.981   5.019
 1746SOL     OW 6136   2.459   0.893   5.836
 1746SOL    HW1 6137   2.423   0.821   5.777
 1746SOL    HW2 6138   2.559   0.887   5.838
 1747SOL     OW 6139   5.009   6.703   5.691
 1747SOL    HW1 6140   4.986   6.621   5.638
 1747SOL    HW2 6141   4.958   6.781   5.656
 1748SOL     OW 6142   5.464   1.030   1.799
 1748SOL    HW1 6143   5.539   0.980   1.841
 1748SOL    HW2 6144   5.377   1.000   1.839
 1749SOL     OW 6145   4.993   0.390   6.236
 1749SOL    HW1 6146   5.057   0.445   6.182
 1749SOL    HW2 6147   4.986   0.299   6.196
 1750SOL     OW 6148   3.779   0.722   3.835
 1750SOL    HW1 6149   3.808   0.636   3.792
 1750SOL    HW2 6150   3.818   0.727   3.927
 1751SOL     OW 6151   2.019   5.780   4.659
 1751SOL    HW1 6152   1.996   5.782   4.756
 1751SOL    HW2 6153   1.945   5.736   4.608
 1752SOL     OW 6154   0.008   2.111   6.619
 1752SOL    HW1 6155   6.971   2.117   6.539
 1752SOL    HW2 6156   0.104   2.117   6.591
 1753SOL     OW 6157   2.390   6.353   2.581
 1753SOL    HW1 6158   2.469   6.358   2.643
 1753SOL    HW2 6159   2.422   6.351   2.486
 1754SOL     OW 6160   3.091   3.077   2.631
 1754SOL    HW1 6161   3.186   3.087   2.602
 1754SOL    HW2 6162   3.032   3.069   2.550
 1755SOL     OW 6163   6.390   4.361   0.396
 1755SOL    HW1 6164   6.472   4.374   0.341
 1755SOL    HW2 6165   6.357   4.268   0.385
 1756SOL     OW 6166   6.254   4.934   4.965
 1756SOL    HW1 6167   6.215   5.006   4.907
 1756SOL    HW2 6168   6.290   4.861   4.907
 1757SOL     OW 6169   4.135   0.141   5.706
 1757SOL    HW1 6170   4.119   0.104   5.615
 1757SOL    HW2 6171   4.047   0.149   5.754
 1758SOL     OW 6172   3.252   1.598   3.280
 1758SOL    HW1 6173   3.337   1.548   3.264
 1758SOL    HW2 6174   3.226   1.646   3.196
 1759SOL     OW 6175   0.236   5.764   6.044
 1759SOL    HW1 6176   0.265   5.698   5.975
 1759SOL    HW2 6177   0.247   5.724   6.135
 1760SOL     OW 6178   4.471   6.431   2.366
 1760SOL    HW1 6179   4.507   6.407   2.276
 1760SOL    HW2 6180   4.536   6.490   2.413
 1761SOL     OW 6181   5.541   3.286   1.428
 1761SOL    HW1 6182   5.582   3.197   1.409
 1761SOL    HW2 6183   5.568   3.350   1.356
 1762SOL     OW 6184   5.632   3.197   0.844
 1762SOL    HW1 6185   5.675   3.193   0.934
 1762SOL    HW2 6186   5.575   3.279   0.838
 1763SOL     OW 6187   2.198   3.052   4.256
 1763SOL    HW1 6188   2.111   3.100   4.266
 1763SOL    HW2 6189   2.239   3.038   4.346
 1764SOL     OW 6190   6.643   3.613   3.197
 1764SOL    HW1 6191   6.594   3.620   3.284
 1764SOL    HW2 6192   6.721   3.551   3.207
 1765SOL     OW 6193   1.842   3.601   6.051
 1765SOL    HW1 6194   1.837   3.501   6.051
 1765SOL    HW2 6195   1.859   3.633   6.144
 1766SOL     OW 6196   6.161   3.814   5.665
 1766SOL    HW1 6197   6.250   3.782   5.698
 1766SOL    HW2 6198   6.132   3.894   5.718
 1767SOL     OW 6199   6.474   4.857   1.497
 1767SOL    HW1 6200   6.385   4.845   1.453
 1767SOL    HW2 6201   6.465   4.919   1.575
 1768SOL     OW 6202   5.954   6.546   3.274
 1768SOL    HW1 6203   5.977   6.557   3.370
 1768SOL    HW2 6204   5.854   6.548   3.263
 1769SOL     OW 6205   4.918   0.899   3.361
 1769SOL    HW1 6206   4.907   0.986   3.408
 1769SOL    HW2 6207   4.847   0.836   3.390
 1770SOL     OW 6208   3.789   5.720   5.368
 1770SOL    HW1 6209   3.759   5.649   5.432
 1770SOL    HW2 6210   3.826   5.798   5.419
 1771SOL     OW 6211   4.303   6.656   6.761
 1771SOL    HW1 6212   4.294   6.643   6.859
 1771SOL    HW2 6213   4.399   6.659   6.735
 1772SOL     OW 6214   2.626   6.392   2.747
 1772SOL    HW1 6215   2.705   6.332   2.735
 1772SOL    HW2 6216   2.612   6.410   2.844
 1773SOL     OW 6217   1.205   0.466   0.528
 1773SOL    HW1 6218   1.163   0.521   0.601
 1773SOL    HW2 6219   1.216   0.523   0.446
 1774SOL     OW 6220   2.958   5.155   2.618
 1774SOL    HW1 6221   3.019   5.079   2.600
 1774SOL    HW2 6222   2.898   5.170   2.540
 1775SOL     OW 6223   1.294   4.857   0.356
 1775SOL    HW1 6224   1.307   4.788   0.426
 1775SOL    HW2 6225   1.198   4.886   0.355
 1776SOL     OW 6226   2.891   6.077   5.371
 1776SOL    HW1 6227   2.833   5.998   5.349
 1776SOL    HW2 6228   2.887   6.095   5.469
 1777SOL     OW 6229   3.072   6.339   0.411
 1777SOL    HW1 6230   3.047   6.311   0.503
 1777SOL    HW2 6231   3.171   6.330   0.398
 1778SOL     OW 6232   6.854   3.013   5.969
 1778SOL    HW1 6233   6.840   2.914   5.976
 1778SOL    HW2 6234   6.771   3.060   5.999
 1779SOL     OW 6235   3.774   0.141   5.652
 1779SOL    HW1 6236   3.762   0.045   5.627
 1779SOL    HW2 6237   3.787   0.196   5.569
 1780SOL     OW 6238   3.096   2.970   6.853
 1780SOL    HW1 6239   3.082   2.993   6.949
 1780SOL    HW2 6240   3.165   3.032   6.814
 1781SOL     OW 6241   2.878   5.905   3.575
 1781SOL    HW1 6242   2.918   5.876   3.489
 1781SOL    HW2 6243   2.813   5.835   3.607
 1782SOL     OW 6244   2.920   1.713   4.500
 1782SOL    HW1 6245   2.841   1.696   4.441
 1782SOL    HW2 6246   2.923   1.644   4.572
 1783SOL     OW 6247   2.438   6.070   0.200
 1783SOL    HW1 6248   2.368   6.031   0.141
 1783SOL    HW2 6249   2.447   6.168   0.182
 1784SOL     OW 6250   2.321   0.164   6.079
 1784SOL    HW1 6251   2.227   0.150   6.110
 1784SOL    HW2 6252   2.357   0.079   6.041
 1785SOL     OW 6253   6.939   5.674   2.084
 1785SOL    HW1 6254   6.915   5.577   2.075
 1785SOL    HW2 6255   6.982   5.706   2.000
 1786SOL     OW 6256   3.909   2.553   1.658
 1786SOL    HW1 6257   3.814   2.564   1.689
 1786SOL    HW2 6258   3.936   2.633   1.604
 1787SOL     OW 6259   3.223   0.875   5.458
 1787SOL    HW1 6260   3.178   0.866   5.547
 1787SOL    HW2 6261   3.211   0.791   5.406
 1788SOL     OW 6262   1.457   4.993   5.435
 1788SOL    HW1 6263   1.555   4.974   5.438
 1788SOL    HW2 6264   1.413   4.932   5.368
 1789SOL     OW 6265   5.741   6.787   6.637
 1789SOL    HW1 6266   5.704   6.739   6.716
 1789SOL    HW2 6267   5.819   6.736   6.600
 1790SOL     OW 6268   2.490   6.965   2.423
 1790SOL    HW1 6269   2.554   7.010   2.486
 1790SOL    HW2 6270   2.540   6.900   2.366
 1791SOL     OW 6271   0.462   6.584   2.877
 1791SOL    HW1 6272   0.435   6.603   2.783
 1791SOL    HW2 6273   0.516   6.660   2.913
 1792SOL     OW 6274   0.900   3.323   4.179
 1792SOL    HW1 6275   0.971   3.291   4.116
 1792SOL    HW2 6276   0.876   3.250   4.242
 1793SOL     OW 6277   0.361   0.475   3.584
 1793SOL    HW1 6278   0.374   0.574   3.587
 1793SOL    HW2 6279   0.264   0.454   3.571
 1794SOL     OW 6280   4.819   6.064   6.591
 1794SOL    HW1 6281   4.850   5.977   6.552
 1794SOL    HW2 6282   4.886   6.097   6.658
 1795SOL     OW 6283   1.168   3.188   6.864
 1795SOL    HW1 6284   1.144   3.268   6.809
 1795SOL    HW2 6285   1.213   3.120   6.806
 1796SOL     OW 6286   3.749   0.242   6.113
 1796SOL    HW1 6287   3.745   0.339   6.136
 1796SOL    HW2 6288   3.785   0.190   6.190
 1797SOL     OW 6289   0.219   1.677   1.824
 1797SOL    HW1 6290   0.139   1.651   1.879
 1797SOL    HW2 6291   0.237   1.607   1.755
 1798SOL     OW 6292   5.699   1.566   2.751
 1798SOL    HW1 6293   5.602   1.586   2.735
 1798SOL    HW2 6294   5.749   1.651   2.766
 1799SOL     OW 6295   2.380   1.135   0.025
 1799SOL    HW1 6296   2.418   1.170   0.110
 1799SOL    HW2 6297   2.386   1.204   6.976
 1800SOL     OW 6298   3.120   4.962   2.512
 1800SOL    HW1 6299   3.088   4.930   2.423
 1800SOL    HW2 6300   3.169   5.048   2.502
 1801SOL     OW 6301   5.670   6.709   0.862
 1801SOL    HW1 6302   5.740   6.647   0.897
 1801SOL    HW2 6303   5.706   6.760   0.783
 1802SOL     OW 6304   5.990   4.838   4.031
 1802SOL    HW1 6305   6.063   4.906   4.022
 1802SOL    HW2 6306   5.910   4.869   3.979
 1803SOL     OW 6307   5.940   5.025   0.875
 1803SOL    HW1 6308   5.862   5.042   0.935
 1803SOL    HW2 6309   5.984   4.939   0.902
 1804SOL     OW 6310   3.110   3.322   6.082
 1804SOL    HW1 6311   3.064   3.292   5.999
 1804SOL    HW2 6312   3.050   3.307   6.161
 1805SOL     OW 6313   6.160   3.107   6.886
 1805SOL    HW1 6314   6.064   3.082   6.873
 1805SOL    HW2 6315   6.165   3.200   6.923
 1806SOL     OW 6316   6.606   0.377   0.644
 1806SOL    HW1 6317   6.545   0.331   0.579
 1806SOL    HW2 6318   6.674   0.430   0.594
 1807SOL     OW 6319   6.674   2.180   5.869
 1807SOL    HW1 6320   6.764   2.155   5.905
 1807SOL    HW2 6321   6.655   2.127   5.786
 1808SOL     OW 6322   2.598   4.641   4.450
 1808SOL    HW1 6323   2.511   4.689   4.459
 1808SOL    HW2 6324   2.613   4.584   4.530
 1809SOL     OW 6325   3.758   0.018   6.570
 1809SOL    HW1 6326   3.754   7.014   6.666
 1809SOL    HW2 6327   3.688   0.087   6.551
 1810SOL     OW 6328   3.175   6.484   2.535
 1810SOL    HW1 6329   3.266   6.446   2.518
 1810SOL    HW2 6330   3.125   6.424   2.598
 1811SOL     OW 6331   5.745   5.886   2.998
 1811SOL    HW1 6332   5.792   5.973   3.012
 1811SOL    HW2 6333   5.806   5.811   3.021
 1812SOL     OW 6334   4.117   5.037   5.704
 1812SOL    HW1 6335   4.158   4.946   5.703
 1812SOL    HW2 6336   4.189   5.106   5.699
 1813SOL     OW 6337   6.681   5.716   5.623
 1813SOL    HW1 6338   6.681   5.710   5.723
 1813SOL    HW2 6339   6.641   5.802   5.594
 1814SOL     OW 6340   4.776   6.255   2.608
 1814SOL    HW1 6341   4.808   6.259   2.703
 1814SOL    HW2 6342   4.851   6.230   2.548
 1815SOL     OW 6343   0.407   1.443   2.998
 1815SOL    HW1 6344   0.387   1.535   3.033
 1815SOL    HW2 6345   0.371   1.374   3.061
 1816SOL     OW 6346   1.208   5.178   0.437
 1816SOL    HW1 6347   1.242   5.093   0.397
 1816SOL    HW2 6348   1.196   5.246   0.364
 1817SOL     OW 6349   1.686   5.348   1.999
 1817SOL    HW1 6350   1.732   5.428   1.961
 1817SOL    HW2 6351   1.730   5.322   2.085
 1818SOL     OW 6352   1.094   1.770   3.723
 1818SOL    HW1 6353   1.088   1.854   3.776
 1818SOL    HW2 6354   1.035   1.701   3.764
 1819SOL     OW 6355   0.965   4.266   2.682
 1819SOL    HW1 6356   0.884   4.231   2.730
 1819SOL    HW2 6357   1.048   4.234   2.728
 1820SOL     OW 6358   5.648   6.904   3.021
 1820SOL    HW1 6359   5.722   6.855   2.974
 1820SOL    HW2 6360   5.678   6.997   3.041
 1821SOL     OW 6361   1.935   1.689   3.553
 1821SOL    HW1 6362   1.909   1.597   3.584
 1821SOL    HW2 6363   1.877   1.716   3.476
 1822SOL     OW 6364   2.997   3.786   2.322
 1822SOL    HW1 6365   2.982   3.790   2.223
 1822SOL    HW2 6366   2.966   3.697   2.356
 1823SOL     OW 6367   4.531   0.064   2.444
 1823SOL    HW1 6368   4.607   0.055   2.380
 1823SOL    HW2 6369   4.490   6.996   2.459
 1824SOL     OW 6370   5.286   1.894   1.609
 1824SOL    HW1 6371   5.258   1.988   1.590
 1824SOL    HW2 6372   5.384   1.885   1.597
 1825SOL     OW 6373   0.502   0.516   1.994
 1825SOL    HW1 6374   0.512   0.481   1.901
 1825SOL    HW2 6375   0.541   0.451   2.059
 1826SOL     OW 6376   3.203   5.971   5.997
 1826SOL    HW1 6377   3.236   5.880   6.022
 1826SOL    HW2 6378   3.133   6.001   6.062
 1827SOL     OW 6379   5.943   0.021   1.143
 1827SOL    HW1 6380   5.936   0.025   1.043
 1827SOL    HW2 6381   5.949   0.114   1.180
 1828SOL     OW 6382   2.091   3.006   0.407
 1828SOL    HW1 6383   2.055   3.019   0.314
 1828SOL    HW2 6384   2.018   3.020   0.473
 1829SOL     OW 6385   5.844   5.449   2.512
 1829SOL    HW1 6386   5.892   5.368   2.477
 1829SOL    HW2 6387   5.878   5.470   2.604
 1830SOL     OW 6388   5.251   6.706   4.134
 1830SOL    HW1 6389   5.338   6.746   4.163
 1830SOL    HW2 6390   5.265   6.613   4.103
 1831SOL     OW 6391   5.337   0.642   3.176
 1831SOL    HW1 6392   5.269   0.713   3.197
 1831SOL    HW2 6393   5.429   0.679   3.189
 1832SOL     OW 6394   4.743   2.313   0.200
 1832SOL    HW1 6395   4.711   2.397   0.156
 1832SOL    HW2 6396   4.744   2.239   0.133
 1833SOL     OW 6397   5.529   1.971   5.774
 1833SOL    HW1 6398   5.469   2.046   5.746
 1833SOL    HW2 6399   5.475   1.887   5.784
 1834SOL     OW 6400   2.787   4.080   0.177
 1834SOL    HW1 6401   2.769   3.997   0.231
 1834SOL    HW2 6402   2.857   4.061   0.109
 1835SOL     OW 6403   1.984   4.430   6.776
 1835SOL    HW1 6404   2.062   4.486   6.804
 1835SOL    HW2 6405   1.902   4.461   6.825
 1836SOL     OW 6406   0.774   6.749   0.765
 1836SOL    HW1 6407   0.755   6.824   0.829
 1836SOL    HW2 6408   0.689   6.703   0.741
 1837SOL     OW 6409   0.798   2.631   4.832
 1837SOL    HW1 6410   0.702   2.638   4.859
 1837SOL    HW2 6411   0.853   2.693   4.888
 1838SOL     OW 6412   0.845   2.958   5.243
 1838SOL    HW1 6413   0.877   2.968   5.338
 1838SOL    HW2 6414   0.892   3.025   5.186
 1839SOL     OW 6415   1.166   1.749   6.986
 1839SOL    HW1 6416   1.091   1.770   6.923
 1839SOL    HW2 6417   1.130   1.707   0.047
 1840SOL     OW 6418   1.177   5.032   1.563
 1840SOL    HW1 6419   1.178   5.026   1.663
 1840SOL    HW2 6420   1.106   5.096   1.534
 1841SOL     OW 6421   1.123   2.890   3.898
 1841SOL    HW1 6422   1.108   2.957   3.971
 1841SOL    HW2 6423   1.201   2.832   3.921
 1842SOL     OW 6424   1.006   6.167   6.227
 1842SOL    HW1 6425   1.046   6.149   6.317
 1842SOL    HW2 6426   0.997   6.266   6.214
 1843SOL     OW 6427   4.597   2.207   5.107
 1843SOL    HW1 6428   4.541   2.258   5.042
 1843SOL    HW2 6429   4.689   2.194   5.070
 1844SOL     OW 6430   5.499   4.473   3.559
 1844SOL    HW1 6431   5.565   4.529   3.610
 1844SOL    HW2 6432   5.424   4.531   3.527
 1845SOL     OW 6433   4.848   6.271   0.651
 1845SOL    HW1 6434   4.799   6.358   0.642
 1845SOL    HW2 6435   4.945   6.291   0.671
 1846SOL     OW 6436   3.726   1.574   5.656
 1846SOL    HW1 6437   3.761   1.532   5.739
 1846SOL    HW2 6438   3.738   1.673   5.660
 1847SOL     OW 6439   1.405   6.395   6.388
 1847SOL    HW1 6440   1.316   6.432   6.414
 1847SOL    HW2 6441   1.439   6.444   6.308
 1848SOL     OW 6442   1.783   0.602   3.119
 1848SOL    HW1 6443   1.747   0.534   3.183
 1848SOL    HW2 6444   1.869   0.570   3.081
 1849SOL     OW 6445   2.782   0.564   6.495
 1849SOL    HW1 6446   2.859   0.505   6.469
 1849SOL    HW2 6447   2.729   0.586   6.413
 1850SOL     OW 6448   5.383   1.722   2.293
 1850SOL    HW1 6449   5.307   1.671   2.336
 1850SOL    HW2 6450   5.419   1.789   2.358
 1851SOL     OW 6451   6.535   4.189   3.005
 1851SOL    HW1 6452   6.594   4.166   2.928
 1851SOL    HW2 6453   6.498   4.106   3.045
 1852SOL     OW 6454   5.192   1.355   5.514
 1852SOL    HW1 6455   5.249   1.291   5.463
 1852SOL    HW2 6456   5.221   1.356   5.610
 1853SOL     OW 6457   1.312   4.969   0.783
 1853SOL    HW1 6458   1.259   4.886   0.767
 1853SOL    HW2 6459   1.396   4.967   0.729
 1854SOL     OW 6460   2.501   5.250   3.668
 1854SOL    HW1 6461   2.439   5.172   3.657
 1854SOL    HW2 6462   2.491   5.311   3.589
 1855SOL     OW 6463   6.449   4.445   2.407
 1855SOL    HW1 6464   6.539   4.401   2.407
 1855SOL    HW2 6465   6.460   4.544   2.419
 1856SOL     OW 6466   5.289   3.047   7.007
 1856SOL    HW1 6467   5.366   3.002   0.030
 1856SOL    HW2 6468   5.310   3.143   6.992
 1857SOL     OW 6469   5.034   1.360   3.052
 1857SOL    HW1 6470   5.133   1.361   3.036
 1857SOL    HW2 6471   4.987   1.378   2.966
 1858SOL     OW 6472   5.342   4.113   3.074
 1858SOL    HW1 6473   5.424   4.056   3.071
 1858SOL    HW2 6474   5.334   4.165   2.989
 1859SOL     OW 6475   6.146   1.762   2.871
 1859SOL    HW1 6476   6.190   1.762   2.961
 1859SOL    HW2 6477   6.195   1.700   2.810
 1860SOL     OW 6478   3.973   2.115   4.671
 1860SOL    HW1 6479   4.017   2.044   4.727
 1860SOL    HW2 6480   3.917   2.174   4.728
 1861SOL     OW 6481   5.177   5.966   2.561
 1861SOL    HW1 6482   5.246   5.904   2.522
 1861SOL    HW2 6483   5.217   6.057   2.571
 1862SOL     OW 6484   2.692   1.041   0.726
 1862SOL    HW1 6485   2.686   1.045   0.626
 1862SOL    HW2 6486   2.658   1.126   0.765
 1863SOL     OW 6487   1.746   2.083   1.198
 1863SOL    HW1 6488   1.711   2.077   1.291
 1863SOL    HW2 6489   1.671   2.096   1.134
 1864SOL     OW 6490   0.464   6.379   3.072
 1864SOL    HW1 6491   0.533   6.312   3.045
 1864SOL    HW2 6492   0.463   6.454   3.006
 1865SOL     OW 6493   4.746   2.668   6.637
 1865SOL    HW1 6494   4.713   2.707   6.551
 1865SOL    HW2 6495   4.845   2.653   6.631
 1866SOL     OW 6496   5.486   5.533   1.694
 1866SOL    HW1 6497   5.507   5.586   1.612
 1866SOL    HW2 6498   5.398   5.563   1.732
 1867SOL     OW 6499   0.709   4.573   6.707
 1867SOL    HW1 6500   0.692   4.608   6.615
 1867SOL    HW2 6501   0.758   4.642   6.760
 1868SOL     OW 6502   6.578   3.985   5.650
 1868SOL    HW1 6503   6.676   3.982   5.627
 1868SOL    HW2 6504   6.555   4.078   5.681
 1869SOL     OW 6505   5.949   1.918   4.403
 1869SOL    HW1 6506   6.030   1.963   4.367
 1869SOL    HW2 6507   5.912   1.855   4.335
 1870SOL     OW 6508   2.255   4.182   4.720
 1870SOL    HW1 6509   2.244   4.134   4.633
 1870SOL    HW2 6510   2.267   4.115   4.794
 1871SOL     OW 6511   1.364   0.278   0.680
 1871SOL    HW1 6512   1.339   0.333   0.600
 1871SOL    HW2 6513   1.429   0.329   0.736
 1872SOL     OW 6514   1.784   4.755   6.570
 1872SOL    HW1 6515   1.717   4.688   6.603
 1872SOL    HW2 6516   1.756   4.846   6.598
 1873SOL     OW 6517   5.093   0.355   6.906
 1873SOL    HW1 6518   5.146   0.376   6.824
 1873SOL    HW2 6519   5.054   0.264   6.898
 1874SOL     OW 6520   0.245   3.727   2.765
 1874SOL    HW1 6521   0.288   3.798   2.821
 1874SOL    HW2 6522   0.270   3.637   2.801
 1875SOL     OW 6523   0.663   6.508   1.934
 1875SOL    HW1 6524   0.617   6.493   1.847
 1875SOL    HW2 6525   0.620   6.451   2.005
 1876SOL     OW 6526   1.841   6.722   3.482
 1876SOL    HW1 6527   1.834   6.694   3.578
 1876SOL    HW2 6528   1.930   6.693   3.446
 1877SOL     OW 6529   0.345   6.995   3.932
 1877SOL    HW1 6530   0.374   6.901   3.917
 1877SOL    HW2 6531   0.376   0.031   3.856
 1878SOL     OW 6532   6.253   2.582   6.020
 1878SOL    HW1 6533   6.170   2.637   6.019
 1878SOL    HW2 6534   6.271   2.551   6.114
 1879SOL     OW 6535   1.591   4.821   6.042
 1879SOL    HW1 6536   1.598   4.789   6.137
 1879SOL    HW2 6537   1.496   4.810   6.011
 1880SOL     OW 6538   6.484   0.120   4.796
 1880SOL    HW1 6539   6.440   0.191   4.741
 1880SOL    HW2 6540   6.581   0.140   4.804
 1881SOL     OW 6541   6.900   2.059   0.065
 1881SOL    HW1 6542   6.820   2.100   0.022
 1881SOL    HW2 6543   6.972   2.128   0.074
 1882SOL     OW 6544   1.469   6.664   0.120
 1882SOL    HW1 6545   1.377   6.631   0.099
 1882SOL    HW2 6546   1.493   6.638   0.214
 1883SOL     OW 6547   0.424   2.006   3.747
 1883SOL    HW1 6548   0.364   2.084   3.727
 1883SOL    HW2 6549   0.415   1.938   3.674
 1884SOL     OW 6550   6.404   2.056   0.900
 1884SOL    HW1 6551   6.437   1.964   0.922
 1884SOL    HW2 6552   6.379   2.103   0.985
 1885SOL     OW 6553   2.783   1.440   4.176
 1885SOL    HW1 6554   2.718   1.454   4.102
 1885SOL    HW2 6555   2.781   1.518   4.239
 1886SOL     OW 6556   0.406   5.911   3.095
 1886SOL    HW1 6557   0.343   5.887   3.169
 1886SOL    HW2 6558   0.375   5.995   3.051
 1887SOL     OW 6559   2.627   5.992   6.420
 1887SOL    HW1 6560   2.556   5.922   6.416
 1887SOL    HW2 6561   2.716   5.949   6.433
 1888SOL     OW 6562   2.062   0.371   2.816
 1888SOL    HW1 6563   2.149   0.397   2.858
 1888SOL    HW2 6564   2.047   0.426   2.734
 1889SOL     OW 6565   0.233   3.333   2.825
 1889SOL    HW1 6566   0.232   3.367   2.731
 1889SOL    HW2 6567   0.233   3.411   2.889
 1890SOL     OW 6568   1.655   5.793   5.140
 1890SOL    HW1 6569   1.555   5.786   5.142
 1890SOL    HW2 6570   1.687   5.798   5.046
 1891SOL     OW 6571   3.951   3.375   3.666
 1891SOL    HW1 6572   3.950   3.311   3.588
 1891SOL    HW2 6573   3.894   3.337   3.740
 1892SOL     OW 6574   0.401   0.246   2.510
 1892SOL    HW1 6575   0.393   0.232   2.608
 1892SOL    HW2 6576   0.419   0.159   2.465
 1893SOL     OW 6577   3.689   3.056   4.478
 1893SOL    HW1 6578   3.659   3.133   4.423
 1893SOL    HW2 6579   3.610   3.000   4.504
 1894SOL     OW 6580   2.935   3.342   3.907
 1894SOL    HW1 6581   3.029   3.322   3.880
 1894SOL    HW2 6582   2.929   3.343   4.007
 1895SOL     OW 6583   1.417   5.946   1.272
 1895SOL    HW1 6584   1.321   5.956   1.249
 1895SOL    HW2 6585   1.468   5.916   1.191
 1896SOL     OW 6586   6.330   2.171   1.122
 1896SOL    HW1 6587   6.312   2.269   1.109
 1896SOL    HW2 6588   6.283   2.140   1.205
 1897SOL     OW 6589   1.206   4.427   3.592
 1897SOL    HW1 6590   1.292   4.416   3.543
 1897SOL    HW2 6591   1.213   4.384   3.682
 1898SOL     OW 6592   1.649   6.275   2.677
 1898SOL    HW1 6593   1.668   6.351   2.739
 1898SOL    HW2 6594   1.612   6.198   2.729
 1899SOL     OW 6595   6.904   1.179   2.193
 1899SOL    HW1 6596   6.876   1.085   2.213
 1899SOL    HW2 6597   7.002   1.189   2.206
 1900SOL     OW 6598   2.507   6.606   6.716
 1900SOL    HW1 6599   2.505   6.619   6.617
 1900SOL    HW2 6600   2.548   6.686   6.759
 1901SOL     OW 6601   2.954   3.121   2.372
 1901SOL    HW1 6602   2.861   3.085   2.367
 1901SOL    HW2 6603   2.962   3.203   2.315
 1902SOL     OW 6604   1.316   6.489   4.810
 1902SOL    HW1 6605   1.369   6.543   4.875
 1902SOL    HW2 6606   1.311   6.394   4.842
 1903SOL     OW 6607   1.379   1.944   4.071
 1903SOL    HW1 6608   1.347   2.035   4.046
 1903SOL    HW2 6609   1.454   1.917   4.010
 1904SOL     OW 6610   6.019   5.838   1.215
 1904SOL    HW1 6611   6.011   5.739   1.207
 1904SOL    HW2 6612   5.944   5.873   1.271
 1905SOL     OW 6613   0.943   2.089   4.059
 1905SOL    HW1 6614   0.901   2.002   4.085
 1905SOL    HW2 6615   0.934   2.154   4.134
 1906SOL     OW 6616   0.341   6.393   3.840
 1906SOL    HW1 6617   0.292   6.351   3.763
 1906SOL    HW2 6618   0.394   6.323   3.888
 1907SOL     OW 6619   5.980   3.344   0.936
 1907SOL    HW1 6620   5.910   3.305   0.997
 1907SOL    HW2 6621   5.996   3.282   0.859
 1908SOL     OW 6622   3.712   0.977   1.856
 1908SOL    HW1 6623   3.784   1.031   1.813
 1908SOL    HW2 6624   3.625   0.995   1.811
 1909SOL     OW 6625   6.188   5.307   5.160
 1909SOL    HW1 6626   6.159   5.294   5.065
 1909SOL    HW2 6627   6.243   5.390   5.166
 1910SOL     OW 6628   0.623   5.839   5.752
 1910SOL    HW1 6629   0.549   5.803   5.695
 1910SOL    HW2 6630   0.603   5.819   5.848
 1911SOL     OW 6631   6.100   6.096   4.344
 1911SOL    HW1 6632   6.042   6.177   4.341
 1911SOL    HW2 6633   6.175   6.111   4.409
 1912SOL     OW 6634   3.700   4.969   2.384
 1912SOL    HW1 6635   3.610   4.935   2.413
 1912SOL    HW2 6636   3.706   4.963   2.284
 1913SOL     OW 6637   3.093   4.641   6.442
 1913SOL    HW1 6638   3.036   4.571   6.398
 1913SOL    HW2 6639   3.180   4.600   6.470
 1914SOL     OW 6640   3.619   4.228   0.613
 1914SOL    HW1 6641   3.671   4.260   0.534
 1914SOL    HW2 6642   3.616   4.299   0.683
 1915SOL     OW 6643   3.700   3.008   0.198
 1915SOL    HW1 6644   3.714   2.959   0.112
 1915SOL    HW2 6645   3.683   3.104   0.179
 1916SOL     OW 6646   3.801   1.150   2.693
 1916SOL    HW1 6647   3.871   1.211   2.730
 1916SOL    HW2 6648   3.843   1.063   2.666
 1917SOL     OW 6649   2.311   3.868   1.196
 1917SOL    HW1 6650   2.379   3.923   1.244
 1917SOL    HW2 6651   2.247   3.830   1.263
 1918SOL     OW 6652   5.358   2.281   3.732
 1918SOL    HW1 6653   5.311   2.200   3.698
 1918SOL    HW2 6654   5.319   2.308   3.820
 1919SOL     OW 6655   6.256   2.165   6.303
 1919SOL    HW1 6656   6.296   2.079   6.271
 1919SOL    HW2 6657   6.203   2.207   6.230
 1920SOL     OW 6658   4.450   3.580   0.544
 1920SOL    HW1 6659   4.374   3.515   0.533
 1920SOL    HW2 6660   4.476   3.616   0.455
 1921SOL     OW 6661   2.769   2.261   0.230
 1921SOL    HW1 6662   2.843   2.291   0.170
 1921SOL    HW2 6663   2.771   2.314   0.315
 1922SOL     OW 6664   3.173   3.558   4.294
 1922SOL    HW1 6665   3.187   3.501   4.375
 1922SOL    HW2 6666   3.079   3.593   4.294
 1923SOL     OW 6667   3.020   1.013   4.310
 1923SOL    HW1 6668   2.941   1.068   4.283
 1923SOL    HW2 6669   3.041   1.031   4.406
 1924SOL     OW 6670   5.502   0.904   0.484
 1924SOL    HW1 6671   5.438   0.828   0.492
 1924SOL    HW2 6672   5.572   0.882   0.417
 1925SOL     OW 6673   0.988   4.307   1.063
 1925SOL    HW1 6674   1.033   4.222   1.090
 1925SOL    HW2 6675   0.897   4.287   1.028
 1926SOL     OW 6676   3.436   0.349   1.751
 1926SOL    HW1 6677   3.434   0.363   1.851
 1926SOL    HW2 6678   3.448   0.438   1.706
 1927SOL     OW 6679   2.287   5.722   0.808
 1927SOL    HW1 6680   2.219   5.706   0.737
 1927SOL    HW2 6681   2.254   5.684   0.895
 1928SOL     OW 6682   7.013   4.240   3.031
 1928SOL    HW1 6683   0.047   4.294   3.094
 1928SOL    HW2 6684   6.939   4.196   3.082
 1929SOL     OW 6685   3.435   6.999   3.190
 1929SOL    HW1 6686   3.350   0.031   3.196
 1929SOL    HW2 6687   3.484   7.005   3.277
 1930SOL     OW 6688   3.600   3.258   0.128
 1930SOL    HW1 6689   3.510   3.223   0.104
 1930SOL    HW2 6690   3.603   3.281   0.225
 1931SOL     OW 6691   6.522   3.316   3.587
 1931SOL    HW1 6692   6.601   3.258   3.604
 1931SOL    HW2 6693   6.446   3.260   3.552
 1932SOL     OW 6694   5.155   0.509   2.069
 1932SOL    HW1 6695   5.068   0.532   2.112
 1932SOL    HW2 6696   5.191   0.590   2.021
 1933SOL     OW 6697   1.740   1.643   1.185
 1933SOL    HW1 6698   1.736   1.546   1.211
 1933SOL    HW2 6699   1.681   1.659   1.107
 1934SOL     OW 6700   6.718   1.074   6.599
 1934SOL    HW1 6701   6.714   1.152   6.660
 1934SOL    HW2 6702   6.703   1.104   6.505
 1935SOL     OW 6703   5.818   5.077   4.021
 1935SOL    HW1 6704   5.824   5.084   4.121
 1935SOL    HW2 6705   5.894   5.127   3.979
 1936SOL     OW 6706   5.087   3.006   6.636
 1936SOL    HW1 6707   5.001   3.052   6.659
 1936SOL    HW2 6708   5.081   2.969   6.543
 1937SOL     OW 6709   0.447   4.687   6.870
 1937SOL    HW1 6710   0.500   4.766   6.840
 1937SOL    HW2 6711   0.352   4.713   6.882
 1938SOL     OW 6712   6.534   2.032   0.277
 1938SOL    HW1 6713   6.573   2.120   0.251
 1938SOL    HW2 6714   6.602   1.980   0.329
 1939SOL     OW 6715   0.256   0.068   4.194
 1939SOL    HW1 6716   0.299   0.038   4.108
 1939SOL    HW2 6717   0.314   0.137   4.237
 1940SOL     OW 6718   1.188   5.022   1.823
 1940SOL    HW1 6719   1.203   4.967   1.906
 1940SOL    HW2 6720   1.160   5.114   1.849
 1941SOL     OW 6721   6.025   0.873   4.546
 1941SOL    HW1 6722   6.013   0.865   4.645
 1941SOL    HW2 6723   6.093   0.807   4.514
 1942SOL     OW 6724   0.606   5.433   1.969
 1942SOL    HW1 6725   0.608   5.336   1.993
 1942SOL    HW2 6726   0.659   5.448   1.886
 1943SOL     OW 6727   0.785   3.124   3.903
 1943SOL    HW1 6728   0.820   3.033   3.887
 1943SOL    HW2 6729   0.860   3.186   3.927
 1944SOL     OW 6730   0.396   3.134   3.868
 1944SOL    HW1 6731   0.310   3.102   3.831
 1944SOL    HW2 6732   0.422   3.078   3.947
 1945SOL     OW 6733   5.177   1.610   2.433
 1945SOL    HW1 6734   5.115   1.680   2.468
 1945SOL    HW2 6735   5.173   1.530   2.493
 1946SOL     OW 6736   5.858   5.624   0.309
 1946SOL    HW1 6737   5.839   5.696   0.376
 1946SOL    HW2 6738   5.815   5.539   0.339
 1947SOL     OW 6739   5.992   5.787   2.799
 1947SOL    HW1 6740   6.079   5.797   2.847
 1947SOL    HW2 6741   5.942   5.874   2.801
 1948SOL     OW 6742   5.394   3.555   3.550
 1948SOL    HW1 6743   5.311   3.606   3.572
 1948SOL    HW2 6744   5.464   3.619   3.516
 1949SOL     OW 6745   3.562   4.295   6.692
 1949SOL    HW1 6746   3.571   4.228   6.619
 1949SOL    HW2 6747   3.603   4.258   6.776
 1950SOL     OW 6748   4.016   3.861   3.732
 1950SOL    HW1 6749   3.955   3.842   3.655
 1950SOL    HW2 6750   4.102   3.898   3.698
 1951SOL     OW 6751   6.789   5.449   6.358
 1951SOL    HW1 6752   6.874   5.434   6.308
 1951SOL    HW2 6753   6.718   5.481   6.295
 1952SOL     OW 6754   5.775   3.709   6.661
 1952SOL    HW1 6755   5.854   3.755   6.702
 1952SOL    HW2 6756   5.806   3.645   6.591
 1953SOL     OW 6757   0.474   0.774   0.013
 1953SOL    HW1 6758   0.520   0.687   7.016
 1953SOL    HW2 6759   0.459   0.783   0.112
 1954SOL     OW 6760   3.793   6.933   2.278
 1954SOL    HW1 6761   3.854   6.854   2.288
 1954SOL    HW2 6762   3.830   7.010   2.330
 1955SOL     OW 6763   6.580   2.865   4.061
 1955SOL    HW1 6764   6.545   2.772   4.052
 1955SOL    HW2 6765   6.595   2.904   3.970
 1956SOL     OW 6766   4.743   1.319   1.342
 1956SOL    HW1 6767   4.652   1.352   1.317
 1956SOL    HW2 6768   4.811   1.353   1.276
 1957SOL     OW 6769   6.708   2.660   4.554
 1957SOL    HW1 6770   6.646   2.657   4.476
 1957SOL    HW2 6771   6.788   2.716   4.531
 1958SOL     OW 6772   4.467   1.913   0.173
 1958SOL    HW1 6773   4.514   1.979   0.232
 1958SOL    HW2 6774   4.369   1.934   0.171
 1959SOL     OW 6775   1.428   1.493   5.954
 1959SOL    HW1 6776   1.356   1.562   5.951
 1959SOL    HW2 6777   1.442   1.455   5.862
 1960SOL     OW 6778   4.965   4.336   2.633
 1960SOL    HW1 6779   4.936   4.255   2.685
 1960SOL    HW2 6780   4.885   4.390   2.608
 1961SOL     OW 6781   0.325   3.933   4.433
 1961SOL    HW1 6782   0.282   3.896   4.515
 1961SOL    HW2 6783   0.422   3.908   4.433
 1962SOL     OW 6784   0.168   6.984   1.824
 1962SOL    HW1 6785   0.121   0.047   1.850
 1962SOL    HW2 6786   0.178   6.981   1.725
 1963SOL     OW 6787   1.014   2.206   0.164
 1963SOL    HW1 6788   1.106   2.182   0.194
 1963SOL    HW2 6789   1.016   2.237   0.069
 1964SOL     OW 6790   5.477   3.424   0.828
 1964SOL    HW1 6791   5.383   3.457   0.836
 1964SOL    HW2 6792   5.540   3.502   0.832
 1965SOL     OW 6793   5.558   5.006   4.795
 1965SOL    HW1 6794   5.496   5.074   4.832
 1965SOL    HW2 6795   5.509   4.947   4.731
 1966SOL     OW 6796   1.081   5.361   6.589
 1966SOL    HW1 6797   1.030   5.275   6.590
 1966SOL    HW2 6798   1.060   5.411   6.505
 1967SOL     OW 6799   6.722   2.386   4.931
 1967SOL    HW1 6800   6.797   2.412   4.871
 1967SOL    HW2 6801   6.743   2.413   5.025
 1968SOL     OW 6802   2.707   1.302   5.966
 1968SOL    HW1 6803   2.708   1.402   5.960
 1968SOL    HW2 6804   2.612   1.269   5.964
 1969SOL     OW 6805   0.583   5.917   1.464
 1969SOL    HW1 6806   0.542   5.861   1.392
 1969SOL    HW2 6807   0.512   5.945   1.529
 1970SOL     OW 6808   5.093   4.206   3.557
 1970SOL    HW1 6809   5.003   4.251   3.558
 1970SOL    HW2 6810   5.127   4.201   3.463
 1971SOL     OW 6811   2.026   5.234   4.411
 1971SOL    HW1 6812   2.042   5.136   4.422
 1971SOL    HW2 6813   2.087   5.285   4.473
 1972SOL     OW 6814   5.621   2.241   2.494
 1972SOL    HW1 6815   5.652   2.328   2.457
 1972SOL    HW2 6816   5.523   2.244   2.511
 1973SOL     OW 6817   3.846   2.130   0.787
 1973SOL    HW1 6818   3.777   2.075   0.739
 1973SOL    HW2 6819   3.806   2.219   0.811
 1974SOL     OW 6820   2.319   6.464   4.709
 1974SOL    HW1 6821   2.410   6.433   4.736
 1974SOL    HW2 6822   2.260   6.466   4.790
 1975SOL     OW 6823   2.246   2.737   2.108
 1975SOL    HW1 6824   2.299   2.788   2.040
 1975SOL    HW2 6825   2.196   2.802   2.166
 1976SOL     OW 6826   1.452   1.026   5.369
 1976SOL    HW1 6827   1.446   1.059   5.275
 1976SOL    HW2 6828   1.452   0.926   5.370
 1977SOL     OW 6829   1.109   3.545   6.767
 1977SOL    HW1 6830   1.031   3.488   6.739
 1977SOL    HW2 6831   1.083   3.601   6.845
 1978SOL     OW 6832   2.631   0.197   2.095
 1978SOL    HW1 6833   2.679   0.167   2.177
 1978SOL    HW2 6834   2.690   0.259   2.043
 1979SOL     OW 6835   5.424   3.605   6.307
 1979SOL    HW1 6836   5.350   3.626   6.243
 1979SOL    HW2 6837   5.388   3.551   6.383
 1980SOL     OW 6838   3.785   0.496   1.343
 1980SOL    HW1 6839   3.767   0.509   1.246
 1980SOL    HW2 6840   3.829   0.578   1.380
 1981SOL     OW 6841   4.301   2.427   1.916
 1981SOL    HW1 6842   4.219   2.370   1.911
 1981SOL    HW2 6843   4.327   2.441   2.011
 1982SOL     OW 6844   1.750   2.789   6.660
 1982SOL    HW1 6845   1.845   2.820   6.660
 1982SOL    HW2 6846   1.690   2.866   6.681
 1983SOL     OW 6847   0.254   1.885   1.630
 1983SOL    HW1 6848   0.227   1.981   1.638
 1983SOL    HW2 6849   0.240   1.839   1.718
 1984SOL     OW 6850   4.494   3.608   5.584
 1984SOL    HW1 6851   4.407   3.558   5.589
 1984SOL    HW2 6852   4.506   3.662   5.668
 1985SOL     OW 6853   5.830   4.804   4.267
 1985SOL    HW1 6854   5.783   4.885   4.302
 1985SOL    HW2 6855   5.899   4.832   4.199
 1986SOL     OW 6856   2.901   3.456   2.976
 1986SOL    HW1 6857   2.870   3.409   2.893
 1986SOL    HW2 6858   2.867   3.550   2.976
 1987SOL     OW 6859   2.053   1.689   2.096
 1987SOL    HW1 6860   2.120   1.752   2.057
 1987SOL    HW2 6861   2.011   1.731   2.177
 1988SOL     OW 6862   1.174   2.388   3.103
 1988SOL    HW1 6863   1.132   2.385   3.012
 1988SOL    HW2 6864   1.202   2.481   3.124
 1989SOL     OW 6865   3.287   5.509   4.291
 1989SOL    HW1 6866   3.208   5.451   4.308
 1989SOL    HW2 6867   3.286   5.540   4.195
 1990SOL     OW 6868   4.641   6.439   0.393
 1990SOL    HW1 6869   4.580   6.436   0.473
 1990SOL    HW2 6870   4.595   6.489   0.319
 1991SOL     OW 6871   3.099   6.219   1.801
 1991SOL    HW1 6872   3.138   6.294   1.749
 1991SOL    HW2 6873   3.004   6.204   1.774
 1992SOL     OW 6874   1.389   0.026   3.064
 1992SOL    HW1 6875   1.480   0.042   3.104
 1992SOL    HW2 6876   1.320   0.033   3.136
 1993SOL     OW 6877   1.900   1.458   2.082
 1993SOL    HW1 6878   1.966   1.533   2.091
 1993SOL    HW2 6879   1.826   1.487   2.022
 1994SOL     OW 6880   3.317   3.385   1.539
 1994SOL    HW1 6881   3.229   3.417   1.575
 1994SOL    HW2 6882   3.368   3.462   1.503
 1995SOL     OW 6883   5.986   0.957   4.249
 1995SOL    HW1 6884   5.968   0.945   4.346
 1995SOL    HW2 6885   5.916   1.016   4.208
 1996SOL     OW 6886   5.180   0.214   1.019
 1996SOL    HW1 6887   5.216   0.248   1.105
 1996SOL    HW2 6888   5.222   0.264   0.943
 1997SOL     OW 6889   3.539   1.598   3.344
 1997SOL    HW1 6890   3.473   1.632   3.410
 1997SOL    HW2 6891   3.594   1.525   3.385
 1998SOL     OW 6892   2.430   3.673   1.053
 1998SOL    HW1 6893   2.376   3.592   1.032
 1998SOL    HW2 6894   2.379   3.730   1.118
 1999SOL     OW 6895   0.936   7.011   6.070
 1999SOL    HW1 6896   1.033   6.986   6.073
 1999SOL    HW2 6897   0.913   0.022   5.978
 2000SOL     OW 6898   4.164   4.318   6.494
 2000SOL    HW1 6899   4.195   4.262   6.417
 2000SOL    HW2 6900   4.154   4.260   6.575
 2001SOL     OW 6901   1.514   2.168   1.006
 2001SOL    HW1 6902   1.426   2.211   1.024
 2001SOL    HW2 6903   1.503   2.068   1.006
 2002SOL     OW 6904   6.068   5.225   0.238
 2002SOL    HW1 6905   6.045   5.178   0.323
 2002SOL    HW2 6906   6.155   5.189   0.203
 2003SOL     OW 6907   6.202   5.465   1.301
 2003SOL    HW1 6908   6.130   5.528   1.328
 2003SOL    HW2 6909   6.291   5.509   1.312
 2004SOL     OW 6910   3.923   0.407   2.776
 2004SOL    HW1 6911   3.996   0.470   2.801
 2004SOL    HW2 6912   3.843   0.459   2.744
 2005SOL     OW 6913   1.938   6.552   0.145
 2005SOL    HW1 6914   1.956   6.580   0.240
 2005SOL    HW2 6915   1.856   6.495   0.142
 2006SOL     OW 6916   6.356   6.775   2.023
 2006SOL    HW1 6917   6.271   6.825   2.040
 2006SOL    HW2 6918   6.431   6.820   2.072
 2007SOL     OW 6919   5.455   5.162   5.747
 2007SOL    HW1 6920   5.543   5.116   5.745
 2007SOL    HW2 6921   5.410   5.153   5.658
 2008SOL     OW 6922   1.823   3.088   3.077
 2008SOL    HW1 6923   1.909   3.139   3.082
 2008SOL    HW2 6924   1.769   3.106   3.159
 2009SOL     OW 6925   6.121   0.112   3.114
 2009SOL    HW1 6926   6.082   0.103   3.205
 2009SOL    HW2 6927   6.144   0.021   3.079
 2010SOL     OW 6928   0.468   1.466   1.729
 2010SOL    HW1 6929   0.437   1.465   1.824
 2010SOL    HW2 6930   0.528   1.544   1.714
 2011SOL     OW 6931   1.053   0.215   5.123
 2011SOL    HW1 6932   1.003   0.149   5.179
 2011SOL    HW2 6933   1.059   0.182   5.029
 2012SOL     OW 6934   0.123   2.373   0.467
 2012SOL    HW1 6935   0.126   2.273   0.457
 2012SOL    HW2 6936   0.206   2.412   0.429
 2013SOL     OW 6937   0.845   3.254   2.407
 2013SOL    HW1 6938   0.836   3.241   2.506
 2013SOL    HW2 6939   0.942   3.256   2.382
 2014SOL     OW 6940   3.719   1.800   4.018
 2014SOL    HW1 6941   3.780   1.729   4.054
 2014SOL    HW2 6942   3.763   1.890   4.027
 2015SOL     OW 6943   4.095   6.076   1.415
 2015SOL    HW1 6944   4.141   6.001   1.461
 2015SOL    HW2 6945   4.052   6.043   1.331
 2016SOL     OW 6946   1.449   0.774   5.391
 2016SOL    HW1 6947   1.548   0.762   5.384
 2016SOL    HW2 6948   1.403   0.714   5.326
 2017SOL     OW 6949   2.528   6.786   4.534
 2017SOL    HW1 6950   2.594   6.719   4.566
 2017SOL    HW2 6951   2.450   6.740   4.493
 2018SOL     OW 6952   0.284   0.484   4.630
 2018SOL    HW1 6953   0.322   0.405   4.581
 2018SOL    HW2 6954   0.359   0.536   4.672
 2019SOL     OW 6955   0.165   4.718   6.858
 2019SOL    HW1 6956   0.070   4.702   6.883
 2019SOL    HW2 6957   0.169   4.760   6.767
 2020SOL     OW 6958   1.500   6.769   1.223
 2020SOL    HW1 6959   1.543   6.844   1.273
 2020SOL    HW2 6960   1.545   6.683   1.248
 2021SOL     OW 6961   6.893   5.650   4.067
 2021SOL    HW1 6962   6.888   5.610   3.976
 2021SOL    HW2 6963   6.897   5.750   4.059
 2022SOL     OW 6964   1.919   3.179   4.185
 2022SOL    HW1 6965   1.968   3.176   4.098
 2022SOL    HW2 6966   1.951   3.258   4.238
 2023SOL     OW 6967   0.628   5.307   0.061
 2023SOL    HW1 6968   0.642   5.405   0.044
 2023SOL    HW2 6969   0.552   5.274   0.004
 2024SOL     OW 6970   6.435   6.072   3.536
 2024SOL    HW1 6971   6.450   5.994   3.596
 2024SOL    HW2 6972   6.437   6.156   3.590
 2025SOL     OW 6973   2.102   0.331   4.186
 2025SOL    HW1 6974   2.187   0.369   4.223
 2025SOL    HW2 6975   2.090   0.364   4.092
 2026SOL     OW 6976   1.522   0.009   5.414
 2026SOL    HW1 6977   1.445   7.021   5.351
 2026SOL    HW2 6978   1.591   6.962   5.394
 2027SOL     OW 6979   6.343   6.383   2.813
 2027SOL    HW1 6980   6.353   6.316   2.739
 2027SOL    HW2 6981   6.416   6.369   2.880
 2028SOL     OW 6982   2.378   6.264   4.979
 2028SOL    HW1 6983   2.364   6.236   5.074
 2028SOL    HW2 6984   2.309   6.220   4.922
 2029SOL     OW 6985   6.139   1.960   6.667
 2029SOL    HW1 6986   6.225   1.911   6.669
 2029SOL    HW2 6987   6.135   2.017   6.584
 2030SOL     OW 6988   1.938   6.586   3.004
 2030SOL    HW1 6989   1.909   6.495   3.033
 2030SOL    HW2 6990   1.983   6.579   2.915
 2031SOL     OW 6991   0.130   6.599   5.466
 2031SOL    HW1 6992   0.215   6.563   5.505
 2031SOL    HW2 6993   0.152   6.676   5.405
 2032SOL     OW 6994   2.622   2.998   6.809
 2032SOL    HW1 6995   2.551   2.979   6.741
 2032SOL    HW2 6996   2.697   2.933   6.799
 2033SOL     OW 6997   2.615   0.589   1.424
 2033SOL    HW1 6998   2.561   0.637   1.354
 2033SOL    HW2 6999   2.581   0.496   1.435
 2034SOL     OW 7000   0.777   4.223   5.092
 2034SOL    HW1 7001   0.764   4.158   5.167
 2034SOL    HW2 7002   0.688   4.257   5.061
 2035SOL     OW 7003   5.671   5.531   2.755
 2035SOL    HW1 7004   5.598   5.592   2.786
 2035SOL    HW2 7005   5.640   5.480   2.675
 2036SOL     OW 7006   0.372   3.929   6.023
 2036SOL    HW1 7007   0.471   3.929   6.034
 2036SOL    HW2 7008   0.343   3.840   5.986
 2037SOL     OW 7009   0.945   2.593   6.801
 2037SOL    HW1 7010   1.031   2.579   6.753
 2037SOL    HW2 7011   0.875   2.532   6.764
 2038SOL     OW 7012   1.624   0.674   5.671
 2038SOL    HW1 7013   1.525   0.675   5.660
 2038SOL    HW2 7014   1.652   0.752   5.729
 2039SOL     OW 7015   5.232   5.971   4.224
 2039SOL    HW1 7016   5.316   5.985   4.277
 2039SOL    HW2 7017   5.153   5.986   4.283
 2040SOL     OW 7018   2.787   1.534   0.833
 2040SOL    HW1 7019   2.885   1.526   0.819
 2040SOL    HW2 7020   2.742   1.553   0.745
 2041SOL     OW 7021   3.343   6.693   0.183
 2041SOL    HW1 7022   3.271   6.658   0.243
 2041SOL    HW2 7023   3.314   6.780   0.144
 2042SOL     OW 7024   0.245   0.238   5.380
 2042SOL    HW1 7025   0.220   0.321   5.430
 2042SOL    HW2 7026   0.266   0.165   5.444
 2043SOL     OW 7027   0.897   3.596   0.470
 2043SOL    HW1 7028   0.831   3.603   0.545
 2043SOL    HW2 7029   0.852   3.617   0.383
 2044SOL     OW 7030   4.087   0.680   1.999
 2044SOL    HW1 7031   4.172   0.673   2.052
 2044SOL    HW2 7032   4.040   0.765   2.023
 2045SOL     OW 7033   1.908   5.663   3.165
 2045SOL    HW1 7034   2.003   5.632   3.165
 2045SOL    HW2 7035   1.856   5.614   3.095
 2046SOL     OW 7036   0.840   2.705   6.110
 2046SOL    HW1 7037   0.912   2.771   6.133
 2046SOL    HW2 7038   0.778   2.745   6.043
 2047SOL     OW 7039   7.019   0.175   1.868
 2047SOL    HW1 7040   7.005   0.274   1.857
 2047SOL    HW2 7041   6.937   0.126   1.836
 2048SOL     OW 7042   1.692   0.922   3.436
 2048SOL    HW1 7043   1.703   0.973   3.350
 2048SOL    HW2 7044   1.640   0.839   3.419
 2049SOL     OW 7045   4.569   2.176   5.370
 2049SOL    HW1 7046   4.655   2.152   5.415
 2049SOL    HW2 7047   4.582   2.173   5.271
 2050SOL     OW 7048   0.325   1.014   2.565
 2050SOL    HW1 7049   0.409   1.050   2.524
 2050SOL    HW2 7050   0.299   0.930   2.518
 2051SOL     OW 7051   2.845   0.252   6.678
 2051SOL    HW1 7052   2.746   0.261   6.669
 2051SOL    HW2 7053   2.889   0.286   6.594
 2052SOL     OW 7054   6.633   4.300   1.096
 2052SOL    HW1 7055   6.627   4.322   1.194
 2052SOL    HW2 7056   6.595   4.376   1.043
 2053SOL     OW 7057   4.793   5.098   1.810
 2053SOL    HW1 7058   4.838   5.160   1.747
 2053SOL    HW2 7059   4.694   5.114   1.808
 2054SOL     OW 7060   3.247   3.907   3.297
 2054SOL    HW1 7061   3.301   3.928   3.378
 2054SOL    HW2 7062   3.150   3.902   3.321
 2055SOL     OW 7063   3.902   2.510   6.029
 2055SOL    HW1 7064   3.907   2.465   5.940
 2055SOL    HW2 7065   3.927   2.445   6.100
 2056SOL     OW 7066   2.750   5.166   2.052
 2056SOL    HW1 7067   2.675   5.151   1.987
 2056SOL    HW2 7068   2.835   5.131   2.013
 2057SOL     OW 7069   6.034   2.951   3.731
 2057SOL    HW1 7070   6.091   2.884   3.684
 2057SOL    HW2 7071   6.060   3.043   3.701
 2058SOL     OW 7072   5.212   0.146   3.805
 2058SOL    HW1 7073   5.133   0.115   3.856
 2058SOL    HW2 7074   5.230   0.083   3.729
 2059SOL     OW 7075   2.193   1.375   5.657
 2059SOL    HW1 7076   2.197   1.335   5.749
 2059SOL    HW2 7077   2.098   1.379   5.627
 2060SOL     OW 7078   1.215   2.576   6.692
 2060SOL    HW1 7079   1.272   2.580   6.610
 2060SOL    HW2 7080   1.238   2.495   6.745
 2061SOL     OW 7081   1.740   2.336   4.139
 2061SOL    HW1 7082   1.757   2.312   4.235
 2061SOL    HW2 7083   1.809   2.292   4.082
 2062SOL     OW 7084   5.316   5.721   3.728
 2062SOL    HW1 7085   5.222   5.753   3.742
 2062SOL    HW2 7086   5.318   5.656   3.652
 2063SOL     OW 7087   1.216   1.646   4.533
 2063SOL    HW1 7088   1.263   1.701   4.465
 2063SOL    HW2 7089   1.246   1.674   4.625
 2064SOL     OW 7090   0.667   3.939   4.841
 2064SOL    HW1 7091   0.617   3.963   4.924
 2064SOL    HW2 7092   0.764   3.929   4.863
 2065SOL     OW 7093   3.890   3.716   5.974
 2065SOL    HW1 7094   3.793   3.697   5.989
 2065SOL    HW2 7095   3.919   3.674   5.888
 2066SOL     OW 7096   1.893   2.851   4.403
 2066SOL    HW1 7097   1.796   2.826   4.401
 2066SOL    HW2 7098   1.939   2.810   4.324
 2067SOL     OW 7099   6.499   5.174   2.347
 2067SOL    HW1 7100   6.442   5.195   2.268
 2067SOL    HW2 7101   6.567   5.104   2.323
 2068SOL     OW 7102   3.394   6.797   4.134
 2068SOL    HW1 7103   3.352   6.883   4.165
 2068SOL    HW2 7104   3.488   6.793   4.165
 2069SOL     OW 7105   6.248   1.820   3.108
 2069SOL    HW1 7106   6.232   1.771   3.194
 2069SOL    HW2 7107   6.346   1.831   3.094
 2070SOL     OW 7108   0.010   5.062   1.996
 2070SOL    HW1 7109   0.100   5.102   1.980
 2070SOL    HW2 7110   7.000   5.018   1.912
 2071SOL     OW 7111   6.772   2.530   3.935
 2071SOL    HW1 7112   6.771   2.584   3.851
 2071SOL    HW2 7113   6.799   2.436   3.914
 2072SOL     OW 7114   5.385   2.925   5.336
 2072SOL    HW1 7115   5.342   2.837   5.359
 2072SOL    HW2 7116   5.313   2.993   5.320
 2073SOL     OW 7117   3.522   5.218   6.991
 2073SOL    HW1 7118   3.432   5.257   6.974
 2073SOL    HW2 7119   3.564   5.190   6.905
 2074SOL     OW 7120   3.810   4.835   5.281
 2074SOL    HW1 7121   3.818   4.880   5.192
 2074SOL    HW2 7122   3.886   4.862   5.339
 2075SOL     OW 7123   5.339   1.328   1.159
 2075SOL    HW1 7124   5.295   1.241   1.134
 2075SOL    HW2 7125   5.312   1.353   1.252
 2076SOL     OW 7126   6.939   6.898   3.700
 2076SOL    HW1 7127   6.965   6.985   3.656
 2076SOL    HW2 7128   6.987   6.890   3.787
 2077SOL     OW 7129   0.548   4.356   1.145
 2077SOL    HW1 7130   0.554   4.432   1.081
 2077SOL    HW2 7131   0.455   4.320   1.145
 2078SOL     OW 7132   0.770   2.726   0.097
 2078SOL    HW1 7133   0.698   2.668   0.058
 2078SOL    HW2 7134   0.812   2.678   0.174
 2079SOL     OW 7135   5.878   2.060   3.395
 2079SOL    HW1 7136   5.881   2.033   3.298
 2079SOL    HW2 7137   5.785   2.046   3.430
 2080SOL     OW 7138   1.972   3.392   5.722
 2080SOL    HW1 7139   1.880   3.376   5.688
 2080SOL    HW2 7140   2.015   3.465   5.668
 2081SOL     OW 7141   0.702   5.916   2.665
 2081SOL    HW1 7142   0.791   5.871   2.662
 2081SOL    HW2 7143   0.669   5.920   2.759
 2082SOL     OW 7144   6.502   6.291   3.725
 2082SOL    HW1 7145   6.476   6.384   3.698
 2082SOL    HW2 7146   6.599   6.276   3.705
 2083SOL     OW 7147   0.665   5.317   3.122
 2083SOL    HW1 7148   0.744   5.378   3.115
 2083SOL    HW2 7149   0.676   5.257   3.200
 2084SOL     OW 7150   6.237   2.178   1.393
 2084SOL    HW1 7151   6.299   2.250   1.425
 2084SOL    HW2 7152   6.146   2.218   1.377
 2085SOL     OW 7153   6.290   5.724   6.899
 2085SOL    HW1 7154   6.359   5.656   6.921
 2085SOL    HW2 7155   6.334   5.808   6.868
 2086SOL     OW 7156   6.289   0.097   5.590
 2086SOL    HW1 7157   6.196   0.085   5.554
 2086SOL    HW2 7158   6.293   0.061   5.683
 2087SOL     OW 7159   5.132   1.447   6.743
 2087SOL    HW1 7160   5.158   1.543   6.750
 2087SOL    HW2 7161   5.035   1.441   6.717
 2088SOL     OW 7162   0.445   3.450   5.832
 2088SOL    HW1 7163   0.396   3.522   5.881
 2088SOL    HW2 7164   0.380   3.394   5.781
 2089SOL     OW 7165   3.014   5.257   4.816
 2089SOL    HW1 7166   3.017   5.160   4.839
 2089SOL    HW2 7167   2.964   5.270   4.731
 2090SOL     OW 7168   5.028   2.160   6.418
 2090SOL    HW1 7169   4.985   2.091   6.476
 2090SOL    HW2 7170   4.989   2.250   6.437
 2091SOL     OW 7171   5.514   6.481   0.812
 2091SOL    HW1 7172   5.578   6.556   0.830
 2091SOL    HW2 7173   5.421   6.517   0.808
 2092SOL     OW 7174   3.415   2.888   2.672
 2092SOL    HW1 7175   3.403   2.987   2.677
 2092SOL    HW2 7176   3.369   2.853   2.591
 2093SOL     OW 7177   5.202   0.025   0.403
 2093SOL    HW1 7178   5.263   0.059   0.331
 2093SOL    HW2 7179   5.133   0.094   0.424
 2094SOL     OW 7180   4.711   2.930   0.846
 2094SOL    HW1 7181   4.705   2.887   0.936
 2094SOL    HW2 7182   4.760   3.017   0.855
 2095SOL     OW 7183   5.029   5.512   3.239
 2095SOL    HW1 7184   5.098   5.542   3.172
 2095SOL    HW2 7185   4.941   5.552   3.216
 2096SOL     OW 7186   4.039   6.611   3.057
 2096SOL    HW1 7187   4.032   6.623   2.959
 2096SOL    HW2 7188   4.014   6.517   3.081
 2097SOL     OW 7189   1.730   6.004   5.511
 2097SOL    HW1 7190   1.814   6.044   5.549
 2097SOL    HW2 7191   1.708   5.921   5.561
 2098SOL     OW 7192   1.882   0.042   3.679
 2098SOL    HW1 7193   1.899   0.026   3.776
 2098SOL    HW2 7194   1.785   0.031   3.660
 2099SOL     OW 7195   4.827   1.722   6.671
 2099SOL    HW1 7196   4.793   1.642   6.621
 2099SOL    HW2 7197   4.815   1.707   6.769
 2100SOL     OW 7198   4.781   0.214   0.720
 2100SOL    HW1 7199   4.799   0.296   0.666
 2100SOL    HW2 7200   4.763   0.239   0.815
 2101SOL     OW 7201   1.669   0.768   2.553
 2101SOL    HW1 7202   1.604   0.845   2.546
 2101SOL    HW2 7203   1.618   0.682   2.553
 2102SOL     OW 7204   3.497   2.833   2.173
 2102SOL    HW1 7205   3.580   2.808   2.222
 2102SOL    HW2 7206   3.489   2.932   2.169
 2103SOL     OW 7207   1.889   6.972   1.365
 2103SOL    HW1 7208   1.970   6.917   1.342
 2103SOL    HW2 7209   1.916   0.045   1.379
 2104SOL     OW 7210   1.266   4.079   2.671
 2104SOL    HW1 7211   1.256   4.176   2.693
 2104SOL    HW2 7212   1.303   4.069   2.578
 2105SOL     OW 7213   5.406   6.588   5.451
 2105SOL    HW1 7214   5.368   6.623   5.537
 2105SOL    HW2 7215   5.410   6.662   5.384
 2106SOL     OW 7216   3.390   2.241   1.404
 2106SOL    HW1 7217   3.440   2.215   1.321
 2106SOL    HW2 7218   3.454   2.275   1.472
 2107SOL     OW 7219   5.766   4.390   4.878
 2107SOL    HW1 7220   5.852   4.338   4.885
 2107SOL    HW2 7221   5.754   4.445   4.960
 2108SOL     OW 7222   4.689   7.014   5.388
 2108SOL    HW1 7223   4.785   7.008   5.360
 2108SOL    HW2 7224   4.655   0.085   5.371
 2109SOL     OW 7225   2.750   5.582   2.122
 2109SOL    HW1 7226   2.678   5.581   2.053
 2109SOL    HW2 7227   2.822   5.518   2.096
 2110SOL     OW 7228   4.017   5.792   6.658
 2110SOL    HW1 7229   3.954   5.717   6.675
 2110SOL    HW2 7230   4.100   5.780   6.712
 2111SOL     OW 7231   0.480   2.704   0.466
 2111SOL    HW1 7232   0.489   2.774   0.396
 2111SOL    HW2 7233   0.448   2.619   0.424
 2112SOL     OW 7234   0.927   0.566   6.618
 2112SOL    HW1 7235   1.025   0.581   6.630
 2112SOL    HW2 7236   0.906   0.469   6.634
 2113SOL     OW 7237   7.008   1.425   4.560
 2113SOL    HW1 7238   6.995   1.410   4.462
 2113SOL    HW2 7239   6.953   1.504   4.588
 2114SOL     OW 7240   3.134   1.088   5.228
 2114SOL    HW1 7241   3.225   1.099   5.266
 2114SOL    HW2 7242   3.077   1.167   5.253
 2115SOL     OW 7243   6.694   0.005   3.619
 2115SOL    HW1 7244   6.769   6.989   3.673
 2115SOL    HW2 7245   6.614   0.019   3.678
 2116SOL     OW 7246   2.127   0.956   5.669
 2116SOL    HW1 7247   2.161   0.978   5.761
 2116SOL    HW2 7248   2.164   1.021   5.603
 2117SOL     OW 7249   5.939   3.280   1.531
 2117SOL    HW1 7250   5.904   3.218   1.461
 2117SOL    HW2 7251   5.867   3.345   1.557
 2118SOL     OW 7252   0.058   3.139   2.686
 2118SOL    HW1 7253   0.055   3.208   2.759
 2118SOL    HW2 7254   7.007   3.157   2.620
 2119SOL     OW 7255   2.040   2.548   0.261
 2119SOL    HW1 7256   2.086   2.569   0.347
 2119SOL    HW2 7257   1.942   2.537   0.277
 2120SOL     OW 7258   5.504   2.179   0.905
 2120SOL    HW1 7259   5.470   2.092   0.871
 2120SOL    HW2 7260   5.429   2.230   0.948
 2121SOL     OW 7261   3.014   5.967   1.460
 2121SOL    HW1 7262   3.066   5.961   1.545
 2121SOL    HW2 7263   2.971   5.879   1.441
 2122SOL     OW 7264   0.349   0.645   5.322
 2122SOL    HW1 7265   0.323   0.583   5.396
 2122SOL    HW2 7266   0.424   0.605   5.269
 2123SOL     OW 7267   0.895   4.881   3.314
 2123SOL    HW1 7268   0.934   4.873   3.406
 2123SOL    HW2 7269   0.810   4.829   3.309
 2124SOL     OW 7270   4.804   3.200   6.199
 2124SOL    HW1 7271   4.887   3.187   6.145
 2124SOL    HW2 7272   4.764   3.290   6.178
 2125SOL     OW 7273   2.141   5.488   6.117
 2125SOL    HW1 7274   2.070   5.480   6.047
 2125SOL    HW2 7275   2.169   5.397   6.146
 2126SOL     OW 7276   2.802   4.983   1.666
 2126SOL    HW1 7277   2.900   5.003   1.664
 2126SOL    HW2 7278   2.788   4.887   1.690
 2127SOL     OW 7279   1.653   3.796   3.812
 2127SOL    HW1 7280   1.595   3.862   3.859
 2127SOL    HW2 7281   1.645   3.706   3.856
 2128SOL     OW 7282   5.363   2.694   1.014
 2128SOL    HW1 7283   5.317   2.699   1.102
 2128SOL    HW2 7284   5.368   2.785   0.974
 2129SOL     OW 7285   5.848   4.444   3.845
 2129SOL    HW1 7286   5.856   4.350   3.812
 2129SOL    HW2 7287   5.927   4.467   3.902
 2130SOL     OW 7288   1.915   0.488   2.508
 2130SOL    HW1 7289   1.901   0.488   2.409
 2130SOL    HW2 7290   1.908   0.581   2.543
 2131SOL     OW 7291   5.487   0.791   6.787
 2131SOL    HW1 7292   5.394   0.796   6.822
 2131SOL    HW2 7293   5.515   0.695   6.780
 2132SOL     OW 7294   2.843   2.054   6.817
 2132SOL    HW1 7295   2.769   2.107   6.777
 2132SOL    HW2 7296   2.922   2.113   6.834
 2133SOL     OW 7297   4.277   2.781   1.524
 2133SOL    HW1 7298   4.317   2.753   1.611
 2133SOL    HW2 7299   4.343   2.834   1.471
 2134SOL     OW 7300   2.392   0.419   5.115
 2134SOL    HW1 7301   2.415   0.338   5.169
 2134SOL    HW2 7302   2.302   0.453   5.143
 2135SOL     OW 7303   0.722   6.058   4.137
 2135SOL    HW1 7304   0.774   5.984   4.094
 2135SOL    HW2 7305   0.765   6.082   4.224
 2136SOL     OW 7306   0.624   4.691   3.590
 2136SOL    HW1 7307   0.696   4.628   3.618
 2136SOL    HW2 7308   0.635   4.715   3.494
 2137SOL     OW 7309   0.188   0.074   4.609
 2137SOL    HW1 7310   0.123   0.098   4.538
 2137SOL    HW2 7311   0.143   0.074   4.698
 2138SOL     OW 7312   1.296   2.349   6.823
 2138SOL    HW1 7313   1.365   2.279   6.808
 2138SOL    HW2 7314   1.335   2.422   6.880
 2139SOL     OW 7315   3.194   5.873   4.414
 2139SOL    HW1 7316   3.244   5.810   4.474
 2139SOL    HW2 7317   3.234   5.870   4.322
 2140SOL     OW 7318   1.437   5.764   3.857
 2140SOL    HW1 7319   1.407   5.769   3.953
 2140SOL    HW2 7320   1.391   5.835   3.804
 2141SOL     OW 7321   6.610   0.928   6.811
 2141SOL    HW1 7322   6.661   0.982   6.744
 2141SOL    HW2 7323   6.522   0.972   6.829
 2142SOL     OW 7324   4.145   0.998   2.971
 2142SOL    HW1 7325   4.244   1.001   2.959
 2142SOL    HW2 7326   4.120   1.054   3.050
 2143SOL     OW 7327   3.451   5.801   0.547
 2143SOL    HW1 7328   3.535   5.748   0.536
 2143SOL    HW2 7329   3.444   5.867   0.472
 2144SOL     OW 7330   0.760   1.319   1.806
 2144SOL    HW1 7331   0.785   1.246   1.869
 2144SOL    HW2 7332   0.835   1.385   1.801
 2145SOL     OW 7333   2.292   6.154   3.772
 2145SOL    HW1 7334   2.208   6.101   3.763
 2145SOL    HW2 7335   2.326   6.180   3.682
 2146SOL     OW 7336   3.070   2.564   1.260
 2146SOL    HW1 7337   3.142   2.538   1.324
 2146SOL    HW2 7338   3.066   2.497   1.186
 2147SOL     OW 7339   6.751   0.194   4.746
 2147SOL    HW1 7340   6.739   0.264   4.817
 2147SOL    HW2 7341   6.739   0.236   4.656
 2148SOL     OW 7342   6.542   4.065   3.738
 2148SOL    HW1 7343   6.595   3.983   3.758
 2148SOL    HW2 7344   6.605   4.140   3.714
 2149SOL     OW 7345   2.624   1.297   2.659
 2149SOL    HW1 7346   2.661   1.289   2.751
 2149SOL    HW2 7347   2.562   1.376   2.654
 2150SOL     OW 7348   4.897   0.687   2.854
 2150SOL    HW1 7349   4.993   0.715   2.855
 2150SOL    HW2 7350   4.881   0.626   2.776
 2151SOL     OW 7351   4.272   4.797   5.715
 2151SOL    HW1 7352   4.278   4.730   5.641
 2151SOL    HW2 7353   4.249   4.750   5.800
 2152SOL     OW 7354   0.396   6.283   2.669
 2152SOL    HW1 7355   0.397   6.347   2.746
 2152SOL    HW2 7356   0.362   6.329   2.587
 2153SOL     OW 7357   4.379   1.315   3.865
 2153SOL    HW1 7358   4.295   1.323   3.811
 2153SOL    HW2 7359   4.428   1.232   3.838
 2154SOL     OW 7360   4.047   6.800   4.384
 2154SOL    HW1 7361   4.017   6.761   4.297
 2154SOL    HW2 7362   4.119   6.868   4.366
 2155SOL     OW 7363   6.265   3.369   0.447
 2155SOL    HW1 7364   6.249   3.468   0.448
 2155SOL    HW2 7365   6.182   3.322   0.478
 2156SOL     OW 7366   6.351   6.023   2.444
 2156SOL    HW1 7367   6.255   5.999   2.428
 2156SOL    HW2 7368   6.384   6.079   2.368
 2157SOL     OW 7369   5.787   1.530   3.412
 2157SOL    HW1 7370   5.752   1.546   3.320
 2157SOL    HW2 7371   5.876   1.484   3.406
 2158SOL     OW 7372   4.116   0.263   3.160
 2158SOL    HW1 7373   4.150   0.173   3.132
 2158SOL    HW2 7374   4.072   0.308   3.082
 2159SOL     OW 7375   2.481   1.100   5.456
 2159SOL    HW1 7376   2.462   1.131   5.549
 2159SOL    HW2 7377   2.497   1.179   5.397
 2160SOL     OW 7378   2.438   4.079   0.689
 2160SOL    HW1 7379   2.437   4.046   0.784
 2160SOL    HW2 7380   2.532   4.103   0.663
 2161SOL     OW 7381   4.513   2.445   3.214
 2161SOL    HW1 7382   4.454   2.367   3.194
 2161SOL    HW2 7383   4.481   2.490   3.297
 2162SOL     OW 7384   2.552   1.631   2.376
 2162SOL    HW1 7385   2.482   1.606   2.443
 2162SOL    HW2 7386   2.563   1.731   2.375
 2163SOL     OW 7387   3.682   1.888   1.188
 2163SOL    HW1 7388   3.776   1.897   1.158
 2163SOL    HW2 7389   3.630   1.835   1.121
 2164SOL     OW 7390   6.488   0.916   1.440
 2164SOL    HW1 7391   6.538   0.968   1.509
 2164SOL    HW2 7392   6.538   0.831   1.420
 2165SOL     OW 7393   2.214   0.672   1.970
 2165SOL    HW1 7394   2.115   0.661   1.961
 2165SOL    HW2 7395   2.249   0.726   1.894
 2166SOL     OW 7396   5.596   2.769   4.729
 2166SOL    HW1 7397   5.673   2.728   4.680
 2166SOL    HW2 7398   5.516   2.709   4.719
 2167SOL     OW 7399   3.435   1.730   0.999
 2167SOL    HW1 7400   3.433   1.756   1.095
 2167SOL    HW2 7401   3.341   1.716   0.967
 2168SOL     OW 7402   5.228   6.322   4.359
 2168SOL    HW1 7403   5.299   6.286   4.298
 2168SOL    HW2 7404   5.270   6.375   4.432
 2169SOL     OW 7405   5.423   1.633   5.818
 2169SOL    HW1 7406   5.515   1.593   5.814
 2169SOL    HW2 7407   5.355   1.560   5.806
 2170SOL     OW 7408   4.909   5.292   4.317
 2170SOL    HW1 7409   4.846   5.253   4.384
 2170SOL    HW2 7410   5.001   5.259   4.335
 2171SOL     OW 7411   0.468   3.814   0.029
 2171SOL    HW1 7412   0.391   3.878   0.019
 2171SOL    HW2 7413   0.494   3.808   0.125
 2172SOL     OW 7414   1.793   0.435   2.816
 2172SOL    HW1 7415   1.891   0.421   2.829
 2172SOL    HW2 7416   1.775   0.457   2.720
 2173SOL     OW 7417   4.773   2.046   4.732
 2173SOL    HW1 7418   4.858   2.009   4.769
 2173SOL    HW2 7419   4.740   2.119   4.792
 2174SOL     OW 7420   1.221   5.897   5.174
 2174SOL    HW1 7421   1.190   5.971   5.113
 2174SOL    HW2 7422   1.142   5.845   5.206
 2175SOL     OW 7423   1.558   6.727   6.421
 2175SOL    HW1 7424   1.521   6.679   6.341
 2175SOL    HW2 7425   1.619   6.799   6.391
 2176SOL     OW 7426   1.961   2.782   2.466
 2176SOL    HW1 7427   1.963   2.815   2.561
 2176SOL    HW2 7428   2.050   2.743   2.442
 2177SOL     OW 7429   0.890   1.627   1.465
 2177SOL    HW1 7430   0.861   1.717   1.497
 2177SOL    HW2 7431   0.823   1.559   1.493
 2178SOL     OW 7432   6.570   5.858   0.153
 2178SOL    HW1 7433   6.471   5.848   0.140
 2178SOL    HW2 7434   6.600   5.943   0.110
 2179SOL     OW 7435   2.211   4.087   4.141
 2179SOL    HW1 7436   2.262   4.145   4.204
 2179SOL    HW2 7437   2.166   4.014   4.193
 2180SOL     OW 7438   2.843   3.312   1.990
 2180SOL    HW1 7439   2.879   3.403   1.968
 2180SOL    HW2 7440   2.885   3.279   2.074
 2181SOL     OW 7441   3.793   6.991   0.902
 2181SOL    HW1 7442   3.702   6.953   0.922
 2181SOL    HW2 7443   3.800   7.010   0.804
 2182SOL     OW 7444   4.113   3.463   0.714
 2182SOL    HW1 7445   4.028   3.455   0.766
 2182SOL    HW2 7446   4.186   3.493   0.775
 2183SOL     OW 7447   4.198   2.849   0.865
 2183SOL    HW1 7448   4.186   2.939   0.823
 2183SOL    HW2 7449   4.117   2.826   0.919
 2184SOL     OW 7450   4.769   2.775   5.953
 2184SOL    HW1 7451   4.819   2.843   5.900
 2184SOL    HW2 7452   4.736   2.816   6.038
 2185SOL     OW 7453   6.624   6.351   2.279
 2185SOL    HW1 7454   6.563   6.420   2.239
 2185SOL    HW2 7455   6.643   6.280   2.212
 2186SOL     OW 7456   6.807   4.516   3.280
 2186SOL    HW1 7457   6.714   4.552   3.292
 2186SOL    HW2 7458   6.840   4.540   3.189
 2187SOL     OW 7459   6.373   0.959   0.055
 2187SOL    HW1 7460   6.470   0.937   0.061
 2187SOL    HW2 7461   6.321   0.905   0.121
 2188SOL     OW 7462   4.775   1.582   3.708
 2188SOL    HW1 7463   4.787   1.657   3.642
 2188SOL    HW2 7464   4.678   1.574   3.731
 2189SOL     OW 7465   3.792   6.266   0.250
 2189SOL    HW1 7466   3.855   6.343   0.240
 2189SOL    HW2 7467   3.843   6.183   0.272
 2190SOL     OW 7468   5.259   3.156   0.871
 2190SOL    HW1 7469   5.301   3.245   0.855
 2190SOL    HW2 7470   5.257   3.105   0.785
 2191SOL     OW 7471   3.656   0.832   6.665
 2191SOL    HW1 7472   3.645   0.798   6.758
 2191SOL    HW2 7473   3.568   0.865   6.631
 2192SOL     OW 7474   4.251   6.310   2.186
 2192SOL    HW1 7475   4.301   6.386   2.145
 2192SOL    HW2 7476   4.241   6.326   2.284
 2193SOL     OW 7477   6.929   6.090   4.851
 2193SOL    HW1 7478   7.003   6.131   4.798
 2193SOL    HW2 7479   6.963   6.010   4.900
 2194SOL     OW 7480   2.418   0.083   1.615
 2194SOL    HW1 7481   2.492   0.017   1.630
 2194SOL    HW2 7482   2.389   0.079   1.519
 2195SOL     OW 7483   0.185   4.863   2.095
 2195SOL    HW1 7484   0.162   4.811   2.177
 2195SOL    HW2 7485   0.105   4.914   2.064
 2196SOL     OW 7486   4.298   3.937   0.311
 2196SOL    HW1 7487   4.325   3.989   0.230
 2196SOL    HW2 7488   4.204   3.959   0.335
 2197SOL     OW 7489   4.871   3.143   6.703
 2197SOL    HW1 7490   4.913   3.232   6.681
 2197SOL    HW2 7491   4.807   3.118   6.630
 2198SOL     OW 7492   0.154   3.901   0.059
 2198SOL    HW1 7493   0.235   3.959   0.065
 2198SOL    HW2 7494   0.155   3.851   6.994
 2199SOL     OW 7495   4.279   1.239   3.392
 2199SOL    HW1 7496   4.342   1.222   3.316
 2199SOL    HW2 7497   4.199   1.289   3.358
 2200SOL     OW 7498   3.950   0.015   4.120
 2200SOL    HW1 7499   3.910   0.058   4.200
 2200SOL    HW2 7500   4.046   7.014   4.138
 2201SOL     OW 7501   5.144   4.656   4.237
 2201SOL    HW1 7502   5.148   4.604   4.322
 2201SOL    HW2 7503   5.098   4.743   4.253
 2202SOL     OW 7504   4.659   6.086   3.661
 2202SOL    HW1 7505   4.601   6.148   3.713
 2202SOL    HW2 7506   4.735   6.056   3.718
 2203SOL     OW 7507   2.015   1.673   2.929
 2203SOL    HW1 7508   2.045   1.618   2.850
 2203SOL    HW2 7509   2.053   1.765   2.921
 2204SOL     OW 7510   3.538   2.167   1.169
 2204SOL    HW1 7511   3.479   2.153   1.089
 2204SOL    HW2 7512   3.606   2.094   1.174
 2205SOL     OW 7513   3.315   1.025   2.192
 2205SOL    HW1 7514   3.411   1.050   2.207
 2205SOL    HW2 7515   3.269   1.017   2.280
 2206SOL     OW 7516   1.558   4.048   0.339
 2206SOL    HW1 7517   1.637   4.094   0.380
 2206SOL    HW2 7518   1.475   4.101   0.356
 2207SOL     OW 7519   6.917   4.706   4.910
 2207SOL    HW1 7520   6.967   4.762   4.844
 2207SOL    HW2 7521   6.921   4.610   4.883
 2208SOL     OW 7522   6.701   5.436   1.763
 2208SOL    HW1 7523   6.764   5.495   1.713
 2208SOL    HW2 7524   6.721   5.340   1.741
 2209SOL     OW 7525   6.890   6.891   2.032
 2209SOL    HW1 7526   6.977   6.904   2.081
 2209SOL    HW2 7527   6.907   6.844   1.946
 2210SOL     OW 7528   2.359   4.925   3.810
 2210SOL    HW1 7529   2.291   4.998   3.813
 2210SOL    HW2 7530   2.357   4.881   3.721
 2211SOL     OW 7531   6.424   1.315   5.928
 2211SOL    HW1 7532   6.441   1.219   5.950
 2211SOL    HW2 7533   6.344   1.321   5.868
 2212SOL     OW 7534   2.806   6.959   6.139
 2212SOL    HW1 7535   2.741   6.884   6.142
 2212SOL    HW2 7536   2.844   6.967   6.046
 2213SOL     OW 7537   4.654   0.803   3.356
 2213SOL    HW1 7538   4.600   0.776   3.277
 2213SOL    HW2 7539   4.691   0.721   3.401
 2214SOL     OW 7540   4.010   0.202   4.452
 2214SOL    HW1 7541   4.042   0.274   4.390
 2214SOL    HW2 7542   3.926   0.162   4.417
 2215SOL     OW 7543   5.630   1.989   5.213
 2215SOL    HW1 7544   5.562   2.062   5.215
 2215SOL    HW2 7545   5.673   1.981   5.303
 2216SOL     OW 7546   2.978   1.766   2.549
 2216SOL    HW1 7547   3.020   1.684   2.588
 2216SOL    HW2 7548   3.042   1.810   2.486
 2217SOL     OW 7549   3.182   6.850   1.264
 2217SOL    HW1 7550   3.277   6.836   1.294
 2217SOL    HW2 7551   3.156   6.776   1.202
 2218SOL     OW 7552   6.736   0.897   2.281
 2218SOL    HW1 7553   6.770   0.810   2.316
 2218SOL    HW2 7554   6.689   0.882   2.193
 2219SOL     OW 7555   2.574   2.233   2.872
 2219SOL    HW1 7556   2.621   2.176   2.804
 2219SOL    HW2 7557   2.512   2.176   2.926
 2220SOL     OW 7558   1.727   0.012   2.789
 2220SOL    HW1 7559   1.662   0.087   2.805
 2220SOL    HW2 7560   1.819   0.050   2.777
 2221SOL     OW 7561   0.383   6.504   5.552
 2221SOL    HW1 7562   0.417   6.437   5.618
 2221SOL    HW2 7563   0.407   6.475   5.459
 2222SOL     OW 7564   6.093   5.211   4.205
 2222SOL    HW1 7565   6.115   5.126   4.158
 2222SOL    HW2 7566   6.166   5.235   4.268
 2223SOL     OW 7567   0.126   6.483   2.829
 2223SOL    HW1 7568   0.172   6.569   2.849
 2223SOL    HW2 7569   0.082   6.489   2.739
 2224SOL     OW 7570   1.234   5.973   0.792
 2224SOL    HW1 7571   1.216   6.070   0.808
 2224SOL    HW2 7572   1.149   5.927   0.766
 2225SOL     OW 7573   0.592   4.238   0.504
 2225SOL    HW1 7574   0.531   4.200   0.573
 2225SOL    HW2 7575   0.685   4.240   0.540
 2226SOL     OW 7576   3.715   3.584   2.729
 2226SOL    HW1 7577   3.695   3.673   2.769
 2226SOL    HW2 7578   3.677   3.580   2.636
 2227SOL     OW 7579   1.287   1.692   4.804
 2227SOL    HW1 7580   1.264   1.637   4.884
 2227SOL    HW2 7581   1.234   1.777   4.805
 2228SOL     OW 7582   2.333   4.658   4.553
 2228SOL    HW1 7583   2.253   4.671   4.611
 2228SOL    HW2 7584   2.346   4.560   4.536
 2229SOL     OW 7585   5.888   6.090   3.090
 2229SOL    HW1 7586   5.913   6.186   3.080
 2229SOL    HW2 7587   5.896   6.063   3.185
 2230SOL     OW 7588   2.039   5.397   2.866
 2230SOL    HW1 7589   2.023   5.445   2.952
 2230SOL    HW2 7590   1.960   5.409   2.805
 2231SOL     OW 7591   2.052   5.930   1.043
 2231SOL    HW1 7592   2.094   5.843   1.069
 2231SOL    HW2 7593   2.047   5.990   1.123
 2232SOL     OW 7594   5.840   1.755   3.718
 2232SOL    HW1 7595   5.843   1.853   3.742
 2232SOL    HW2 7596   5.756   1.735   3.669
 2233SOL     OW 7597   4.053   1.177   0.466
 2233SOL    HW1 7598   3.994   1.253   0.439
 2233SOL    HW2 7599   4.149   1.205   0.462
 2234SOL     OW 7600   4.701   2.510   1.342
 2234SOL    HW1 7601   4.748   2.429   1.378
 2234SOL    HW2 7602   4.603   2.500   1.355
 2235SOL     OW 7603   1.968   2.427   2.258
 2235SOL    HW1 7604   1.908   2.429   2.179
 2235SOL    HW2 7605   1.997   2.333   2.276
 2236SOL     OW 7606   0.818   4.125   5.351
 2236SOL    HW1 7607   0.858   4.048   5.401
 2236SOL    HW2 7608   0.822   4.208   5.408
 2237SOL     OW 7609   6.466   3.051   3.791
 2237SOL    HW1 7610   6.406   3.097   3.857
 2237SOL    HW2 7611   6.559   3.046   3.828
 2238SOL     OW 7612   5.386   5.984   6.585
 2238SOL    HW1 7613   5.302   5.952   6.628
 2238SOL    HW2 7614   5.417   6.068   6.629
 2239SOL     OW 7615   0.577   5.482   1.191
 2239SOL    HW1 7616   0.561   5.577   1.218
 2239SOL    HW2 7617   0.489   5.437   1.174
 2240SOL     OW 7618   6.077   3.835   1.528
 2240SOL    HW1 7619   6.060   3.930   1.556
 2240SOL    HW2 7620   6.041   3.773   1.597
 2241SOL     OW 7621   1.178   0.081   3.957
 2241SOL    HW1 7622   1.201   0.120   3.868
 2241SOL    HW2 7623   1.083   0.101   3.978
 2242SOL     OW 7624   2.471   1.795   3.037
 2242SOL    HW1 7625   2.539   1.824   2.969
 2242SOL    HW2 7626   2.505   1.816   3.128
 2243SOL     OW 7627   1.645   6.987   4.652
 2243SOL    HW1 7628   1.699   6.903   4.640
 2243SOL    HW2 7629   1.632   0.009   4.564
 2244SOL     OW 7630   3.860   0.545   5.251
 2244SOL    HW1 7631   3.814   0.520   5.336
 2244SOL    HW2 7632   3.791   0.568   5.181
 2245SOL     OW 7633   0.723   2.737   2.451
 2245SOL    HW1 7634   0.731   2.835   2.436
 2245SOL    HW2 7635   0.785   2.710   2.525
 2246SOL     OW 7636   0.855   4.424   5.312
 2246SOL    HW1 7637   0.838   4.360   5.237
 2246SOL    HW2 7638   0.792   4.501   5.306
 2247SOL     OW 7639   1.981   1.478   4.303
 2247SOL    HW1 7640   1.942   1.559   4.259
 2247SOL    HW2 7641   1.915   1.439   4.367
 2248SOL     OW 7642   5.345   3.649   5.841
 2248SOL    HW1 7643   5.288   3.571   5.868
 2248SOL    HW2 7644   5.441   3.625   5.849
 2249SOL     OW 7645   5.231   5.582   5.014
 2249SOL    HW1 7646   5.236   5.681   5.021
 2249SOL    HW2 7647   5.204   5.556   4.921
 2250SOL     OW 7648   4.421   4.505   1.824
 2250SOL    HW1 7649   4.384   4.466   1.740
 2250SOL    HW2 7650   4.441   4.431   1.889
 2251SOL     OW 7651   0.175   0.980   5.332
 2251SOL    HW1 7652   0.223   1.065   5.351
 2251SOL    HW2 7653   0.144   0.980   5.237
 2252SOL     OW 7654   3.442   1.031   6.603
 2252SOL    HW1 7655   3.481   1.041   6.511
 2252SOL    HW2 7656   3.343   1.027   6.597
 2253SOL     OW 7657   0.818   4.015   0.571
 2253SOL    HW1 7658   0.728   3.970   0.571
 2253SOL    HW2 7659   0.806   4.112   0.590
 2254SOL     OW 7660   1.181   4.397   6.467
 2254SOL    HW1 7661   1.115   4.453   6.417
 2254SOL    HW2 7662   1.241   4.351   6.402
 2255SOL     OW 7663   6.649   3.720   6.585
 2255SOL    HW1 7664   6.627   3.673   6.500
 2255SOL    HW2 7665   6.574   3.709   6.650
 2256SOL     OW 7666   2.900   5.194   2.357
 2256SOL    HW1 7667   2.816   5.224   2.311
 2256SOL    HW2 7668   2.978   5.239   2.315
 2257SOL     OW 7669   1.315   4.490   5.366
 2257SOL    HW1 7670   1.216   4.494   5.377
 2257SOL    HW2 7671   1.342   4.395   5.348
 2258SOL     OW 7672   1.720   5.769   5.712
 2258SOL    HW1 7673   1.733   5.673   5.688
 2258SOL    HW2 7674   1.809   5.810   5.731
 2259SOL     OW 7675   5.846   1.940   6.327
 2259SOL    HW1 7676   5.826   1.906   6.419
 2259SOL    HW2 7677   5.760   1.961   6.280
 2260SOL     OW 7678   3.907   3.200   0.668
 2260SOL    HW1 7679   3.863   3.290   0.671
 2260SOL    HW2 7680   3.861   3.138   0.732
 2261SOL     OW 7681   2.566   6.564   5.070
 2261SOL    HW1 7682   2.533   6.629   5.001
 2261SOL    HW2 7683   2.663   6.579   5.086
 2262SOL     OW 7684   3.165   1.826   3.438
 2262SOL    HW1 7685   3.086   1.806   3.496
 2262SOL    HW2 7686   3.170   1.760   3.363
 2263SOL     OW 7687   0.943   4.333   5.554
 2263SOL    HW1 7688   1.037   4.353   5.579
 2263SOL    HW2 7689   0.922   4.374   5.466
 2264SOL     OW 7690   3.839   3.693   3.603
 2264SOL    HW1 7691   3.858   3.596   3.616
 2264SOL    HW2 7692   3.742   3.710   3.620
 2265SOL     OW 7693   0.759   6.713   4.469
 2265SOL    HW1 7694   0.672   6.725   4.421
 2265SOL    HW2 7695   0.773   6.616   4.487
 2266SOL     OW 7696   6.700   0.526   5.340
 2266SOL    HW1 7697   6.789   0.570   5.330
 2266SOL    HW2 7698   6.638   0.586   5.389
 2267SOL     OW 7699   5.788   1.763   5.155
 2267SOL    HW1 7700   5.714   1.827   5.175
 2267SOL    HW2 7701   5.766   1.674   5.195
 2268SOL     OW 7702   0.418   6.392   0.549
 2268SOL    HW1 7703   0.495   6.328   0.551
 2268SOL    HW2 7704   0.337   6.348   0.588
 2269SOL     OW 7705   6.828   6.481   2.878
 2269SOL    HW1 7706   6.918   6.437   2.873
 2269SOL    HW2 7707   6.839   6.580   2.878
 2270SOL     OW 7708   3.836   2.951   3.355
 2270SOL    HW1 7709   3.879   3.041   3.356
 2270SOL    HW2 7710   3.844   2.912   3.263
 2271SOL     OW 7711   2.135   4.267   2.636
 2271SOL    HW1 7712   2.100   4.341   2.694
 2271SOL    HW2 7713   2.059   4.211   2.603
 2272SOL     OW 7714   4.963   0.593   5.651
 2272SOL    HW1 7715   4.936   0.605   5.747
 2272SOL    HW2 7716   4.904   0.648   5.593
 2273SOL     OW 7717   0.432   1.284   2.331
 2273SOL    HW1 7718   0.486   1.368   2.323
 2273SOL    HW2 7719   0.432   1.237   2.242
 2274SOL     OW 7720   0.391   4.399   3.394
 2274SOL    HW1 7721   0.487   4.402   3.422
 2274SOL    HW2 7722   0.333   4.404   3.475
 2275SOL     OW 7723   4.645   6.639   3.072
 2275SOL    HW1 7724   4.672   6.579   2.997
 2275SOL    HW2 7725   4.572   6.595   3.125
 2276SOL     OW 7726   3.482   5.933   2.734
 2276SOL    HW1 7727   3.449   5.893   2.649
 2276SOL    HW2 7728   3.581   5.945   2.729
 2277SOL     OW 7729   3.184   3.595   2.218
 2277SOL    HW1 7730   3.148   3.669   2.274
 2277SOL    HW2 7731   3.245   3.537   2.273
 2278SOL     OW 7732   3.635   4.791   1.219
 2278SOL    HW1 7733   3.666   4.729   1.147
 2278SOL    HW2 7734   3.563   4.851   1.184
 2279SOL     OW 7735   6.079   3.761   5.419
 2279SOL    HW1 7736   6.093   3.769   5.518
 2279SOL    HW2 7737   6.164   3.783   5.372
 2280SOL     OW 7738   6.052   0.228   5.973
 2280SOL    HW1 7739   6.031   0.324   5.955
 2280SOL    HW2 7740   5.973   0.172   5.945
 2281SOL     OW 7741   2.545   0.537   0.887
 2281SOL    HW1 7742   2.636   0.500   0.904
 2281SOL    HW2 7743   2.522   0.525   0.790
 2282SOL     OW 7744   3.779   6.602   2.624
 2282SOL    HW1 7745   3.708   6.671   2.616
 2282SOL    HW2 7746   3.804   6.568   2.533
 2283SOL     OW 7747   0.618   3.323   1.382
 2283SOL    HW1 7748   0.638   3.385   1.458
 2283SOL    HW2 7749   0.701   3.308   1.328
 2284SOL     OW 7750   2.163   3.267   1.211
 2284SOL    HW1 7751   2.251   3.222   1.192
 2284SOL    HW2 7752   2.107   3.207   1.268
 2285SOL     OW 7753   2.079   2.433   0.010
 2285SOL    HW1 7754   2.033   2.484   6.958
 2285SOL    HW2 7755   2.067   2.482   0.096
 2286SOL     OW 7756   6.255   6.617   4.146
 2286SOL    HW1 7757   6.301   6.640   4.231
 2286SOL    HW2 7758   6.159   6.645   4.151
 2287SOL     OW 7759   2.591   1.426   0.616
 2287SOL    HW1 7760   2.548   1.505   0.659
 2287SOL    HW2 7761   2.528   1.349   0.616
 2288SOL     OW 7762   2.612   6.432   4.805
 2288SOL    HW1 7763   2.598   6.460   4.900
 2288SOL    HW2 7764   2.627   6.333   4.801
 2289SOL     OW 7765   3.508   6.911   6.567
 2289SOL    HW1 7766   3.558   6.825   6.557
 2289SOL    HW2 7767   3.525   6.969   6.487
 2290SOL     OW 7768   2.803   3.431   5.281
 2290SOL    HW1 7769   2.768   3.508   5.335
 2290SOL    HW2 7770   2.846   3.466   5.198
 2291SOL     OW 7771   3.050   1.882   0.604
 2291SOL    HW1 7772   3.146   1.860   0.619
 2291SOL    HW2 7773   2.993   1.829   0.667
 2292SOL     OW 7774   5.406   2.383   3.091
 2292SOL    HW1 7775   5.394   2.432   3.177
 2292SOL    HW2 7776   5.320   2.340   3.065
 2293SOL     OW 7777   0.438   0.780   0.276
 2293SOL    HW1 7778   0.371   0.851   0.302
 2293SOL    HW2 7779   0.524   0.797   0.323
 2294SOL     OW 7780   6.345   2.574   5.335
 2294SOL    HW1 7781   6.295   2.514   5.272
 2294SOL    HW2 7782   6.439   2.585   5.302
 2295SOL     OW 7783   5.735   5.891   0.389
 2295SOL    HW1 7784   5.775   5.949   0.460
 2295SOL    HW2 7785   5.734   5.941   0.302
 2296SOL     OW 7786   3.970   5.680   4.204
 2296SOL    HW1 7787   4.013   5.597   4.239
 2296SOL    HW2 7788   4.025   5.760   4.231
 2297SOL     OW 7789   6.353   2.755   6.918
 2297SOL    HW1 7790   6.450   2.730   6.925
 2297SOL    HW2 7791   6.324   2.751   6.822
 2298SOL     OW 7792   2.650   4.003   5.283
 2298SOL    HW1 7793   2.561   3.975   5.248
 2298SOL    HW2 7794   2.650   4.102   5.298
 2299SOL     OW 7795   6.074   3.512   4.451
 2299SOL    HW1 7796   6.006   3.549   4.514
 2299SOL    HW2 7797   6.028   3.476   4.369
 2300SOL     OW 7798   4.446   0.099   3.105
 2300SOL    HW1 7799   4.354   0.068   3.081
 2300SOL    HW2 7800   4.514   0.052   3.048
 2301SOL     OW 7801   4.003   3.071   5.425
 2301SOL    HW1 7802   4.025   3.139   5.355
 2301SOL    HW2 7803   4.042   2.983   5.400
 2302SOL     OW 7804   0.252   3.314   5.679
 2302SOL    HW1 7805   0.275   3.286   5.586
 2302SOL    HW2 7806   0.202   3.240   5.725
 2303SOL     OW 7807   3.008   1.377   6.249
 2303SOL    HW1 7808   3.032   1.327   6.332
 2303SOL    HW2 7809   3.075   1.356   6.178
 2304SOL     OW 7810   4.654   6.586   2.479
 2304SOL    HW1 7811   4.707   6.507   2.509
 2304SOL    HW2 7812   4.611   6.629   2.559
 2305SOL     OW 7813   2.935   6.217   5.124
 2305SOL    HW1 7814   2.937   6.153   5.048
 2305SOL    HW2 7815   2.955   6.169   5.209
 2306SOL     OW 7816   1.122   4.677   5.024
 2306SOL    HW1 7817   1.039   4.639   4.983
 2306SOL    HW2 7818   1.180   4.715   4.952
 2307SOL     OW 7819   6.146   3.789   4.983
 2307SOL    HW1 7820   6.146   3.692   4.958
 2307SOL    HW2 7821   6.230   3.811   5.032
 2308SOL     OW 7822   1.163   5.843   2.161
 2308SOL    HW1 7823   1.162   5.943   2.173
 2308SOL    HW2 7824   1.192   5.821   2.068
 2309SOL     OW 7825   1.591   1.005   4.725
 2309SOL    HW1 7826   1.599   1.067   4.647
 2309SOL    HW2 7827   1.615   1.054   4.809
 2310SOL     OW 7828   5.384   6.252   0.204
 2310SOL    HW1 7829   5.369   6.211   0.293
 2310SOL    HW2 7830   5.307   6.314   0.182
 2311SOL     OW 7831   2.744   5.838   0.794
 2311SOL    HW1 7832   2.671   5.833   0.863
 2311SOL    HW2 7833   2.803   5.916   0.814
 2312SOL     OW 7834   2.663   4.794   2.742
 2312SOL    HW1 7835   2.724   4.784   2.664
 2312SOL    HW2 7836   2.657   4.891   2.768
 2313SOL     OW 7837   4.565   4.924   1.021
 2313SOL    HW1 7838   4.657   4.891   1.000
 2313SOL    HW2 7839   4.499   4.852   1.001
 2314SOL     OW 7840   2.569   4.516   2.878
 2314SOL    HW1 7841   2.487   4.459   2.878
 2314SOL    HW2 7842   2.630   4.486   2.804
 2315SOL     OW 7843   4.120   1.801   6.698
 2315SOL    HW1 7844   4.023   1.812   6.676
 2315SOL    HW2 7845   4.140   1.850   6.783
 2316SOL     OW 7846   5.325   3.633   1.362
 2316SOL    HW1 7847   5.329   3.595   1.270
 2316SOL    HW2 7848   5.300   3.561   1.427
 2317SOL     OW 7849   0.491   6.503   3.316
 2317SOL    HW1 7850   0.497   6.442   3.395
 2317SOL    HW2 7851   0.520   6.453   3.234
 2318SOL     OW 7852   6.937   1.768   3.719
 2318SOL    HW1 7853   6.902   1.695   3.778
 2318SOL    HW2 7854   6.970   1.728   3.633
 2319SOL     OW 7855   1.223   5.052   2.546
 2319SOL    HW1 7856   1.157   4.979   2.563
 2319SOL    HW2 7857   1.178   5.141   2.556
 2320SOL     OW 7858   6.353   4.417   3.957
 2320SOL    HW1 7859   6.416   4.418   4.034
 2320SOL    HW2 7860   6.395   4.464   3.879
 2321SOL     OW 7861   3.460   4.962   4.029
 2321SOL    HW1 7862   3.457   4.983   4.127
 2321SOL    HW2 7863   3.544   4.913   4.008
 2322SOL     OW 7864   2.197   1.312   4.700
 2322SOL    HW1 7865   2.226   1.375   4.773
 2322SOL    HW2 7866   2.142   1.362   4.633
 2323SOL     OW 7867   5.345   3.528   1.831
 2323SOL    HW1 7868   5.270   3.480   1.878
 2323SOL    HW2 7869   5.343   3.504   1.733
 2324SOL     OW 7870   0.063   5.319   4.185
 2324SOL    HW1 7871   0.011   5.320   4.271
 2324SOL    HW2 7872   7.021   5.316   4.108
 2325SOL     OW 7873   6.131   1.998   0.711
 2325SOL    HW1 7874   6.209   1.937   0.700
 2325SOL    HW2 7875   6.149   2.062   0.786
 2326SOL     OW 7876   0.853   5.274   0.553
 2326SOL    HW1 7877   0.762   5.264   0.593
 2326SOL    HW2 7878   0.907   5.192   0.573
 2327SOL     OW 7879   4.668   1.291   3.196
 2327SOL    HW1 7880   4.687   1.353   3.119
 2327SOL    HW2 7881   4.715   1.204   3.181
 2328SOL     OW 7882   6.185   5.018   4.027
 2328SOL    HW1 7883   6.285   5.013   4.019
 2328SOL    HW2 7884   6.150   5.087   3.965
 2329SOL     OW 7885   1.333   6.467   3.310
 2329SOL    HW1 7886   1.242   6.477   3.351
 2329SOL    HW2 7887   1.346   6.538   3.241
 2330SOL     OW 7888   1.274   4.448   0.431
 2330SOL    HW1 7889   1.318   4.538   0.426
 2330SOL    HW2 7890   1.343   4.376   0.425
 2331SOL     OW 7891   1.705   4.995   5.091
 2331SOL    HW1 7892   1.803   5.003   5.109
 2331SOL    HW2 7893   1.680   4.898   5.083
 2332SOL     OW 7894   6.444   3.293   6.131
 2332SOL    HW1 7895   6.418   3.324   6.223
 2332SOL    HW2 7896   6.487   3.368   6.081
 2333SOL     OW 7897   2.490   5.080   4.039
 2333SOL    HW1 7898   2.560   5.127   3.984
 2333SOL    HW2 7899   2.409   5.063   3.982
 2334SOL     OW 7900   2.786   6.855   5.487
 2334SOL    HW1 7901   2.755   6.763   5.511
 2334SOL    HW2 7902   2.743   6.922   5.548
 2335SOL     OW 7903   4.340   4.655   4.258
 2335SOL    HW1 7904   4.324   4.583   4.326
 2335SOL    HW2 7905   4.353   4.742   4.303
 2336SOL     OW 7906   4.637   1.603   5.812
 2336SOL    HW1 7907   4.584   1.519   5.803
 2336SOL    HW2 7908   4.687   1.620   5.727
 2337SOL     OW 7909   5.740   0.493   4.974
 2337SOL    HW1 7910   5.786   0.534   5.053
 2337SOL    HW2 7911   5.674   0.558   4.936
 2338SOL     OW 7912   1.262   6.929   6.851
 2338SOL    HW1 7913   1.165   6.948   6.835
 2338SOL    HW2 7914   1.294   6.987   6.927
 2339SOL     OW 7915   3.725   4.777   6.537
 2339SOL    HW1 7916   3.820   4.789   6.566
 2339SOL    HW2 7917   3.723   4.756   6.439
 2340SOL     OW 7918   4.329   5.117   3.707
 2340SOL    HW1 7919   4.234   5.141   3.692
 2340SOL    HW2 7920   4.335   5.048   3.779
 2341SOL     OW 7921   0.077   4.556   6.128
 2341SOL    HW1 7922   0.015   4.591   6.198
 2341SOL    HW2 7923   0.125   4.632   6.084
 2342SOL     OW 7924   6.451   1.588   5.751
 2342SOL    HW1 7925   6.383   1.515   5.752
 2342SOL    HW2 7926   6.428   1.656   5.821
 2343SOL     OW 7927   1.537   5.877   1.031
 2343SOL    HW1 7928   1.460   5.815   1.017
 2343SOL    HW2 7929   1.622   5.831   1.007
 2344SOL     OW 7930   2.258   0.956   2.468
 2344SOL    HW1 7931   2.228   1.029   2.530
 2344SOL    HW2 7932   2.203   0.958   2.385
 2345SOL     OW 7933   1.592   2.278   2.413
 2345SOL    HW1 7934   1.603   2.184   2.444
 2345SOL    HW2 7935   1.682   2.321   2.403
 2346SOL     OW 7936   4.959   3.350   4.872
 2346SOL    HW1 7937   4.987   3.402   4.953
 2346SOL    HW2 7938   4.926   3.413   4.802
 2347SOL     OW 7939   1.160   4.287   0.787
 2347SOL    HW1 7940   1.124   4.200   0.753
 2347SOL    HW2 7941   1.119   4.308   0.876
 2348SOL     OW 7942   2.740   0.387   1.169
 2348SOL    HW1 7943   2.759   0.298   1.209
 2348SOL    HW2 7944   2.767   0.460   1.232
 2349SOL     OW 7945   5.361   3.057   6.576
 2349SOL    HW1 7946   5.264   3.056   6.602
 2349SOL    HW2 7947   5.411   3.120   6.635
 2350SOL     OW 7948   1.535   6.221   5.541
 2350SOL    HW1 7949   1.494   6.201   5.630
 2350SOL    HW2 7950   1.569   6.137   5.499
 2351SOL     OW 7951   1.525   5.020   3.264
 2351SOL    HW1 7952   1.477   5.062   3.341
 2351SOL    HW2 7953   1.479   5.045   3.179
 2352SOL     OW 7954   6.023   5.722   6.899
 2352SOL    HW1 7955   5.974   5.808   6.893
 2352SOL    HW2 7956   6.119   5.739   6.923
 2353SOL     OW 7957   3.193   2.575   5.896
 2353SOL    HW1 7958   3.226   2.667   5.874
 2353SOL    HW2 7959   3.097   2.567   5.870
 2354SOL     OW 7960   3.638   1.360   2.355
 2354SOL    HW1 7961   3.583   1.286   2.394
 2354SOL    HW2 7962   3.734   1.332   2.351
 2355SOL     OW 7963   0.157   1.230   2.260
 2355SOL    HW1 7964   0.237   1.283   2.290
 2355SOL    HW2 7965   0.171   1.197   2.167
 2356SOL     OW 7966   3.869   5.253   4.170
 2356SOL    HW1 7967   3.952   5.208   4.139
 2356SOL    HW2 7968   3.865   5.252   4.270
 2357SOL     OW 7969   1.433   5.424   1.618
 2357SOL    HW1 7970   1.338   5.403   1.642
 2357SOL    HW2 7971   1.438   5.518   1.582
 2358SOL     OW 7972   2.105   0.329   5.439
 2358SOL    HW1 7973   2.191   0.284   5.464
 2358SOL    HW2 7974   2.047   0.336   5.520
 2359SOL     OW 7975   2.777   2.228   6.042
 2359SOL    HW1 7976   2.789   2.226   5.943
 2359SOL    HW2 7977   2.853   2.180   6.085
 2360SOL     OW 7978   2.942   5.347   0.757
 2360SOL    HW1 7979   2.900   5.260   0.780
 2360SOL    HW2 7980   2.960   5.351   0.659
 2361SOL     OW 7981   3.464   5.177   1.236
 2361SOL    HW1 7982   3.478   5.085   1.199
 2361SOL    HW2 7983   3.521   5.189   1.317
 2362SOL     OW 7984   2.863   4.800   4.565
 2362SOL    HW1 7985   2.825   4.785   4.656
 2362SOL    HW2 7986   2.837   4.725   4.505
 2363SOL     OW 7987   2.341   4.257   1.029
 2363SOL    HW1 7988   2.426   4.310   1.033
 2363SOL    HW2 7989   2.313   4.231   1.121
 2364SOL     OW 7990   4.833   0.786   2.050
 2364SOL    HW1 7991   4.799   0.880   2.051
 2364SOL    HW2 7992   4.843   0.756   1.955
 2365SOL     OW 7993   5.521   4.532   3.065
 2365SOL    HW1 7994   5.595   4.519   2.999
 2365SOL    HW2 7995   5.555   4.514   3.157
 2366SOL     OW 7996   3.319   4.868   5.318
 2366SOL    HW1 7997   3.405   4.817   5.317
 2366SOL    HW2 7998   3.242   4.804   5.309
 2367SOL     OW 7999   6.028   5.244   5.367
 2367SOL    HW1 8000   6.061   5.151   5.378
 2367SOL    HW2 8001   6.076   5.288   5.291
 2368SOL     OW 8002   5.158   0.105   5.020
 2368SOL    HW1 8003   5.255   0.081   5.022
 2368SOL    HW2 8004   5.137   0.166   5.097
 2369SOL     OW 8005   3.856   1.734   4.441
 2369SOL    HW1 8006   3.931   1.794   4.471
 2369SOL    HW2 8007   3.837   1.750   4.344
 2370SOL     OW 8008   4.295   2.086   1.667
 2370SOL    HW1 8009   4.331   2.081   1.574
 2370SOL    HW2 8010   4.339   2.016   1.724
 2371SOL     OW 8011   2.341   6.651   2.335
 2371SOL    HW1 8012   2.370   6.557   2.317
 2371SOL    HW2 8013   2.298   6.656   2.425
 2372SOL     OW 8014   6.453   6.784   5.596
 2372SOL    HW1 8015   6.417   6.692   5.616
 2372SOL    HW2 8016   6.385   6.837   5.547
 2373SOL     OW 8017   6.480   4.157   5.985
 2373SOL    HW1 8018   6.454   4.175   5.890
 2373SOL    HW2 8019   6.549   4.085   5.988
 2374SOL     OW 8020   6.951   6.048   2.159
 2374SOL    HW1 8021   6.921   6.009   2.072
 2374SOL    HW2 8022   0.026   6.027   2.173
 2375SOL     OW 8023   1.423   0.503   4.147
 2375SOL    HW1 8024   1.458   0.526   4.056
 2375SOL    HW2 8025   1.412   0.586   4.201
 2376SOL     OW 8026   5.284   3.131   3.888
 2376SOL    HW1 8027   5.267   3.056   3.825
 2376SOL    HW2 8028   5.380   3.158   3.884
 2377SOL     OW 8029   3.511   4.197   5.874
 2377SOL    HW1 8030   3.511   4.254   5.792
 2377SOL    HW2 8031   3.423   4.205   5.921
 2378SOL     OW 8032   1.130   1.052   0.782
 2378SOL    HW1 8033   1.149   1.014   0.872
 2378SOL    HW2 8034   1.109   1.150   0.792
 2379SOL     OW 8035   0.778   4.676   2.466
 2379SOL    HW1 8036   0.796   4.662   2.563
 2379SOL    HW2 8037   0.856   4.724   2.424
 2380SOL     OW 8038   4.149   5.312   6.755
 2380SOL    HW1 8039   4.174   5.230   6.703
 2380SOL    HW2 8040   4.166   5.394   6.699
 2381SOL     OW 8041   2.145   3.756   3.650
 2381SOL    HW1 8042   2.166   3.817   3.574
 2381SOL    HW2 8043   2.071   3.796   3.705
 2382SOL     OW 8044   6.398   6.224   2.615
 2382SOL    HW1 8045   6.373   6.147   2.555
 2382SOL    HW2 8046   6.491   6.253   2.594
 2383SOL     OW 8047   4.973   4.350   6.037
 2383SOL    HW1 8048   4.922   4.409   6.101
 2383SOL    HW2 8049   5.030   4.407   5.978
 2384SOL     OW 8050   0.748   2.319   3.371
 2384SOL    HW1 8051   0.676   2.312   3.302
 2384SOL    HW2 8052   0.835   2.289   3.332
 2385SOL     OW 8053   0.359   1.139   0.687
 2385SOL    HW1 8054   0.405   1.100   0.767
 2385SOL    HW2 8055   0.260   1.125   0.696
 2386SOL     OW 8056   6.938   5.130   5.460
 2386SOL    HW1 8057   6.894   5.094   5.378
 2386SOL    HW2 8058   6.945   5.057   5.528
 2387SOL     OW 8059   0.059   0.455   3.516
 2387SOL    HW1 8060   0.088   0.390   3.446
 2387SOL    HW2 8061   6.996   0.500   3.488
 2388SOL     OW 8062   1.546   3.911   4.176
 2388SOL    HW1 8063   1.614   3.966   4.224
 2388SOL    HW2 8064   1.455   3.932   4.213
 2389SOL     OW 8065   3.730   6.763   3.081
 2389SOL    HW1 8066   3.649   6.796   3.129
 2389SOL    HW2 8067   3.705   6.688   3.021
 2390SOL     OW 8068   5.137   2.512   5.775
 2390SOL    HW1 8069   5.140   2.551   5.867
 2390SOL    HW2 8070   5.225   2.528   5.729
 2391SOL     OW 8071   2.711   3.839   6.329
 2391SOL    HW1 8072   2.679   3.917   6.383
 2391SOL    HW2 8073   2.761   3.775   6.388
 2392SOL     OW 8074   3.775   5.281   6.001
 2392SOL    HW1 8075   3.690   5.335   6.004
 2392SOL    HW2 8076   3.818   5.292   5.911
 2393SOL     OW 8077   4.159   4.230   0.114
 2393SOL    HW1 8078   4.185   4.308   0.171
 2393SOL    HW2 8079   4.241   4.178   0.088
 2394SOL     OW 8080   6.783   2.476   3.299
 2394SOL    HW1 8081   6.709   2.409   3.294
 2394SOL    HW2 8082   6.774   2.541   3.223
 2395SOL     OW 8083   1.484   2.212   3.689
 2395SOL    HW1 8084   1.537   2.290   3.723
 2395SOL    HW2 8085   1.510   2.193   3.595
 2396SOL     OW 8086   0.085   0.104   6.282
 2396SOL    HW1 8087   0.119   0.078   6.192
 2396SOL    HW2 8088   0.158   0.148   6.334
 2397SOL     OW 8089   2.227   4.911   6.025
 2397SOL    HW1 8090   2.270   4.842   5.967
 2397SOL    HW2 8091   2.262   4.903   6.118
 2398SOL     OW 8092   3.959   6.186   4.766
 2398SOL    HW1 8093   4.031   6.116   4.768
 2398SOL    HW2 8094   3.999   6.274   4.742
 2399SOL     OW 8095   3.087   1.373   2.383
 2399SOL    HW1 8096   2.989   1.359   2.368
 2399SOL    HW2 8097   3.139   1.308   2.328
 2400SOL     OW 8098   0.861   2.599   0.308
 2400SOL    HW1 8099   0.868   2.503   0.334
 2400SOL    HW2 8100   0.846   2.655   0.389
 2401SOL     OW 8101   1.559   6.543   0.345
 2401SOL    HW1 8102   1.534   6.499   0.432
 2401SOL    HW2 8103   1.602   6.476   0.285
 2402SOL     OW 8104   0.785   3.741   2.651
 2402SOL    HW1 8105   0.801   3.787   2.563
 2402SOL    HW2 8106   0.713   3.673   2.640
 2403SOL     OW 8107   3.087   4.289   5.273
 2403SOL    HW1 8108   3.024   4.357   5.235
 2403SOL    HW2 8109   3.090   4.209   5.213
 2404SOL     OW 8110   6.342   1.910   2.028
 2404SOL    HW1 8111   6.407   1.891   2.101
 2404SOL    HW2 8112   6.365   1.854   1.948
 2405SOL     OW 8113   1.607   2.995   0.684
 2405SOL    HW1 8114   1.512   3.020   0.704
 2405SOL    HW2 8115   1.619   2.896   0.694
 2406SOL     OW 8116   4.309   5.659   4.618
 2406SOL    HW1 8117   4.339   5.564   4.607
 2406SOL    HW2 8118   4.388   5.718   4.629
 2407SOL     OW 8119   2.056   1.810   3.885
 2407SOL    HW1 8120   1.968   1.855   3.866
 2407SOL    HW2 8121   2.125   1.845   3.821
 2408SOL     OW 8122   4.417   0.188   5.686
 2408SOL    HW1 8123   4.428   0.275   5.639
 2408SOL    HW2 8124   4.322   0.157   5.677
 2409SOL     OW 8125   0.873   2.938   6.762
 2409SOL    HW1 8126   0.964   2.903   6.742
 2409SOL    HW2 8127   0.855   3.018   6.703
 2410SOL     OW 8128   6.959   3.843   4.165
 2410SOL    HW1 8129   0.037   3.848   4.163
 2410SOL    HW2 8130   6.930   3.749   4.146
 2411SOL     OW 8131   3.316   1.194   0.139
 2411SOL    HW1 8132   3.232   1.247   0.153
 2411SOL    HW2 8133   3.377   1.208   0.217
 2412SOL     OW 8134   2.918   2.351   6.768
 2412SOL    HW1 8135   3.013   2.336   6.740
 2412SOL    HW2 8136   2.864   2.377   6.688
 2413SOL     OW 8137   6.772   3.954   6.563
 2413SOL    HW1 8138   6.731   3.863   6.550
 2413SOL    HW2 8139   6.827   3.954   6.647
 2414SOL     OW 8140   6.714   1.543   4.650
 2414SOL    HW1 8141   6.738   1.636   4.678
 2414SOL    HW2 8142   6.615   1.537   4.638
 2415SOL     OW 8143   3.016   3.975   6.064
 2415SOL    HW1 8144   3.042   3.970   6.161
 2415SOL    HW2 8145   2.931   3.926   6.049
 2416SOL     OW 8146   0.061   3.472   4.370
 2416SOL    HW1 8147   0.027   3.401   4.431
 2416SOL    HW2 8148   0.118   3.431   4.299
 2417SOL     OW 8149   3.631   2.538   1.751
 2417SOL    HW1 8150   3.665   2.624   1.789
 2417SOL    HW2 8151   3.644   2.464   1.817
 2418SOL     OW 8152   6.000   3.757   6.396
 2418SOL    HW1 8153   5.984   3.854   6.414
 2418SOL    HW2 8154   6.094   3.733   6.420
 2419SOL     OW 8155   3.347   1.015   2.788
 2419SOL    HW1 8156   3.396   0.970   2.714
 2419SOL    HW2 8157   3.413   1.058   2.850
 2420SOL     OW 8158   1.201   3.599   2.197
 2420SOL    HW1 8159   1.120   3.628   2.148
 2420SOL    HW2 8160   1.195   3.629   2.293
 2421SOL     OW 8161   2.536   0.037   2.691
 2421SOL    HW1 8162   2.470   0.090   2.638
 2421SOL    HW2 8163   2.497   0.017   2.781
 2422SOL     OW 8164   3.773   6.699   0.359
 2422SOL    HW1 8165   3.725   6.733   0.278
 2422SOL    HW2 8166   3.721   6.722   0.441
 2423SOL     OW 8167   3.875   4.944   4.791
 2423SOL    HW1 8168   3.955   4.902   4.748
 2423SOL    HW2 8169   3.803   4.955   4.724
 2424SOL     OW 8170   5.380   0.122   6.330
 2424SOL    HW1 8171   5.415   0.129   6.423
 2424SOL    HW2 8172   5.293   0.072   6.331
 2425SOL     OW 8173   4.098   5.418   5.287
 2425SOL    HW1 8174   4.190   5.389   5.260
 2425SOL    HW2 8175   4.064   5.357   5.358
 2426SOL     OW 8176   3.061   2.464   5.418
 2426SOL    HW1 8177   2.971   2.422   5.430
 2426SOL    HW2 8178   3.109   2.419   5.342
 2427SOL     OW 8179   4.050   2.054   0.259
 2427SOL    HW1 8180   4.068   2.032   0.355
 2427SOL    HW2 8181   4.069   2.151   0.242
 2428SOL     OW 8182   1.749   1.903   2.660
 2428SOL    HW1 8183   1.840   1.942   2.649
 2428SOL    HW2 8184   1.736   1.872   2.754
 2429SOL     OW 8185   5.377   5.912   1.082
 2429SOL    HW1 8186   5.304   5.972   1.112
 2429SOL    HW2 8187   5.454   5.917   1.147
 2430SOL     OW 8188   6.795   0.259   0.013
 2430SOL    HW1 8189   6.885   0.236   6.998
 2430SOL    HW2 8190   6.736   0.293   6.961
 2431SOL     OW 8191   1.860   3.205   1.793
 2431SOL    HW1 8192   1.900   3.121   1.828
 2431SOL    HW2 8193   1.770   3.187   1.755
 2432SOL     OW 8194   3.109   5.860   2.090
 2432SOL    HW1 8195   3.091   5.874   2.187
 2432SOL    HW2 8196   3.023   5.859   2.039
 2433SOL     OW 8197   6.934   4.712   4.205
 2433SOL    HW1 8198   6.972   4.803   4.192
 2433SOL    HW2 8199   6.847   4.705   4.157
 2434SOL     OW 8200   3.986   1.746   2.913
 2434SOL    HW1 8201   4.070   1.770   2.863
 2434SOL    HW2 8202   3.931   1.685   2.856
 2435SOL     OW 8203   5.976   0.025   6.467
 2435SOL    HW1 8204   6.033   0.003   6.387
 2435SOL    HW2 8205   6.033   0.025   6.549
 2436SOL     OW 8206   0.120   2.790   0.869
 2436SOL    HW1 8207   0.189   2.783   0.797
 2436SOL    HW2 8208   0.104   2.700   0.909
 2437SOL     OW 8209   1.207   4.307   1.570
 2437SOL    HW1 8210   1.111   4.296   1.599
 2437SOL    HW2 8211   1.210   4.362   1.486
 2438SOL     OW 8212   3.600   1.833   4.563
 2438SOL    HW1 8213   3.533   1.771   4.521
 2438SOL    HW2 8214   3.691   1.813   4.527
 2439SOL     OW 8215   6.961   5.927   0.290
 2439SOL    HW1 8216   6.968   6.017   0.249
 2439SOL    HW2 8217   0.021   5.873   0.268
 2440SOL     OW 8218   5.979   2.155   5.311
 2440SOL    HW1 8219   5.933   2.243   5.324
 2440SOL    HW2 8220   5.972   2.128   5.215
 2441SOL     OW 8221   6.021   1.109   0.048
 2441SOL    HW1 8222   6.085   1.141   6.999
 2441SOL    HW2 8223   5.927   1.118   0.014
 2442SOL     OW 8224   5.183   2.906   2.910
 2442SOL    HW1 8225   5.176   2.972   2.836
 2442SOL    HW2 8226   5.096   2.900   2.959
 2443SOL     OW 8227   0.081   2.808   1.515
 2443SOL    HW1 8228   0.028   2.723   1.508
 2443SOL    HW2 8229   0.164   2.800   1.459
 2444SOL     OW 8230   3.470   4.882   2.905
 2444SOL    HW1 8231   3.474   4.968   2.956
 2444SOL    HW2 8232   3.383   4.876   2.856
 2445SOL     OW 8233   0.553   1.804   0.926
 2445SOL    HW1 8234   0.632   1.830   0.870
 2445SOL    HW2 8235   0.471   1.803   0.869
 2446SOL     OW 8236   6.383   5.838   1.064
 2446SOL    HW1 8237   6.361   5.837   1.161
 2446SOL    HW2 8238   6.299   5.827   1.010
 2447SOL     OW 8239   1.830   6.646   0.434
 2447SOL    HW1 8240   1.756   6.646   0.366
 2447SOL    HW2 8241   1.803   6.702   0.512
 2448SOL     OW 8242   5.740   1.063   4.198
 2448SOL    HW1 8243   5.655   1.090   4.243
 2448SOL    HW2 8244   5.740   0.964   4.186
 2449SOL     OW 8245   2.244   4.202   1.277
 2449SOL    HW1 8246   2.152   4.184   1.313
 2449SOL    HW2 8247   2.308   4.211   1.353
 2450SOL     OW 8248   0.372   6.704   5.119
 2450SOL    HW1 8249   0.303   6.744   5.180
 2450SOL    HW2 8250   0.451   6.765   5.115
 2451SOL     OW 8251   1.526   0.102   6.874
 2451SOL    HW1 8252   1.460   0.154   6.820
 2451SOL    HW2 8253   1.533   0.009   6.837
 2452SOL     OW 8254   2.322   1.988   3.847
 2452SOL    HW1 8255   2.308   1.994   3.748
 2452SOL    HW2 8256   2.329   1.891   3.873
 2453SOL     OW 8257   1.574   1.635   6.327
 2453SOL    HW1 8258   1.527   1.579   6.258
 2453SOL    HW2 8259   1.580   1.729   6.295
 2454SOL     OW 8260   2.853   6.605   0.145
 2454SOL    HW1 8261   2.875   6.595   0.048
 2454SOL    HW2 8262   2.938   6.620   0.197
 2455SOL     OW 8263   4.576   2.487   0.042
 2455SOL    HW1 8264   4.560   2.539   0.126
 2455SOL    HW2 8265   4.590   2.550   6.987
 2456SOL     OW 8266   0.729   3.423   5.951
 2456SOL    HW1 8267   0.772   3.358   5.888
 2456SOL    HW2 8268   0.644   3.457   5.912
 2457SOL     OW 8269   4.995   1.254   6.121
 2457SOL    HW1 8270   5.044   1.232   6.037
 2457SOL    HW2 8271   4.897   1.253   6.104
 2458SOL     OW 8272   1.142   0.286   2.039
 2458SOL    HW1 8273   1.084   0.359   2.075
 2458SOL    HW2 8274   1.084   0.210   2.009
 2459SOL     OW 8275   1.632   6.504   1.325
 2459SOL    HW1 8276   1.620   6.423   1.269
 2459SOL    HW2 8277   1.685   6.481   1.407
 2460SOL     OW 8278   0.259   0.246   3.713
 2460SOL    HW1 8279   0.178   0.287   3.754
 2460SOL    HW2 8280   0.320   0.319   3.681
 2461SOL     OW 8281   3.200   1.265   3.311
 2461SOL    HW1 8282   3.264   1.202   3.268
 2461SOL    HW2 8283   3.189   1.346   3.255
 2462SOL     OW 8284   0.243   6.360   0.819
 2462SOL    HW1 8285   0.278   6.313   0.900
 2462SOL    HW2 8286   0.287   6.449   0.810
 2463SOL     OW 8287   0.088   7.011   1.022
 2463SOL    HW1 8288   7.016   7.005   1.057
 2463SOL    HW2 8289   0.097   0.071   0.965
 2464SOL     OW 8290   1.135   2.601   5.116
 2464SOL    HW1 8291   1.102   2.653   5.194
 2464SOL    HW2 8292   1.103   2.645   5.031
 2465SOL     OW 8293   6.349   1.580   6.782
 2465SOL    HW1 8294   6.300   1.530   6.853
 2465SOL    HW2 8295   6.357   1.523   6.700
 2466SOL     OW 8296   0.720   2.370   1.429
 2466SOL    HW1 8297   0.622   2.389   1.434
 2466SOL    HW2 8298   0.744   2.343   1.336
 2467SOL     OW 8299   5.065   2.539   5.270
 2467SOL    HW1 8300   5.027   2.461   5.319
 2467SOL    HW2 8301   4.998   2.575   5.206
 2468SOL     OW 8302   3.098   0.259   5.189
 2468SOL    HW1 8303   3.028   0.331   5.178
 2468SOL    HW2 8304   3.184   0.290   5.149
 2469SOL     OW 8305   2.909   1.587   6.133
 2469SOL    HW1 8306   2.990   1.643   6.116
 2469SOL    HW2 8307   2.937   1.500   6.173
 2470SOL     OW 8308   2.215   5.761   6.208
 2470SOL    HW1 8309   2.127   5.784   6.249
 2470SOL    HW2 8310   2.232   5.663   6.219
 2471SOL     OW 8311   3.222   5.760   3.143
 2471SOL    HW1 8312   3.149   5.700   3.113
 2471SOL    HW2 8313   3.311   5.716   3.124
 2472SOL     OW 8314   5.008   1.815   2.530
 2472SOL    HW1 8315   4.943   1.742   2.509
 2472SOL    HW2 8316   4.960   1.903   2.534
 2473SOL     OW 8317   0.574   4.287   4.384
 2473SOL    HW1 8318   0.634   4.293   4.463
 2473SOL    HW2 8319   0.603   4.211   4.326
 2474SOL     OW 8320   1.631   6.148   0.764
 2474SOL    HW1 8321   1.723   6.137   0.802
 2474SOL    HW2 8322   1.607   6.066   0.713
 2475SOL     OW 8323   5.603   2.395   0.750
 2475SOL    HW1 8324   5.539   2.333   0.796
 2475SOL    HW2 8325   5.657   2.344   0.683
 2476SOL     OW 8326   4.714   6.865   0.487
 2476SOL    HW1 8327   4.644   6.868   0.558
 2476SOL    HW2 8328   4.735   6.958   0.457
 2477SOL     OW 8329   3.707   0.589   3.462
 2477SOL    HW1 8330   3.635   0.554   3.521
 2477SOL    HW2 8331   3.680   0.678   3.425
 2478SOL     OW 8332   3.721   0.445   4.380
 2478SOL    HW1 8333   3.652   0.375   4.363
 2478SOL    HW2 8334   3.690   0.532   4.342
 2479SOL     OW 8335   5.074   3.698   1.365
 2479SOL    HW1 8336   5.173   3.688   1.362
 2479SOL    HW2 8337   5.050   3.794   1.356
 2480SOL     OW 8338   3.363   2.585   1.736
 2480SOL    HW1 8339   3.366   2.646   1.815
 2480SOL    HW2 8340   3.454   2.547   1.719
 2481SOL     OW 8341   3.298   0.247   1.558
 2481SOL    HW1 8342   3.333   0.270   1.649
 2481SOL    HW2 8343   3.257   0.156   1.561
 2482SOL     OW 8344   0.036   3.097   0.090
 2482SOL    HW1 8345   0.084   3.122   0.006
 2482SOL    HW2 8346   0.101   3.090   0.166
 2483SOL     OW 8347   2.616   2.288   1.064
 2483SOL    HW1 8348   2.609   2.189   1.052
 2483SOL    HW2 8349   2.533   2.331   1.030
 2484SOL     OW 8350   4.308   0.304   6.714
 2484SOL    HW1 8351   4.289   0.377   6.649
 2484SOL    HW2 8352   4.270   0.328   6.803
 2485SOL     OW 8353   0.205   1.708   6.192
 2485SOL    HW1 8354   0.174   1.617   6.163
 2485SOL    HW2 8355   0.297   1.702   6.229
 2486SOL     OW 8356   7.020   5.576   3.571
 2486SOL    HW1 8357   6.974   5.603   3.487
 2486SOL    HW2 8358   0.038   5.484   3.560
 2487SOL     OW 8359   4.770   6.053   0.153
 2487SOL    HW1 8360   4.675   6.064   0.126
 2487SOL    HW2 8361   4.777   5.981   0.223
 2488SOL     OW 8362   0.117   4.052   0.832
 2488SOL    HW1 8363   0.071   3.964   0.836
 2488SOL    HW2 8364   0.050   4.125   0.816
 2489SOL     OW 8365   6.177   5.073   4.566
 2489SOL    HW1 8366   6.274   5.069   4.590
 2489SOL    HW2 8367   6.168   5.066   4.466
 2490SOL     OW 8368   2.561   5.613   1.911
 2490SOL    HW1 8369   2.469   5.585   1.939
 2490SOL    HW2 8370   2.568   5.712   1.915
 2491SOL     OW 8371   3.885   4.628   1.690
 2491SOL    HW1 8372   3.896   4.530   1.708
 2491SOL    HW2 8373   3.971   4.664   1.652
 2492SOL     OW 8374   0.070   5.477   1.347
 2492SOL    HW1 8375   6.997   5.444   1.344
 2492SOL    HW2 8376   0.082   5.550   1.279
 2493SOL     OW 8377   5.325   6.569   0.379
 2493SOL    HW1 8378   5.246   6.518   0.411
 2493SOL    HW2 8379   5.406   6.509   0.380
 2494SOL     OW 8380   6.792   4.109   0.982
 2494SOL    HW1 8381   6.739   4.176   1.034
 2494SOL    HW2 8382   6.780   4.125   0.884
 2495SOL     OW 8383   0.498   3.515   1.877
 2495SOL    HW1 8384   0.446   3.550   1.798
 2495SOL    HW2 8385   0.476   3.571   1.957
 2496SOL     OW 8386   5.575   4.559   6.346
 2496SOL    HW1 8387   5.654   4.572   6.286
 2496SOL    HW2 8388   5.565   4.637   6.408
 2497SOL     OW 8389   0.426   6.972   2.389
 2497SOL    HW1 8390   0.344   6.925   2.423
 2497SOL    HW2 8391   0.502   6.908   2.388
 2498SOL     OW 8392   2.090   3.574   4.681
 2498SOL    HW1 8393   2.011   3.520   4.651
 2498SOL    HW2 8394   2.167   3.558   4.619
 2499SOL     OW 8395   5.958   3.521   2.361
 2499SOL    HW1 8396   6.007   3.448   2.314
 2499SOL    HW2 8397   5.863   3.524   2.328
 2500SOL     OW 8398   3.805   3.550   2.232
 2500SOL    HW1 8399   3.720   3.510   2.198
 2500SOL    HW2 8400   3.810   3.646   2.203
 2501SOL     OW 8401   5.906   5.269   6.161
 2501SOL    HW1 8402   5.837   5.297   6.227
 2501SOL    HW2 8403   5.954   5.188   6.195
 2502SOL     OW 8404   2.277   6.036   4.118
 2502SOL    HW1 8405   2.375   6.029   4.096
 2502SOL    HW2 8406   2.263   6.110   4.183
 2503SOL     OW 8407   2.230   0.112   5.160
 2503SOL    HW1 8408   2.288   0.101   5.078
 2503SOL    HW2 8409   2.134   0.102   5.134
 2504SOL     OW 8410   3.796   0.169   3.185
 2504SOL    HW1 8411   3.821   0.143   3.092
 2504SOL    HW2 8412   3.735   0.248   3.182
 2505SOL     OW 8413   6.121   4.342   3.701
 2505SOL    HW1 8414   6.201   4.286   3.678
 2505SOL    HW2 8415   6.151   4.432   3.732
 2506SOL     OW 8416   6.019   4.882   6.485
 2506SOL    HW1 8417   5.987   4.916   6.574
 2506SOL    HW2 8418   6.119   4.879   6.485
 2507SOL     OW 8419   6.571   3.040   2.881
 2507SOL    HW1 8420   6.624   2.960   2.910
 2507SOL    HW2 8421   6.483   3.011   2.845
 2508SOL     OW 8422   6.192   0.634   4.025
 2508SOL    HW1 8423   6.215   0.671   3.935
 2508SOL    HW2 8424   6.196   0.707   4.093
 2509SOL     OW 8425   7.018   3.146   5.744
 2509SOL    HW1 8426   6.941   3.089   5.771
 2509SOL    HW2 8427   0.057   3.095   5.684
 2510SOL     OW 8428   3.437   3.952   2.349
 2510SOL    HW1 8429   3.534   3.973   2.334
 2510SOL    HW2 8430   3.389   3.955   2.261
 2511SOL     OW 8431   1.695   0.648   4.411
 2511SOL    HW1 8432   1.704   0.553   4.380
 2511SOL    HW2 8433   1.747   0.661   4.495
 2512SOL     OW 8434   4.111   5.003   3.876
 2512SOL    HW1 8435   4.032   4.989   3.816
 2512SOL    HW2 8436   4.177   4.930   3.861
 2513SOL     OW 8437   2.070   5.819   6.578
 2513SOL    HW1 8438   2.045   5.824   6.481
 2513SOL    HW2 8439   2.032   5.736   6.618
 2514SOL     OW 8440   1.867   1.793   3.141
 2514SOL    HW1 8441   1.895   1.847   3.221
 2514SOL    HW2 8442   1.947   1.748   3.102
 2515SOL     OW 8443   0.133   1.852   1.169
 2515SOL    HW1 8444   0.041   1.875   1.200
 2515SOL    HW2 8445   0.185   1.811   1.244
 2516SOL     OW 8446   5.842   2.174   4.488
 2516SOL    HW1 8447   5.845   2.081   4.451
 2516SOL    HW2 8448   5.849   2.240   4.413
 2517SOL     OW 8449   0.440   1.308   3.782
 2517SOL    HW1 8450   0.458   1.228   3.838
 2517SOL    HW2 8451   0.468   1.390   3.832
 2518SOL     OW 8452   2.424   4.013   0.957
 2518SOL    HW1 8453   2.378   4.101   0.973
 2518SOL    HW2 8454   2.390   3.946   1.023
 2519SOL     OW 8455   0.838   1.246   1.089
 2519SOL    HW1 8456   0.795   1.180   1.028
 2519SOL    HW2 8457   0.769   1.290   1.146
 2520SOL     OW 8458   2.411   2.572   1.167
 2520SOL    HW1 8459   2.384   2.611   1.256
 2520SOL    HW2 8460   2.441   2.645   1.107
 2521SOL     OW 8461   5.177   0.725   4.761
 2521SOL    HW1 8462   5.209   0.726   4.667
 2521SOL    HW2 8463   5.182   0.631   4.796
 2522SOL     OW 8464   1.403   1.910   0.046
 2522SOL    HW1 8465   1.410   1.865   0.135
 2522SOL    HW2 8466   1.344   1.856   7.008
 2523SOL     OW 8467   1.038   5.482   6.347
 2523SOL    HW1 8468   0.988   5.479   6.261
 2523SOL    HW2 8469   1.036   5.575   6.384
 2524SOL     OW 8470   1.182   1.376   4.484
 2524SOL    HW1 8471   1.201   1.474   4.495
 2524SOL    HW2 8472   1.201   1.349   4.389
 2525SOL     OW 8473   6.273   2.858   5.829
 2525SOL    HW1 8474   6.241   2.920   5.900
 2525SOL    HW2 8475   6.372   2.866   5.820
 2526SOL     OW 8476   1.450   0.551   0.341
 2526SOL    HW1 8477   1.373   0.513   0.289
 2526SOL    HW2 8478   1.460   0.648   0.318
 2527SOL     OW 8479   3.671   5.159   6.766
 2527SOL    HW1 8480   3.676   5.209   6.679
 2527SOL    HW2 8481   3.761   5.156   6.808
 2528SOL     OW 8482   4.343   5.566   6.401
 2528SOL    HW1 8483   4.399   5.517   6.334
 2528SOL    HW2 8484   4.301   5.646   6.358
 2529SOL     OW 8485   0.531   6.323   5.716
 2529SOL    HW1 8486   0.607   6.355   5.772
 2529SOL    HW2 8487   0.495   6.238   5.754
 2530SOL     OW 8488   2.408   6.153   6.830
 2530SOL    HW1 8489   2.366   6.101   6.756
 2530SOL    HW2 8490   2.506   6.131   6.835
 2531SOL     OW 8491   6.700   5.227   6.169
 2531SOL    HW1 8492   6.754   5.288   6.227
 2531SOL    HW2 8493   6.664   5.152   6.225
 2532SOL     OW 8494   5.602   5.501   1.929
 2532SOL    HW1 8495   5.557   5.509   1.840
 2532SOL    HW2 8496   5.547   5.443   1.989
 2533SOL     OW 8497   4.425   1.061   3.758
 2533SOL    HW1 8498   4.354   1.031   3.694
 2533SOL    HW2 8499   4.515   1.035   3.723
 2534SOL     OW 8500   4.314   1.426   2.482
 2534SOL    HW1 8501   4.219   1.436   2.512
 2534SOL    HW2 8502   4.332   1.487   2.405
 2535SOL     OW 8503   3.587   2.765   6.341
 2535SOL    HW1 8504   3.636   2.851   6.356
 2535SOL    HW2 8505   3.565   2.724   6.430
 2536SOL     OW 8506   1.246   0.227   1.149
 2536SOL    HW1 8507   1.222   0.146   1.204
 2536SOL    HW2 8508   1.200   0.221   1.060
 2537SOL     OW 8509   4.109   6.702   5.845
 2537SOL    HW1 8510   4.010   6.698   5.859
 2537SOL    HW2 8511   4.128   6.746   5.757
 2538SOL     OW 8512   5.884   3.719   3.569
 2538SOL    HW1 8513   5.974   3.675   3.576
 2538SOL    HW2 8514   5.821   3.675   3.634
 2539SOL     OW 8515   4.748   2.912   5.362
 2539SOL    HW1 8516   4.733   2.905   5.263
 2539SOL    HW2 8517   4.739   2.821   5.403
 2540SOL     OW 8518   2.969   2.288   1.391
 2540SOL    HW1 8519   2.911   2.357   1.434
 2540SOL    HW2 8520   3.026   2.245   1.460
 2541SOL     OW 8521   3.277   6.845   3.883
 2541SOL    HW1 8522   3.292   6.779   3.810
 2541SOL    HW2 8523   3.318   6.811   3.968
 2542SOL     OW 8524   1.977   5.290   5.777
 2542SOL    HW1 8525   2.025   5.281   5.690
 2542SOL    HW2 8526   2.014   5.224   5.843
 2543SOL     OW 8527   0.298   0.429   4.203
 2543SOL    HW1 8528   0.373   0.363   4.209
 2543SOL    HW2 8529   0.313   0.502   4.270
 2544SOL     OW 8530   0.325   5.247   6.508
 2544SOL    HW1 8531   0.403   5.286   6.556
 2544SOL    HW2 8532   0.291   5.167   6.558
 2545SOL     OW 8533   2.602   5.870   3.393
 2545SOL    HW1 8534   2.630   5.957   3.433
 2545SOL    HW2 8535   2.569   5.809   3.465
 2546SOL     OW 8536   6.969   1.131   1.724
 2546SOL    HW1 8537   6.938   1.132   1.629
 2546SOL    HW2 8538   0.021   1.198   1.735
 2547SOL     OW 8539   0.979   3.281   5.265
 2547SOL    HW1 8540   0.966   3.277   5.364
 2547SOL    HW2 8541   0.906   3.335   5.223
 2548SOL     OW 8542   1.233   0.400   5.966
 2548SOL    HW1 8543   1.280   0.316   5.939
 2548SOL    HW2 8544   1.150   0.377   6.017
 2549SOL     OW 8545   5.899   2.867   2.152
 2549SOL    HW1 8546   5.857   2.922   2.225
 2549SOL    HW2 8547   5.858   2.891   2.064
 2550SOL     OW 8548   5.626   5.224   6.853
 2550SOL    HW1 8549   5.596   5.246   6.760
 2550SOL    HW2 8550   5.651   5.308   6.901
 2551SOL     OW 8551   0.913   5.094   0.166
 2551SOL    HW1 8552   0.977   5.169   0.182
 2551SOL    HW2 8553   0.835   5.127   0.113
 2552SOL     OW 8554   1.558   5.796   3.495
 2552SOL    HW1 8555   1.655   5.784   3.476
 2552SOL    HW2 8556   1.520   5.866   3.434
 2553SOL     OW 8557   4.078   3.724   6.887
 2553SOL    HW1 8558   4.123   3.727   6.976
 2553SOL    HW2 8559   4.142   3.750   6.816
 2554SOL     OW 8560   1.129   2.004   0.704
 2554SOL    HW1 8561   1.161   2.016   0.798
 2554SOL    HW2 8562   1.030   1.996   0.704
 2555SOL     OW 8563   6.723   0.245   6.418
 2555SOL    HW1 8564   6.797   0.274   6.358
 2555SOL    HW2 8565   6.668   0.324   6.445
 2556SOL     OW 8566   4.120   4.709   0.498
 2556SOL    HW1 8567   4.022   4.724   0.512
 2556SOL    HW2 8568   4.152   4.765   0.421
 2557SOL     OW 8569   1.380   4.407   6.707
 2557SOL    HW1 8570   1.463   4.351   6.702
 2557SOL    HW2 8571   1.317   4.378   6.635
 2558SOL     OW 8572   4.267   0.202   5.086
 2558SOL    HW1 8573   4.168   0.209   5.091
 2558SOL    HW2 8574   4.308   0.294   5.082
 2559SOL     OW 8575   0.723   4.984   4.820
 2559SOL    HW1 8576   0.794   4.942   4.764
 2559SOL    HW2 8577   0.646   5.011   4.762
 2560SOL     OW 8578   5.779   1.140   6.905
 2560SOL    HW1 8579   5.732   1.227   6.911
 2560SOL    HW2 8580   5.762   1.099   6.815
 2561SOL     OW 8581   3.086   5.761   3.973
 2561SOL    HW1 8582   3.039   5.841   4.010
 2561SOL    HW2 8583   3.033   5.723   3.898
 2562SOL     OW 8584   2.624   3.909   6.997
 2562SOL    HW1 8585   2.711   3.911   6.948
 2562SOL    HW2 8586   2.633   3.958   0.062
 2563SOL     OW 8587   1.607   0.898   1.403
 2563SOL    HW1 8588   1.703   0.887   1.376
 2563SOL    HW2 8589   1.602   0.927   1.499
 2564SOL     OW 8590   1.737   6.447   2.331
 2564SOL    HW1 8591   1.656   6.441   2.390
 2564SOL    HW2 8592   1.779   6.537   2.341
 2565SOL     OW 8593   0.602   0.933   1.627
 2565SOL    HW1 8594   0.597   0.882   1.713
 2565SOL    HW2 8595   0.694   0.972   1.617
 2566SOL     OW 8596   1.960   6.952   5.514
 2566SOL    HW1 8597   2.049   6.990   5.489
 2566SOL    HW2 8598   1.972   6.866   5.563
 2567SOL     OW 8599   0.904   1.005   0.434
 2567SOL    HW1 8600   0.841   0.950   0.380
 2567SOL    HW2 8601   0.897   1.101   0.406
 2568SOL     OW 8602   5.220   3.717   6.958
 2568SOL    HW1 8603   5.315   3.749   6.951
 2568SOL    HW2 8604   5.166   3.755   6.883
 2569SOL     OW 8605   2.628   0.658   2.329
 2569SOL    HW1 8606   2.653   0.754   2.338
 2569SOL    HW2 8607   2.648   0.627   2.236
 2570SOL     OW 8608   5.355   2.183   6.043
 2570SOL    HW1 8609   5.354   2.084   6.027
 2570SOL    HW2 8610   5.445   2.220   6.019
 2571SOL     OW 8611   0.559   3.742   4.459
 2571SOL    HW1 8612   0.525   3.784   4.543
 2571SOL    HW2 8613   0.570   3.644   4.472
 2572SOL     OW 8614   1.564   4.658   3.712
 2572SOL    HW1 8615   1.604   4.613   3.792
 2572SOL    HW2 8616   1.527   4.589   3.650
 2573SOL     OW 8617   1.163   0.123   0.497
 2573SOL    HW1 8618   1.231   0.162   0.434
 2573SOL    HW2 8619   1.121   0.197   0.550
 2574SOL     OW 8620   6.419   3.670   0.484
 2574SOL    HW1 8621   6.509   3.715   0.484
 2574SOL    HW2 8622   6.431   3.572   0.470
 2575SOL     OW 8623   0.670   6.182   6.198
 2575SOL    HW1 8624   0.727   6.124   6.141
 2575SOL    HW2 8625   0.614   6.241   6.141
 2576SOL     OW 8626   4.532   6.351   4.696
 2576SOL    HW1 8627   4.468   6.283   4.732
 2576SOL    HW2 8628   4.491   6.442   4.702
 2577SOL     OW 8629   1.660   3.896   2.757
 2577SOL    HW1 8630   1.710   3.923   2.675
 2577SOL    HW2 8631   1.698   3.810   2.793
 2578SOL     OW 8632   4.189   1.837   2.480
 2578SOL    HW1 8633   4.210   1.818   2.576
 2578SOL    HW2 8634   4.156   1.754   2.436
 2579SOL     OW 8635   0.481   6.611   2.566
 2579SOL    HW1 8636   0.542   6.541   2.527
 2579SOL    HW2 8637   0.518   6.702   2.546
 2580SOL     OW 8638   2.455   1.464   5.999
 2580SOL    HW1 8639   2.532   1.526   5.987
 2580SOL    HW2 8640   2.455   1.427   6.092
 2581SOL     OW 8641   3.016   0.604   5.542
 2581SOL    HW1 8642   2.969   0.641   5.622
 2581SOL    HW2 8643   3.101   0.561   5.571
 2582SOL     OW 8644   6.911   3.460   1.565
 2582SOL    HW1 8645   6.892   3.363   1.556
 2582SOL    HW2 8646   6.854   3.511   1.500
 2583SOL     OW 8647   5.766   0.732   1.389
 2583SOL    HW1 8648   5.693   0.785   1.346
 2583SOL    HW2 8649   5.853   0.781   1.377
 2584SOL     OW 8650   3.627   4.177   6.444
 2584SOL    HW1 8651   3.608   4.257   6.388
 2584SOL    HW2 8652   3.725   4.172   6.463
 2585SOL     OW 8653   2.834   5.492   0.019
 2585SOL    HW1 8654   2.755   5.533   6.996
 2585SOL    HW2 8655   2.810   5.467   0.112
 2586SOL     OW 8656   2.332   0.710   3.813
 2586SOL    HW1 8657   2.293   0.665   3.733
 2586SOL    HW2 8658   2.430   0.727   3.797
 2587SOL     OW 8659   5.989   0.577   4.376
 2587SOL    HW1 8660   5.961   0.606   4.285
 2587SOL    HW2 8661   6.050   0.498   4.369
 2588SOL     OW 8662   4.397   0.327   7.006
 2588SOL    HW1 8663   4.441   0.405   6.962
 2588SOL    HW2 8664   4.298   0.332   6.992
 2589SOL     OW 8665   2.060   6.133   0.208
 2589SOL    HW1 8666   2.102   6.165   0.293
 2589SOL    HW2 8667   2.005   6.207   0.168
 2590SOL     OW 8668   2.985   5.751   0.257
 2590SOL    HW1 8669   2.951   5.762   0.163
 2590SOL    HW2 8670   2.908   5.733   0.318
 2591SOL     OW 8671   5.549   6.170   2.758
 2591SOL    HW1 8672   5.592   6.148   2.671
 2591SOL    HW2 8673   5.482   6.243   2.745
 2592SOL     OW 8674   2.863   3.281   1.204
 2592SOL    HW1 8675   2.822   3.200   1.160
 2592SOL    HW2 8676   2.849   3.361   1.146
 2593SOL     OW 8677   3.535   4.651   6.915
 2593SOL    HW1 8678   3.440   4.640   6.886
 2593SOL    HW2 8679   3.565   4.745   6.895
 2594SOL     OW 8680   2.174   3.294   3.751
 2594SOL    HW1 8681   2.179   3.215   3.690
 2594SOL    HW2 8682   2.167   3.378   3.696
 2595SOL     OW 8683   2.173   1.302   2.825
 2595SOL    HW1 8684   2.263   1.340   2.803
 2595SOL    HW2 8685   2.102   1.367   2.799
 2596SOL     OW 8686   0.052   1.840   0.408
 2596SOL    HW1 8687   0.128   1.781   0.438
 2596SOL    HW2 8688   6.999   1.833   0.474
 2597SOL     OW 8689   6.547   6.617   0.203
 2597SOL    HW1 8690   6.625   6.561   0.177
 2597SOL    HW2 8691   6.470   6.598   0.142
 2598SOL     OW 8692   4.802   2.557   2.367
 2598SOL    HW1 8693   4.708   2.558   2.400
 2598SOL    HW2 8694   4.818   2.634   2.306
 2599SOL     OW 8695   2.469   5.849   2.686
 2599SOL    HW1 8696   2.480   5.775   2.752
 2599SOL    HW2 8697   2.478   5.937   2.732
 2600SOL     OW 8698   5.772   3.614   4.278
 2600SOL    HW1 8699   5.728   3.611   4.188
 2600SOL    HW2 8700   5.846   3.681   4.275
 2601SOL     OW 8701   6.688   1.278   4.583
 2601SOL    HW1 8702   6.745   1.206   4.623
 2601SOL    HW2 8703   6.707   1.365   4.628
 2602SOL     OW 8704   1.022   4.827   2.577
 2602SOL    HW1 8705   0.970   4.859   2.656
 2602SOL    HW2 8706   1.094   4.764   2.608
 2603SOL     OW 8707   2.267   5.740   2.538
 2603SOL    HW1 8708   2.340   5.795   2.577
 2603SOL    HW2 8709   2.207   5.706   2.611
 2604SOL     OW 8710   4.593   2.658   3.538
 2604SOL    HW1 8711   4.523   2.724   3.566
 2604SOL    HW2 8712   4.554   2.566   3.538
 2605SOL     OW 8713   1.411   3.051   1.491
 2605SOL    HW1 8714   1.501   3.047   1.535
 2605SOL    HW2 8715   1.373   2.958   1.487
 2606SOL     OW 8716   4.936   3.693   1.118
 2606SOL    HW1 8717   5.004   3.679   1.190
 2606SOL    HW2 8718   4.954   3.779   1.071
 2607SOL     OW 8719   2.445   3.102   1.752
 2607SOL    HW1 8720   2.527   3.158   1.761
 2607SOL    HW2 8721   2.366   3.161   1.737
 2608SOL     OW 8722   3.202   5.424   4.920
 2608SOL    HW1 8723   3.140   5.355   4.884
 2608SOL    HW2 8724   3.255   5.464   4.844
 2609SOL     OW 8725   0.605   1.879   1.422
 2609SOL    HW1 8726   0.640   1.880   1.329
 2609SOL    HW2 8727   0.681   1.890   1.486
 2610SOL     OW 8728   1.253   4.082   4.895
 2610SOL    HW1 8729   1.163   4.122   4.913
 2610SOL    HW2 8730   1.253   3.986   4.924
 2611SOL     OW 8731   5.860   0.378   5.458
 2611SOL    HW1 8732   5.771   0.368   5.413
 2611SOL    HW2 8733   5.847   0.389   5.556
 2612SOL     OW 8734   6.971   6.618   0.029
 2612SOL    HW1 8735   6.963   6.716   0.009
 2612SOL    HW2 8736   7.016   6.572   6.975
 2613SOL     OW 8737   1.626   6.885   0.162
 2613SOL    HW1 8738   1.572   6.809   0.126
 2613SOL    HW2 8739   1.602   6.901   0.258
 2614SOL     OW 8740   5.840   2.307   0.555
 2614SOL    HW1 8741   5.839   2.407   0.559
 2614SOL    HW2 8742   5.935   2.275   0.548
 2615SOL     OW 8743   0.827   3.457   0.001
 2615SOL    HW1 8744   0.733   3.425   0.009
 2615SOL    HW2 8745   0.872   3.450   0.090
 2616SOL     OW 8746   1.021   0.878   4.268
 2616SOL    HW1 8747   1.020   0.923   4.179
 2616SOL    HW2 8748   1.088   0.922   4.328
 2617SOL     OW 8749   5.487   0.157   1.488
 2617SOL    HW1 8750   5.465   0.254   1.480
 2617SOL    HW2 8751   5.467   0.111   1.401
 2618SOL     OW 8752   1.371   0.287   6.720
 2618SOL    HW1 8753   1.404   0.290   6.626
 2618SOL    HW2 8754   1.416   0.359   6.773
 2619SOL     OW 8755   5.004   1.429   2.790
 2619SOL    HW1 8756   5.092   1.460   2.755
 2619SOL    HW2 8757   4.969   1.354   2.733
 2620SOL     OW 8758   6.211   2.301   2.175
 2620SOL    HW1 8759   6.212   2.206   2.146
 2620SOL    HW2 8760   6.153   2.354   2.113
 2621SOL     OW 8761   2.500   6.478   1.288
 2621SOL    HW1 8762   2.440   6.413   1.241
 2621SOL    HW2 8763   2.579   6.430   1.325
 2622SOL     OW 8764   2.583   3.540   6.806
 2622SOL    HW1 8765   2.550   3.446   6.803
 2622SOL    HW2 8766   2.611   3.569   6.714
 2623SOL     OW 8767   6.798   0.755   4.091
 2623SOL    HW1 8768   6.767   0.845   4.062
 2623SOL    HW2 8769   6.798   0.750   4.191
 2624SOL     OW 8770   1.054   1.821   5.773
 2624SOL    HW1 8771   1.090   1.894   5.831
 2624SOL    HW2 8772   0.961   1.845   5.744
 2625SOL     OW 8773   2.608   5.466   5.607
 2625SOL    HW1 8774   2.582   5.414   5.525
 2625SOL    HW2 8775   2.597   5.408   5.688
 2626SOL     OW 8776   6.961   6.900   6.946
 2626SOL    HW1 8777   0.024   6.904   6.999
 2626SOL    HW2 8778   6.982   6.894   6.848
 2627SOL     OW 8779   2.355   0.678   5.712
 2627SOL    HW1 8780   2.366   0.580   5.697
 2627SOL    HW2 8781   2.269   0.709   5.671
 2628SOL     OW 8782   0.050   5.061   1.257
 2628SOL    HW1 8783   0.150   5.065   1.267
 2628SOL    HW2 8784   0.020   5.129   1.190
 2629SOL     OW 8785   3.184   4.040   2.835
 2629SOL    HW1 8786   3.200   4.081   2.745
 2629SOL    HW2 8787   3.101   3.986   2.832
 2630SOL     OW 8788   3.322   0.772   4.616
 2630SOL    HW1 8789   3.304   0.813   4.705
 2630SOL    HW2 8790   3.335   0.674   4.626
 2631SOL     OW 8791   4.913   5.750   0.155
 2631SOL    HW1 8792   4.909   5.849   0.139
 2631SOL    HW2 8793   4.994   5.729   0.209
 2632SOL     OW 8794   5.341   5.284   1.695
 2632SOL    HW1 8795   5.399   5.365   1.691
 2632SOL    HW2 8796   5.313   5.268   1.789
 2633SOL     OW 8797   6.982   3.288   6.125
 2633SOL    HW1 8798   6.928   3.253   6.049
 2633SOL    HW2 8799   6.959   3.239   6.209
 2634SOL     OW 8800   1.565   1.892   6.173
 2634SOL    HW1 8801   1.475   1.853   6.153
 2634SOL    HW2 8802   1.585   1.964   6.107
 2635SOL     OW 8803   3.775   5.128   2.833
 2635SOL    HW1 8804   3.866   5.163   2.813
 2635SOL    HW2 8805   3.724   5.196   2.887
 2636SOL     OW 8806   3.499   6.516   6.131
 2636SOL    HW1 8807   3.469   6.572   6.208
 2636SOL    HW2 8808   3.435   6.440   6.118
 2637SOL     OW 8809   0.113   1.495   3.305
 2637SOL    HW1 8810   0.208   1.468   3.292
 2637SOL    HW2 8811   0.053   1.437   3.249
 2638SOL     OW 8812   0.533   6.326   4.740
 2638SOL    HW1 8813   0.521   6.392   4.815
 2638SOL    HW2 8814   0.504   6.368   4.654
 2639SOL     OW 8815   5.075   5.254   4.897
 2639SOL    HW1 8816   5.115   5.330   4.846
 2639SOL    HW2 8817   4.976   5.267   4.902
 2640SOL     OW 8818   2.133   0.900   3.134
 2640SOL    HW1 8819   2.074   0.938   3.204
 2640SOL    HW2 8820   2.124   0.954   3.050
 2641SOL     OW 8821   5.090   2.436   0.045
 2641SOL    HW1 8822   5.181   2.464   0.075
 2641SOL    HW2 8823   5.088   2.337   0.030
 2642SOL     OW 8824   0.047   0.158   2.425
 2642SOL    HW1 8825   0.042   0.113   2.336
 2642SOL    HW2 8826   0.006   0.249   2.420
 2643SOL     OW 8827   1.861   4.707   3.739
 2643SOL    HW1 8828   1.914   4.684   3.657
 2643SOL    HW2 8829   1.764   4.697   3.719
 2644SOL     OW 8830   5.789   5.513   3.682
 2644SOL    HW1 8831   5.712   5.449   3.673
 2644SOL    HW2 8832   5.799   5.565   3.597
 2645SOL     OW 8833   4.835   5.707   2.315
 2645SOL    HW1 8834   4.736   5.720   2.313
 2645SOL    HW2 8835   4.874   5.759   2.391
 2646SOL     OW 8836   1.317   2.023   6.329
 2646SOL    HW1 8837   1.225   2.048   6.361
 2646SOL    HW2 8838   1.309   1.961   6.251
 2647SOL     OW 8839   4.063   6.824   2.637
 2647SOL    HW1 8840   4.139   6.776   2.681
 2647SOL    HW2 8841   4.044   6.782   2.548
 2648SOL     OW 8842   1.842   0.567   5.527
 2648SOL    HW1 8843   1.845   0.467   5.526
 2648SOL    HW2 8844   1.750   0.598   5.551
 2649SOL     OW 8845   6.356   2.008   3.899
 2649SOL    HW1 8846   6.428   1.993   3.831
 2649SOL    HW2 8847   6.271   1.965   3.867
 2650SOL     OW 8848   2.083   0.191   4.565
 2650SOL    HW1 8849   2.055   0.210   4.471
 2650SOL    HW2 8850   2.103   0.093   4.574
 2651SOL     OW 8851   3.709   1.813   3.324
 2651SOL    HW1 8852   3.795   1.803   3.374
 2651SOL    HW2 8853   3.666   1.723   3.314
 2652SOL     OW 8854   4.807   3.842   5.746
 2652SOL    HW1 8855   4.886   3.902   5.757
 2652SOL    HW2 8856   4.812   3.795   5.658
 2653SOL     OW 8857   1.912   6.244   6.982
 2653SOL    HW1 8858   2.008   6.225   6.963
 2653SOL    HW2 8859   1.882   6.322   6.927
 2654SOL     OW 8860   0.093   1.091   0.719
 2654SOL    HW1 8861   0.091   1.011   0.779
 2654SOL    HW2 8862   0.070   1.064   0.626
 2655SOL     OW 8863   5.220   0.178   2.810
 2655SOL    HW1 8864   5.233   0.271   2.775
 2655SOL    HW2 8865   5.309   0.139   2.835
 2656SOL     OW 8866   4.742   6.562   4.335
 2656SOL    HW1 8867   4.801   6.537   4.412
 2656SOL    HW2 8868   4.671   6.492   4.324
 2657SOL     OW 8869   1.623   3.448   6.878
 2657SOL    HW1 8870   1.531   3.437   6.839
 2657SOL    HW2 8871   1.614   3.479   6.973
 2658SOL     OW 8872   3.095   4.255   0.236
 2658SOL    HW1 8873   3.077   4.184   0.304
 2658SOL    HW2 8874   3.061   4.343   0.270
 2659SOL     OW 8875   0.164   2.133   5.154
 2659SOL    HW1 8876   0.236   2.102   5.092
 2659SOL    HW2 8877   0.204   2.182   5.231
 2660SOL     OW 8878   0.987   1.286   0.861
 2660SOL    HW1 8879   0.946   1.277   0.951
 2660SOL    HW2 8880   1.072   1.338   0.868
 2661SOL     OW 8881   1.859   0.954   1.136
 2661SOL    HW1 8882   1.868   0.940   1.235
 2661SOL    HW2 8883   1.927   0.898   1.089
 2662SOL     OW 8884   3.047   1.629   1.447
 2662SOL    HW1 8885   3.109   1.645   1.524
 2662SOL    HW2 8886   2.969   1.692   1.454
 2663SOL     OW 8887   4.263   0.916   0.716
 2663SOL    HW1 8888   4.290   0.990   0.778
 2663SOL    HW2 8889   4.164   0.919   0.703
 2664SOL     OW 8890   4.864   3.018   5.863
 2664SOL    HW1 8891   4.821   3.103   5.833
 2664SOL    HW2 8892   4.938   3.040   5.927
 2665SOL     OW 8893   1.362   3.481   4.297
 2665SOL    HW1 8894   1.326   3.572   4.317
 2665SOL    HW2 8895   1.450   3.490   4.250
 2666SOL     OW 8896   1.935   4.153   1.991
 2666SOL    HW1 8897   1.990   4.177   2.071
 2666SOL    HW2 8898   1.852   4.106   2.020
 2667SOL     OW 8899   6.412   2.386   4.794
 2667SOL    HW1 8900   6.358   2.414   4.873
 2667SOL    HW2 8901   6.508   2.375   4.821
 2668SOL     OW 8902   5.703   0.787   4.126
 2668SOL    HW1 8903   5.783   0.745   4.084
 2668SOL    HW2 8904   5.675   0.734   4.206
 2669SOL     OW 8905   2.575   1.039   1.645
 2669SOL    HW1 8906   2.605   1.125   1.605
 2669SOL    HW2 8907   2.593   1.040   1.743
 2670SOL     OW 8908   0.757   0.666   0.680
 2670SOL    HW1 8909   0.856   0.673   0.669
 2670SOL    HW2 8910   0.721   0.594   0.621
 2671SOL     OW 8911   5.199   4.161   6.015
 2671SOL    HW1 8912   5.105   4.194   6.017
 2671SOL    HW2 8913   5.217   4.105   6.096
 2672SOL     OW 8914   2.151   1.901   2.888
 2672SOL    HW1 8915   2.171   1.995   2.862
 2672SOL    HW2 8916   2.235   1.856   2.917
 2673SOL     OW 8917   3.381   6.998   2.741
 2673SOL    HW1 8918   3.300   6.951   2.778
 2673SOL    HW2 8919   3.442   0.001   2.817
 2674SOL     OW 8920   6.463   5.774   3.304
 2674SOL    HW1 8921   6.550   5.824   3.304
 2674SOL    HW2 8922   6.395   5.827   3.253
 2675SOL     OW 8923   4.474   1.085   4.733
 2675SOL    HW1 8924   4.571   1.083   4.712
 2675SOL    HW2 8925   4.431   1.001   4.699
 2676SOL     OW 8926   3.903   3.098   4.702
 2676SOL    HW1 8927   3.816   3.105   4.655
 2676SOL    HW2 8928   3.975   3.140   4.646
 2677SOL     OW 8929   1.688   5.850   0.497
 2677SOL    HW1 8930   1.671   5.892   0.408
 2677SOL    HW2 8931   1.613   5.787   0.519
 2678SOL     OW 8932   3.553   1.782   2.242
 2678SOL    HW1 8933   3.489   1.729   2.186
 2678SOL    HW2 8934   3.520   1.788   2.336
 2679SOL     OW 8935   2.068   3.406   2.487
 2679SOL    HW1 8936   2.060   3.324   2.544
 2679SOL    HW2 8937   2.153   3.402   2.436
 2680SOL     OW 8938   5.699   2.659   6.739
 2680SOL    HW1 8939   5.789   2.643   6.781
 2680SOL    HW2 8940   5.630   2.605   6.786
 2681SOL     OW 8941   2.532   2.260   3.553
 2681SOL    HW1 8942   2.461   2.192   3.532
 2681SOL    HW2 8943   2.549   2.261   3.651
 2682SOL     OW 8944   3.759   4.015   2.093
 2682SOL    HW1 8945   3.706   4.057   2.019
 2682SOL    HW2 8946   3.713   4.031   2.181
 2683SOL     OW 8947   1.763   3.613   1.574
 2683SOL    HW1 8948   1.774   3.694   1.516
 2683SOL    HW2 8949   1.731   3.536   1.518
 2684SOL     OW 8950   5.535   0.514   3.498
 2684SOL    HW1 8951   5.467   0.585   3.479
 2684SOL    HW2 8952   5.555   0.512   3.595
 2685SOL     OW 8953   1.544   6.786   5.757
 2685SOL    HW1 8954   1.505   6.740   5.677
 2685SOL    HW2 8955   1.561   6.883   5.735
 2686SOL     OW 8956   1.768   1.449   6.309
 2686SOL    HW1 8957   1.714   1.366   6.317
 2686SOL    HW2 8958   1.708   1.528   6.304
 2687SOL     OW 8959   4.230   2.414   1.558
 2687SOL    HW1 8960   4.185   2.497   1.592
 2687SOL    HW2 8961   4.233   2.346   1.631
 2688SOL     OW 8962   3.874   2.697   6.602
 2688SOL    HW1 8963   3.965   2.658   6.616
 2688SOL    HW2 8964   3.807   2.623   6.596
 2689SOL     OW 8965   6.778   3.531   2.815
 2689SOL    HW1 8966   6.810   3.613   2.768
 2689SOL    HW2 8967   6.710   3.484   2.758
 2690SOL     OW 8968   5.306   1.170   4.958
 2690SOL    HW1 8969   5.265   1.195   4.870
 2690SOL    HW2 8970   5.341   1.077   4.954
 2691SOL     OW 8971   6.949   3.357   4.572
 2691SOL    HW1 8972   6.982   3.411   4.649
 2691SOL    HW2 8973   6.959   3.260   4.592
 2692SOL     OW 8974   2.096   5.184   1.815
 2692SOL    HW1 8975   2.101   5.145   1.908
 2692SOL    HW2 8976   2.123   5.114   1.749
 2693SOL     OW 8977   0.415   4.871   2.904
 2693SOL    HW1 8978   0.323   4.837   2.885
 2693SOL    HW2 8979   0.414   4.971   2.908
 2694SOL     OW 8980   2.314   0.481   2.220
 2694SOL    HW1 8981   2.261   0.396   2.222
 2694SOL    HW2 8982   2.304   0.524   2.130
 2695SOL     OW 8983   6.891   5.667   3.344
 2695SOL    HW1 8984   6.910   5.658   3.247
 2695SOL    HW2 8985   6.811   5.726   3.358
 2696SOL     OW 8986   3.878   4.336   6.268
 2696SOL    HW1 8987   3.788   4.365   6.234
 2696SOL    HW2 8988   3.902   4.390   6.348
 2697SOL     OW 8989   3.782   2.614   0.330
 2697SOL    HW1 8990   3.704   2.646   0.385
 2697SOL    HW2 8991   3.867   2.642   0.374
 2698SOL     OW 8992   1.531   5.746   7.012
 2698SOL    HW1 8993   1.472   5.766   0.068
 2698SOL    HW2 8994   1.500   5.798   6.932
 2699SOL     OW 8995   2.840   0.023   1.940
 2699SOL    HW1 8996   2.772   7.018   2.009
 2699SOL    HW2 8997   2.931   7.017   1.971
 2700SOL     OW 8998   4.591   2.411   1.713
 2700SOL    HW1 8999   4.643   2.452   1.789
 2700SOL    HW2 9000   4.555   2.322   1.742
 2701SOL     OW 9001   5.346   3.638   4.967
 2701SOL    HW1 9002   5.397   3.556   4.989
 2701SOL    HW2 9003   5.253   3.614   4.938
 2702SOL     OW 9004   1.784   1.376   4.483
 2702SOL    HW1 9005   1.850   1.424   4.542
 2702SOL    HW2 9006   1.712   1.440   4.455
 2703SOL     OW 9007   2.376   6.059   1.974
 2703SOL    HW1 9008   2.338   6.147   2.002
 2703SOL    HW2 9009   2.302   5.992   1.967
 2704SOL     OW 9010   4.240   0.641   3.322
 2704SOL    HW1 9011   4.142   0.624   3.332
 2704SOL    HW2 9012   4.290   0.594   3.395
 2705SOL     OW 9013   1.308   6.870   5.269
 2705SOL    HW1 9014   1.339   6.936   5.200
 2705SOL    HW2 9015   1.368   6.790   5.268
 2706SOL     OW 9016   6.831   4.593   3.822
 2706SOL    HW1 9017   6.881   4.637   3.748
 2706SOL    HW2 9018   6.769   4.658   3.865
 2707SOL     OW 9019   4.750   1.444   2.993
 2707SOL    HW1 9020   4.802   1.529   2.989
 2707SOL    HW2 9021   4.745   1.403   2.902
 2708SOL     OW 9022   4.983   3.409   5.817
 2708SOL    HW1 9023   4.907   3.346   5.800
 2708SOL    HW2 9024   5.036   3.420   5.733
 2709SOL     OW 9025   5.235   1.400   5.788
 2709SOL    HW1 9026   5.146   1.446   5.779
 2709SOL    HW2 9027   5.223   1.317   5.842
 2710SOL     OW 9028   1.352   2.521   4.596
 2710SOL    HW1 9029   1.321   2.563   4.511
 2710SOL    HW2 9030   1.276   2.514   4.660
 2711SOL     OW 9031   4.576   0.841   1.509
 2711SOL    HW1 9032   4.605   0.913   1.445
 2711SOL    HW2 9033   4.529   0.883   1.587
 2712SOL     OW 9034   5.490   5.813   1.501
 2712SOL    HW1 9035   5.466   5.910   1.504
 2712SOL    HW2 9036   5.409   5.758   1.517
 2713SOL     OW 9037   3.678   5.139   5.615
 2713SOL    HW1 9038   3.607   5.185   5.561
 2713SOL    HW2 9039   3.690   5.046   5.582
 2714SOL     OW 9040   3.134   4.221   6.305
 2714SOL    HW1 9041   3.206   4.156   6.332
 2714SOL    HW2 9042   3.060   4.218   6.371
 2715SOL     OW 9043   4.409   6.245   6.936
 2715SOL    HW1 9044   4.330   6.301   6.962
 2715SOL    HW2 9045   4.420   6.171   7.002
 2716SOL     OW 9046   4.454   1.170   2.495
 2716SOL    HW1 9047   4.364   1.128   2.481
 2716SOL    HW2 9048   4.444   1.269   2.504
 2717SOL     OW 9049   1.096   2.178   2.675
 2717SOL    HW1 9050   1.195   2.189   2.673
 2717SOL    HW2 9051   1.058   2.204   2.586
 2718SOL     OW 9052   6.447   1.961   5.889
 2718SOL    HW1 9053   6.353   1.939   5.915
 2718SOL    HW2 9054   6.510   1.927   5.960
 2719SOL     OW 9055   0.665   4.740   3.327
 2719SOL    HW1 9056   0.740   4.674   3.317
 2719SOL    HW2 9057   0.597   4.724   3.255
 2720SOL     OW 9058   2.234   5.074   6.418
 2720SOL    HW1 9059   2.172   5.051   6.493
 2720SOL    HW2 9060   2.184   5.126   6.349
 2721SOL     OW 9061   2.259   6.768   3.311
 2721SOL    HW1 9062   2.186   6.705   3.339
 2721SOL    HW2 9063   2.324   6.720   3.252
 2722SOL     OW 9064   3.410   4.576   6.259
 2722SOL    HW1 9065   3.328   4.576   6.203
 2722SOL    HW2 9066   3.385   4.577   6.356
 2723SOL     OW 9067   4.114   5.528   6.936
 2723SOL    HW1 9068   4.148   5.610   6.890
 2723SOL    HW2 9069   4.117   5.450   6.874
 2724SOL     OW 9070   6.598   5.758   0.910
 2724SOL    HW1 9071   6.608   5.658   0.918
 2724SOL    HW2 9072   6.515   5.787   0.959
 2725SOL     OW 9073   5.989   5.105   3.231
 2725SOL    HW1 9074   6.045   5.140   3.156
 2725SOL    HW2 9075   5.966   5.009   3.213
 2726SOL     OW 9076   6.488   2.408   3.014
 2726SOL    HW1 9077   6.418   2.367   2.956
 2726SOL    HW2 9078   6.507   2.501   2.983
 2727SOL     OW 9079   1.627   5.351   3.737
 2727SOL    HW1 9080   1.574   5.282   3.686
 2727SOL    HW2 9081   1.724   5.337   3.722
 2728SOL     OW 9082   5.113   5.394   5.770
 2728SOL    HW1 9083   5.175   5.376   5.846
 2728SOL    HW2 9084   5.103   5.493   5.758
 2729SOL     OW 9085   6.724   7.021   0.042
 2729SOL    HW1 9086   6.803   7.007   7.005
 2729SOL    HW2 9087   6.720   0.095   0.070
 2730SOL     OW 9088   1.357   5.295   2.867
 2730SOL    HW1 9089   1.370   5.384   2.910
 2730SOL    HW2 9090   1.309   5.307   2.780
 2731SOL     OW 9091   3.918   3.892   5.126
 2731SOL    HW1 9092   4.001   3.908   5.180
 2731SOL    HW2 9093   3.853   3.839   5.181
 2732SOL     OW 9094   4.614   0.595   1.731
 2732SOL    HW1 9095   4.561   0.589   1.647
 2732SOL    HW2 9096   4.680   0.670   1.723
 2733SOL     OW 9097   0.679   0.525   0.479
 2733SOL    HW1 9098   0.710   0.441   0.434
 2733SOL    HW2 9099   0.579   0.530   0.473
 2734SOL     OW 9100   3.092   0.298   2.643
 2734SOL    HW1 9101   3.167   0.249   2.599
 2734SOL    HW2 9102   3.069   0.253   2.729
 2735SOL     OW 9103   1.475   2.473   2.951
 2735SOL    HW1 9104   1.486   2.496   3.048
 2735SOL    HW2 9105   1.554   2.508   2.900
 2736SOL     OW 9106   5.679   4.551   2.704
 2736SOL    HW1 9107   5.591   4.598   2.712
 2736SOL    HW2 9108   5.744   4.608   2.654
 2737SOL     OW 9109   3.040   0.266   5.678
 2737SOL    HW1 9110   2.961   0.230   5.630
 2737SOL    HW2 9111   3.022   0.266   5.777
 2738SOL     OW 9112   5.113   6.307   0.962
 2738SOL    HW1 9113   5.158   6.391   0.992
 2738SOL    HW2 9114   5.086   6.316   0.866
 2739SOL     OW 9115   0.720   5.353   1.416
 2739SOL    HW1 9116   0.709   5.449   1.388
 2739SOL    HW2 9117   0.708   5.346   1.515
 2740SOL     OW 9118   6.920   5.327   4.388
 2740SOL    HW1 9119   6.926   5.426   4.373
 2740SOL    HW2 9120   6.922   5.308   4.486
 2741SOL     OW 9121   0.960   7.019   6.508
 2741SOL    HW1 9122   0.962   6.953   6.432
 2741SOL    HW2 9123   1.007   0.081   6.480
 2742SOL     OW 9124   2.864   5.138   2.864
 2742SOL    HW1 9125   2.766   5.125   2.877
 2742SOL    HW2 9126   2.886   5.137   2.767
 2743SOL     OW 9127   5.603   1.851   2.700
 2743SOL    HW1 9128   5.689   1.878   2.657
 2743SOL    HW2 9129   5.561   1.931   2.743
 2744SOL     OW 9130   3.512   4.162   2.686
 2744SOL    HW1 9131   3.488   4.158   2.783
 2744SOL    HW2 9132   3.601   4.118   2.673
 2745SOL     OW 9133   0.385   6.211   6.915
 2745SOL    HW1 9134   0.383   6.297   6.966
 2745SOL    HW2 9135   0.293   6.173   6.911
 2746SOL     OW 9136   1.402   0.821   4.681
 2746SOL    HW1 9137   1.334   0.877   4.726
 2746SOL    HW2 9138   1.490   0.869   4.679
 2747SOL     OW 9139   4.209   4.810   0.261
 2747SOL    HW1 9140   4.267   4.823   0.341
 2747SOL    HW2 9141   4.261   4.831   0.178
 2748SOL     OW 9142   4.153   0.243   1.244
 2748SOL    HW1 9143   4.147   0.206   1.152
 2748SOL    HW2 9144   4.220   0.316   1.247
 2749SOL     OW 9145   3.852   0.990   0.490
 2749SOL    HW1 9146   3.870   0.954   0.399
 2749SOL    HW2 9147   3.903   1.075   0.503
 2750SOL     OW 9148   2.759   5.982   2.991
 2750SOL    HW1 9149   2.786   5.937   3.076
 2750SOL    HW2 9150   2.776   5.921   2.914
 2751SOL     OW 9151   6.178   5.064   1.175
 2751SOL    HW1 9152   6.230   5.114   1.245
 2751SOL    HW2 9153   6.170   5.121   1.093
 2752SOL     OW 9154   3.937   5.570   6.266
 2752SOL    HW1 9155   3.837   5.565   6.270
 2752SOL    HW2 9156   3.975   5.479   6.252
 2753SOL     OW 9157   5.509   4.767   5.700
 2753SOL    HW1 9158   5.418   4.807   5.710
 2753SOL    HW2 9159   5.541   4.781   5.606
 2754SOL     OW 9160   1.587   0.577   4.848
 2754SOL    HW1 9161   1.682   0.604   4.864
 2754SOL    HW2 9162   1.526   0.653   4.874
 2755SOL     OW 9163   3.066   6.905   2.050
 2755SOL    HW1 9164   3.013   6.830   2.088
 2755SOL    HW2 9165   3.110   6.956   2.125
 2756SOL     OW 9166   4.579   5.806   6.943
 2756SOL    HW1 9167   4.591   5.869   6.866
 2756SOL    HW2 9168   4.541   5.719   6.910
 2757SOL     OW 9169   1.099   4.744   0.788
 2757SOL    HW1 9170   1.076   4.719   0.694
 2757SOL    HW2 9171   1.074   4.669   0.849
 2758SOL     OW 9172   4.776   0.750   5.454
 2758SOL    HW1 9173   4.687   0.787   5.479
 2758SOL    HW2 9174   4.766   0.654   5.427
 2759SOL     OW 9175   4.780   5.187   3.856
 2759SOL    HW1 9176   4.793   5.213   3.760
 2759SOL    HW2 9177   4.807   5.263   3.915
 2760SOL     OW 9178   1.088   6.478   3.481
 2760SOL    HW1 9179   1.126   6.404   3.536
 2760SOL    HW2 9180   1.061   6.554   3.540
 2761SOL     OW 9181   2.550   5.123   4.718
 2761SOL    HW1 9182   2.579   5.205   4.767
 2761SOL    HW2 9183   2.521   5.147   4.626
 2762SOL     OW 9184   1.856   0.968   5.601
 2762SOL    HW1 9185   1.937   0.988   5.655
 2762SOL    HW2 9186   1.775   0.968   5.660
 2763SOL     OW 9187   5.355   0.661   2.246
 2763SOL    HW1 9188   5.328   0.722   2.171
 2763SOL    HW2 9189   5.281   0.657   2.313
 2764SOL     OW 9190   6.184   0.801   1.989
 2764SOL    HW1 9191   6.251   0.790   1.915
 2764SOL    HW2 9192   6.217   0.870   2.054
 2765SOL     OW 9193   5.497   2.072   2.820
 2765SOL    HW1 9194   5.541   2.158   2.795
 2765SOL    HW2 9195   5.439   2.086   2.900
 2766SOL     OW 9196   5.222   0.016   2.503
 2766SOL    HW1 9197   5.276   0.100   2.505
 2766SOL    HW2 9198   5.274   6.963   2.546
 2767SOL     OW 9199   6.546   4.247   5.713
 2767SOL    HW1 9200   6.622   4.293   5.760
 2767SOL    HW2 9201   6.504   4.310   5.648
 2768SOL     OW 9202   5.891   1.326   6.426
 2768SOL    HW1 9203   5.840   1.274   6.358
 2768SOL    HW2 9204   5.964   1.269   6.464
 2769SOL     OW 9205   0.537   4.150   0.789
 2769SOL    HW1 9206   0.557   4.074   0.727
 2769SOL    HW2 9207   0.468   4.120   0.855
 2770SOL     OW 9208   5.320   6.194   2.219
 2770SOL    HW1 9209   5.344   6.245   2.302
 2770SOL    HW2 9210   5.224   6.211   2.197
 2771SOL     OW 9211   4.807   0.533   1.105
 2771SOL    HW1 9212   4.747   0.497   1.177
 2771SOL    HW2 9213   4.882   0.583   1.147
 2772SOL     OW 9214   3.773   1.337   6.709
 2772SOL    HW1 9215   3.738   1.430   6.704
 2772SOL    HW2 9216   3.811   1.311   6.620
 2773SOL     OW 9217   2.908   4.685   0.841
 2773SOL    HW1 9218   2.849   4.731   0.774
 2773SOL    HW2 9219   2.878   4.709   0.933
 2774SOL     OW 9220   5.145   3.423   1.981
 2774SOL    HW1 9221   5.111   3.498   2.038
 2774SOL    HW2 9222   5.069   3.360   1.961
 2775SOL     OW 9223   0.066   0.017   2.659
 2775SOL    HW1 9224   0.064   0.073   2.575
 2775SOL    HW2 9225   0.011   6.957   2.646
 2776SOL     OW 9226   2.447   6.338   0.148
 2776SOL    HW1 9227   2.422   6.335   0.051
 2776SOL    HW2 9228   2.377   6.389   0.198
 2777SOL     OW 9229   1.762   2.324   4.416
 2777SOL    HW1 9230   1.742   2.405   4.472
 2777SOL    HW2 9231   1.800   2.252   4.474
 2778SOL     OW 9232   2.820   2.366   5.123
 2778SOL    HW1 9233   2.910   2.323   5.134
 2778SOL    HW2 9234   2.789   2.399   5.212
 2779SOL     OW 9235   6.043   1.107   1.256
 2779SOL    HW1 9236   6.067   1.204   1.258
 2779SOL    HW2 9237   6.036   1.076   1.161
 2780SOL     OW 9238   3.560   6.295   0.060
 2780SOL    HW1 9239   3.613   6.308   0.144
 2780SOL    HW2 9240   3.605   6.225   0.004
 2781SOL     OW 9241   5.020   3.672   6.561
 2781SOL    HW1 9242   5.021   3.739   6.635
 2781SOL    HW2 9243   5.020   3.719   6.473
 2782SOL     OW 9244   3.660   1.214   5.543
 2782SOL    HW1 9245   3.745   1.266   5.532
 2782SOL    HW2 9246   3.654   1.144   5.472
 2783SOL     OW 9247   0.523   3.998   5.568
 2783SOL    HW1 9248   0.504   4.037   5.658
 2783SOL    HW2 9249   0.498   4.064   5.497
 2784SOL     OW 9250   2.348   2.316   1.580
 2784SOL    HW1 9251   2.355   2.349   1.674
 2784SOL    HW2 9252   2.422   2.355   1.525
 2785SOL     OW 9253   6.050   1.898   2.390
 2785SOL    HW1 9254   6.096   1.974   2.436
 2785SOL    HW2 9255   5.967   1.931   2.346
 2786SOL     OW 9256   3.751   0.487   0.774
 2786SOL    HW1 9257   3.830   0.433   0.744
 2786SOL    HW2 9258   3.708   0.442   0.852
 2787SOL     OW 9259   2.258   3.736   6.132
 2787SOL    HW1 9260   2.225   3.643   6.152
 2787SOL    HW2 9261   2.180   3.796   6.118
 2788SOL     OW 9262   0.545   3.528   0.305
 2788SOL    HW1 9263   0.576   3.623   0.303
 2788SOL    HW2 9264   0.449   3.525   0.333
 2789SOL     OW 9265   0.884   2.615   4.175
 2789SOL    HW1 9266   0.813   2.672   4.134
 2789SOL    HW2 9267   0.934   2.669   4.243
 2790SOL     OW 9268   3.685   6.308   3.937
 2790SOL    HW1 9269   3.713   6.213   3.926
 2790SOL    HW2 9270   3.609   6.328   3.875
 2791SOL     OW 9271   1.575   3.516   2.798
 2791SOL    HW1 9272   1.551   3.490   2.891
 2791SOL    HW2 9273   1.667   3.557   2.797
 2792SOL     OW 9274   1.117   2.324   5.481
 2792SOL    HW1 9275   1.101   2.293   5.388
 2792SOL    HW2 9276   1.036   2.371   5.515
 2793SOL     OW 9277   4.716   0.574   4.091
 2793SOL    HW1 9278   4.759   0.567   4.180
 2793SOL    HW2 9279   4.617   0.582   4.102
 2794SOL     OW 9280   0.690   1.444   1.534
 2794SOL    HW1 9281   0.616   1.510   1.521
 2794SOL    HW2 9282   0.698   1.422   1.632
 2795SOL     OW 9283   0.870   3.830   1.154
 2795SOL    HW1 9284   0.885   3.928   1.170
 2795SOL    HW2 9285   0.957   3.786   1.134
 2796SOL     OW 9286   4.780   4.516   2.519
 2796SOL    HW1 9287   4.683   4.503   2.501
 2796SOL    HW2 9288   4.799   4.613   2.534
 2797SOL     OW 9289   4.512   4.418   5.287
 2797SOL    HW1 9290   4.441   4.449   5.224
 2797SOL    HW2 9291   4.472   4.402   5.377
 2798SOL     OW 9292   1.750   4.231   3.379
 2798SOL    HW1 9293   1.776   4.310   3.435
 2798SOL    HW2 9294   1.765   4.147   3.432
 2799SOL     OW 9295   7.009   5.798   5.884
 2799SOL    HW1 9296   0.060   5.825   5.948
 2799SOL    HW2 9297   6.920   5.804   5.930
 2800SOL     OW 9298   2.821   0.970   6.350
 2800SOL    HW1 9299   2.795   0.875   6.333
 2800SOL    HW2 9300   2.818   1.021   6.264
 2801SOL     OW 9301   4.107   5.169   2.060
 2801SOL    HW1 9302   4.051   5.198   1.982
 2801SOL    HW2 9303   4.049   5.161   2.141
 2802SOL     OW 9304   6.512   0.400   6.615
 2802SOL    HW1 9305   6.443   0.394   6.543
 2802SOL    HW2 9306   6.544   0.494   6.623
 2803SOL     OW 9307   2.445   5.978   5.453
 2803SOL    HW1 9308   2.389   5.960   5.534
 2803SOL    HW2 9309   2.471   6.075   5.452
 2804SOL     OW 9310   0.372   4.621   2.391
 2804SOL    HW1 9311   0.380   4.521   2.393
 2804SOL    HW2 9312   0.281   4.647   2.358
 2805SOL     OW 9313   6.059   3.790   6.734
 2805SOL    HW1 9314   6.086   3.709   6.785
 2805SOL    HW2 9315   6.135   3.821   6.677
 2806SOL     OW 9316   6.778   5.745   2.299
 2806SOL    HW1 9317   6.853   5.721   2.236
 2806SOL    HW2 9318   6.810   5.814   2.364
 2807SOL     OW 9319   3.836   4.880   3.512
 2807SOL    HW1 9320   3.799   4.863   3.420
 2807SOL    HW2 9321   3.909   4.814   3.531
 2808SOL     OW 9322   4.693   6.261   4.479
 2808SOL    HW1 9323   4.638   6.326   4.533
 2808SOL    HW2 9324   4.701   6.175   4.529
 2809SOL     OW 9325   5.912   2.690   0.044
 2809SOL    HW1 9326   6.001   2.669   0.084
 2809SOL    HW2 9327   5.841   2.644   0.098
 2810SOL     OW 9328   1.544   1.211   6.530
 2810SOL    HW1 9329   1.469   1.173   6.476
 2810SOL    HW2 9330   1.516   1.298   6.570
 2811SOL     OW 9331   0.246   0.554   3.951
 2811SOL    HW1 9332   0.182   0.507   3.891
 2811SOL    HW2 9333   0.273   0.492   4.025
 2812SOL     OW 9334   4.988   4.741   2.755
 2812SOL    HW1 9335   4.986   4.747   2.655
 2812SOL    HW2 9336   5.030   4.654   2.782
 2813SOL     OW 9337   6.046   2.111   6.459
 2813SOL    HW1 9338   6.126   2.126   6.401
 2813SOL    HW2 9339   5.977   2.061   6.408
 2814SOL     OW 9340   5.543   4.441   4.733
 2814SOL    HW1 9341   5.607   4.433   4.809
 2814SOL    HW2 9342   5.461   4.489   4.763
 2815SOL     OW 9343   0.569   1.139   4.607
 2815SOL    HW1 9344   0.645   1.163   4.548
 2815SOL    HW2 9345   0.509   1.074   4.559
 2816SOL     OW 9346   5.059   6.799   3.099
 2816SOL    HW1 9347   4.996   6.877   3.109
 2816SOL    HW2 9348   5.088   6.768   3.190
 2817SOL     OW 9349   1.417   1.581   1.237
 2817SOL    HW1 9350   1.513   1.571   1.262
 2817SOL    HW2 9351   1.366   1.500   1.265
 2818SOL     OW 9352   1.417   3.185   0.047
 2818SOL    HW1 9353   1.439   3.119   0.119
 2818SOL    HW2 9354   1.348   3.146   7.007
 2819SOL     OW 9355   6.613   3.047   1.240
 2819SOL    HW1 9356   6.695   3.102   1.258
 2819SOL    HW2 9357   6.593   3.047   1.142
 2820SOL     OW 9358   4.931   2.261   3.936
 2820SOL    HW1 9359   4.902   2.168   3.959
 2820SOL    HW2 9360   4.909   2.323   4.011
 2821SOL     OW 9361   1.692   3.358   3.423
 2821SOL    HW1 9362   1.745   3.436   3.390
 2821SOL    HW2 9363   1.637   3.385   3.502
 2822SOL     OW 9364   3.037   1.813   1.062
 2822SOL    HW1 9365   3.079   1.894   1.104
 2822SOL    HW2 9366   3.109   1.759   1.017
 2823SOL     OW 9367   1.744   0.213   4.059
 2823SOL    HW1 9368   1.715   0.246   3.970
 2823SOL    HW2 9369   1.787   0.123   4.049
 2824SOL     OW 9370   3.216   2.078   5.470
 2824SOL    HW1 9371   3.166   2.018   5.533
 2824SOL    HW2 9372   3.151   2.118   5.405
 2825SOL     OW 9373   6.077   6.405   0.834
 2825SOL    HW1 9374   6.013   6.332   0.812
 2825SOL    HW2 9375   6.167   6.385   0.795
 2826SOL     OW 9376   5.082   3.327   4.181
 2826SOL    HW1 9377   5.020   3.276   4.121
 2826SOL    HW2 9378   5.151   3.265   4.219
 2827SOL     OW 9379   6.914   0.367   6.284
 2827SOL    HW1 9380   6.920   0.467   6.283
 2827SOL    HW2 9381   7.001   0.329   6.316
 2828SOL     OW 9382   3.913   1.923   6.544
 2828SOL    HW1 9383   3.932   2.004   6.488
 2828SOL    HW2 9384   3.969   1.846   6.512
 2829SOL     OW 9385   3.039   0.577   6.971
 2829SOL    HW1 9386   3.042   0.525   0.035
 2829SOL    HW2 9387   2.946   0.575   6.934
 2830SOL     OW 9388   3.177   3.775   6.878
 2830SOL    HW1 9389   3.213   3.868   6.884
 2830SOL    HW2 9390   3.080   3.778   6.854
 2831SOL     OW 9391   6.694   6.594   3.894
 2831SOL    HW1 9392   6.742   6.677   3.923
 2831SOL    HW2 9393   6.627   6.617   3.824
 2832SOL     OW 9394   0.412   1.005   2.140
 2832SOL    HW1 9395   0.463   0.922   2.165
 2832SOL    HW2 9396   0.328   0.979   2.092
 2833SOL     OW 9397   6.603   3.503   2.344
 2833SOL    HW1 9398   6.622   3.405   2.349
 2833SOL    HW2 9399   6.508   3.519   2.373
 2834SOL     OW 9400   4.361   0.732   5.761
 2834SOL    HW1 9401   4.294   0.781   5.817
 2834SOL    HW2 9402   4.357   0.634   5.782
 2835SOL     OW 9403   6.378   6.557   3.368
 2835SOL    HW1 9404   6.373   6.481   3.303
 2835SOL    HW2 9405   6.469   6.599   3.363
 2836SOL     OW 9406   6.281   0.693   0.730
 2836SOL    HW1 9407   6.189   0.694   0.692
 2836SOL    HW2 9408   6.302   0.600   0.763
 2837SOL     OW 9409   5.970   3.018   3.394
 2837SOL    HW1 9410   6.001   3.005   3.300
 2837SOL    HW2 9411   6.014   2.949   3.453
 2838SOL     OW 9412   1.775   4.530   4.392
 2838SOL    HW1 9413   1.679   4.501   4.393
 2838SOL    HW2 9414   1.828   4.468   4.335
 2839SOL     OW 9415   4.459   2.760   0.844
 2839SOL    HW1 9416   4.541   2.792   0.892
 2839SOL    HW2 9417   4.378   2.783   0.898
 2840SOL     OW 9418   6.660   2.743   5.001
 2840SOL    HW1 9419   6.630   2.693   4.920
 2840SOL    HW2 9420   6.751   2.781   4.985
 2841SOL     OW 9421   6.834   6.206   0.813
 2841SOL    HW1 9422   6.754   6.247   0.771
 2841SOL    HW2 9423   6.898   6.278   0.841
 2842SOL     OW 9424   5.907   3.445   3.049
 2842SOL    HW1 9425   5.960   3.511   3.102
 2842SOL    HW2 9426   5.810   3.467   3.056
 2843SOL     OW 9427   3.922   1.225   3.976
 2843SOL    HW1 9428   3.933   1.218   4.075
 2843SOL    HW2 9429   3.864   1.304   3.955
 2844SOL     OW 9430   1.051   3.980   5.190
 2844SOL    HW1 9431   1.089   4.048   5.253
 2844SOL    HW2 9432   1.001   4.026   5.117
 2845SOL     OW 9433   0.086   3.898   5.659
 2845SOL    HW1 9434   0.133   3.904   5.571
 2845SOL    HW2 9435   0.114   3.814   5.706
 2846SOL     OW 9436   5.613   1.003   5.770
 2846SOL    HW1 9437   5.587   0.948   5.690
 2846SOL    HW2 9438   5.570   0.965   5.852
 2847SOL     OW 9439   4.428   4.895   4.349
 2847SOL    HW1 9440   4.471   4.959   4.286
 2847SOL    HW2 9441   4.482   4.888   4.433
 2848SOL     OW 9442   1.803   6.541   5.279
 2848SOL    HW1 9443   1.876   6.474   5.264
 2848SOL    HW2 9444   1.801   6.568   5.375
 2849SOL     OW 9445   2.138   3.094   1.986
 2849SOL    HW1 9446   2.073   3.057   1.919
 2849SOL    HW2 9447   2.131   3.044   2.072
 2850SOL     OW 9448   4.050   1.538   0.555
 2850SOL    HW1 9449   3.975   1.476   0.534
 2850SOL    HW2 9450   4.117   1.536   0.481
 2851SOL     OW 9451   2.411   5.377   5.964
 2851SOL    HW1 9452   2.492   5.381   5.905
 2851SOL    HW2 9453   2.412   5.455   6.027
 2852SOL     OW 9454   0.825   2.395   6.672
 2852SOL    HW1 9455   0.857   2.307   6.637
 2852SOL    HW2 9456   0.751   2.429   6.615
 2853SOL     OW 9457   3.561   2.326   1.587
 2853SOL    HW1 9458   3.650   2.282   1.574
 2853SOL    HW2 9459   3.571   2.403   1.650
 2854SOL     OW 9460   0.402   0.729   3.570
 2854SOL    HW1 9461   0.501   0.715   3.570
 2854SOL    HW2 9462   0.381   0.823   3.544
 2855SOL     OW 9463   3.223   1.566   4.604
 2855SOL    HW1 9464   3.222   1.551   4.703
 2855SOL    HW2 9465   3.171   1.493   4.559
 2856SOL     OW 9466   2.357   1.470   5.489
 2856SOL    HW1 9467   2.289   1.443   5.557
 2856SOL    HW2 9468   2.391   1.562   5.511
 2857SOL     OW 9469   3.292   3.230   3.421
 2857SOL    HW1 9470   3.389   3.210   3.434
 2857SOL    HW2 9471   3.237   3.160   3.466
 2858SOL     OW 9472   5.515   2.623   3.304
 2858SOL    HW1 9473   5.608   2.587   3.296
 2858SOL    HW2 9474   5.476   2.635   3.213
 2859SOL     OW 9475   5.572   6.229   0.027
 2859SOL    HW1 9476   5.496   6.236   0.091
 2859SOL    HW2 9477   5.546   6.170   6.972
 2860SOL     OW 9478   4.310   2.102   0.862
 2860SOL    HW1 9479   4.353   2.191   0.848
 2860SOL    HW2 9480   4.242   2.086   0.790
 2861SOL     OW 9481   3.758   5.042   6.166
 2861SOL    HW1 9482   3.757   5.133   6.124
 2861SOL    HW2 9483   3.669   5.024   6.207
 2862SOL     OW 9484   6.657   6.974   3.348
 2862SOL    HW1 9485   6.684   6.991   3.443
 2862SOL    HW2 9486   6.559   6.989   3.338
 2863SOL     OW 9487   6.761   0.716   6.851
 2863SOL    HW1 9488   6.677   0.769   6.845
 2863SOL    HW2 9489   6.838   0.777   6.871
 2864SOL     OW 9490   3.678   1.651   0.579
 2864SOL    HW1 9491   3.620   1.666   0.659
 2864SOL    HW2 9492   3.655   1.717   0.507
 2865SOL     OW 9493   4.667   4.856   5.007
 2865SOL    HW1 9494   4.718   4.774   5.032
 2865SOL    HW2 9495   4.728   4.920   4.960
 2866SOL     OW 9496   0.393   6.879   6.438
 2866SOL    HW1 9497   0.397   6.798   6.379
 2866SOL    HW2 9498   0.464   6.873   6.508
 2867SOL     OW 9499   6.519   4.465   3.665
 2867SOL    HW1 9500   6.615   4.448   3.689
 2867SOL    HW2 9501   6.471   4.377   3.657
 2868SOL     OW 9502   1.864   4.781   4.753
 2868SOL    HW1 9503   1.861   4.808   4.657
 2868SOL    HW2 9504   1.788   4.719   4.773
 2869SOL     OW 9505   6.136   1.649   2.245
 2869SOL    HW1 9506   6.198   1.583   2.288
 2869SOL    HW2 9507   6.123   1.728   2.306
 2870SOL     OW 9508   4.161   2.127   2.472
 2870SOL    HW1 9509   4.153   2.031   2.501
 2870SOL    HW2 9510   4.142   2.134   2.374
 2871SOL     OW 9511   1.195   1.608   5.914
 2871SOL    HW1 9512   1.194   1.568   5.823
 2871SOL    HW2 9513   1.158   1.701   5.911
 2872SOL     OW 9514   2.104   0.378   3.923
 2872SOL    HW1 9515   2.063   0.469   3.915
 2872SOL    HW2 9516   2.121   0.341   3.832
 2873SOL     OW 9517   6.739   5.793   1.706
 2873SOL    HW1 9518   6.771   5.843   1.625
 2873SOL    HW2 9519   6.714   5.700   1.680
 2874SOL     OW 9520   5.501   2.130   2.248
 2874SOL    HW1 9521   5.467   2.160   2.159
 2874SOL    HW2 9522   5.454   2.181   2.320
 2875SOL     OW 9523   2.889   5.067   1.156
 2875SOL    HW1 9524   2.925   5.078   1.248
 2875SOL    HW2 9525   2.930   5.134   1.095
 2876SOL     OW 9526   6.691   2.534   1.827
 2876SOL    HW1 9527   6.603   2.499   1.857
 2876SOL    HW2 9528   6.742   2.569   1.906
 2877SOL     OW 9529   1.873   3.686   5.366
 2877SOL    HW1 9530   1.813   3.728   5.299
 2877SOL    HW2 9531   1.823   3.673   5.452
 2878SOL     OW 9532   3.938   5.010   0.391
 2878SOL    HW1 9533   3.888   4.949   0.452
 2878SOL    HW2 9534   3.907   4.997   0.297
 2879SOL     OW 9535   4.641   4.465   6.853
 2879SOL    HW1 9536   4.582   4.465   6.935
 2879SOL    HW2 9537   4.625   4.381   6.801
 2880SOL     OW 9538   2.028   6.831   2.937
 2880SOL    HW1 9539   1.958   6.760   2.947
 2880SOL    HW2 9540   2.038   6.880   3.024
 2881SOL     OW 9541   0.233   0.214   0.003
 2881SOL    HW1 9542   0.224   0.233   6.927
 2881SOL    HW2 9543   0.225   0.300   0.054
 2882SOL     OW 9544   6.804   3.437   3.338
 2882SOL    HW1 9545   6.868   3.388   3.280
 2882SOL    HW2 9546   6.773   3.377   3.411
 2883SOL     OW 9547   4.202   5.934   2.153
 2883SOL    HW1 9548   4.224   5.941   2.251
 2883SOL    HW2 9549   4.268   5.987   2.100
 2884SOL     OW 9550   1.750   5.454   3.035
 2884SOL    HW1 9551   1.794   5.371   3.070
 2884SOL    HW2 9552   1.715   5.436   2.943
 2885SOL     OW 9553   0.791   2.515   4.578
 2885SOL    HW1 9554   0.805   2.547   4.672
 2885SOL    HW2 9555   0.758   2.420   4.580
 2886SOL     OW 9556   2.682   2.769   6.411
 2886SOL    HW1 9557   2.726   2.819   6.336
 2886SOL    HW2 9558   2.730   2.789   6.496
 2887SOL     OW 9559   2.670   1.377   4.789
 2887SOL    HW1 9560   2.641   1.301   4.847
 2887SOL    HW2 9561   2.647   1.463   4.834
 2888SOL     OW 9562   0.060   5.337   0.022
 2888SOL    HW1 9563   6.992   5.373   7.017
 2888SOL    HW2 9564   0.130   5.370   6.981
 2889SOL     OW 9565   1.058   0.268   0.697
 2889SOL    HW1 9566   1.069   0.359   0.657
 2889SOL    HW2 9567   1.030   0.277   0.793
 2890SOL     OW 9568   3.052   0.577   0.686
 2890SOL    HW1 9569   3.129   0.553   0.627
 2890SOL    HW2 9570   3.028   0.673   0.672
 2891SOL     OW 9571   3.072   4.876   5.057
 2891SOL    HW1 9572   3.126   4.914   4.982
 2891SOL    HW2 9573   3.029   4.791   5.027
 2892SOL     OW 9574   4.137   4.317   5.300
 2892SOL    HW1 9575   4.199   4.367   5.240
 2892SOL    HW2 9576   4.050   4.303   5.254
 2893SOL     OW 9577   3.406   0.817   5.859
 2893SOL    HW1 9578   3.427   0.894   5.799
 2893SOL    HW2 9579   3.445   0.733   5.821
 2894SOL     OW 9580   4.121   3.002   1.231
 2894SOL    HW1 9581   4.045   3.057   1.195
 2894SOL    HW2 9582   4.184   3.061   1.281
 2895SOL     OW 9583   3.262   2.979   0.184
 2895SOL    HW1 9584   3.331   2.909   0.165
 2895SOL    HW2 9585   3.180   2.961   0.129
 2896SOL     OW 9586   1.582   4.540   0.402
 2896SOL    HW1 9587   1.549   4.508   0.313
 2896SOL    HW2 9588   1.662   4.599   0.388
 2897SOL     OW 9589   1.180   0.059   3.647
 2897SOL    HW1 9590   1.170   7.009   3.578
 2897SOL    HW2 9591   1.124   0.138   3.620
 2898SOL     OW 9592   2.327   5.023   2.689
 2898SOL    HW1 9593   2.413   5.062   2.656
 2898SOL    HW2 9594   2.328   5.022   2.789
 2899SOL     OW 9595   5.870   0.735   0.814
 2899SOL    HW1 9596   5.788   0.792   0.810
 2899SOL    HW2 9597   5.926   0.751   0.733
 2900SOL     OW 9598   3.289   5.414   6.533
 2900SOL    HW1 9599   3.327   5.453   6.616
 2900SOL    HW2 9600   3.309   5.316   6.529
 2901SOL     OW 9601   2.655   6.828   1.151
 2901SOL    HW1 9602   2.571   6.810   1.202
 2901SOL    HW2 9603   2.711   6.893   1.203
 2902SOL     OW 9604   4.907   5.161   0.815
 2902SOL    HW1 9605   4.851   5.191   0.738
 2902SOL    HW2 9606   4.877   5.072   0.846
 2903SOL     OW 9607   2.781   2.599   1.696
 2903SOL    HW1 9608   2.814   2.583   1.603
 2903SOL    HW2 9609   2.839   2.549   1.761
 2904SOL     OW 9610   2.395   2.612   4.301
 2904SOL    HW1 9611   2.357   2.521   4.318
 2904SOL    HW2 9612   2.477   2.604   4.245
 2905SOL     OW 9613   1.266   1.403   2.303
 2905SOL    HW1 9614   1.230   1.496   2.307
 2905SOL    HW2 9615   1.358   1.401   2.342
 2906SOL     OW 9616   5.418   5.348   2.037
 2906SOL    HW1 9617   5.358   5.355   2.117
 2906SOL    HW2 9618   5.470   5.263   2.042
 2907SOL     OW 9619   6.069   0.289   4.321
 2907SOL    HW1 9620   6.062   0.189   4.321
 2907SOL    HW2 9621   6.127   0.319   4.246
 2908SOL     OW 9622   3.554   5.870   5.255
 2908SOL    HW1 9623   3.634   5.812   5.267
 2908SOL    HW2 9624   3.579   5.951   5.201
 2909SOL     OW 9625   1.963   5.940   5.789
 2909SOL    HW1 9626   2.042   5.936   5.850
 2909SOL    HW2 9627   1.977   6.013   5.723
 2910SOL     OW 9628   4.759   6.167   5.277
 2910SOL    HW1 9629   4.713   6.181   5.365
 2910SOL    HW2 9630   4.774   6.256   5.232
 2911SOL     OW 9631   2.520   4.539   3.626
 2911SOL    HW1 9632   2.470   4.623   3.606
 2911SOL    HW2 9633   2.458   4.474   3.671
 2912SOL     OW 9634   2.520   5.106   1.181
 2912SOL    HW1 9635   2.424   5.102   1.155
 2912SOL    HW2 9636   2.568   5.027   1.143
 2913SOL     OW 9637   0.976   3.499   2.521
 2913SOL    HW1 9638   0.909   3.460   2.457
 2913SOL    HW2 9639   1.067   3.494   2.480
 2914SOL     OW 9640   5.555   4.505   5.755
 2914SOL    HW1 9641   5.483   4.471   5.816
 2914SOL    HW2 9642   5.543   4.603   5.740
 2915SOL     OW 9643   4.477   1.521   3.696
 2915SOL    HW1 9644   4.394   1.557   3.654
 2915SOL    HW2 9645   4.455   1.440   3.749
 2916SOL     OW 9646   4.761   6.761   4.613
 2916SOL    HW1 9647   4.804   6.835   4.560
 2916SOL    HW2 9648   4.813   6.676   4.600
 2917SOL     OW 9649   4.027   0.495   2.411
 2917SOL    HW1 9650   3.981   0.571   2.456
 2917SOL    HW2 9651   3.959   0.427   2.382
 2918SOL     OW 9652   1.087   2.786   4.699
 2918SOL    HW1 9653   1.135   2.830   4.622
 2918SOL    HW2 9654   1.088   2.687   4.687
 2919SOL     OW 9655   6.292   6.095   0.716
 2919SOL    HW1 9656   6.359   6.128   0.649
 2919SOL    HW2 9657   6.211   6.153   0.713
 2920SOL     OW 9658   4.490   1.920   2.765
 2920SOL    HW1 9659   4.565   1.872   2.811
 2920SOL    HW2 9660   4.522   1.954   2.676
 2921SOL     OW 9661   0.026   1.083   1.139
 2921SOL    HW1 9662   0.024   0.984   1.152
 2921SOL    HW2 9663   0.085   1.105   1.061
 2922SOL     OW 9664   4.303   6.631   5.139
 2922SOL    HW1 9665   4.344   6.543   5.118
 2922SOL    HW2 9666   4.375   6.699   5.153
 2923SOL     OW 9667   0.086   4.438   6.990
 2923SOL    HW1 9668   0.075   4.427   0.067
 2923SOL    HW2 9669   0.110   4.533   6.969
 2924SOL     OW 9670   6.277   6.535   5.933
 2924SOL    HW1 9671   6.290   6.631   5.909
 2924SOL    HW2 9672   6.215   6.529   6.012
 2925SOL     OW 9673   5.673   3.605   0.904
 2925SOL    HW1 9674   5.749   3.578   0.845
 2925SOL    HW2 9675   5.709   3.640   0.991
 2926SOL     OW 9676   0.190   0.983   4.077
 2926SOL    HW1 9677   0.158   0.888   4.075
 2926SOL    HW2 9678   0.288   0.985   4.057
 2927SOL     OW 9679   0.607   3.251   2.792
 2927SOL    HW1 9680   0.571   3.336   2.830
 2927SOL    HW2 9681   0.706   3.251   2.798
 2928SOL     OW 9682   5.444   6.095   0.426
 2928SOL    HW1 9683   5.515   6.078   0.495
 2928SOL    HW2 9684   5.447   6.023   0.356
 2929SOL     OW 9685   0.948   0.343   5.953
 2929SOL    HW1 9686   0.956   0.267   5.888
 2929SOL    HW2 9687   0.949   0.307   6.047
 2930SOL     OW 9688   3.070   6.833   4.379
 2930SOL    HW1 9689   3.063   6.743   4.420
 2930SOL    HW2 9690   3.046   6.828   4.282
 2931SOL     OW 9691   4.022   4.792   6.599
 2931SOL    HW1 9692   4.006   4.795   6.698
 2931SOL    HW2 9693   4.060   4.703   6.575
 2932SOL     OW 9694   1.665   4.657   2.138
 2932SOL    HW1 9695   1.589   4.651   2.203
 2932SOL    HW2 9696   1.634   4.704   2.055
 2933SOL     OW 9697   4.961   2.266   3.524
 2933SOL    HW1 9698   4.878   2.225   3.486
 2933SOL    HW2 9699   4.935   2.334   3.593
 2934SOL     OW 9700   2.062   0.955   0.704
 2934SOL    HW1 9701   2.058   1.052   0.683
 2934SOL    HW2 9702   1.972   0.924   0.735
 2935SOL     OW 9703   6.728   1.385   1.172
 2935SOL    HW1 9704   6.691   1.336   1.251
 2935SOL    HW2 9705   6.820   1.417   1.193
 2936SOL     OW 9706   3.255   5.580   0.169
 2936SOL    HW1 9707   3.342   5.532   0.183
 2936SOL    HW2 9708   3.217   5.608   0.257
 2937SOL     OW 9709   2.938   4.552   0.027
 2937SOL    HW1 9710   2.911   4.640   0.065
 2937SOL    HW2 9711   2.953   4.561   6.951
 2938SOL     OW 9712   4.915   4.644   5.496
 2938SOL    HW1 9713   4.902   4.718   5.431
 2938SOL    HW2 9714   4.833   4.585   5.496
 2939SOL     OW 9715   0.560   6.389   6.053
 2939SOL    HW1 9716   0.604   6.445   5.983
 2939SOL    HW2 9717   0.492   6.444   6.101
 2940SOL     OW 9718   3.445   6.940   5.226
 2940SOL    HW1 9719   3.436   6.952   5.127
 2940SOL    HW2 9720   3.536   6.904   5.247
 2941SOL     OW 9721   3.444   1.813   4.867
 2941SOL    HW1 9722   3.489   1.762   4.794
 2941SOL    HW2 9723   3.437   1.757   4.949
 2942SOL     OW 9724   4.081   6.352   4.263
 2942SOL    HW1 9725   4.143   6.384   4.336
 2942SOL    HW2 9726   4.126   6.279   4.211
 2943SOL     OW 9727   5.428   4.666   2.724
 2943SOL    HW1 9728   5.376   4.689   2.641
 2943SOL    HW2 9729   5.373   4.607   2.782
 2944SOL     OW 9730   4.498   6.036   0.107
 2944SOL    HW1 9731   4.473   6.057   0.201
 2944SOL    HW2 9732   4.491   5.937   0.092
 2945SOL     OW 9733   3.246   3.829   4.018
 2945SOL    HW1 9734   3.345   3.832   4.035
 2945SOL    HW2 9735   3.230   3.789   3.927
 2946SOL     OW 9736   0.854   6.025   6.072
 2946SOL    HW1 9737   0.933   6.075   6.108
 2946SOL    HW2 9738   0.873   5.997   5.977
 2947SOL     OW 9739   0.049   5.397   0.311
 2947SOL    HW1 9740   6.978   5.425   0.336
 2947SOL    HW2 9741   0.049   5.360   0.218
 2948SOL     OW 9742   5.771   3.801   5.477
 2948SOL    HW1 9743   5.842   3.772   5.412
 2948SOL    HW2 9744   5.699   3.731   5.480
 2949SOL     OW 9745   0.749   6.468   0.867
 2949SOL    HW1 9746   0.810   6.544   0.891
 2949SOL    HW2 9747   0.726   6.474   0.770
 2950SOL     OW 9748   4.906   3.556   4.675
 2950SOL    HW1 9749   4.869   3.487   4.614
 2950SOL    HW2 9750   4.968   3.616   4.624
 2951SOL     OW 9751   6.025   0.399   0.770
 2951SOL    HW1 9752   6.073   0.346   0.840
 2951SOL    HW2 9753   5.980   0.337   0.706
 2952SOL     OW 9754   0.875   3.665   1.597
 2952SOL    HW1 9755   0.781   3.699   1.593
 2952SOL    HW2 9756   0.937   3.741   1.616
 2953SOL     OW 9757   5.643   1.660   2.267
 2953SOL    HW1 9758   5.544   1.673   2.267
 2953SOL    HW2 9759   5.673   1.630   2.359
 2954SOL     OW 9760   5.356   6.053   1.460
 2954SOL    HW1 9761   5.371   6.085   1.367
 2954SOL    HW2 9762   5.265   6.013   1.468
 2955SOL     OW 9763   6.217   2.430   0.761
 2955SOL    HW1 9764   6.142   2.496   0.767
 2955SOL    HW2 9765   6.304   2.476   0.772
 2956SOL     OW 9766   6.718   5.903   3.319
 2956SOL    HW1 9767   6.684   5.986   3.362
 2956SOL    HW2 9768   6.737   5.920   3.222
 2957SOL     OW 9769   1.647   4.695   1.529
 2957SOL    HW1 9770   1.605   4.785   1.532
 2957SOL    HW2 9771   1.576   4.625   1.536
 2958SOL     OW 9772   2.760   5.474   6.450
 2958SOL    HW1 9773   2.725   5.528   6.374
 2958SOL    HW2 9774   2.787   5.535   6.525
 2959SOL     OW 9775   3.836   5.496   0.022
 2959SOL    HW1 9776   3.917   5.524   6.992
 2959SOL    HW2 9777   3.862   5.426   0.089
 2960SOL     OW 9778   3.028   1.697   6.800
 2960SOL    HW1 9779   3.048   1.604   6.769
 2960SOL    HW2 9780   2.932   1.704   6.825
 2961SOL     OW 9781   5.976   1.529   4.318
 2961SOL    HW1 9782   5.999   1.433   4.307
 2961SOL    HW2 9783   5.973   1.552   4.416
 2962SOL     OW 9784   4.135   0.579   2.812
 2962SOL    HW1 9785   4.188   0.599   2.894
 2962SOL    HW2 9786   4.192   0.526   2.748
 2963SOL     OW 9787   1.901   3.726   4.997
 2963SOL    HW1 9788   1.981   3.734   4.938
 2963SOL    HW2 9789   1.878   3.630   5.010
 2964SOL     OW 9790   2.845   6.012   0.496
 2964SOL    HW1 9791   2.748   6.012   0.472
 2964SOL    HW2 9792   2.896   6.061   0.426
 2965SOL     OW 9793   0.493   2.314   6.118
 2965SOL    HW1 9794   0.534   2.237   6.168
 2965SOL    HW2 9795   0.548   2.397   6.135
 2966SOL     OW 9796   5.124   4.841   3.506
 2966SOL    HW1 9797   5.199   4.876   3.562
 2966SOL    HW2 9798   5.097   4.911   3.440
 2967SOL     OW 9799   5.568   2.486   3.871
 2967SOL    HW1 9800   5.496   2.481   3.940
 2967SOL    HW2 9801   5.548   2.559   3.806
 2968SOL     OW 9802   6.317   3.434   3.098
 2968SOL    HW1 9803   6.278   3.342   3.105
 2968SOL    HW2 9804   6.389   3.446   3.166
 2969SOL     OW 9805   3.749   1.355   4.640
 2969SOL    HW1 9806   3.659   1.346   4.682
 2969SOL    HW2 9807   3.820   1.331   4.707
 2970SOL     OW 9808   1.067   3.963   6.211
 2970SOL    HW1 9809   1.129   3.967   6.290
 2970SOL    HW2 9810   1.099   4.028   6.141
 2971SOL     OW 9811   5.464   3.702   2.747
 2971SOL    HW1 9812   5.500   3.689   2.839
 2971SOL    HW2 9813   5.364   3.706   2.750
 2972SOL     OW 9814   0.990   4.197   4.928
 2972SOL    HW1 9815   0.949   4.113   4.891
 2972SOL    HW2 9816   0.923   4.244   4.986
 2973SOL     OW 9817   5.922   0.102   4.041
 2973SOL    HW1 9818   6.015   0.084   4.074
 2973SOL    HW2 9819   5.901   0.042   3.964
 2974SOL     OW 9820   6.795   4.470   2.197
 2974SOL    HW1 9821   6.754   4.380   2.183
 2974SOL    HW2 9822   6.894   4.463   2.194
 2975SOL     OW 9823   6.791   1.091   4.337
 2975SOL    HW1 9824   6.741   1.159   4.391
 2975SOL    HW2 9825   6.739   1.005   4.337
 2976SOL     OW 9826   2.275   5.958   1.330
 2976SOL    HW1 9827   2.216   6.021   1.382
 2976SOL    HW2 9828   2.319   6.007   1.255
 2977SOL     OW 9829   3.223   6.530   4.158
 2977SOL    HW1 9830   3.265   6.620   4.173
 2977SOL    HW2 9831   3.134   6.527   4.203
 2978SOL     OW 9832   3.108   6.998   6.328
 2978SOL    HW1 9833   3.072   6.937   6.399
 2978SOL    HW2 9834   3.112   6.948   6.241
 2979SOL     OW 9835   3.475   1.342   3.030
 2979SOL    HW1 9836   3.496   1.322   2.934
 2979SOL    HW2 9837   3.494   1.438   3.049
 2980SOL     OW 9838   6.420   6.538   3.666
 2980SOL    HW1 9839   6.417   6.604   3.741
 2980SOL    HW2 9840   6.373   6.577   3.586
 2981SOL     OW 9841   2.034   1.459   6.242
 2981SOL    HW1 9842   1.938   1.449   6.270
 2981SOL    HW2 9843   2.093   1.442   6.321
 2982SOL     OW 9844   4.797   6.021   2.269
 2982SOL    HW1 9845   4.706   6.033   2.310
 2982SOL    HW2 9846   4.859   5.981   2.337
 2983SOL     OW 9847   6.683   0.928   3.090
 2983SOL    HW1 9848   6.653   1.021   3.110
 2983SOL    HW2 9849   6.727   0.890   3.171
 2984SOL     OW 9850   6.341   4.466   1.694
 2984SOL    HW1 9851   6.275   4.398   1.724
 2984SOL    HW2 9852   6.431   4.424   1.686
 2985SOL     OW 9853   6.977   2.264   3.342
 2985SOL    HW1 9854   6.912   2.340   3.341
 2985SOL    HW2 9855   6.963   2.206   3.262
 2986SOL     OW 9856   2.056   3.522   5.148
 2986SOL    HW1 9857   2.142   3.572   5.161
 2986SOL    HW2 9858   1.983   3.565   5.201
 2987SOL     OW 9859   5.003   1.654   4.962
 2987SOL    HW1 9860   5.044   1.628   5.050
 2987SOL    HW2 9861   5.072   1.698   4.905
 2988SOL     OW 9862   0.779   6.755   2.067
 2988SOL    HW1 9863   0.773   6.811   1.985
 2988SOL    HW2 9864   0.699   6.695   2.072
 2989SOL     OW 9865   6.548   5.271   0.844
 2989SOL    HW1 9866   6.514   5.289   0.936
 2989SOL    HW2 9867   6.482   5.214   0.795
 2990SOL     OW 9868   2.660   1.304   1.550
 2990SOL    HW1 9869   2.743   1.320   1.497
 2990SOL    HW2 9870   2.581   1.310   1.489
 2991SOL     OW 9871   6.265   4.700   0.232
 2991SOL    HW1 9872   6.326   4.656   0.166
 2991SOL    HW2 9873   6.192   4.636   0.257
 2992SOL     OW 9874   4.107   4.545   6.859
 2992SOL    HW1 9875   4.171   4.481   6.816
 2992SOL    HW2 9876   4.021   4.498   6.876
 2993SOL     OW 9877   1.778   4.544   0.156
 2993SOL    HW1 9878   1.831   4.564   0.238
 2993SOL    HW2 9879   1.794   4.450   0.128
 2994SOL     OW 9880   3.991   6.082   0.290
 2994SOL    HW1 9881   4.040   6.074   0.377
 2994SOL    HW2 9882   4.055   6.106   0.218
 2995SOL     OW 9883   2.717   0.389   5.480
 2995SOL    HW1 9884   2.619   0.377   5.501
 2995SOL    HW2 9885   2.759   0.446   5.551
 2996SOL     OW 9886   4.608   6.160   5.534
 2996SOL    HW1 9887   4.604   6.184   5.631
 2996SOL    HW2 9888   4.537   6.094   5.512
 2997SOL     OW 9889   4.248   5.868   0.480
 2997SOL    HW1 9890   4.346   5.879   0.464
 2997SOL    HW2 9891   4.214   5.793   0.423
 2998SOL     OW 9892   6.362   4.975   5.451
 2998SOL    HW1 9893   6.419   5.054   5.476
 2998SOL    HW2 9894   6.391   4.895   5.504
 2999SOL     OW 9895   2.215   1.225   1.823
 2999SOL    HW1 9896   2.247   1.144   1.774
 2999SOL    HW2 9897   2.161   1.197   1.903
 3000SOL     OW 9898   1.211   1.975   4.717
 3000SOL    HW1 9899   1.294   1.997   4.768
 3000SOL    HW2 9900   1.131   1.986   4.776
 3001SOL     OW 9901   4.883   6.610   5.982
 3001SOL    HW1 9902   4.943   6.640   5.907
 3001SOL    HW2 9903   4.885   6.510   5.988
 3002SOL     OW 9904   2.944   0.910   5.427
 3002SOL    HW1 9905   2.964   0.820   5.387
 3002SOL    HW2 9906   3.004   0.978   5.387
 3003SOL     OW 9907   1.847   7.007   5.743
 3003SOL    HW1 9908   1.904   6.992   5.662
 3003SOL    HW2 9909   1.880   6.950   5.818
 3004SOL     OW 9910   6.769   2.741   5.964
 3004SOL    HW1 9911   6.683   2.791   5.969
 3004SOL    HW2 9912   6.785   2.694   6.051
 3005SOL     OW 9913   4.772   2.474   0.868
 3005SOL    HW1 9914   4.855   2.530   0.858
 3005SOL    HW2 9915   4.790   2.398   0.931
 3006SOL     OW 9916   4.693   6.942   1.494
 3006SOL    HW1 9917   4.660   6.896   1.576
 3006SOL    HW2 9918   4.626   7.010   1.465
 3007SOL     OW 9919   5.860   5.367   1.910
 3007SOL    HW1 9920   5.835   5.275   1.881
 3007SOL    HW2 9921   5.779   5.425   1.913
 3008SOL     OW 9922   4.632   5.765   5.326
 3008SOL    HW1 9923   4.662   5.777   5.421
 3008SOL    HW2 9924   4.661   5.843   5.272
 3009SOL     OW 9925   1.312   0.675   2.186
 3009SOL    HW1 9926   1.293   0.578   2.205
 3009SOL    HW2 9927   1.327   0.724   2.272
 3010SOL     OW 9928   2.833   6.680   2.750
 3010SOL    HW1 9929   2.900   6.673   2.825
 3010SOL    HW2 9930   2.881   6.691   2.663
 3011SOL     OW 9931   5.777   0.336   0.048
 3011SOL    HW1 9932   5.790   0.435   0.046
 3011SOL    HW2 9933   5.840   0.293   7.006
 3012SOL     OW 9934   6.892   4.858   1.357
 3012SOL    HW1 9935   6.972   4.875   1.300
 3012SOL    HW2 9936   6.921   4.822   1.446
 3013SOL     OW 9937   6.129   4.014   2.114
 3013SOL    HW1 9938   6.067   4.020   2.036
 3013SOL    HW2 9939   6.106   3.933   2.169
 3014SOL     OW 9940   5.357   0.095   5.553
 3014SOL    HW1 9941   5.298   0.054   5.483
 3014SOL    HW2 9942   5.351   0.041   5.637
 3015SOL     OW 9943   2.844   1.117   0.264
 3015SOL    HW1 9944   2.911   1.043   0.274
 3015SOL    HW2 9945   2.869   1.174   0.186
 3016SOL     OW 9946   3.812   6.354   3.344
 3016SOL    HW1 9947   3.768   6.272   3.379
 3016SOL    HW2 9948   3.742   6.424   3.328
 3017SOL     OW 9949   0.271   5.648   1.165
 3017SOL    HW1 9950   0.200   5.669   1.099
 3017SOL    HW2 9951   0.295   5.551   1.159
 3018SOL     OW 9952   4.123   6.859   6.241
 3018SOL    HW1 9953   4.026   6.835   6.250
 3018SOL    HW2 9954   4.136   6.920   6.163
 3019SOL     OW 9955   5.080   6.958   1.902
 3019SOL    HW1 9956   5.167   7.004   1.921
 3019SOL    HW2 9957   5.079   6.927   1.807
 3020SOL     OW 9958   1.935   0.898   1.687
 3020SOL    HW1 9959   1.917   0.921   1.783
 3020SOL    HW2 9960   2.007   0.958   1.651
 3021SOL     OW 9961   4.252   0.620   6.184
 3021SOL    HW1 9962   4.275   0.702   6.235
 3021SOL    HW2 9963   4.315   0.546   6.208
 3022SOL     OW 9964   6.389   0.434   2.803
 3022SOL    HW1 9965   6.309   0.484   2.771
 3022SOL    HW2 9966   6.468   0.459   2.746
 3023SOL     OW 9967   5.818   0.056   1.513
 3023SOL    HW1 9968   5.815   7.005   1.582
 3023SOL    HW2 9969   5.797   0.017   1.423
 3024SOL     OW 9970   2.892   0.145   6.296
 3024SOL    HW1 9971   2.850   0.085   6.228
 3024SOL    HW2 9972   2.985   0.115   6.315
 3025SOL     OW 9973   1.903   2.509   1.794
 3025SOL    HW1 9974   1.878   2.513   1.697
 3025SOL    HW2 9975   1.967   2.583   1.815
 3026SOL     OW 9976   2.720   5.464   0.317
 3026SOL    HW1 9977   2.752   5.552   0.353
 3026SOL    HW2 9978   2.708   5.400   0.392
 3027SOL     OW 9979   1.612   2.047   3.878
 3027SOL    HW1 9980   1.581   2.094   3.795
 3027SOL    HW2 9981   1.584   2.099   3.959
 3028SOL     OW 9982   0.760   0.624   4.766
 3028SOL    HW1 9983   0.731   0.693   4.833
 3028SOL    HW2 9984   0.860   0.621   4.764
 3029SOL     OW 9985   5.981   4.980   5.785
 3029SOL    HW1 9986   6.035   5.063   5.797
 3029SOL    HW2 9987   5.883   5.004   5.788
 3030SOL     OW 9988   0.902   1.053   5.635
 3030SOL    HW1 9989   0.976   1.048   5.567
 3030SOL    HW2 9990   0.865   0.961   5.649
 3031SOL     OW 9991   0.540   5.506   6.206
 3031SOL    HW1 9992   0.572   5.594   6.241
 3031SOL    HW2 9993   0.459   5.477   6.257
 3032SOL     OW 9994   3.819   6.572   6.062
 3032SOL    HW1 9995   3.910   6.541   6.035
 3032SOL    HW2 9996   3.800   6.660   6.018
 3033SOL     OW 9997   5.810   4.376   5.813
 3033SOL    HW1 9998   5.728   4.431   5.828
 3033SOL    HW2 9999   5.849   4.350   5.901
 3034SOL     OW10000   2.731   6.602   4.354
 3034SOL    HW110001   2.698   6.684   4.306
 3034SOL    HW210002   2.763   6.628   4.445
 3035SOL     OW10003   6.405   6.836   7.006
 3035SOL    HW110004   6.350   6.847   0.067
 3035SOL    HW210005   6.399   6.920   6.951
 3036SOL     OW10006   1.265   5.083   5.112
 3036SOL    HW110007   1.288   4.993   5.148
 3036SOL    HW210008   1.169   5.086   5.087
 3037SOL     OW10009   5.704   6.816   5.635
 3037SOL    HW110010   5.731   6.885   5.568
 3037SOL    HW210011   5.687   6.860   5.723
 3038SOL     OW10012   6.115   6.282   5.888
 3038SOL    HW110013   6.112   6.270   5.789
 3038SOL    HW210014   6.131   6.378   5.910
 3039SOL     OW10015   0.739   4.933   0.563
 3039SOL    HW110016   0.818   4.983   0.599
 3039SOL    HW210017   0.763   4.837   0.548
 3040SOL     OW10018   2.797   1.307   6.955
 3040SOL    HW110019   2.895   1.321   6.969
 3040SOL    HW210020   2.782   1.233   6.890
 3041SOL     OW10021   1.814   2.212   6.300
 3041SOL    HW110022   1.730   2.221   6.353
 3041SOL    HW210023   1.799   2.248   6.208
 3042SOL     OW10024   6.221   6.882   1.565
 3042SOL    HW110025   6.307   6.832   1.552
 3042SOL    HW210026   6.219   6.920   1.658
 3043SOL     OW10027   6.827   5.172   6.799
 3043SOL    HW110028   6.765   5.101   6.833
 3043SOL    HW210029   6.843   5.239   6.872
 3044SOL     OW10030   2.530   3.211   6.181
 3044SOL    HW110031   2.531   3.139   6.251
 3044SOL    HW210032   2.519   3.300   6.225
 3045SOL     OW10033   4.311   2.006   3.781
 3045SOL    HW110034   4.245   1.993   3.855
 3045SOL    HW210035   4.403   1.989   3.814
 3046SOL     OW10036   1.924   2.619   6.016
 3046SOL    HW110037   1.933   2.713   5.983
 3046SOL    HW210038   2.009   2.569   5.998
 3047SOL     OW10039   0.302   4.729   1.276
 3047SOL    HW110040   0.240   4.714   1.200
 3047SOL    HW210041   0.309   4.827   1.295
 3048SOL     OW10042   2.955   2.858   1.676
 3048SOL    HW110043   2.999   2.769   1.691
 3048SOL    HW210044   2.879   2.846   1.612
 3049SOL     OW10045   0.963   0.486   1.652
 3049SOL    HW110046   1.015   0.571   1.659
 3049SOL    HW210047   0.940   0.469   1.557
 3050SOL     OW10048   1.988   0.609   3.889
 3050SOL    HW110049   1.990   0.661   3.803
 3050SOL    HW210050   1.911   0.639   3.945
 3051SOL     OW10051   2.966   4.747   5.967
 3051SOL    HW110052   2.959   4.769   5.869
 3051SOL    HW210053   3.051   4.698   5.984
 3052SOL     OW10054   4.882   6.761   2.670
 3052SOL    HW110055   4.955   6.821   2.703
 3052SOL    HW210056   4.817   6.814   2.616
 3053SOL     OW10057   4.644   0.062   1.878
 3053SOL    HW110058   4.715   0.126   1.847
 3053SOL    HW210059   4.578   0.111   1.934
 3054SOL     OW10060   2.161   4.274   5.382
 3054SOL    HW110061   2.137   4.274   5.479
 3054SOL    HW210062   2.258   4.251   5.372
 3055SOL     OW10063   5.826   6.758   2.869
 3055SOL    HW110064   5.853   6.829   2.804
 3055SOL    HW210065   5.905   6.729   2.922
 3056SOL     OW10066   5.628   0.516   1.856
 3056SOL    HW110067   5.599   0.428   1.816
 3056SOL    HW210068   5.725   0.512   1.876
 3057SOL     OW10069   6.487   5.739   2.329
 3057SOL    HW110070   6.583   5.757   2.306
 3057SOL    HW210071   6.431   5.816   2.301
 3058SOL     OW10072   6.347   5.872   1.342
 3058SOL    HW110073   6.344   5.773   1.355
 3058SOL    HW210074   6.268   5.914   1.387
 3059SOL     OW10075   1.931   2.892   5.908
 3059SOL    HW110076   1.985   2.950   5.847
 3059SOL    HW210077   1.839   2.929   5.917
 3060SOL     OW10078   0.383   6.486   0.294
 3060SOL    HW110079   0.318   6.417   0.265
 3060SOL    HW210080   0.397   6.480   0.393
 3061SOL     OW10081   0.341   0.765   5.866
 3061SOL    HW110082   0.303   0.694   5.925
 3061SOL    HW210083   0.434   0.740   5.841
 3062SOL     OW10084   3.102   5.587   6.415
 3062SOL    HW110085   3.169   5.534   6.468
 3062SOL    HW210086   3.013   5.542   6.419
 3063SOL     OW10087   2.512   6.106   0.668
 3063SOL    HW110088   2.565   6.136   0.589
 3063SOL    HW210089   2.545   6.153   0.750
 3064SOL     OW10090   6.965   4.783   3.670
 3064SOL    HW110091   6.936   4.855   3.733
 3064SOL    HW210092   6.898   4.773   3.597
 3065SOL     OW10093   3.060   1.303   1.076
 3065SOL    HW110094   3.022   1.214   1.100
 3065SOL    HW210095   3.160   1.296   1.068
 3066SOL     OW10096   5.448   5.747   0.229
 3066SOL    HW110097   5.539   5.751   0.187
 3066SOL    HW210098   5.431   5.654   0.263
 3067SOL     OW10099   4.207   0.013   3.041
 3067SOL    HW110100   4.254   6.967   2.985
 3067SOL    HW210101   4.113   7.005   3.057
 3068SOL     OW10102   6.050   4.516   0.243
 3068SOL    HW110103   5.958   4.503   0.206
 3068SOL    HW210104   6.054   4.482   0.337
 3069SOL     OW10105   1.190   4.926   3.920
 3069SOL    HW110106   1.153   4.855   3.979
 3069SOL    HW210107   1.137   5.010   3.932
 3070SOL     OW10108   3.928   1.674   4.145
 3070SOL    HW110109   3.984   1.755   4.164
 3070SOL    HW210110   3.985   1.592   4.154
 3071SOL     OW10111   5.669   0.094   4.114
 3071SOL    HW110112   5.613   0.096   4.031
 3071SOL    HW210113   5.766   0.105   4.090
 3072SOL     OW10114   0.062   0.464   1.900
 3072SOL    HW110115   0.143   0.456   1.959
 3072SOL    HW210116   0.091   0.478   1.805
 3073SOL     OW10117   1.858   2.237   5.029
 3073SOL    HW110118   1.921   2.206   5.100
 3073SOL    HW210119   1.773   2.268   5.071
 3074SOL     OW10120   4.817   3.658   5.946
 3074SOL    HW110121   4.878   3.582   5.923
 3074SOL    HW210122   4.803   3.715   5.865
 3075SOL     OW10123   6.881   5.703   0.793
 3075SOL    HW110124   6.792   5.708   0.747
 3075SOL    HW210125   6.932   5.624   0.759
 3076SOL     OW10126   0.682   0.889   5.234
 3076SOL    HW110127   0.611   0.955   5.210
 3076SOL    HW210128   0.705   0.833   5.155
 3077SOL     OW10129   5.272   4.411   3.679
 3077SOL    HW110130   5.367   4.397   3.653
 3077SOL    HW210131   5.213   4.355   3.620
 3078SOL     OW10132   1.804   2.422   0.319
 3078SOL    HW110133   1.883   2.367   0.347
 3078SOL    HW210134   1.727   2.361   0.299
 3079SOL     OW10135   5.523   2.908   6.428
 3079SOL    HW110136   5.460   2.974   6.467
 3079SOL    HW210137   5.575   2.951   6.354
 3080SOL     OW10138   6.453   6.639   1.425
 3080SOL    HW110139   6.362   6.670   1.398
 3080SOL    HW210140   6.512   6.718   1.440
 3081SOL     OW10141   1.041   4.572   6.004
 3081SOL    HW110142   0.947   4.567   5.973
 3081SOL    HW210143   1.045   4.624   6.090
 3082SOL     OW10144   2.858   7.003   2.263
 3082SOL    HW110145   2.943   0.034   2.254
 3082SOL    HW210146   2.867   6.917   2.213
 3083SOL     OW10147   3.431   0.496   2.293
 3083SOL    HW110148   3.364   0.465   2.226
 3083SOL    HW210149   3.481   0.574   2.256
 3084SOL     OW10150   4.265   6.461   3.898
 3084SOL    HW110151   4.203   6.529   3.938
 3084SOL    HW210152   4.261   6.467   3.798
 3085SOL     OW10153   1.339   5.167   2.105
 3085SOL    HW110154   1.355   5.231   2.030
 3085SOL    HW210155   1.241   5.163   2.126
 3086SOL     OW10156   6.372   1.516   4.097
 3086SOL    HW110157   6.311   1.444   4.065
 3086SOL    HW210158   6.320   1.602   4.106
 3087SOL     OW10159   5.782   3.837   1.875
 3087SOL    HW110160   5.703   3.841   1.935
 3087SOL    HW210161   5.812   3.929   1.853
 3088SOL     OW10162   2.961   3.762   6.487
 3088SOL    HW110163   3.019   3.843   6.479
 3088SOL    HW210164   3.001   3.687   6.434
 3089SOL     OW10165   3.418   1.826   1.543
 3089SOL    HW110166   3.346   1.842   1.476
 3089SOL    HW210167   3.498   1.881   1.519
 3090SOL     OW10168   6.613   2.105   0.751
 3090SOL    HW110169   6.543   2.095   0.821
 3090SOL    HW210170   6.570   2.129   0.663
 3091SOL     OW10171   2.379   6.670   0.426
 3091SOL    HW110172   2.460   6.672   0.485
 3091SOL    HW210173   2.301   6.708   0.476
 3092SOL     OW10174   3.603   5.674   0.061
 3092SOL    HW110175   3.616   5.749   0.125
 3092SOL    HW210176   3.692   5.641   0.030
 3093SOL     OW10177   4.887   6.576   3.252
 3093SOL    HW110178   4.832   6.646   3.206
 3093SOL    HW210179   4.931   6.615   3.333
 3094SOL     OW10180   3.032   5.478   5.365
 3094SOL    HW110181   3.094   5.399   5.362
 3094SOL    HW210182   3.081   5.560   5.335
 3095SOL     OW10183   2.002   5.061   5.142
 3095SOL    HW110184   2.006   4.966   5.110
 3095SOL    HW210185   2.088   5.084   5.188
 3096SOL     OW10186   6.970   0.909   5.445
 3096SOL    HW110187   6.978   0.941   5.539
 3096SOL    HW210188   0.024   0.946   5.390
 3097SOL     OW10189   2.165   1.444   0.160
 3097SOL    HW110190   2.171   1.344   0.153
 3097SOL    HW210191   2.142   1.482   0.070
 3098SOL     OW10192   4.165   2.288   0.514
 3098SOL    HW110193   4.186   2.297   0.416
 3098SOL    HW210194   4.070   2.315   0.530
 3099SOL     OW10195   1.333   5.949   5.615
 3099SOL    HW110196   1.347   5.979   5.520
 3099SOL    HW210197   1.367   6.018   5.678
 3100SOL     OW10198   6.090   6.455   6.134
 3100SOL    HW110199   6.108   6.484   6.228
 3100SOL    HW210200   5.992   6.440   6.122
 3101SOL     OW10201   3.573   6.949   1.095
 3101SOL    HW110202   3.659   6.996   1.113
 3101SOL    HW210203   3.498   7.002   1.135
 3102SOL     OW10204   0.662   6.262   0.519
 3102SOL    HW110205   0.698   6.169   0.516
 3102SOL    HW210206   0.723   6.323   0.468
 3103SOL     OW10207   4.151   4.145   1.721
 3103SOL    HW110208   4.241   4.163   1.762
 3103SOL    HW210209   4.149   4.052   1.684
 3104SOL     OW10210   5.943   5.777   3.753
 3104SOL    HW110211   5.977   5.719   3.678
 3104SOL    HW210212   5.903   5.860   3.715
 3105SOL     OW10213   6.132   5.620   3.555
 3105SOL    HW110214   6.186   5.704   3.550
 3105SOL    HW210215   6.134   5.574   3.466
 3106SOL     OW10216   6.644   3.044   4.653
 3106SOL    HW110217   6.689   3.028   4.565
 3106SOL    HW210218   6.623   3.142   4.662
 3107SOL     OW10219   2.649   6.856   4.202
 3107SOL    HW110220   2.572   6.816   4.151
 3107SOL    HW210221   2.720   6.885   4.138
 3108SOL     OW10222   2.583   0.987   2.764
 3108SOL    HW110223   2.680   0.965   2.775
 3108SOL    HW210224   2.570   1.036   2.677
 3109SOL     OW10225   4.834   6.136   3.314
 3109SOL    HW110226   4.806   6.042   3.331
 3109SOL    HW210227   4.773   6.198   3.364
 3110SOL     OW10228   1.187   2.959   1.974
 3110SOL    HW110229   1.110   2.984   2.033
 3110SOL    HW210230   1.171   2.995   1.882
 3111SOL     OW10231   0.196   4.723   2.855
 3111SOL    HW110232   0.219   4.626   2.844
 3111SOL    HW210233   0.106   4.740   2.816
 3112SOL     OW10234   2.826   3.799   6.075
 3112SOL    HW110235   2.764   3.841   6.141
 3112SOL    HW210236   2.772   3.756   6.002
 3113SOL     OW10237   4.200   6.746   4.087
 3113SOL    HW110238   4.111   6.702   4.092
 3113SOL    HW210239   4.244   6.742   4.177
 3114SOL     OW10240   5.397   5.815   0.614
 3114SOL    HW110241   5.308   5.771   0.630
 3114SOL    HW210242   5.402   5.900   0.666
 3115SOL     OW10243   2.535   3.496   1.715
 3115SOL    HW110244   2.570   3.403   1.713
 3115SOL    HW210245   2.449   3.499   1.766
 3116SOL     OW10246   0.596   1.155   6.721
 3116SOL    HW110247   0.515   1.142   6.664
 3116SOL    HW210248   0.576   1.124   6.814
 3117SOL     OW10249   3.762   4.084   5.739
 3117SOL    HW110250   3.770   3.987   5.718
 3117SOL    HW210251   3.673   4.101   5.783
 3118SOL     OW10252   6.033   5.351   6.818
 3118SOL    HW110253   5.960   5.389   6.762
 3118SOL    HW210254   6.040   5.402   6.904
 3119SOL     OW10255   2.287   4.483   0.069
 3119SOL    HW110256   2.266   4.528   7.004
 3119SOL    HW210257   2.377   4.514   0.101
 3120SOL     OW10258   2.762   5.216   6.356
 3120SOL    HW110259   2.666   5.193   6.368
 3120SOL    HW210260   2.780   5.307   6.392
 3121SOL     OW10261   0.348   5.888   3.382
 3121SOL    HW110262   0.399   5.950   3.442
 3121SOL    HW210263   0.293   5.826   3.438
 3122SOL     OW10264   3.017   5.764   1.050
 3122SOL    HW110265   3.040   5.721   0.962
 3122SOL    HW210266   3.067   5.850   1.058
 3123SOL     OW10267   3.996   6.607   4.188
 3123SOL    HW110268   3.911   6.601   4.136
 3123SOL    HW210269   4.026   6.515   4.214
 3124SOL     OW10270   3.835   0.089   6.329
 3124SOL    HW110271   3.824   0.063   6.424
 3124SOL    HW210272   3.845   0.007   6.272
 3125SOL     OW10273   0.064   2.377   5.650
 3125SOL    HW110274   0.015   2.414   5.571
 3125SOL    HW210275   0.037   2.282   5.665
 3126SOL     OW10276   3.683   6.165   6.885
 3126SOL    HW110277   3.693   6.234   6.812
 3126SOL    HW210278   3.676   6.074   6.844
 3127SOL     OW10279   1.188   1.533   3.992
 3127SOL    HW110280   1.111   1.474   3.969
 3127SOL    HW210281   1.156   1.610   4.048
 3128SOL     OW10282   1.933   0.576   0.831
 3128SOL    HW110283   1.962   0.623   0.914
 3128SOL    HW210284   1.899   0.643   0.764
 3129SOL     OW10285   1.319   3.022   3.368
 3129SOL    HW110286   1.294   3.016   3.271
 3129SOL    HW210287   1.238   3.043   3.422
 3130SOL     OW10288   2.355   5.300   3.228
 3130SOL    HW110289   2.389   5.361   3.300
 3130SOL    HW210290   2.398   5.211   3.236
 3131SOL     OW10291   0.811   2.949   4.651
 3131SOL    HW110292   0.727   3.003   4.649
 3131SOL    HW210293   0.857   2.964   4.739
 3132SOL     OW10294   5.193   4.653   5.502
 3132SOL    HW110295   5.094   4.643   5.496
 3132SOL    HW210296   5.216   4.749   5.516
 3133SOL     OW10297   2.425   2.016   3.465
 3133SOL    HW110298   2.485   1.945   3.428
 3133SOL    HW210299   2.331   1.998   3.435
 3134SOL     OW10300   5.408   2.825   1.671
 3134SOL    HW110301   5.454   2.913   1.680
 3134SOL    HW210302   5.310   2.837   1.681
 3135SOL     OW10303   2.143   1.869   3.532
 3135SOL    HW110304   2.056   1.829   3.559
 3135SOL    HW210305   2.152   1.960   3.572
 3136SOL     OW10306   6.211   6.841   4.785
 3136SOL    HW110307   6.273   6.772   4.747
 3136SOL    HW210308   6.225   6.848   4.883
 3137SOL     OW10309   0.364   1.637   4.505
 3137SOL    HW110310   0.422   1.588   4.440
 3137SOL    HW210311   0.268   1.611   4.491
 3138SOL     OW10312   5.243   1.737   4.827
 3138SOL    HW110313   5.323   1.797   4.816
 3138SOL    HW210314   5.268   1.643   4.804
 3139SOL     OW10315   4.728   5.490   5.081
 3139SOL    HW110316   4.754   5.488   4.985
 3139SOL    HW210317   4.642   5.540   5.092
 3140SOL     OW10318   5.694   5.972   6.161
 3140SOL    HW110319   5.793   5.974   6.147
 3140SOL    HW210320   5.673   6.017   6.248
 3141SOL     OW10321   0.964   5.588   1.947
 3141SOL    HW110322   0.935   5.525   1.875
 3141SOL    HW210323   1.062   5.608   1.937
 3142SOL     OW10324   3.838   0.093   0.419
 3142SOL    HW110325   3.751   0.061   0.382
 3142SOL    HW210326   3.903   0.106   0.344
 3143SOL     OW10327   0.249   1.669   1.011
 3143SOL    HW110328   0.323   1.621   1.058
 3143SOL    HW210329   0.200   1.726   1.077
 3144SOL     OW10330   1.852   3.057   0.165
 3144SOL    HW110331   1.815   2.966   0.146
 3144SOL    HW210332   1.796   3.126   0.119
 3145SOL     OW10333   2.980   5.298   3.572
 3145SOL    HW110334   3.069   5.256   3.588
 3145SOL    HW210335   2.982   5.394   3.598
 3146SOL     OW10336   2.370   6.889   3.806
 3146SOL    HW110337   2.434   6.958   3.771
 3146SOL    HW210338   2.375   6.807   3.748
 3147SOL     OW10339   3.750   4.376   0.923
 3147SOL    HW110340   3.805   4.322   0.987
 3147SOL    HW210341   3.653   4.368   0.947
 3148SOL     OW10342   3.127   5.858   4.852
 3148SOL    HW110343   3.221   5.825   4.843
 3148SOL    HW210344   3.085   5.863   4.761
 3149SOL     OW10345   2.596   6.386   5.849
 3149SOL    HW110346   2.691   6.371   5.822
 3149SOL    HW210347   2.593   6.414   5.945
 3150SOL     OW10348   0.038   6.959   4.228
 3150SOL    HW110349   0.053   6.870   4.271
 3150SOL    HW210350   0.123   7.011   4.229
 3151SOL     OW10351   4.031   6.738   1.478
 3151SOL    HW110352   3.946   6.692   1.503
 3151SOL    HW210353   4.061   6.706   1.388
 3152SOL     OW10354   1.361   4.648   6.350
 3152SOL    HW110355   1.449   4.655   6.303
 3152SOL    HW210356   1.341   4.551   6.367
 3153SOL     OW10357   6.702   4.625   2.914
 3153SOL    HW110358   6.659   4.607   2.825
 3153SOL    HW210359   6.773   4.694   2.904
 3154SOL     OW10360   5.708   2.735   6.251
 3154SOL    HW110361   5.797   2.733   6.296
 3154SOL    HW210362   5.681   2.830   6.236
 3155SOL     OW10363   4.512   6.086   0.469
 3155SOL    HW110364   4.585   6.080   0.536
 3155SOL    HW210365   4.445   6.153   0.498
 3156SOL     OW10366   3.667   3.516   3.450
 3156SOL    HW110367   3.638   3.595   3.505
 3156SOL    HW210368   3.754   3.537   3.406
 3157SOL     OW10369   2.154   2.698   5.255
 3157SOL    HW110370   2.082   2.734   5.195
 3157SOL    HW210371   2.242   2.703   5.209
 3158SOL     OW10372   4.527   6.425   1.244
 3158SOL    HW110373   4.454   6.435   1.311
 3158SOL    HW210374   4.610   6.392   1.289
 3159SOL     OW10375   5.272   4.749   0.178
 3159SOL    HW110376   5.319   4.700   0.105
 3159SOL    HW210377   5.324   4.740   0.263
 3160SOL     OW10378   6.022   4.819   0.631
 3160SOL    HW110379   6.018   4.719   0.639
 3160SOL    HW210380   6.106   4.845   0.582
 3161SOL     OW10381   1.092   1.290   3.451
 3161SOL    HW110382   1.166   1.354   3.429
 3161SOL    HW210383   1.073   1.293   3.549
 3162SOL     OW10384   0.257   6.873   5.850
 3162SOL    HW110385   0.321   6.832   5.785
 3162SOL    HW210386   0.193   6.804   5.882
 3163SOL     OW10387   2.003   4.509   5.376
 3163SOL    HW110388   2.054   4.423   5.381
 3163SOL    HW210389   2.058   4.582   5.416
 3164SOL     OW10390   6.051   5.261   5.826
 3164SOL    HW110391   6.130   5.229   5.878
 3164SOL    HW210392   6.010   5.339   5.872
 3165SOL     OW10393   0.670   2.786   1.819
 3165SOL    HW110394   0.726   2.869   1.821
 3165SOL    HW210395   0.576   2.809   1.844
 3166SOL     OW10396   4.633   2.836   6.427
 3166SOL    HW110397   4.624   2.863   6.331
 3166SOL    HW210398   4.686   2.905   6.476
 3167SOL     OW10399   0.204   4.635   1.950
 3167SOL    HW110400   0.221   4.704   2.021
 3167SOL    HW210401   0.107   4.611   1.949
 3168SOL     OW10402   6.264   3.054   0.981
 3168SOL    HW110403   6.330   2.981   0.997
 3168SOL    HW210404   6.312   3.141   0.971
 3169SOL     OW10405   2.523   2.060   5.678
 3169SOL    HW110406   2.471   2.079   5.594
 3169SOL    HW210407   2.532   2.145   5.730
 3170SOL     OW10408   3.837   6.862   5.389
 3170SOL    HW110409   3.774   6.894   5.460
 3170SOL    HW210410   3.874   6.773   5.415
 3171SOL     OW10411   5.944   6.360   3.069
 3171SOL    HW110412   5.974   6.407   3.152
 3171SOL    HW210413   5.989   6.401   2.989
 3172SOL     OW10414   6.027   6.535   5.539
 3172SOL    HW110415   5.948   6.560   5.595
 3172SOL    HW210416   5.995   6.504   5.449
 3173SOL     OW10417   2.079   1.094   1.563
 3173SOL    HW110418   2.132   1.094   1.478
 3173SOL    HW210419   2.064   1.188   1.593
 3174SOL     OW10420   2.334   2.933   0.120
 3174SOL    HW110421   2.358   2.959   0.213
 3174SOL    HW210422   2.305   2.837   0.118
 3175SOL     OW10423   0.094   6.368   0.225
 3175SOL    HW110424   0.056   6.427   0.296
 3175SOL    HW210425   0.107   6.276   0.263
 3176SOL     OW10426   1.128   5.832   0.189
 3176SOL    HW110427   1.054   5.765   0.186
 3176SOL    HW210428   1.105   5.905   0.253
 3177SOL     OW10429   1.092   6.846   4.496
 3177SOL    HW110430   1.042   6.850   4.410
 3177SOL    HW210431   1.040   6.792   4.563
 3178SOL     OW10432   2.905   3.402   6.878
 3178SOL    HW110433   2.860   3.417   6.790
 3178SOL    HW210434   2.858   3.454   6.949
 3179SOL     OW10435   1.475   2.313   4.415
 3179SOL    HW110436   1.571   2.290   4.404
 3179SOL    HW210437   1.444   2.282   4.506
 3180SOL     OW10438   6.157   1.477   6.559
 3180SOL    HW110439   6.079   1.515   6.609
 3180SOL    HW210440   6.166   1.379   6.580
 3181SOL     OW10441   0.854   1.782   2.813
 3181SOL    HW110442   0.837   1.684   2.803
 3181SOL    HW210443   0.783   1.822   2.871
 3182SOL     OW10444   1.444   4.242   5.692
 3182SOL    HW110445   1.536   4.234   5.651
 3182SOL    HW210446   1.438   4.327   5.743
 3183SOL     OW10447   4.384   3.329   1.147
 3183SOL    HW110448   4.422   3.240   1.123
 3183SOL    HW210449   4.459   3.395   1.158
 3184SOL     OW10450   0.863   2.022   3.603
 3184SOL    HW110451   0.842   2.117   3.624
 3184SOL    HW210452   0.953   1.998   3.640
 3185SOL     OW10453   0.393   6.473   6.988
 3185SOL    HW110454   0.389   6.508   6.895
 3185SOL    HW210455   0.349   6.538   0.028
 3186SOL     OW10456   3.167   0.689   1.666
 3186SOL    HW110457   3.164   0.740   1.580
 3186SOL    HW210458   3.080   0.697   1.714
 3187SOL     OW10459   2.669   4.221   0.388
 3187SOL    HW110460   2.675   4.320   0.374
 3187SOL    HW210461   2.716   4.174   0.313
 3188SOL     OW10462   3.969   6.932   3.068
 3188SOL    HW110463   3.988   6.857   3.131
 3188SOL    HW210464   3.871   6.935   3.048
 3189SOL     OW10465   6.308   6.323   2.357
 3189SOL    HW110466   6.305   6.316   2.457
 3189SOL    HW210467   6.276   6.413   2.329
 3190SOL     OW10468   1.153   6.760   1.949
 3190SOL    HW110469   1.219   6.750   2.023
 3190SOL    HW210470   1.139   6.857   1.930
 3191SOL     OW10471   4.145   1.000   0.245
 3191SOL    HW110472   4.240   0.972   0.232
 3191SOL    HW210473   4.130   1.023   0.341
 3192SOL     OW10474   5.222   2.372   3.978
 3192SOL    HW110475   5.264   2.462   3.972
 3192SOL    HW210476   5.124   2.378   3.958
 3193SOL     OW10477   5.177   4.348   1.137
 3193SOL    HW110478   5.243   4.322   1.207
 3193SOL    HW210479   5.090   4.372   1.179
 3194SOL     OW10480   2.400   5.412   5.023
 3194SOL    HW110481   2.324   5.372   5.074
 3194SOL    HW210482   2.389   5.512   5.020
 3195SOL     OW10483   0.161   4.646   4.064
 3195SOL    HW110484   0.222   4.673   3.990
 3195SOL    HW210485   0.081   4.706   4.065
 3196SOL     OW10486   0.213   6.458   6.093
 3196SOL    HW110487   0.200   6.387   6.162
 3196SOL    HW210488   0.219   6.547   6.138
 3197SOL     OW10489   0.614   4.643   4.946
 3197SOL    HW110490   0.590   4.561   4.997
 3197SOL    HW210491   0.557   4.720   4.976
 3198SOL     OW10492   6.024   0.068   0.612
 3198SOL    HW110493   5.959   0.143   0.606
 3198SOL    HW210494   6.105   0.090   0.559
 3199SOL     OW10495   3.580   1.224   3.291
 3199SOL    HW110496   3.517   1.162   3.245
 3199SOL    HW210497   3.655   1.248   3.229
 3200SOL     OW10498   6.327   2.031   0.475
 3200SOL    HW110499   6.347   1.962   0.544
 3200SOL    HW210500   6.389   2.021   0.398
 3201SOL     OW10501   4.718   4.749   3.239
 3201SOL    HW110502   4.634   4.708   3.276
 3201SOL    HW210503   4.797   4.717   3.291
 3202SOL     OW10504   1.656   5.268   1.733
 3202SOL    HW110505   1.588   5.327   1.690
 3202SOL    HW210506   1.670   5.296   1.828
 3203SOL     OW10507   4.701   6.954   0.787
 3203SOL    HW110508   4.744   0.022   0.776
 3203SOL    HW210509   4.670   6.943   0.881
 3204SOL     OW10510   6.325   6.490   1.953
 3204SOL    HW110511   6.268   6.474   1.873
 3204SOL    HW210512   6.288   6.567   2.005
 3205SOL     OW10513   0.812   3.517   4.625
 3205SOL    HW110514   0.854   3.431   4.652
 3205SOL    HW210515   0.883   3.582   4.596
 3206SOL     OW10516   1.844   0.160   6.769
 3206SOL    HW110517   1.857   0.133   6.673
 3206SOL    HW210518   1.820   0.080   6.823
 3207SOL     OW10519   1.555   1.548   3.046
 3207SOL    HW110520   1.468   1.547   2.996
 3207SOL    HW210521   1.562   1.632   3.100
 3208SOL     OW10522   6.265   6.745   5.066
 3208SOL    HW110523   6.191   6.706   5.121
 3208SOL    HW210524   6.330   6.791   5.127
 3209SOL     OW10525   1.312   0.115   3.310
 3209SOL    HW110526   1.271   0.191   3.359
 3209SOL    HW210527   1.410   0.130   3.301
 3210SOL     OW10528   0.885   5.414   2.153
 3210SOL    HW110529   0.897   5.472   2.072
 3210SOL    HW210530   0.965   5.423   2.213
 3211SOL     OW10531   0.179   4.458   3.614
 3211SOL    HW110532   0.106   4.493   3.555
 3211SOL    HW210533   0.170   4.497   3.706
 3212SOL     OW10534   4.737   2.885   5.042
 3212SOL    HW110535   4.747   2.967   4.986
 3212SOL    HW210536   4.662   2.829   5.006
 3213SOL     OW10537   5.742   6.655   1.482
 3213SOL    HW110538   5.768   6.735   1.429
 3213SOL    HW210539   5.642   6.650   1.488
 3214SOL     OW10540   4.381   4.084   0.102
 3214SOL    HW110541   4.426   4.006   0.058
 3214SOL    HW210542   4.450   4.148   0.136
 3215SOL     OW10543   6.263   1.402   7.019
 3215SOL    HW110544   6.281   1.307   0.026
 3215SOL    HW210545   6.165   1.414   7.004
 3216SOL     OW10546   5.090   6.299   4.751
 3216SOL    HW110547   5.039   6.311   4.666
 3216SOL    HW210548   5.102   6.202   4.770
 3217SOL     OW10549   6.883   4.314   0.176
 3217SOL    HW110550   6.949   4.388   0.191
 3217SOL    HW210551   6.792   4.345   0.203
 3218SOL     OW10552   3.994   1.963   1.897
 3218SOL    HW110553   3.917   1.971   1.834
 3218SOL    HW210554   4.031   1.870   1.893
 3219SOL     OW10555   0.244   0.899   3.353
 3219SOL    HW110556   0.331   0.948   3.364
 3219SOL    HW210557   0.178   0.958   3.306
 3220SOL     OW10558   6.251   3.046   6.635
 3220SOL    HW110559   6.254   3.063   6.733
 3220SOL    HW210560   6.156   3.050   6.604
 3221SOL     OW10561   3.715   0.605   2.240
 3221SOL    HW110562   3.748   0.578   2.149
 3221SOL    HW210563   3.630   0.656   2.231
 3222SOL     OW10564   6.314   4.106   1.935
 3222SOL    HW110565   6.312   4.066   2.027
 3222SOL    HW210566   6.381   4.181   1.933
 3223SOL     OW10567   2.044   4.453   4.638
 3223SOL    HW110568   2.013   4.379   4.698
 3223SOL    HW210569   2.077   4.529   4.694
 3224SOL     OW10570   3.189   6.240   1.056
 3224SOL    HW110571   3.230   6.326   1.026
 3224SOL    HW210572   3.184   6.238   1.155
 3225SOL     OW10573   1.846   2.782   0.756
 3225SOL    HW110574   1.849   2.758   0.853
 3225SOL    HW210575   1.876   2.705   0.701
 3226SOL     OW10576   6.532   0.867   4.044
 3226SOL    HW110577   6.547   0.785   3.990
 3226SOL    HW210578   6.486   0.843   4.130
 3227SOL     OW10579   2.202   1.801   5.363
 3227SOL    HW110580   2.268   1.778   5.291
 3227SOL    HW210581   2.247   1.794   5.452
 3228SOL     OW10582   5.033   3.639   4.911
 3228SOL    HW110583   4.987   3.625   4.823
 3228SOL    HW210584   4.965   3.644   4.984
 3229SOL     OW10585   4.621   1.521   5.148
 3229SOL    HW110586   4.635   1.589   5.076
 3229SOL    HW210587   4.542   1.546   5.204
 3230SOL     OW10588   1.422   0.191   3.727
 3230SOL    HW110589   1.379   0.264   3.780
 3230SOL    HW210590   1.352   0.125   3.699
 3231SOL     OW10591   4.341   4.740   0.996
 3231SOL    HW110592   4.358   4.665   1.061
 3231SOL    HW210593   4.269   4.712   0.933
 3232SOL     OW10594   0.786   4.069   2.875
 3232SOL    HW110595   0.702   4.080   2.928
 3232SOL    HW210596   0.763   4.049   2.779
 3233SOL     OW10597   2.101   4.416   0.966
 3233SOL    HW110598   2.037   4.378   0.899
 3233SOL    HW210599   2.175   4.351   0.984
 3234SOL     OW10600   6.958   2.154   4.815
 3234SOL    HW110601   6.894   2.168   4.739
 3234SOL    HW210602   6.944   2.225   4.884
 3235SOL     OW10603   5.734   0.880   2.337
 3235SOL    HW110604   5.713   0.949   2.268
 3235SOL    HW210605   5.825   0.896   2.374
 3236SOL     OW10606   0.451   2.122   1.392
 3236SOL    HW110607   0.419   2.146   1.300
 3236SOL    HW210608   0.503   2.037   1.388
 3237SOL     OW10609   2.918   6.032   4.913
 3237SOL    HW110610   2.894   6.066   4.822
 3237SOL    HW210611   2.994   5.967   4.904
 3238SOL     OW10612   6.632   6.563   6.581
 3238SOL    HW110613   6.677   6.627   6.518
 3238SOL    HW210614   6.617   6.608   6.669
 3239SOL     OW10615   1.383   6.159   5.792
 3239SOL    HW110616   1.291   6.173   5.830
 3239SOL    HW210617   1.451   6.173   5.863
 3240SOL     OW10618   0.727   2.274   4.825
 3240SOL    HW110619   0.795   2.346   4.839
 3240SOL    HW210620   0.740   2.202   4.894
 3241SOL     OW10621   4.044   6.637   5.140
 3241SOL    HW110622   4.020   6.734   5.132
 3241SOL    HW210623   4.143   6.627   5.133
 3242SOL     OW10624   3.300   0.499   0.543
 3242SOL    HW110625   3.379   0.478   0.486
 3242SOL    HW210626   3.311   0.458   0.633
 3243SOL     OW10627   3.969   5.401   1.726
 3243SOL    HW110628   3.954   5.332   1.798
 3243SOL    HW210629   3.942   5.363   1.638
 3244SOL     OW10630   0.946   0.129   5.817
 3244SOL    HW110631   0.882   0.152   5.744
 3244SOL    HW210632   1.000   0.049   5.789
 3245SOL     OW10633   3.307   1.657   5.882
 3245SOL    HW110634   3.270   1.695   5.967
 3245SOL    HW210635   3.361   1.727   5.835
 3246SOL     OW10636   5.469   6.377   3.069
 3246SOL    HW110637   5.499   6.295   3.118
 3246SOL    HW210638   5.401   6.426   3.124
 3247SOL     OW10639   6.112   3.253   5.487
 3247SOL    HW110640   6.014   3.258   5.467
 3247SOL    HW210641   6.125   3.232   5.584
 3248SOL     OW10642   4.845   4.288   3.319
 3248SOL    HW110643   4.794   4.213   3.278
 3248SOL    HW210644   4.850   4.364   3.254
 3249SOL     OW10645   3.371   4.943   5.594
 3249SOL    HW110646   3.335   4.870   5.651
 3249SOL    HW210647   3.352   4.923   5.498
 3250SOL     OW10648   4.086   4.872   1.243
 3250SOL    HW110649   4.170   4.926   1.243
 3250SOL    HW210650   4.027   4.903   1.168
 3251SOL     OW10651   3.252   0.915   3.449
 3251SOL    HW110652   3.322   0.928   3.519
 3251SOL    HW210653   3.296   0.888   3.363
 3252SOL     OW10654   3.580   2.068   2.872
 3252SOL    HW110655   3.583   1.969   2.879
 3252SOL    HW210656   3.581   2.096   2.776
 3253SOL     OW10657   5.179   4.230   1.660
 3253SOL    HW110658   5.120   4.152   1.680
 3253SOL    HW210659   5.186   4.288   1.740
 3254SOL     OW10660   6.600   4.648   2.650
 3254SOL    HW110661   6.522   4.696   2.610
 3254SOL    HW210662   6.649   4.598   2.579
 3255SOL     OW10663   3.592   5.142   0.568
 3255SOL    HW110664   3.638   5.061   0.532
 3255SOL    HW210665   3.520   5.170   0.505
 3256SOL     OW10666   6.416   0.243   5.326
 3256SOL    HW110667   6.471   0.169   5.365
 3256SOL    HW210668   6.474   0.303   5.272
 3257SOL     OW10669   2.513   1.080   1.323
 3257SOL    HW110670   2.518   1.026   1.239
 3257SOL    HW210671   2.577   1.043   1.390
 3258SOL     OW10672   5.428   6.694   1.829
 3258SOL    HW110673   5.384   6.609   1.857
 3258SOL    HW210674   5.448   6.750   1.909
 3259SOL     OW10675   5.521   5.742   2.862
 3259SOL    HW110676   5.592   5.785   2.918
 3259SOL    HW210677   5.436   5.794   2.870
 3260SOL     OW10678   2.473   1.602   1.235
 3260SOL    HW110679   2.515   1.655   1.161
 3260SOL    HW210680   2.497   1.506   1.224
 3261SOL     OW10681   4.895   6.748   3.975
 3261SOL    HW110682   4.875   6.786   4.065
 3261SOL    HW210683   4.810   6.720   3.931
 3262SOL     OW10684   4.557   1.801   3.717
 3262SOL    HW110685   4.607   1.805   3.630
 3262SOL    HW210686   4.520   1.709   3.730
 3263SOL     OW10687   2.981   4.878   3.452
 3263SOL    HW110688   2.886   4.887   3.481
 3263SOL    HW210689   3.042   4.890   3.531
 3264SOL     OW10690   5.662   4.657   6.031
 3264SOL    HW110691   5.621   4.607   5.954
 3264SOL    HW210692   5.757   4.628   6.042
 3265SOL     OW10693   5.597   0.021   5.434
 3265SOL    HW110694   5.565   6.967   5.376
 3265SOL    HW210695   5.532   0.035   5.509
 3266SOL     OW10696   1.143   2.850   6.791
 3266SOL    HW110697   1.186   2.862   6.880
 3266SOL    HW210698   1.155   2.756   6.760
 3267SOL     OW10699   5.342   3.929   1.977
 3267SOL    HW110700   5.250   3.966   1.986
 3267SOL    HW210701   5.404   3.979   2.038
 3268SOL     OW10702   1.728   5.596   0.091
 3268SOL    HW110703   1.774   5.650   0.162
 3268SOL    HW210704   1.653   5.649   0.053
 3269SOL     OW10705   4.119   3.935   0.927
 3269SOL    HW110706   4.124   4.015   0.987
 3269SOL    HW210707   4.118   3.852   0.983
 3270SOL     OW10708   6.833   5.633   3.791
 3270SOL    HW110709   6.887   5.634   3.706
 3270SOL    HW210710   6.760   5.566   3.784
 3271SOL     OW10711   4.881   6.638   0.913
 3271SOL    HW110712   4.947   6.612   0.984
 3271SOL    HW210713   4.796   6.669   0.957
 3272SOL     OW10714   4.809   5.774   6.224
 3272SOL    HW110715   4.887   5.776   6.162
 3272SOL    HW210716   4.833   5.819   6.310
 3273SOL     OW10717   0.419   0.179   2.796
 3273SOL    HW110718   0.388   0.113   2.864
 3273SOL    HW210719   0.517   0.165   2.778
 3274SOL     OW10720   2.819   1.290   0.501
 3274SOL    HW110721   2.814   1.229   0.423
 3274SOL    HW210722   2.730   1.331   0.518
 3275SOL     OW10723   4.135   0.323   6.919
 3275SOL    HW110724   4.113   0.386   6.993
 3275SOL    HW210725   4.073   0.246   6.920
 3276SOL     OW10726   1.423   6.134   0.942
 3276SOL    HW110727   1.494   6.169   0.880
 3276SOL    HW210728   1.451   6.045   0.977
 3277SOL     OW10729   0.108   6.273   6.944
 3277SOL    HW110730   0.145   6.278   0.015
 3277SOL    HW210731   0.022   6.323   6.939
 3278SOL     OW10732   1.110   0.305   0.120
 3278SOL    HW110733   1.049   0.232   0.150
 3278SOL    HW210734   1.194   0.302   0.174
 3279SOL     OW10735   2.273   6.773   1.529
 3279SOL    HW110736   2.348   6.715   1.560
 3279SOL    HW210737   2.311   6.852   1.480
 3280SOL     OW10738   2.770   6.346   3.850
 3280SOL    HW110739   2.679   6.387   3.857
 3280SOL    HW210740   2.763   6.246   3.855
 3281SOL     OW10741   1.196   6.256   0.860
 3281SOL    HW110742   1.279   6.216   0.899
 3281SOL    HW210743   1.221   6.325   0.792
 3282SOL     OW10744   1.858   4.685   2.761
 3282SOL    HW110745   1.853   4.771   2.708
 3282SOL    HW210746   1.835   4.703   2.856
 3283SOL     OW10747   1.552   0.683   3.433
 3283SOL    HW110748   1.623   0.643   3.490
 3283SOL    HW210749   1.463   0.667   3.475
 3284SOL     OW10750   1.458   5.420   5.782
 3284SOL    HW110751   1.426   5.348   5.720
 3284SOL    HW210752   1.380   5.475   5.811
 3285SOL     OW10753   0.545   2.543   4.511
 3285SOL    HW110754   0.514   2.559   4.605
 3285SOL    HW210755   0.644   2.557   4.506
 3286SOL     OW10756   4.746   4.510   6.199
 3286SOL    HW110757   4.816   4.542   6.263
 3286SOL    HW210758   4.656   4.538   6.233
 3287SOL     OW10759   0.336   3.155   1.990
 3287SOL    HW110760   0.252   3.209   1.997
 3287SOL    HW210761   0.367   3.152   1.895
 3288SOL     OW10762   0.550   0.161   0.643
 3288SOL    HW110763   0.647   0.161   0.618
 3288SOL    HW210764   0.521   0.068   0.664
 3289SOL     OW10765   1.709   0.315   3.808
 3289SOL    HW110766   1.639   0.264   3.759
 3289SOL    HW210767   1.791   0.321   3.752
 3290SOL     OW10768   0.309   5.176   3.827
 3290SOL    HW110769   0.214   5.153   3.808
 3290SOL    HW210770   0.313   5.235   3.908
 3291SOL     OW10771   1.385   1.746   1.599
 3291SOL    HW110772   1.358   1.658   1.558
 3291SOL    HW210773   1.459   1.786   1.545
 3292SOL     OW10774   0.802   6.055   4.415
 3292SOL    HW110775   0.823   5.963   4.449
 3292SOL    HW210776   0.871   6.119   4.448
 3293SOL     OW10777   5.459   0.448   2.996
 3293SOL    HW110778   5.434   0.485   3.085
 3293SOL    HW210779   5.553   0.475   2.974
 3294SOL     OW10780   6.703   0.226   0.979
 3294SOL    HW110781   6.695   0.325   0.964
 3294SOL    HW210782   6.617   0.182   0.954
 3295SOL     OW10783   2.527   2.912   6.037
 3295SOL    HW110784   2.453   2.891   5.973
 3295SOL    HW210785   2.493   2.967   6.112
 3296SOL     OW10786   0.962   6.534   1.900
 3296SOL    HW110787   1.035   6.599   1.920
 3296SOL    HW210788   0.874   6.573   1.926
 3297SOL     OW10789   3.363   1.096   5.427
 3297SOL    HW110790   3.343   1.167   5.494
 3297SOL    HW210791   3.310   1.014   5.448
 3298SOL     OW10792   0.521   4.709   3.097
 3298SOL    HW110793   0.478   4.779   3.041
 3298SOL    HW210794   0.580   4.652   3.040
 3299SOL     OW10795   1.227   1.242   4.232
 3299SOL    HW110796   1.290   1.269   4.160
 3299SOL    HW210797   1.249   1.149   4.263
 3300SOL     OW10798   0.377   6.700   4.634
 3300SOL    HW110799   0.278   6.691   4.625
 3300SOL    HW210800   0.403   6.796   4.620
 3301SOL     OW10801   6.205   4.405   2.303
 3301SOL    HW110802   6.129   4.425   2.365
 3301SOL    HW210803   6.291   4.432   2.345
 3302SOL     OW10804   0.965   6.147   5.398
 3302SOL    HW110805   0.924   6.121   5.311
 3302SOL    HW210806   1.003   6.240   5.390
 3303SOL     OW10807   3.306   3.611   4.792
 3303SOL    HW110808   3.358   3.689   4.758
 3303SOL    HW210809   3.210   3.638   4.803
 3304SOL     OW10810   1.470   0.948   3.896
 3304SOL    HW110811   1.534   0.945   3.972
 3304SOL    HW210812   1.518   0.974   3.812
 3305SOL     OW10813   0.831   2.719   0.540
 3305SOL    HW110814   0.912   2.751   0.589
 3305SOL    HW210815   0.756   2.705   0.604
 3306SOL     OW10816   1.954   1.806   1.121
 3306SOL    HW110817   1.896   1.745   1.175
 3306SOL    HW210818   1.960   1.895   1.166
 3307SOL     OW10819   0.727   0.073   6.986
 3307SOL    HW110820   0.746   6.999   6.961
 3307SOL    HW210821   0.629   0.085   6.998
 3308SOL     OW10822   5.145   6.046   0.786
 3308SOL    HW110823   5.117   6.132   0.743
 3308SOL    HW210824   5.242   6.052   0.812
 3309SOL     OW10825   1.545   4.545   1.868
 3309SOL    HW110826   1.631   4.495   1.859
 3309SOL    HW210827   1.564   4.643   1.875
 3310SOL     OW10828   1.980   6.080   1.995
 3310SOL    HW110829   1.961   6.042   2.086
 3310SOL    HW210830   1.898   6.073   1.939
 3311SOL     OW10831   4.009   5.362   0.625
 3311SOL    HW110832   3.980   5.441   0.679
 3311SOL    HW210833   4.066   5.393   0.549
 3312SOL     OW10834   1.474   2.264   6.321
 3312SOL    HW110835   1.547   2.251   6.388
 3312SOL    HW210836   1.405   2.193   6.332
 3313SOL     OW10837   5.327   6.324   5.027
 3313SOL    HW110838   5.412   6.294   4.984
 3313SOL    HW210839   5.283   6.392   4.969
 3314SOL     OW10840   0.567   4.145   6.579
 3314SOL    HW110841   0.558   4.241   6.553
 3314SOL    HW210842   0.594   4.091   6.500
 3315SOL     OW10843   6.039   3.086   2.854
 3315SOL    HW110844   6.023   3.048   2.945
 3315SOL    HW210845   6.035   3.186   2.858
 3316SOL     OW10846   3.635   0.219   6.860
 3316SOL    HW110847   3.566   0.272   6.908
 3316SOL    HW210848   3.688   0.280   6.800
 3317SOL     OW10849   4.881   2.706   1.260
 3317SOL    HW110850   4.967   2.675   1.301
 3317SOL    HW210851   4.811   2.635   1.272
 3318SOL     OW10852   2.535   4.903   6.498
 3318SOL    HW110853   2.595   4.840   6.448
 3318SOL    HW210854   2.526   4.989   6.447
 3319SOL     OW10855   0.827   6.371   6.606
 3319SOL    HW110856   0.730   6.349   6.606
 3319SOL    HW210857   0.853   6.410   6.694
 3320SOL     OW10858   1.079   0.471   1.015
 3320SOL    HW110859   1.173   0.455   1.044
 3320SOL    HW210860   1.032   0.383   1.007
 3321SOL     OW10861   3.556   3.506   4.164
 3321SOL    HW110862   3.503   3.584   4.199
 3321SOL    HW210863   3.645   3.538   4.133
 3322SOL     OW10864   4.918   3.465   2.916
 3322SOL    HW110865   4.871   3.423   2.838
 3322SOL    HW210866   4.891   3.561   2.925
 3323SOL     OW10867   1.420   4.612   0.840
 3323SOL    HW110868   1.369   4.673   0.901
 3323SOL    HW210869   1.416   4.518   0.876
 3324SOL     OW10870   6.401   3.039   1.420
 3324SOL    HW110871   6.326   3.099   1.391
 3324SOL    HW210872   6.473   3.039   1.351
 3325SOL     OW10873   0.972   4.386   4.746
 3325SOL    HW110874   0.990   4.317   4.817
 3325SOL    HW210875   1.055   4.398   4.691
 3326SOL     OW10876   5.048   6.859   2.349
 3326SOL    HW110877   4.951   6.853   2.328
 3326SOL    HW210878   5.062   6.925   2.423
 3327SOL     OW10879   4.506   6.145   1.378
 3327SOL    HW110880   4.599   6.179   1.386
 3327SOL    HW210881   4.453   6.174   1.457
 3328SOL     OW10882   5.976   6.377   4.000
 3328SOL    HW110883   6.075   6.392   3.996
 3328SOL    HW210884   5.930   6.462   4.027
 3329SOL     OW10885   5.629   0.276   5.982
 3329SOL    HW110886   5.533   0.295   6.004
 3329SOL    HW210887   5.688   0.341   6.028
 3330SOL     OW10888   5.864   0.405   3.014
 3330SOL    HW110889   5.878   0.403   3.113
 3330SOL    HW210890   5.835   0.315   2.982
 3331SOL     OW10891   0.968   3.480   2.831
 3331SOL    HW110892   0.897   3.541   2.864
 3331SOL    HW210893   0.945   3.448   2.739
 3332SOL     OW10894   4.121   4.964   0.738
 3332SOL    HW110895   4.169   4.989   0.654
 3332SOL    HW210896   4.094   4.868   0.734
 3333SOL     OW10897   2.394   4.364   0.683
 3333SOL    HW110898   2.414   4.277   0.728
 3333SOL    HW210899   2.305   4.358   0.638
 3334SOL     OW10900   1.954   2.787   2.762
 3334SOL    HW110901   1.927   2.882   2.777
 3334SOL    HW210902   2.052   2.783   2.744
 3335SOL     OW10903   4.313   4.214   6.297
 3335SOL    HW110904   4.230   4.209   6.242
 3335SOL    HW210905   4.390   4.243   6.240
 3336SOL     OW10906   3.780   5.636   6.026
 3336SOL    HW110907   3.718   5.567   6.063
 3336SOL    HW210908   3.729   5.702   5.971
 3337SOL     OW10909   2.904   3.600   3.834
 3337SOL    HW110910   2.896   3.501   3.847
 3337SOL    HW210911   2.856   3.626   3.750
 3338SOL     OW10912   3.137   3.022   1.522
 3338SOL    HW110913   3.184   3.069   1.597
 3338SOL    HW210914   3.080   2.949   1.560
 3339SOL     OW10915   1.223   6.581   6.152
 3339SOL    HW110916   1.270   6.612   6.069
 3339SOL    HW210917   1.223   6.654   6.220
 3340SOL     OW10918   4.816   1.240   6.563
 3340SOL    HW110919   4.864   1.290   6.491
 3340SOL    HW210920   4.734   1.197   6.525
 3341SOL     OW10921   1.452   4.314   1.271
 3341SOL    HW110922   1.421   4.245   1.206
 3341SOL    HW210923   1.373   4.360   1.311
 3342SOL     OW10924   5.916   0.110   2.231
 3342SOL    HW110925   5.830   0.070   2.200
 3342SOL    HW210926   5.947   0.063   2.314
 3343SOL     OW10927   3.150   5.065   1.009
 3343SOL    HW110928   3.067   5.102   0.968
 3343SOL    HW210929   3.192   5.000   0.945
 3344SOL     OW10930   1.078   3.216   1.813
 3344SOL    HW110931   1.128   3.230   1.899
 3344SOL    HW210932   1.026   3.298   1.791
 3345SOL     OW10933   5.082   5.351   0.930
 3345SOL    HW110934   5.016   5.282   0.900
 3345SOL    HW210935   5.153   5.307   0.986
 3346SOL     OW10936   1.184   1.330   6.579
 3346SOL    HW110937   1.125   1.403   6.612
 3346SOL    HW210938   1.151   1.242   6.612
 3347SOL     OW10939   0.799   3.553   5.644
 3347SOL    HW110940   0.849   3.582   5.563
 3347SOL    HW210941   0.836   3.598   5.725
 3348SOL     OW10942   3.620   3.878   6.188
 3348SOL    HW110943   3.638   3.887   6.286
 3348SOL    HW210944   3.663   3.953   6.139
 3349SOL     OW10945   2.033   5.438   1.792
 3349SOL    HW110946   2.045   5.339   1.795
 3349SOL    HW210947   2.089   5.476   1.718
 3350SOL     OW10948   2.845   5.654   4.309
 3350SOL    HW110949   2.823   5.633   4.404
 3350SOL    HW210950   2.911   5.587   4.274
 3351SOL     OW10951   6.004   6.687   1.684
 3351SOL    HW110952   5.918   6.695   1.634
 3351SOL    HW210953   6.074   6.744   1.641
 3352SOL     OW10954   5.677   1.412   6.920
 3352SOL    HW110955   5.686   1.510   6.934
 3352SOL    HW210956   5.624   1.395   6.837
 3353SOL     OW10957   3.970   0.329   6.341
 3353SOL    HW110958   3.923   0.241   6.338
 3353SOL    HW210959   3.990   0.352   6.437
 3354SOL     OW10960   2.427   1.974   0.198
 3354SOL    HW110961   2.346   2.031   0.212
 3354SOL    HW210962   2.428   1.901   0.267
 3355SOL     OW10963   1.319   1.669   5.117
 3355SOL    HW110964   1.306   1.768   5.111
 3355SOL    HW210965   1.395   1.649   5.179
 3356SOL     OW10966   3.216   0.462   5.637
 3356SOL    HW110967   3.173   0.373   5.653
 3356SOL    HW210968   3.315   0.450   5.628
 3357SOL     OW10969   3.103   3.987   4.175
 3357SOL    HW110970   3.046   4.044   4.115
 3357SOL    HW210971   3.143   3.913   4.121
 3358SOL     OW10972   0.158   1.946   1.895
 3358SOL    HW110973   0.174   1.849   1.881
 3358SOL    HW210974   0.165   1.968   1.992
 3359SOL     OW10975   1.430   0.154   4.153
 3359SOL    HW110976   1.513   0.174   4.101
 3359SOL    HW210977   1.351   0.154   4.092
 3360SOL     OW10978   1.266   5.377   4.927
 3360SOL    HW110979   1.315   5.451   4.881
 3360SOL    HW210980   1.305   5.361   5.017
 3361SOL     OW10981   0.530   6.974   4.321
 3361SOL    HW110982   0.486   0.030   4.276
 3361SOL    HW210983   0.625   6.999   4.342
 3362SOL     OW10984   3.148   0.893   5.031
 3362SOL    HW110985   3.168   0.954   5.107
 3362SOL    HW210986   3.151   0.798   5.063
 3363SOL     OW10987   4.507   3.707   0.823
 3363SOL    HW110988   4.461   3.677   0.740
 3363SOL    HW210989   4.549   3.796   0.807
 3364SOL     OW10990   1.759   3.055   1.406
 3364SOL    HW110991   1.695   2.979   1.392
 3364SOL    HW210992   1.774   3.102   1.320
 3365SOL     OW10993   0.647   2.923   2.845
 3365SOL    HW110994   0.655   2.825   2.860
 3365SOL    HW210995   0.698   2.949   2.763
 3366SOL     OW10996   5.976   3.719   3.923
 3366SOL    HW110997   5.877   3.718   3.913
 3366SOL    HW210998   6.012   3.627   3.913
 3367SOL     OW10999   3.142   3.747   3.784
 3367SOL    HW111000   3.056   3.699   3.802
 3367SOL    HW211001   3.217   3.682   3.789
 3368SOL     OW11002   1.988   1.030   3.366
 3368SOL    HW111003   1.909   1.038   3.306
 3368SOL    HW211004   1.986   1.103   3.434
 3369SOL     OW11005   5.494   2.955   0.888
 3369SOL    HW111006   5.395   2.972   0.890
 3369SOL    HW211007   5.543   3.042   0.881
 3370SOL     OW11008   0.539   5.501   3.319
 3370SOL    HW111009   0.562   5.421   3.264
 3370SOL    HW211010   0.562   5.585   3.269
 3371SOL     OW11011   2.538   2.979   1.511
 3371SOL    HW111012   2.482   2.959   1.591
 3371SOL    HW211013   2.624   3.020   1.540
 3372SOL     OW11014   4.940   2.965   3.005
 3372SOL    HW111015   4.901   3.039   2.951
 3372SOL    HW211016   4.888   2.956   3.090
 3373SOL     OW11017   0.736   4.725   0.902
 3373SOL    HW111018   0.703   4.818   0.889
 3373SOL    HW211019   0.776   4.715   0.993
 3374SOL     OW11020   1.239   5.746   4.059
 3374SOL    HW111021   1.208   5.664   4.108
 3374SOL    HW211022   1.208   5.827   4.108
 3375SOL     OW11023   6.901   6.658   5.633
 3375SOL    HW111024   6.862   6.568   5.652
 3375SOL    HW211025   6.985   6.647   5.579
 3376SOL     OW11026   3.539   3.930   4.693
 3376SOL    HW111027   3.520   3.979   4.778
 3376SOL    HW211028   3.627   3.959   4.657
 3377SOL     OW11029   0.307   5.341   4.026
 3377SOL    HW111030   0.222   5.310   4.069
 3377SOL    HW211031   0.301   5.438   4.006
 3378SOL     OW11032   1.143   5.645   0.560
 3378SOL    HW111033   1.117   5.634   0.656
 3378SOL    HW211034   1.242   5.634   0.552
 3379SOL     OW11035   5.862   4.759   3.427
 3379SOL    HW111036   5.830   4.853   3.418
 3379SOL    HW211037   5.948   4.758   3.477
 3380SOL     OW11038   1.801   4.914   2.165
 3380SOL    HW111039   1.842   4.938   2.252
 3380SOL    HW211040   1.757   4.824   2.172
 3381SOL     OW11041   2.958   4.058   6.652
 3381SOL    HW111042   3.032   3.998   6.623
 3381SOL    HW211043   2.885   4.003   6.694
 3382SOL     OW11044   0.517   3.839   6.582
 3382SOL    HW111045   0.455   3.907   6.541
 3382SOL    HW211046   0.558   3.878   6.665
 3383SOL     OW11047   3.520   6.211   0.527
 3383SOL    HW111048   3.461   6.228   0.606
 3383SOL    HW211049   3.610   6.251   0.543
 3384SOL     OW11050   3.364   2.649   6.090
 3384SOL    HW111051   3.299   2.594   6.038
 3384SOL    HW211052   3.317   2.728   6.129
 3385SOL     OW11053   5.759   2.619   4.542
 3385SOL    HW111054   5.788   2.543   4.600
 3385SOL    HW211055   5.837   2.655   4.491
 3386SOL     OW11056   0.428   4.706   5.349
 3386SOL    HW111057   0.511   4.761   5.336
 3386SOL    HW211058   0.444   4.640   5.423
 3387SOL     OW11059   5.716   0.570   2.876
 3387SOL    HW111060   5.780   0.514   2.928
 3387SOL    HW211061   5.763   0.608   2.796
 3388SOL     OW11062   1.039   3.833   0.484
 3388SOL    HW111063   0.956   3.889   0.487
 3388SOL    HW211064   1.013   3.737   0.478
 3389SOL     OW11065   6.223   5.205   6.050
 3389SOL    HW111066   6.141   5.167   6.092
 3389SOL    HW211067   6.229   5.303   6.073
 3390SOL     OW11068   2.964   5.138   1.398
 3390SOL    HW111069   2.899   5.214   1.398
 3390SOL    HW211070   3.049   5.166   1.354
 3391SOL     OW11071   5.272   3.895   5.712
 3391SOL    HW111072   5.292   3.808   5.758
 3391SOL    HW211073   5.288   3.970   5.776
 3392SOL     OW11074   4.733   6.137   5.813
 3392SOL    HW111075   4.830   6.150   5.795
 3392SOL    HW211076   4.720   6.052   5.865
 3393SOL     OW11077   3.558   0.445   0.960
 3393SOL    HW111078   3.580   0.364   1.014
 3393SOL    HW211079   3.474   0.486   0.995
 3394SOL     OW11080   2.737   6.119   1.370
 3394SOL    HW111081   2.740   6.218   1.355
 3394SOL    HW211082   2.801   6.095   1.443
 3395SOL     OW11083   1.994   6.130   3.097
 3395SOL    HW111084   1.931   6.057   3.068
 3395SOL    HW211085   1.943   6.215   3.109
 3396SOL     OW11086   3.804   0.944   4.126
 3396SOL    HW111087   3.713   0.941   4.168
 3396SOL    HW211088   3.819   1.033   4.083
 3397SOL     OW11089   2.342   6.277   1.212
 3397SOL    HW111090   2.258   6.298   1.161
 3397SOL    HW211091   2.384   6.194   1.175
 3398SOL     OW11092   6.454   0.599   0.154
 3398SOL    HW111093   6.434   0.536   0.078
 3398SOL    HW211094   6.394   0.579   0.231
 3399SOL     OW11095   0.137   6.267   1.855
 3399SOL    HW111096   0.173   6.336   1.917
 3399SOL    HW211097   0.172   6.177   1.880
 3400SOL     OW11098   3.375   2.982   5.610
 3400SOL    HW111099   3.364   3.079   5.589
 3400SOL    HW211100   3.451   2.945   5.556
 3401SOL     OW11101   6.630   3.709   4.087
 3401SOL    HW111102   6.566   3.675   4.156
 3401SOL    HW211103   6.722   3.676   4.108
 3402SOL     OW11104   6.063   3.516   6.886
 3402SOL    HW111105   5.968   3.502   6.859
 3402SOL    HW211106   6.080   3.469   6.973
 3403SOL     OW11107   5.781   6.793   3.915
 3403SOL    HW111108   5.816   6.865   3.855
 3403SOL    HW211109   5.686   6.813   3.939
 3404SOL     OW11110   5.546   5.069   3.332
 3404SOL    HW111111   5.549   4.990   3.393
 3404SOL    HW211112   5.594   5.146   3.374
 3405SOL     OW11113   4.292   6.730   1.250
 3405SOL    HW111114   4.266   6.804   1.188
 3405SOL    HW211115   4.290   6.643   1.200
 3406SOL     OW11116   3.875   5.225   0.864
 3406SOL    HW111117   3.906   5.266   0.778
 3406SOL    HW211118   3.942   5.156   0.893
 3407SOL     OW11119   1.511   2.092   0.667
 3407SOL    HW111120   1.539   2.188   0.663
 3407SOL    HW211121   1.533   2.055   0.757
 3408SOL     OW11122   3.669   0.177   3.729
 3408SOL    HW111123   3.631   0.095   3.773
 3408SOL    HW211124   3.689   0.245   3.799
 3409SOL     OW11125   4.394   2.038   6.651
 3409SOL    HW111126   4.308   2.072   6.613
 3409SOL    HW211127   4.381   2.014   6.747
 3410SOL     OW11128   6.610   0.799   2.850
 3410SOL    HW111129   6.695   0.800   2.797
 3410SOL    HW211130   6.633   0.795   2.948
 3411SOL     OW11131   5.650   3.303   6.427
 3411SOL    HW111132   5.684   3.378   6.484
 3411SOL    HW211133   5.644   3.333   6.332
 3412SOL     OW11134   4.842   3.037   3.561
 3412SOL    HW111135   4.806   2.956   3.607
 3412SOL    HW211136   4.933   3.017   3.524
 3413SOL     OW11137   1.131   2.566   0.974
 3413SOL    HW111138   1.228   2.584   0.990
 3413SOL    HW211139   1.077   2.612   1.044
 3414SOL     OW11140   3.787   3.010   2.085
 3414SOL    HW111141   3.816   3.106   2.090
 3414SOL    HW211142   3.850   2.960   2.027
 3415SOL     OW11143   2.547   0.500   6.632
 3415SOL    HW111144   2.494   0.423   6.596
 3415SOL    HW211145   2.613   0.530   6.563
 3416SOL     OW11146   5.347   6.681   5.930
 3416SOL    HW111147   5.287   6.754   5.964
 3416SOL    HW211148   5.355   6.688   5.831
 3417SOL     OW11149   5.957   0.959   2.546
 3417SOL    HW111150   5.939   1.049   2.506
 3417SOL    HW211151   6.040   0.964   2.602
 3418SOL     OW11152   4.077   5.247   1.317
 3418SOL    HW111153   4.153   5.292   1.268
 3418SOL    HW211154   4.104   5.153   1.340
 3419SOL     OW11155   3.107   4.684   5.255
 3419SOL    HW111156   3.036   4.615   5.243
 3419SOL    HW211157   3.082   4.766   5.203
 3420SOL     OW11158   4.378   1.303   1.460
 3420SOL    HW111159   4.309   1.236   1.488
 3420SOL    HW211160   4.412   1.352   1.540
 3421SOL     OW11161   0.535   1.473   4.345
 3421SOL    HW111162   0.632   1.493   4.358
 3421SOL    HW211163   0.524   1.385   4.300
 3422SOL     OW11164   3.072   5.444   1.448
 3422SOL    HW111165   3.104   5.463   1.355
 3422SOL    HW211166   2.982   5.400   1.444
 3423SOL     OW11167   1.738   4.422   6.326
 3423SOL    HW111168   1.829   4.410   6.287
 3423SOL    HW211169   1.740   4.401   6.424
 3424SOL     OW11170   5.952   6.437   2.606
 3424SOL    HW111171   5.915   6.434   2.513
 3424SOL    HW211172   5.889   6.393   2.669
 3425SOL     OW11173   5.486   2.656   6.564
 3425SOL    HW111174   5.484   2.744   6.516
 3425SOL    HW211175   5.574   2.646   6.610
 3426SOL     OW11176   6.647   5.534   6.098
 3426SOL    HW111177   6.571   5.590   6.130
 3426SOL    HW211178   6.648   5.533   5.998
 3427SOL     OW11179   1.591   1.534   6.907
 3427SOL    HW111180   1.662   1.543   6.977
 3427SOL    HW211181   1.632   1.536   6.816
 3428SOL     OW11182   4.316   0.636   3.874
 3428SOL    HW111183   4.250   0.710   3.888
 3428SOL    HW211184   4.367   0.619   3.958
 3429SOL     OW11185   4.931   5.577   0.428
 3429SOL    HW111186   4.892   5.668   0.421
 3429SOL    HW211187   5.031   5.582   0.419
 3430SOL     OW11188   2.705   4.404   0.001
 3430SOL    HW111189   2.789   4.458   7.013
 3430SOL    HW211190   2.726   4.318   0.046
 3431SOL     OW11191   1.398   4.124   2.257
 3431SOL    HW111192   1.437   4.064   2.328
 3431SOL    HW211193   1.453   4.116   2.174
 3432SOL     OW11194   0.306   5.391   6.290
 3432SOL    HW111195   0.290   5.318   6.224
 3432SOL    HW211196   0.294   5.355   6.383
 3433SOL     OW11197   0.628   1.495   0.141
 3433SOL    HW111198   0.675   1.409   0.162
 3433SOL    HW211199   0.609   1.500   0.044
 3434SOL     OW11200   4.177   2.146   2.208
 3434SOL    HW111201   4.213   2.065   2.161
 3434SOL    HW211202   4.092   2.174   2.164
 3435SOL     OW11203   3.090   3.023   1.214
 3435SOL    HW111204   3.060   3.094   1.150
 3435SOL    HW211205   3.110   3.065   1.303
 3436SOL     OW11206   4.486   5.630   5.167
 3436SOL    HW111207   4.544   5.682   5.229
 3436SOL    HW211208   4.418   5.579   5.220
 3437SOL     OW11209   2.154   6.285   0.456
 3437SOL    HW111210   2.087   6.349   0.495
 3437SOL    HW211211   2.220   6.259   0.526
 3438SOL     OW11212   2.719   4.489   0.354
 3438SOL    HW111213   2.812   4.484   0.390
 3438SOL    HW211214   2.708   4.574   0.303
 3439SOL     OW11215   2.934   6.189   0.953
 3439SOL    HW111216   2.920   6.115   0.887
 3439SOL    HW211217   3.030   6.189   0.983
 3440SOL     OW11218   3.964   4.521   5.654
 3440SOL    HW111219   3.965   4.494   5.751
 3440SOL    HW211220   3.917   4.451   5.601
 3441SOL     OW11221   0.168   5.048   5.270
 3441SOL    HW111222   0.106   5.078   5.197
 3441SOL    HW211223   0.142   5.093   5.355
 3442SOL     OW11224   1.122   2.146   0.474
 3442SOL    HW111225   1.144   2.110   0.384
 3442SOL    HW211226   1.148   2.079   0.544
 3443SOL     OW11227   0.284   5.801   2.033
 3443SOL    HW111228   0.283   5.723   1.971
 3443SOL    HW211229   0.280   5.769   2.128
 3444SOL     OW11230   0.874   3.796   6.099
 3444SOL    HW111231   0.836   3.723   6.155
 3444SOL    HW211232   0.933   3.855   6.156
 3445SOL     OW11233   5.935   5.459   4.698
 3445SOL    HW111234   5.914   5.540   4.643
 3445SOL    HW211235   5.858   5.396   4.696
 3446SOL     OW11236   5.180   1.775   0.465
 3446SOL    HW111237   5.205   1.793   0.560
 3446SOL    HW211238   5.217   1.848   0.407
 3447SOL     OW11239   4.995   1.849   5.794
 3447SOL    HW111240   4.927   1.787   5.755
 3447SOL    HW211241   5.086   1.814   5.776
 3448SOL     OW11242   1.041   5.537   4.871
 3448SOL    HW111243   1.114   5.472   4.891
 3448SOL    HW211244   0.976   5.538   4.947
 3449SOL     OW11245   1.599   3.982   4.749
 3449SOL    HW111246   1.541   4.063   4.754
 3449SOL    HW211247   1.694   4.007   4.765
 3450SOL     OW11248   2.013   0.110   2.787
 3450SOL    HW111249   2.098   0.073   2.823
 3450SOL    HW211250   2.019   0.210   2.783
 3451SOL     OW11251   2.187   1.804   0.781
 3451SOL    HW111252   2.182   1.780   0.878
 3451SOL    HW211253   2.195   1.721   0.726
 3452SOL     OW11254   4.546   0.842   5.575
 3452SOL    HW111255   4.507   0.926   5.536
 3452SOL    HW211256   4.485   0.807   5.647
 3453SOL     OW11257   4.447   6.366   5.099
 3453SOL    HW111258   4.457   6.335   5.193
 3453SOL    HW211259   4.534   6.401   5.066
 3454SOL     OW11260   1.104   3.080   3.655
 3454SOL    HW111261   1.135   3.158   3.709
 3454SOL    HW211262   1.096   3.000   3.715
 3455SOL     OW11263   1.459   3.799   6.302
 3455SOL    HW111264   1.438   3.714   6.253
 3455SOL    HW211265   1.536   3.844   6.258
 3456SOL     OW11266   4.638   5.234   2.414
 3456SOL    HW111267   4.588   5.221   2.500
 3456SOL    HW211268   4.611   5.321   2.373
 3457SOL     OW11269   3.593   3.843   0.368
 3457SOL    HW111270   3.688   3.853   0.399
 3457SOL    HW211271   3.591   3.785   0.286
 3458SOL     OW11272   4.122   1.572   1.082
 3458SOL    HW111273   4.212   1.532   1.098
 3458SOL    HW211274   4.132   1.657   1.030
 3459SOL     OW11275   6.564   0.510   3.015
 3459SOL    HW111276   6.637   0.443   3.023
 3459SOL    HW211277   6.495   0.477   2.951
 3460SOL     OW11278   4.808   1.486   5.352
 3460SOL    HW111279   4.763   1.476   5.263
 3460SOL    HW211280   4.847   1.399   5.379
 3461SOL     OW11281   4.086   4.754   3.589
 3461SOL    HW111282   4.148   4.684   3.554
 3461SOL    HW211283   4.134   4.809   3.658
 3462SOL     OW11284   1.038   4.529   6.768
 3462SOL    HW111285   1.072   4.435   6.764
 3462SOL    HW211286   1.024   4.563   6.675
 3463SOL     OW11287   6.096   4.161   6.861
 3463SOL    HW111288   6.163   4.153   6.934
 3463SOL    HW211289   6.037   4.079   6.860
 3464SOL     OW11290   6.464   5.040   4.000
 3464SOL    HW111291   6.548   5.082   3.966
 3464SOL    HW211292   6.484   4.986   4.081
 3465SOL     OW11293   0.909   2.609   1.916
 3465SOL    HW111294   0.980   2.613   1.845
 3465SOL    HW211295   0.826   2.653   1.882
 3466SOL     OW11296   5.593   3.723   3.457
 3466SOL    HW111297   5.672   3.757   3.509
 3466SOL    HW211298   5.625   3.679   3.373
 3467SOL     OW11299   2.021   1.554   5.883
 3467SOL    HW111300   2.095   1.504   5.837
 3467SOL    HW211301   1.968   1.491   5.939
 3468SOL     OW11302   5.217   5.011   1.639
 3468SOL    HW111303   5.147   5.077   1.611
 3468SOL    HW211304   5.250   5.034   1.730
 3469SOL     OW11305   5.751   3.653   0.081
 3469SOL    HW111306   5.696   3.636   7.021
 3469SOL    HW211307   5.693   3.693   0.153
 3470SOL     OW11308   6.443   5.942   6.785
 3470SOL    HW111309   6.498   5.875   6.736
 3470SOL    HW211310   6.502   6.017   6.816
 3471SOL     OW11311   4.419   6.582   4.676
 3471SOL    HW111312   4.327   6.594   4.714
 3471SOL    HW211313   4.447   6.665   4.630
 3472SOL     OW11314   3.797   0.947   4.562
 3472SOL    HW111315   3.703   0.958   4.531
 3472SOL    HW211316   3.817   0.850   4.576
 3473SOL     OW11317   4.539   6.956   4.108
 3473SOL    HW111318   4.509   6.877   4.055
 3473SOL    HW211319   4.462   6.990   4.162
 3474SOL     OW11320   5.021   4.760   0.274
 3474SOL    HW111321   4.978   4.704   0.203
 3474SOL    HW211322   5.118   4.770   0.253
 3475SOL     OW11323   1.643   5.477   5.521
 3475SOL    HW111324   1.685   5.402   5.573
 3475SOL    HW211325   1.547   5.456   5.504
 3476SOL     OW11326   3.298   1.791   3.677
 3476SOL    HW111327   3.247   1.811   3.593
 3476SOL    HW211328   3.389   1.756   3.654
 3477SOL     OW11329   4.433   5.372   2.913
 3477SOL    HW111330   4.338   5.352   2.936
 3477SOL    HW211331   4.461   5.316   2.835
 3478SOL     OW11332   3.669   4.508   0.302
 3478SOL    HW111333   3.733   4.442   0.341
 3478SOL    HW211334   3.614   4.464   0.232
 3479SOL     OW11335   1.904   0.342   0.082
 3479SOL    HW111336   1.806   0.324   0.083
 3479SOL    HW211337   1.954   0.256   0.087
 3480SOL     OW11338   1.325   6.450   4.313
 3480SOL    HW111339   1.247   6.431   4.372
 3480SOL    HW211340   1.361   6.541   4.333
 3481SOL     OW11341   2.310   4.870   0.154
 3481SOL    HW111342   2.273   4.934   0.222
 3481SOL    HW211343   2.332   4.919   0.070
 3482SOL     OW11344   0.445   2.025   1.894
 3482SOL    HW111345   0.463   2.085   1.972
 3482SOL    HW211346   0.350   1.996   1.894
 3483SOL     OW11347   3.935   1.397   1.294
 3483SOL    HW111348   3.855   1.392   1.234
 3483SOL    HW211349   3.974   1.489   1.290
 3484SOL     OW11350   3.380   3.932   3.530
 3484SOL    HW111351   3.308   3.936   3.600
 3484SOL    HW211352   3.455   3.992   3.556
 3485SOL     OW11353   5.766   2.128   4.050
 3485SOL    HW111354   5.690   2.088   4.102
 3485SOL    HW211355   5.753   2.227   4.043
 3486SOL     OW11356   6.156   1.488   3.127
 3486SOL    HW111357   6.153   1.523   3.034
 3486SOL    HW211358   6.132   1.562   3.191
 3487SOL     OW11359   1.707   6.931   0.925
 3487SOL    HW111360   1.653   6.916   1.008
 3487SOL    HW211361   1.668   7.009   0.875
 3488SOL     OW11362   6.380   3.570   5.366
 3488SOL    HW111363   6.414   3.650   5.415
 3488SOL    HW211364   6.424   3.564   5.276
 3489SOL     OW11365   2.849   5.616   6.659
 3489SOL    HW111366   2.859   5.536   6.719
 3489SOL    HW211367   2.848   5.699   6.715
 3490SOL     OW11368   5.172   3.539   0.329
 3490SOL    HW111369   5.249   3.592   0.363
 3490SOL    HW211370   5.118   3.505   0.407
 3491SOL     OW11371   5.729   2.546   4.849
 3491SOL    HW111372   5.665   2.487   4.799
 3491SOL    HW211373   5.815   2.550   4.800
 3492SOL     OW11374   0.210   4.667   6.415
 3492SOL    HW111375   0.123   4.682   6.368
 3492SOL    HW211376   0.269   4.747   6.404
 3493SOL     OW11377   6.463   4.691   1.149
 3493SOL    HW111378   6.405   4.615   1.177
 3493SOL    HW211379   6.555   4.679   1.188
 3494SOL     OW11380   3.631   0.227   1.120
 3494SOL    HW111381   3.625   0.225   1.220
 3494SOL    HW211382   3.724   0.207   1.091
 3495SOL     OW11383   6.275   4.467   6.424
 3495SOL    HW111384   6.247   4.426   6.338
 3495SOL    HW211385   6.211   4.440   6.496
 3496SOL     OW11386   0.521   5.746   1.248
 3496SOL    HW111387   0.432   5.700   1.256
 3496SOL    HW211388   0.528   5.790   1.159
 3497SOL     OW11389   2.816   0.200   5.045
 3497SOL    HW111390   2.829   0.154   4.958
 3497SOL    HW211391   2.823   0.133   5.119
 3498SOL     OW11392   0.814   1.930   0.418
 3498SOL    HW111393   0.879   1.858   0.391
 3498SOL    HW211394   0.854   2.019   0.397
 3499SOL     OW11395   6.441   3.943   3.076
 3499SOL    HW111396   6.459   3.958   3.173
 3499SOL    HW211397   6.451   3.846   3.055
 3500SOL     OW11398   6.588   3.009   0.966
 3500SOL    HW111399   6.683   2.978   0.962
 3500SOL    HW211400   6.546   3.000   0.876
 3501SOL     OW11401   6.951   5.160   3.489
 3501SOL    HW111402   6.909   5.251   3.498
 3501SOL    HW211403   0.011   5.166   3.432
 3502SOL     OW11404   0.764   6.229   1.155
 3502SOL    HW111405   0.801   6.166   1.224
 3502SOL    HW211406   0.839   6.267   1.101
 3503SOL     OW11407   3.028   0.447   3.661
 3503SOL    HW111408   2.939   0.452   3.705
 3503SOL    HW211409   3.042   0.528   3.603
 3504SOL     OW11410   2.181   3.106   2.798
 3504SOL    HW111411   2.228   3.032   2.847
 3504SOL    HW211412   2.199   3.097   2.700
 3505SOL     OW11413   4.290   6.386   4.447
 3505SOL    HW111414   4.348   6.412   4.524
 3505SOL    HW211415   4.216   6.326   4.478
 3506SOL     OW11416   6.641   4.109   2.735
 3506SOL    HW111417   6.556   4.103   2.682
 3506SOL    HW211418   6.701   4.178   2.694
 3507SOL     OW11419   6.846   0.267   5.341
 3507SOL    HW111420   6.808   0.356   5.365
 3507SOL    HW211421   6.935   0.279   5.297
 3508SOL     OW11422   0.083   4.465   0.253
 3508SOL    HW111423   0.135   4.419   0.325
 3508SOL    HW211424   0.109   4.562   0.249
 3509SOL     OW11425   4.811   0.053   6.621
 3509SOL    HW111426   4.874   0.119   6.580
 3509SOL    HW211427   4.718   0.089   6.617
 3510SOL     OW11428   1.885   1.051   2.344
 3510SOL    HW111429   1.862   1.146   2.365
 3510SOL    HW211430   1.817   1.013   2.282
 3511SOL     OW11431   0.746   0.905   4.393
 3511SOL    HW111432   0.734   1.004   4.400
 3511SOL    HW211433   0.836   0.886   4.353
 3512SOL     OW11434   3.605   3.368   1.791
 3512SOL    HW111435   3.705   3.359   1.787
 3512SOL    HW211436   3.581   3.456   1.832
 3513SOL     OW11437   6.329   4.461   1.191
 3513SOL    HW111438   6.267   4.406   1.135
 3513SOL    HW211439   6.291   4.470   1.283
 3514SOL     OW11440   3.234   6.016   3.270
 3514SOL    HW111441   3.146   6.061   3.255
 3514SOL    HW211442   3.237   5.930   3.218
 3515SOL     OW11443   4.032   5.580   3.763
 3515SOL    HW111444   3.952   5.615   3.714
 3515SOL    HW211445   4.004   5.505   3.823
 3516SOL     OW11446   0.990   1.443   0.331
 3516SOL    HW111447   0.964   1.525   0.382
 3516SOL    HW211448   1.084   1.418   0.354
 3517SOL     OW11449   0.495   0.495   6.943
 3517SOL    HW111450   0.426   0.476   6.873
 3517SOL    HW211451   0.578   0.444   6.922
 3518SOL     OW11452   4.267   3.767   6.285
 3518SOL    HW111453   4.305   3.838   6.344
 3518SOL    HW211454   4.297   3.677   6.317
 3519SOL     OW11455   4.220   0.304   0.334
 3519SOL    HW111456   4.268   0.389   0.315
 3519SOL    HW211457   4.283   0.227   0.325
 3520SOL     OW11458   3.767   4.870   1.479
 3520SOL    HW111459   3.708   4.894   1.401
 3520SOL    HW211460   3.855   4.916   1.469
 3521SOL     OW11461   0.259   2.092   5.443
 3521SOL    HW111462   0.180   2.149   5.468
 3521SOL    HW211463   0.342   2.133   5.480
 3522SOL     OW11464   2.195   0.204   0.875
 3522SOL    HW111465   2.220   0.258   0.794
 3522SOL    HW211466   2.255   0.124   0.882
 3523SOL     OW11467   2.121   4.068   5.202
 3523SOL    HW111468   2.124   4.155   5.251
 3523SOL    HW211469   2.198   4.064   5.138
 3524SOL     OW11470   2.793   1.947   3.625
 3524SOL    HW111471   2.823   2.041   3.613
 3524SOL    HW211472   2.862   1.885   3.587
 3525SOL     OW11473   1.440   2.803   3.510
 3525SOL    HW111474   1.470   2.860   3.434
 3525SOL    HW211475   1.429   2.859   3.592
 3526SOL     OW11476   3.492   5.954   3.611
 3526SOL    HW111477   3.576   5.904   3.590
 3526SOL    HW211478   3.474   6.021   3.539
 3527SOL     OW11479   6.798   4.119   6.207
 3527SOL    HW111480   6.829   4.196   6.151
 3527SOL    HW211481   6.772   4.153   6.298
 3528SOL     OW11482   0.949   6.690   4.121
 3528SOL    HW111483   0.862   6.738   4.107
 3528SOL    HW211484   1.001   6.736   4.193
 3529SOL     OW11485   3.308   5.618   0.677
 3529SOL    HW111486   3.355   5.690   0.625
 3529SOL    HW211487   3.341   5.529   0.647
 3530SOL     OW11488   2.193   5.676   2.978
 3530SOL    HW111489   2.206   5.671   3.077
 3530SOL    HW211490   2.277   5.650   2.931
 3531SOL     OW11491   5.120   4.910   6.727
 3531SOL    HW111492   5.220   4.910   6.720
 3531SOL    HW211493   5.082   4.978   6.665
 3532SOL     OW11494   2.136   6.531   6.948
 3532SOL    HW111495   2.208   6.462   6.954
 3532SOL    HW211496   2.064   6.510   7.014
 3533SOL     OW11497   1.159   1.079   3.263
 3533SOL    HW111498   1.140   1.110   3.356
 3533SOL    HW211499   1.206   1.151   3.212
 3534SOL     OW11500   5.146   6.984   4.106
 3534SOL    HW111501   5.077   7.019   4.043
 3534SOL    HW211502   5.160   6.886   4.090
 3535SOL     OW11503   4.573   5.082   0.079
 3535SOL    HW111504   4.669   5.057   0.093
 3535SOL    HW211505   4.521   5.058   0.161
 3536SOL     OW11506   1.957   3.160   2.307
 3536SOL    HW111507   1.997   3.230   2.248
 3536SOL    HW211508   1.890   3.107   2.256
 3537SOL     OW11509   3.339   4.888   2.233
 3537SOL    HW111510   3.242   4.909   2.223
 3537SOL    HW211511   3.374   4.929   2.317
 3538SOL     OW11512   3.207   0.148   3.237
 3538SOL    HW111513   3.249   0.236   3.217
 3538SOL    HW211514   3.118   0.143   3.190
 3539SOL     OW11515   5.196   5.531   5.476
 3539SOL    HW111516   5.193   5.465   5.551
 3539SOL    HW211517   5.138   5.499   5.401
 3540SOL     OW11518   4.344   4.126   6.688
 3540SOL    HW111519   4.371   4.216   6.720
 3540SOL    HW211520   4.244   4.119   6.689
 3541SOL     OW11521   0.652   3.022   2.449
 3541SOL    HW111522   0.583   3.067   2.504
 3541SOL    HW211523   0.718   3.090   2.415
 3542SOL     OW11524   5.763   1.663   7.000
 3542SOL    HW111525   5.785   1.698   0.069
 3542SOL    HW211526   5.730   1.738   6.943
 3543SOL     OW11527   0.244   3.077   4.571
 3543SOL    HW111528   0.340   3.050   4.574
 3543SOL    HW211529   0.229   3.137   4.493
 3544SOL     OW11530   3.250   4.739   5.741
 3544SOL    HW111531   3.295   4.664   5.788
 3544SOL    HW211532   3.191   4.702   5.669
 3545SOL     OW11533   2.682   6.923   0.903
 3545SOL    HW111534   2.734   6.854   0.852
 3545SOL    HW211535   2.652   6.883   0.990
 3546SOL     OW11536   0.151   4.804   0.724
 3546SOL    HW111537   0.206   4.857   0.789
 3546SOL    HW211538   0.212   4.745   0.671
 3547SOL     OW11539   1.787   3.991   4.299
 3547SOL    HW111540   1.823   3.991   4.392
 3547SOL    HW211541   1.814   3.907   4.252
 3548SOL     OW11542   6.523   0.015   5.466
 3548SOL    HW111543   6.445   0.035   5.525
 3548SOL    HW211544   6.587   6.977   5.514
 3549SOL     OW11545   1.865   0.048   6.528
 3549SOL    HW111546   1.810   0.042   6.445
 3549SOL    HW211547   1.950   7.019   6.516
 3550SOL     OW11548   6.226   2.163   5.207
 3550SOL    HW111549   6.296   2.182   5.275
 3550SOL    HW211550   6.135   2.177   5.247
 3551SOL     OW11551   6.524   1.043   4.928
 3551SOL    HW111552   6.587   0.975   4.966
 3551SOL    HW211553   6.565   1.134   4.934
 3552SOL     OW11554   6.219   1.251   3.548
 3552SOL    HW111555   6.252   1.336   3.587
 3552SOL    HW211556   6.230   1.177   3.615
 3553SOL     OW11557   5.482   6.349   6.201
 3553SOL    HW111558   5.502   6.384   6.110
 3553SOL    HW211559   5.478   6.249   6.199
 3554SOL     OW11560   5.562   3.839   6.508
 3554SOL    HW111561   5.484   3.784   6.536
 3554SOL    HW211562   5.641   3.816   6.565
 3555SOL     OW11563   3.240   1.316   5.564
 3555SOL    HW111564   3.203   1.383   5.629
 3555SOL    HW211565   3.204   1.334   5.473
 3556SOL     OW11566   5.602   1.441   1.100
 3556SOL    HW111567   5.508   1.422   1.126
 3556SOL    HW211568   5.651   1.355   1.084
 3557SOL     OW11569   4.775   6.970   1.176
 3557SOL    HW111570   4.712   6.905   1.134
 3557SOL    HW211571   4.784   6.950   1.273
 3558SOL     OW11572   3.806   5.638   2.560
 3558SOL    HW111573   3.751   5.563   2.522
 3558SOL    HW211574   3.893   5.601   2.592
 3559SOL     OW11575   4.021   6.257   6.354
 3559SOL    HW111576   4.079   6.212   6.422
 3559SOL    HW211577   3.929   6.270   6.392
 3560SOL     OW11578   2.232   5.986   4.588
 3560SOL    HW111579   2.136   6.000   4.613
 3560SOL    HW211580   2.269   5.909   4.640
 3561SOL     OW11581   3.707   2.557   5.798
 3561SOL    HW111582   3.690   2.582   5.893
 3561SOL    HW211583   3.781   2.490   5.794
 3562SOL     OW11584   2.970   0.862   0.245
 3562SOL    HW111585   2.958   0.770   0.281
 3562SOL    HW211586   2.934   0.867   0.152
 3563SOL     OW11587   6.955   2.329   6.763
 3563SOL    HW111588   6.976   2.243   6.715
 3563SOL    HW211589   7.016   2.401   6.730
 3564SOL     OW11590   5.994   3.003   3.116
 3564SOL    HW111591   5.940   3.085   3.134
 3564SOL    HW211592   5.933   2.923   3.113
 3565SOL     OW11593   5.228   6.929   4.772
 3565SOL    HW111594   5.260   7.006   4.827
 3565SOL    HW211595   5.129   6.933   4.763
 3566SOL     OW11596   0.563   1.031   4.857
 3566SOL    HW111597   0.495   0.966   4.888
 3566SOL    HW211598   0.553   1.046   4.759
 3567SOL     OW11599   0.457   4.406   6.658
 3567SOL    HW111600   0.384   4.389   6.724
 3567SOL    HW211601   0.524   4.469   6.697
 3568SOL     OW11602   3.126   4.311   5.793
 3568SOL    HW111603   3.149   4.243   5.724
 3568SOL    HW211604   3.027   4.313   5.806
 3569SOL     OW11605   0.753   0.404   2.972
 3569SOL    HW111606   0.821   0.387   2.901
 3569SOL    HW211607   0.755   0.501   2.997
 3570SOL     OW11608   0.447   2.253   4.766
 3570SOL    HW111609   0.540   2.270   4.797
 3570SOL    HW211610   0.448   2.201   4.681
 3571SOL     OW11611   6.647   5.246   5.015
 3571SOL    HW111612   6.713   5.207   4.952
 3571SOL    HW211613   6.564   5.190   5.016
 3572SOL     OW11614   5.738   6.168   5.497
 3572SOL    HW111615   5.762   6.171   5.594
 3572SOL    HW211616   5.733   6.262   5.461
 3573SOL     OW11617   0.563   2.890   2.210
 3573SOL    HW111618   0.567   2.926   2.303
 3573SOL    HW211619   0.562   2.790   2.213
 3574SOL     OW11620   6.861   3.828   0.373
 3574SOL    HW111621   6.892   3.737   0.344
 3574SOL    HW211622   6.867   3.892   0.296
 3575SOL     OW11623   6.123   0.326   2.918
 3575SOL    HW111624   6.055   0.397   2.934
 3575SOL    HW211625   6.119   0.258   2.992
 3576SOL     OW11626   0.575   1.216   0.505
 3576SOL    HW111627   0.508   1.153   0.544
 3576SOL    HW211628   0.640   1.244   0.576
 3577SOL     OW11629   2.522   4.843   0.377
 3577SOL    HW111630   2.487   4.784   0.304
 3577SOL    HW211631   2.448   4.864   0.442
 3578SOL     OW11632   3.330   4.664   1.660
 3578SOL    HW111633   3.402   4.625   1.717
 3578SOL    HW211634   3.328   4.763   1.671
 3579SOL     OW11635   2.368   3.067   6.563
 3579SOL    HW111636   2.280   3.048   6.606
 3579SOL    HW211637   2.374   3.164   6.541
 3580SOL     OW11638   6.202   1.705   1.655
 3580SOL    HW111639   6.288   1.741   1.693
 3580SOL    HW211640   6.129   1.771   1.670
 3581SOL     OW11641   6.890   1.069   2.928
 3581SOL    HW111642   6.821   1.002   2.955
 3581SOL    HW211643   6.914   1.056   2.832
 3582SOL     OW11644   0.586   0.672   5.732
 3582SOL    HW111645   0.601   0.719   5.645
 3582SOL    HW211646   0.668   0.619   5.756
 3583SOL     OW11647   1.579   6.603   1.632
 3583SOL    HW111648   1.521   6.566   1.559
 3583SOL    HW211649   1.666   6.632   1.594
 3584SOL     OW11650   5.154   0.536   4.312
 3584SOL    HW111651   5.084   0.510   4.379
 3584SOL    HW211652   5.244   0.512   4.347
 3585SOL     OW11653   2.547   4.800   3.954
 3585SOL    HW111654   2.575   4.851   4.035
 3585SOL    HW211655   2.461   4.836   3.919
 3586SOL     OW11656   1.087   1.174   6.935
 3586SOL    HW111657   1.083   1.083   6.893
 3586SOL    HW211658   1.105   1.164   0.011
 3587SOL     OW11659   3.819   6.808   5.831
 3587SOL    HW111660   3.767   6.871   5.774
 3587SOL    HW211661   3.867   6.742   5.773
 3588SOL     OW11662   2.938   2.618   5.759
 3588SOL    HW111663   2.917   2.715   5.745
 3588SOL    HW211664   2.887   2.563   5.693
 3589SOL     OW11665   3.076   6.619   4.786
 3589SOL    HW111666   3.091   6.674   4.868
 3589SOL    HW211667   3.071   6.522   4.811
 3590SOL     OW11668   0.933   5.500   6.866
 3590SOL    HW111669   0.957   5.406   6.891
 3590SOL    HW211670   0.948   5.513   6.768
 3591SOL     OW11671   5.357   1.242   5.331
 3591SOL    HW111672   5.361   1.309   5.257
 3591SOL    HW211673   5.321   1.156   5.296
 3592SOL     OW11674   5.766   1.538   1.909
 3592SOL    HW111675   5.702   1.499   1.974
 3592SOL    HW211676   5.849   1.567   1.957
 3593SOL     OW11677   0.936   5.378   4.145
 3593SOL    HW111678   0.883   5.332   4.216
 3593SOL    HW211679   0.882   5.451   4.104
 3594SOL     OW11680   4.100   1.467   4.169
 3594SOL    HW111681   4.082   1.370   4.186
 3594SOL    HW211682   4.195   1.479   4.142
 3595SOL     OW11683   2.411   6.078   6.083
 3595SOL    HW111684   2.474   6.043   6.153
 3595SOL    HW211685   2.362   6.157   6.120
 3596SOL     OW11686   6.569   3.484   2.658
 3596SOL    HW111687   6.561   3.581   2.635
 3596SOL    HW211688   6.491   3.455   2.713
 3597SOL     OW11689   4.000   0.649   3.985
 3597SOL    HW111690   3.981   0.566   4.039
 3597SOL    HW211691   4.043   0.623   3.899
 3598SOL     OW11692   2.422   0.419   0.380
 3598SOL    HW111693   2.470   0.339   0.344
 3598SOL    HW211694   2.415   0.489   0.308
 3599SOL     OW11695   0.176   2.189   4.422
 3599SOL    HW111696   0.211   2.129   4.494
 3599SOL    HW211697   0.109   2.139   4.367
 3600SOL     OW11698   6.295   6.550   1.659
 3600SOL    HW111699   6.367   6.494   1.619
 3600SOL    HW211700   6.206   6.510   1.638
 3601SOL     OW11701   6.929   3.403   5.686
 3601SOL    HW111702   6.988   3.457   5.747
 3601SOL    HW211703   6.954   3.307   5.692
 3602SOL     OW11704   3.291   2.514   1.397
 3602SOL    HW111705   3.295   2.528   1.496
 3602SOL    HW211706   3.332   2.425   1.375
 3603SOL     OW11707   4.146   5.203   4.399
 3603SOL    HW111708   4.135   5.156   4.311
 3603SOL    HW211709   4.072   5.174   4.461
 3604SOL     OW11710   6.267   4.251   2.743
 3604SOL    HW111711   6.234   4.257   2.837
 3604SOL    HW211712   6.331   4.325   2.725
 3605SOL     OW11713   5.773   1.587   6.415
 3605SOL    HW111714   5.822   1.641   6.483
 3605SOL    HW211715   5.801   1.491   6.422
 3606SOL     OW11716   2.283   4.119   3.049
 3606SOL    HW111717   2.250   4.029   3.022
 3606SOL    HW211718   2.325   4.114   3.140
 3607SOL     OW11719   4.230   6.844   5.633
 3607SOL    HW111720   4.194   6.861   5.541
 3607SOL    HW211721   4.319   6.888   5.642
 3608SOL     OW11722   0.103   2.972   3.219
 3608SOL    HW111723   0.170   2.907   3.256
 3608SOL    HW211724   0.145   3.024   3.144
 3609SOL     OW11725   6.716   0.769   3.639
 3609SOL    HW111726   6.786   0.832   3.673
 3609SOL    HW211727   6.641   0.822   3.598
 3610SOL     OW11728   1.408   4.813   5.668
 3610SOL    HW111729   1.375   4.870   5.593
 3610SOL    HW211730   1.442   4.726   5.632
 3611SOL     OW11731   5.174   5.004   5.553
 3611SOL    HW111732   5.242   5.077   5.547
 3611SOL    HW211733   5.189   4.951   5.637
 3612SOL     OW11734   1.747   6.070   1.150
 3612SOL    HW111735   1.778   6.077   1.055
 3612SOL    HW211736   1.757   5.976   1.181
 3613SOL     OW11737   5.449   4.788   6.170
 3613SOL    HW111738   5.535   4.744   6.144
 3613SOL    HW211739   5.374   4.749   6.116
 3614SOL     OW11740   3.233   3.435   4.514
 3614SOL    HW111741   3.195   3.371   4.580
 3614SOL    HW211742   3.281   3.509   4.562
 3615SOL     OW11743   5.522   6.852   6.089
 3615SOL    HW111744   5.517   6.855   6.189
 3615SOL    HW211745   5.462   6.780   6.055
 3616SOL     OW11746   6.448   1.170   4.566
 3616SOL    HW111747   6.541   1.208   4.566
 3616SOL    HW211748   6.384   1.238   4.602
 3617SOL     OW11749   0.222   0.541   0.595
 3617SOL    HW111750   0.274   0.592   0.664
 3617SOL    HW211751   0.262   0.558   0.504
 3618SOL     OW11752   3.620   5.622   6.380
 3618SOL    HW111753   3.560   5.571   6.319
 3618SOL    HW211754   3.584   5.714   6.392
 3619SOL     OW11755   5.032   3.502   3.714
 3619SOL    HW111756   4.978   3.577   3.753
 3619SOL    HW211757   5.098   3.469   3.782
 3620SOL     OW11758   6.132   1.818   5.004
 3620SOL    HW111759   6.105   1.884   5.074
 3620SOL    HW211760   6.209   1.764   5.037
 3621SOL     OW11761   1.494   2.420   6.086
 3621SOL    HW111762   1.558   2.490   6.119
 3621SOL    HW211763   1.459   2.368   6.164
 3622SOL     OW11764   0.963   4.015   0.838
 3622SOL    HW111765   0.944   4.018   0.739
 3622SOL    HW211766   1.055   3.980   0.853
 3623SOL     OW11767   6.298   4.765   4.754
 3623SOL    HW111768   6.206   4.752   4.718
 3623SOL    HW211769   6.360   4.698   4.713
 3624SOL     OW11770   1.740   0.449   1.670
 3624SOL    HW111771   1.759   0.419   1.576
 3624SOL    HW211772   1.823   0.488   1.710
 3625SOL     OW11773   1.584   2.426   4.725
 3625SOL    HW111774   1.532   2.469   4.652
 3625SOL    HW211775   1.674   2.470   4.733
 3626SOL     OW11776   2.120   3.578   5.579
 3626SOL    HW111777   2.194   3.634   5.617
 3626SOL    HW211778   2.159   3.505   5.523
 3627SOL     OW11779   3.340   3.196   4.406
 3627SOL    HW111780   3.299   3.263   4.469
 3627SOL    HW211781   3.437   3.216   4.395
 3628SOL     OW11782   2.539   6.003   4.076
 3628SOL    HW111783   2.593   6.011   4.160
 3628SOL    HW211784   2.590   5.950   4.009
 3629SOL     OW11785   5.759   3.322   4.517
 3629SOL    HW111786   5.782   3.407   4.565
 3629SOL    HW211787   5.842   3.273   4.494
 3630SOL     OW11788   6.006   1.869   5.293
 3630SOL    HW111789   5.937   1.802   5.265
 3630SOL    HW211790   5.986   1.957   5.251
 3631SOL     OW11791   2.091   0.769   4.110
 3631SOL    HW111792   2.077   0.694   4.045
 3631SOL    HW211793   2.091   0.733   4.203
 3632SOL     OW11794   4.872   6.797   6.220
 3632SOL    HW111795   4.858   6.766   6.126
 3632SOL    HW211796   4.946   6.744   6.261
 3633SOL     OW11797   0.937   2.645   5.715
 3633SOL    HW111798   0.916   2.548   5.727
 3633SOL    HW211799   0.852   2.697   5.702
 3634SOL     OW11800   2.829   5.146   5.821
 3634SOL    HW111801   2.809   5.141   5.723
 3634SOL    HW211802   2.927   5.164   5.834
 3635SOL     OW11803   2.326   1.699   4.453
 3635SOL    HW111804   2.343   1.731   4.360
 3635SOL    HW211805   2.410   1.659   4.491
 3636SOL     OW11806   0.992   6.382   1.507
 3636SOL    HW111807   0.935   6.464   1.501
 3636SOL    HW211808   0.955   6.321   1.577
 3637SOL     OW11809   4.968   1.126   2.215
 3637SOL    HW111810   4.977   1.224   2.231
 3637SOL    HW211811   4.910   1.086   2.286
 3638SOL     OW11812   6.647   5.019   3.616
 3638SOL    HW111813   6.580   4.945   3.608
 3638SOL    HW211814   6.628   5.089   3.547
 3639SOL     OW11815   2.762   6.433   6.752
 3639SOL    HW111816   2.736   6.352   6.700
 3639SOL    HW211817   2.689   6.501   6.748
 3640SOL     OW11818   2.280   6.656   1.942
 3640SOL    HW111819   2.198   6.659   1.886
 3640SOL    HW211820   2.269   6.716   2.021
 3641SOL     OW11821   1.758   1.198   5.198
 3641SOL    HW111822   1.691   1.259   5.241
 3641SOL    HW211823   1.817   1.160   5.269
 3642SOL     OW11824   6.296   6.821   2.304
 3642SOL    HW111825   6.354   6.842   2.383
 3642SOL    HW211826   6.231   6.896   2.290
 3643SOL     OW11827   4.061   6.550   4.511
 3643SOL    HW111828   4.089   6.589   4.599
 3643SOL    HW211829   4.045   6.624   4.446
 3644SOL     OW11830   6.243   0.114   1.843
 3644SOL    HW111831   6.184   0.075   1.913
 3644SOL    HW211832   6.241   0.214   1.849
 3645SOL     OW11833   4.219   6.360   3.650
 3645SOL    HW111834   4.205   6.272   3.694
 3645SOL    HW211835   4.165   6.366   3.566
 3646SOL     OW11836   0.563   5.065   4.636
 3646SOL    HW111837   0.585   5.159   4.611
 3646SOL    HW211838   0.493   5.030   4.574
 3647SOL     OW11839   2.975   3.174   0.951
 3647SOL    HW111840   2.907   3.237   0.913
 3647SOL    HW211841   2.950   3.080   0.929
 3648SOL     OW11842   2.802   6.607   3.148
 3648SOL    HW111843   2.761   6.559   3.226
 3648SOL    HW211844   2.735   6.613   3.074
 3649SOL     OW11845   3.117   2.980   2.220
 3649SOL    HW111846   3.078   2.900   2.175
 3649SOL    HW211847   3.048   3.024   2.277
 3650SOL     OW11848   5.940   6.293   1.201
 3650SOL    HW111849   5.895   6.382   1.199
 3650SOL    HW211850   5.919   6.243   1.117
 3651SOL     OW11851   1.929   5.986   2.255
 3651SOL    HW111852   1.935   6.086   2.259
 3651SOL    HW211853   1.980   5.946   2.331
 3652SOL     OW11854   4.241   6.123   3.278
 3652SOL    HW111855   4.204   6.183   3.349
 3652SOL    HW211856   4.165   6.085   3.224
 3653SOL     OW11857   6.734   3.049   3.851
 3653SOL    HW111858   6.801   3.005   3.910
 3653SOL    HW211859   6.745   3.148   3.855
 3654SOL     OW11860   2.229   6.833   2.146
 3654SOL    HW111861   2.131   6.845   2.161
 3654SOL    HW211862   2.264   6.764   2.209
 3655SOL     OW11863   6.449   1.110   3.956
 3655SOL    HW111864   6.478   1.025   4.000
 3655SOL    HW211865   6.525   1.147   3.901
 3656SOL     OW11866   2.422   2.087   3.064
 3656SOL    HW111867   2.328   2.068   3.092
 3656SOL    HW211868   2.467   2.144   3.132
 3657SOL     OW11869   5.050   5.514   1.622
 3657SOL    HW111870   4.969   5.551   1.577
 3657SOL    HW211871   5.025   5.483   1.714
 3658SOL     OW11872   2.623   4.726   5.633
 3658SOL    HW111873   2.542   4.685   5.676
 3658SOL    HW211874   2.594   4.787   5.559
 3659SOL     OW11875   1.310   4.046   6.745
 3659SOL    HW111876   1.358   4.059   6.658
 3659SOL    HW211877   1.212   4.059   6.731
 3660SOL     OW11878   4.418   4.147   0.851
 3660SOL    HW111879   4.380   4.098   0.929
 3660SOL    HW211880   4.460   4.232   0.882
 3661SOL     OW11881   5.720   1.379   1.678
 3661SOL    HW111882   5.769   1.292   1.685
 3661SOL    HW211883   5.728   1.428   1.765
 3662SOL     OW11884   0.982   6.211   4.145
 3662SOL    HW111885   1.029   6.294   4.115
 3662SOL    HW211886   0.885   6.217   4.122
 3663SOL     OW11887   1.902   2.921   6.228
 3663SOL    HW111888   1.964   2.856   6.272
 3663SOL    HW211889   1.918   2.921   6.129
 3664SOL     OW11890   3.578   0.272   2.230
 3664SOL    HW111891   3.641   0.290   2.154
 3664SOL    HW211892   3.512   0.347   2.237
 3665SOL     OW11893   2.270   1.126   5.167
 3665SOL    HW111894   2.256   1.203   5.104
 3665SOL    HW211895   2.216   1.048   5.136
 3666SOL     OW11896   0.667   4.375   3.420
 3666SOL    HW111897   0.698   4.355   3.513
 3666SOL    HW211898   0.746   4.393   3.361
 3667SOL     OW11899   0.337   1.363   0.009
 3667SOL    HW111900   0.437   1.358   0.017
 3667SOL    HW211901   0.310   1.457   7.011
 3668SOL     OW11902   2.202   6.266   1.942
 3668SOL    HW111903   2.118   6.245   1.992
 3668SOL    HW211904   2.227   6.362   1.958
 3669SOL     OW11905   5.334   1.492   4.066
 3669SOL    HW111906   5.382   1.569   4.023
 3669SOL    HW211907   5.360   1.486   4.163
 3670SOL     OW11908   3.055   5.214   6.384
 3670SOL    HW111909   2.955   5.217   6.392
 3670SOL    HW211910   3.087   5.122   6.406
 3671SOL     OW11911   2.194   0.846   3.413
 3671SOL    HW111912   2.108   0.897   3.419
 3671SOL    HW211913   2.238   0.866   3.326
 3672SOL     OW11914   6.449   6.860   0.454
 3672SOL    HW111915   6.540   6.874   0.414
 3672SOL    HW211916   6.457   6.796   0.530
 3673SOL     OW11917   4.399   6.697   6.238
 3673SOL    HW111918   4.397   6.786   6.284
 3673SOL    HW211919   4.373   6.708   6.143
 3674SOL     OW11920   0.854   6.204   0.762
 3674SOL    HW111921   0.877   6.278   0.825
 3674SOL    HW211922   0.772   6.229   0.710
 3675SOL     OW11923   2.327   2.035   4.527
 3675SOL    HW111924   2.424   2.012   4.515
 3675SOL    HW211925   2.277   2.009   4.444
 3676SOL     OW11926   1.649   5.079   2.839
 3676SOL    HW111927   1.624   5.130   2.922
 3676SOL    HW211928   1.569   5.072   2.779
 3677SOL     OW11929   5.669   0.595   3.717
 3677SOL    HW111930   5.644   0.679   3.766
 3677SOL    HW211931   5.768   0.585   3.716
 3678SOL     OW11932   1.459   2.543   4.244
 3678SOL    HW111933   1.444   2.470   4.312
 3678SOL    HW211934   1.443   2.506   4.152
 3679SOL     OW11935   6.671   1.085   1.926
 3679SOL    HW111936   6.676   1.179   1.959
 3679SOL    HW211937   6.659   1.086   1.827
 3680SOL     OW11938   6.049   4.256   4.587
 3680SOL    HW111939   6.004   4.176   4.626
 3680SOL    HW211940   6.135   4.229   4.545
 3681SOL     OW11941   5.354   6.733   5.040
 3681SOL    HW111942   5.388   6.663   4.977
 3681SOL    HW211943   5.344   6.819   4.991
 3682SOL     OW11944   0.524   2.302   6.909
 3682SOL    HW111945   0.546   2.244   6.988
 3682SOL    HW211946   0.446   2.264   6.860
 3683SOL     OW11947   5.007   6.042   2.878
 3683SOL    HW111948   5.080   6.104   2.907
 3683SOL    HW211949   4.919   6.087   2.887
 3684SOL     OW11950   2.042   3.902   1.056
 3684SOL    HW111951   2.063   3.945   0.968
 3684SOL    HW211952   2.120   3.914   1.117
 3685SOL     OW11953   5.514   6.458   5.961
 3685SOL    HW111954   5.553   6.443   5.870
 3685SOL    HW211955   5.446   6.531   5.956
 3686SOL     OW11956   0.234   4.263   0.366
 3686SOL    HW111957   0.209   4.175   0.328
 3686SOL    HW211958   0.321   4.293   0.327
 3687SOL     OW11959   4.462   1.153   0.264
 3687SOL    HW111960   4.508   1.186   0.182
 3687SOL    HW211961   4.444   1.055   0.255
 3688SOL     OW11962   0.068   3.473   0.500
 3688SOL    HW111963   0.152   3.456   0.449
 3688SOL    HW211964   0.078   3.557   0.552
 3689SOL     OW11965   1.588   6.655   3.405
 3689SOL    HW111966   1.570   6.558   3.418
 3689SOL    HW211967   1.684   6.675   3.425
 3690SOL     OW11968   4.851   5.337   5.760
 3690SOL    HW111969   4.809   5.423   5.733
 3690SOL    HW211970   4.950   5.349   5.768
 3691SOL     OW11971   3.243   2.831   5.796
 3691SOL    HW111972   3.162   2.888   5.784
 3691SOL    HW211973   3.314   2.859   5.732
 3692SOL     OW11974   0.421   0.409   5.667
 3692SOL    HW111975   0.455   0.497   5.698
 3692SOL    HW211976   0.441   0.339   5.736
 3693SOL     OW11977   1.359   1.346   3.659
 3693SOL    HW111978   1.443   1.317   3.612
 3693SOL    HW211979   1.337   1.281   3.731
 3694SOL     OW11980   1.857   4.840   3.369
 3694SOL    HW111981   1.820   4.905   3.303
 3694SOL    HW211982   1.957   4.834   3.358
 3695SOL     OW11983   1.924   2.595   0.584
 3695SOL    HW111984   1.901   2.498   0.596
 3695SOL    HW211985   2.023   2.607   0.594
 3696SOL     OW11986   2.859   6.322   5.857
 3696SOL    HW111987   2.939   6.351   5.910
 3696SOL    HW211988   2.880   6.237   5.810
 3697SOL     OW11989   4.995   1.132   3.893
 3697SOL    HW111990   5.001   1.047   3.947
 3697SOL    HW211991   5.077   1.186   3.907
 3698SOL     OW11992   3.195   6.917   6.809
 3698SOL    HW111993   3.160   6.978   6.738
 3698SOL    HW211994   3.261   6.966   6.866
 3699SOL     OW11995   1.069   5.140   2.149
 3699SOL    HW111996   1.076   5.213   2.216
 3699SOL    HW211997   1.005   5.071   2.182
 3700SOL     OW11998   6.050   0.652   3.697
 3700SOL    HW111999   6.146   0.656   3.668
 3700SOL    HW212000   6.030   0.731   3.756
 3701SOL     OW12001   4.734   0.803   3.949
 3701SOL    HW112002   4.735   0.765   3.857
 3701SOL    HW212003   4.735   0.729   4.016
 3702SOL     OW12004   4.983   1.058   6.664
 3702SOL    HW112005   5.056   1.030   6.603
 3702SOL    HW212006   4.913   1.107   6.612
 3703SOL     OW12007   3.671   4.728   0.733
 3703SOL    HW112008   3.624   4.813   0.755
 3703SOL    HW212009   3.611   4.669   0.679
 3704SOL     OW12010   3.200   6.130   1.325
 3704SOL    HW112011   3.127   6.091   1.381
 3704SOL    HW212012   3.271   6.060   1.310
 3705SOL     OW12013   6.854   1.065   4.695
 3705SOL    HW112014   6.795   0.992   4.659
 3705SOL    HW212015   6.947   1.052   4.661
 3706SOL     OW12016   3.155   2.150   3.177
 3706SOL    HW112017   3.072   2.204   3.163
 3706SOL    HW212018   3.204   2.142   3.090
 3707SOL     OW12019   4.189   2.535   5.503
 3707SOL    HW112020   4.248   2.580   5.436
 3707SOL    HW212021   4.156   2.602   5.570
 3708SOL     OW12022   6.213   0.206   6.971
 3708SOL    HW112023   6.260   0.294   6.974
 3708SOL    HW212024   6.280   0.132   6.978
 3709SOL     OW12025   7.013   6.937   6.663
 3709SOL    HW112026   0.032   0.006   6.677
 3709SOL    HW212027   0.018   6.903   6.572
 3710SOL     OW12028   0.293   4.978   6.634
 3710SOL    HW112029   0.206   5.018   6.663
 3710SOL    HW212030   0.355   4.972   6.712
 3711SOL     OW12031   0.187   5.503   2.219
 3711SOL    HW112032   0.149   5.460   2.136
 3711SOL    HW212033   0.130   5.581   2.244
 3712SOL     OW12034   1.693   0.396   6.732
 3712SOL    HW112035   1.733   0.305   6.726
 3712SOL    HW212036   1.752   0.455   6.786
 3713SOL     OW12037   3.332   5.327   5.676
 3713SOL    HW112038   3.388   5.272   5.739
 3713SOL    HW212039   3.315   5.417   5.717
 3714SOL     OW12040   4.714   1.707   4.965
 3714SOL    HW112041   4.720   1.794   5.014
 3714SOL    HW212042   4.803   1.663   4.965
 3715SOL     OW12043   4.834   3.734   3.545
 3715SOL    HW112044   4.796   3.812   3.494
 3715SOL    HW212045   4.857   3.763   3.638
 3716SOL     OW12046   0.986   1.343   3.943
 3716SOL    HW112047   1.026   1.295   3.865
 3716SOL    HW212048   1.011   1.296   4.027
 3717SOL     OW12049   5.714   0.704   6.429
 3717SOL    HW112050   5.794   0.730   6.483
 3717SOL    HW212051   5.690   0.609   6.449
 3718SOL     OW12052   1.100   6.352   6.505
 3718SOL    HW112053   1.002   6.366   6.518
 3718SOL    HW212054   1.136   6.293   6.578
 3719SOL     OW12055   3.296   4.520   0.394
 3719SOL    HW112056   3.351   4.551   0.317
 3719SOL    HW212057   3.199   4.528   0.372
 3720SOL     OW12058   0.027   1.031   6.339
 3720SOL    HW112059   0.062   0.937   6.339
 3720SOL    HW212060   0.103   1.095   6.331
 3721SOL     OW12061   4.896   3.048   0.525
 3721SOL    HW112062   4.874   2.952   0.543
 3721SOL    HW212063   4.968   3.053   0.455
 3722SOL     OW12064   5.192   5.464   1.235
 3722SOL    HW112065   5.207   5.435   1.330
 3722SOL    HW212066   5.117   5.411   1.195
 3723SOL     OW12067   4.796   1.174   0.825
 3723SOL    HW112068   4.745   1.230   0.890
 3723SOL    HW212069   4.857   1.233   0.771
 3724SOL     OW12070   0.690   4.129   5.855
 3724SOL    HW112071   0.665   4.216   5.812
 3724SOL    HW212072   0.761   4.084   5.801
 3725SOL     OW12073   5.611   6.355   1.358
 3725SOL    HW112074   5.654   6.342   1.447
 3725SOL    HW212075   5.672   6.407   1.299
 3726SOL     OW12076   6.145   2.519   1.424
 3726SOL    HW112077   6.083   2.454   1.381
 3726SOL    HW212078   6.092   2.596   1.462
 3727SOL     OW12079   2.667   2.953   5.360
 3727SOL    HW112080   2.581   2.967   5.313
 3727SOL    HW212081   2.731   3.027   5.337
 3728SOL     OW12082   0.605   3.880   6.837
 3728SOL    HW112083   0.532   3.879   6.906
 3728SOL    HW212084   0.687   3.922   6.875
 3729SOL     OW12085   0.692   2.788   4.051
 3729SOL    HW112086   0.640   2.721   3.997
 3729SOL    HW212087   0.637   2.871   4.061
 3730SOL     OW12088   2.203   0.506   0.950
 3730SOL    HW112089   2.301   0.505   0.967
 3730SOL    HW212090   2.171   0.412   0.938
 3731SOL     OW12091   2.264   5.468   7.006
 3731SOL    HW112092   2.321   5.460   0.066
 3731SOL    HW212093   2.233   5.563   6.997
 3732SOL     OW12094   2.211   4.039   4.449
 3732SOL    HW112095   2.237   4.116   4.391
 3732SOL    HW212096   2.208   3.956   4.393
 3733SOL     OW12097   2.834   4.149   1.289
 3733SOL    HW112098   2.786   4.094   1.357
 3733SOL    HW212099   2.862   4.091   1.213
 3734SOL     OW12100   4.253   0.639   3.044
 3734SOL    HW112101   4.237   0.608   3.137
 3734SOL    HW212102   4.351   0.650   3.029
 3735SOL     OW12103   3.737   1.918   2.044
 3735SOL    HW112104   3.656   1.894   2.097
 3735SOL    HW212105   3.722   2.007   2.000
 3736SOL     OW12106   4.771   0.906   6.408
 3736SOL    HW112107   4.719   0.869   6.330
 3736SOL    HW212108   4.718   0.979   6.450
 3737SOL     OW12109   3.381   6.958   3.584
 3737SOL    HW112110   3.469   6.962   3.537
 3737SOL    HW212111   3.388   7.006   3.672
 3738SOL     OW12112   0.052   0.348   4.272
 3738SOL    HW112113   0.141   0.348   4.226
 3738SOL    HW212114   0.046   0.269   4.334
 3739SOL     OW12115   0.369   3.228   1.310
 3739SOL    HW112116   0.309   3.182   1.375
 3739SOL    HW212117   0.457   3.248   1.354
 3740SOL     OW12118   5.783   6.920   0.050
 3740SOL    HW112119   5.793   6.980   0.130
 3740SOL    HW212120   5.833   6.835   0.066
 3741SOL     OW12121   3.750   1.666   6.908
 3741SOL    HW112122   3.721   1.676   7.003
 3741SOL    HW212123   3.759   1.756   6.865
 3742SOL     OW12124   3.616   3.429   6.090
 3742SOL    HW112125   3.684   3.356   6.090
 3742SOL    HW212126   3.527   3.393   6.060
 3743SOL     OW12127   0.696   6.057   6.512
 3743SOL    HW112128   0.684   6.084   6.608
 3743SOL    HW212129   0.735   6.134   6.461
 3744SOL     OW12130   6.578   5.184   3.403
 3744SOL    HW112131   6.602   5.118   3.331
 3744SOL    HW212132   6.652   5.252   3.411
 3745SOL     OW12133   5.349   4.800   1.498
 3745SOL    HW112134   5.438   4.791   1.543
 3745SOL    HW212135   5.294   4.869   1.546
 3746SOL     OW12136   4.502   1.703   1.395
 3746SOL    HW112137   4.554   1.628   1.354
 3746SOL    HW212138   4.508   1.783   1.336
 3747SOL     OW12139   2.566   0.250   0.737
 3747SOL    HW112140   2.663   0.233   0.754
 3747SOL    HW212141   2.554   0.344   0.705
 3748SOL     OW12142   5.916   0.500   1.928
 3748SOL    HW112143   6.016   0.501   1.924
 3748SOL    HW212144   5.885   0.536   2.015
 3749SOL     OW12145   0.835   0.497   4.160
 3749SOL    HW112146   0.908   0.548   4.206
 3749SOL    HW212147   0.796   0.553   4.087
 3750SOL     OW12148   0.567   3.595   6.729
 3750SOL    HW112149   0.497   3.594   6.801
 3750SOL    HW212150   0.563   3.682   6.680
 3751SOL     OW12151   1.816   5.263   1.537
 3751SOL    HW112152   1.861   5.174   1.534
 3751SOL    HW212153   1.783   5.282   1.629
 3752SOL     OW12154   4.986   5.867   6.486
 3752SOL    HW112155   5.057   5.904   6.546
 3752SOL    HW212156   5.009   5.773   6.462
 3753SOL     OW12157   0.508   0.471   2.823
 3753SOL    HW112158   0.585   0.462   2.886
 3753SOL    HW212159   0.466   0.381   2.808
 3754SOL     OW12160   3.370   1.805   1.246
 3754SOL    HW112161   3.331   1.713   1.253
 3754SOL    HW212162   3.297   1.873   1.258
 3755SOL     OW12163   2.437   6.101   4.458
 3755SOL    HW112164   2.352   6.071   4.502
 3755SOL    HW212165   2.499   6.136   4.528
 3756SOL     OW12166   1.516   6.403   0.622
 3756SOL    HW112167   1.550   6.445   0.707
 3756SOL    HW212168   1.567   6.319   0.605
 3757SOL     OW12169   0.840   4.703   0.399
 3757SOL    HW112170   0.768   4.635   0.411
 3757SOL    HW212171   0.837   4.739   0.306
 3758SOL     OW12172   0.497   6.016   3.565
 3758SOL    HW112173   0.421   6.047   3.622
 3758SOL    HW212174   0.576   5.994   3.622
 3759SOL     OW12175   4.730   0.705   3.690
 3759SOL    HW112176   4.790   0.638   3.647
 3759SOL    HW212177   4.639   0.701   3.649
 3760SOL     OW12178   0.603   0.858   2.968
 3760SOL    HW112179   0.521   0.856   3.025
 3760SOL    HW212180   0.576   0.862   2.872
 3761SOL     OW12181   4.441   1.383   5.345
 3761SOL    HW112182   4.517   1.347   5.290
 3761SOL    HW212183   4.439   1.336   5.433
 3762SOL     OW12184   0.678   2.244   4.380
 3762SOL    HW112185   0.669   2.220   4.283
 3762SOL    HW212186   0.633   2.332   4.396
 3763SOL     OW12187   0.786   6.417   7.012
 3763SOL    HW112188   0.843   6.483   6.964
 3763SOL    HW212189   0.730   6.465   0.058
 3764SOL     OW12190   3.088   1.519   2.596
 3764SOL    HW112191   3.092   1.435   2.541
 3764SOL    HW212192   3.051   1.497   2.686
 3765SOL     OW12193   5.691   3.468   2.647
 3765SOL    HW112194   5.758   3.394   2.656
 3765SOL    HW212195   5.726   3.551   2.692
 3766SOL     OW12196   1.614   2.636   2.118
 3766SOL    HW112197   1.564   2.622   2.203
 3766SOL    HW212198   1.641   2.548   2.080
 3767SOL     OW12199   1.979   5.764   6.323
 3767SOL    HW112200   1.905   5.713   6.366
 3767SOL    HW212201   1.961   5.772   6.225
 3768SOL     OW12202   1.545   6.784   3.171
 3768SOL    HW112203   1.558   6.735   3.257
 3768SOL    HW212204   1.455   6.763   3.133
 3769SOL     OW12205   5.387   5.184   5.483
 3769SOL    HW112206   5.404   5.271   5.437
 3769SOL    HW212207   5.441   5.111   5.440
 3770SOL     OW12208   3.028   6.914   0.980
 3770SOL    HW112209   2.942   6.934   0.933
 3770SOL    HW212210   3.023   6.825   1.024
 3771SOL     OW12211   6.487   5.927   5.609
 3771SOL    HW112212   6.402   5.908   5.657
 3771SOL    HW212213   6.520   6.018   5.634
 3772SOL     OW12214   2.572   5.882   1.910
 3772SOL    HW112215   2.631   5.936   1.850
 3772SOL    HW212216   2.490   5.935   1.931
 3773SOL     OW12217   4.889   4.698   6.715
 3773SOL    HW112218   4.957   4.626   6.725
 3773SOL    HW212219   4.934   4.788   6.717
 3774SOL     OW12220   6.934   4.454   1.127
 3774SOL    HW112221   6.875   4.376   1.148
 3774SOL    HW212222   7.015   4.421   1.078
 3775SOL     OW12223   5.495   5.766   4.720
 3775SOL    HW112224   5.536   5.785   4.631
 3775SOL    HW212225   5.418   5.827   4.736
 3776SOL     OW12226   4.626   2.207   6.682
 3776SOL    HW112227   4.667   2.241   6.597
 3776SOL    HW212228   4.544   2.155   6.661
 3777SOL     OW12229   2.897   5.121   3.949
 3777SOL    HW112230   2.877   5.041   3.893
 3777SOL    HW212231   2.825   5.189   3.936
 3778SOL     OW12232   2.834   5.313   6.682
 3778SOL    HW112233   2.836   5.362   6.595
 3778SOL    HW212234   2.739   5.288   6.704
 3779SOL     OW12235   0.105   5.109   6.345
 3779SOL    HW112236   0.042   5.032   6.358
 3779SOL    HW212237   0.198   5.075   6.334
 3780SOL     OW12238   6.283   2.844   2.014
 3780SOL    HW112239   6.322   2.785   1.943
 3780SOL    HW212240   6.247   2.787   2.088
 3781SOL     OW12241   1.411   6.633   5.966
 3781SOL    HW112242   1.404   6.576   5.884
 3781SOL    HW212243   1.457   6.719   5.943
 3782SOL     OW12244   3.677   5.453   6.808
 3782SOL    HW112245   3.679   5.457   6.908
 3782SOL    HW212246   3.710   5.364   6.778
 3783SOL     OW12247   4.494   4.902   5.754
 3783SOL    HW112248   4.543   4.911   5.667
 3783SOL    HW212249   4.410   4.850   5.740
 3784SOL     OW12250   6.192   3.238   4.623
 3784SOL    HW112251   6.161   3.219   4.716
 3784SOL    HW212252   6.261   3.311   4.625
 3785SOL     OW12253   0.893   3.170   2.698
 3785SOL    HW112254   0.916   3.074   2.713
 3785SOL    HW212255   0.972   3.228   2.720
 3786SOL     OW12256   2.300   2.904   5.885
 3786SOL    HW112257   2.279   2.989   5.934
 3786SOL    HW212258   2.259   2.907   5.794
 3787SOL     OW12259   4.941   5.806   4.910
 3787SOL    HW112260   4.938   5.761   4.820
 3787SOL    HW212261   4.998   5.752   4.971
 3788SOL     OW12262   5.741   2.893   5.925
 3788SOL    HW112263   5.795   2.811   5.943
 3788SOL    HW212264   5.740   2.911   5.826
 3789SOL     OW12265   1.701   4.144   0.975
 3789SOL    HW112266   1.703   4.240   1.003
 3789SOL    HW212267   1.751   4.134   0.888
 3790SOL     OW12268   1.835   6.732   1.538
 3790SOL    HW112269   1.879   6.767   1.621
 3790SOL    HW212270   1.875   6.777   1.458
 3791SOL     OW12271   4.590   0.567   4.381
 3791SOL    HW112272   4.678   0.610   4.360
 3791SOL    HW212273   4.528   0.635   4.419
 3792SOL     OW12274   6.050   6.895   3.625
 3792SOL    HW112275   6.018   6.821   3.566
 3792SOL    HW212276   6.128   6.941   3.582
 3793SOL     OW12277   5.016   3.657   0.143
 3793SOL    HW112278   5.049   3.610   0.061
 3793SOL    HW212279   5.064   3.622   0.224
 3794SOL     OW12280   1.047   5.024   5.927
 3794SOL    HW112281   1.143   5.031   5.954
 3794SOL    HW212282   0.991   5.012   6.008
 3795SOL     OW12283   3.323   6.208   0.726
 3795SOL    HW112284   3.295   6.112   0.732
 3795SOL    HW212285   3.246   6.263   0.693
 3796SOL     OW12286   5.354   0.599   0.144
 3796SOL    HW112287   5.406   0.684   0.150
 3796SOL    HW212288   5.414   0.525   0.113
 3797SOL     OW12289   0.021   3.312   1.312
 3797SOL    HW112290   0.048   3.241   1.247
 3797SOL    HW212291   0.018   3.273   1.404
 3798SOL     OW12292   0.756   5.192   3.589
 3798SOL    HW112293   0.854   5.210   3.596
 3798SOL    HW212294   0.732   5.111   3.643
 3799SOL     OW12295   6.955   1.706   2.816
 3799SOL    HW112296   6.897   1.784   2.839
 3799SOL    HW212297   6.998   1.670   2.899
 3800SOL     OW12298   5.047   3.242   2.321
 3800SOL    HW112299   5.091   3.255   2.409
 3800SOL    HW212300   5.025   3.331   2.281
 3801SOL     OW12301   5.983   1.359   1.005
 3801SOL    HW112302   5.938   1.445   0.977
 3801SOL    HW212303   6.047   1.377   1.078
 3802SOL     OW12304   6.067   3.335   2.845
 3802SOL    HW112305   6.018   3.384   2.772
 3802SOL    HW212306   6.044   3.376   2.933
 3803SOL     OW12307   4.219   3.686   5.782
 3803SOL    HW112308   4.251   3.781   5.775
 3803SOL    HW212309   4.122   3.682   5.759
 3804SOL     OW12310   2.994   6.090   3.218
 3804SOL    HW112311   2.950   6.006   3.186
 3804SOL    HW212312   2.943   6.169   3.183
 3805SOL     OW12313   2.575   1.831   6.628
 3805SOL    HW112314   2.558   1.926   6.601
 3805SOL    HW212315   2.549   1.771   6.552
 3806SOL     OW12316   1.860   3.876   2.250
 3806SOL    HW112317   1.874   3.819   2.169
 3806SOL    HW212318   1.948   3.899   2.291
 3807SOL     OW12319   0.731   4.065   4.234
 3807SOL    HW112320   0.696   4.119   4.158
 3807SOL    HW212321   0.716   3.968   4.215
 3808SOL     OW12322   2.528   6.463   6.111
 3808SOL    HW112323   2.482   6.393   6.166
 3808SOL    HW212324   2.600   6.505   6.165
 3809SOL     OW12325   5.173   1.289   1.944
 3809SOL    HW112326   5.273   1.284   1.943
 3809SOL    HW212327   5.144   1.382   1.968
 3810SOL     OW12328   5.335   2.014   3.097
 3810SOL    HW112329   5.393   1.940   3.130
 3810SOL    HW212330   5.357   2.098   3.146
 3811SOL     OW12331   0.268   5.974   5.483
 3811SOL    HW112332   0.293   5.962   5.387
 3811SOL    HW212333   0.193   5.911   5.505
 3812SOL     OW12334   3.798   5.689   0.359
 3812SOL    HW112335   3.790   5.726   0.451
 3812SOL    HW212336   3.767   5.757   0.293
 3813SOL     OW12337   6.200   3.354   6.703
 3813SOL    HW112338   6.132   3.409   6.752
 3813SOL    HW212339   6.155   3.303   6.630
 3814SOL     OW12340   0.051   0.289   5.185
 3814SOL    HW112341   0.103   0.259   5.265
 3814SOL    HW212342   0.090   0.375   5.150
 3815SOL     OW12343   4.811   2.080   5.453
 3815SOL    HW112344   4.848   2.115   5.539
 3815SOL    HW212345   4.827   1.981   5.447
 3816SOL     OW12346   7.011   6.715   0.724
 3816SOL    HW112347   6.950   6.794   0.711
 3816SOL    HW212348   0.064   6.740   0.786
 3817SOL     OW12349   3.649   3.752   2.115
 3817SOL    HW112350   3.608   3.674   2.068
 3817SOL    HW212351   3.675   3.821   2.048
 3818SOL     OW12352   4.176   5.436   2.557
 3818SOL    HW112353   4.134   5.399   2.474
 3818SOL    HW212354   4.275   5.430   2.549
 3819SOL     OW12355   6.235   3.197   3.270
 3819SOL    HW112356   6.330   3.204   3.242
 3819SOL    HW212357   6.191   3.120   3.223
 3820SOL     OW12358   3.133   6.466   6.051
 3820SOL    HW112359   3.108   6.537   6.117
 3820SOL    HW212360   3.218   6.423   6.080
 3821SOL     OW12361   1.942   6.832   1.032
 3821SOL    HW112362   1.917   6.802   1.124
 3821SOL    HW212363   1.862   6.874   0.988
 3822SOL     OW12364   5.817   6.982   1.794
 3822SOL    HW112365   5.797   6.922   1.872
 3822SOL    HW212366   5.794   0.055   1.819
 3823SOL     OW12367   5.248   5.850   5.084
 3823SOL    HW112368   5.252   5.948   5.062
 3823SOL    HW212369   5.255   5.838   5.183
 3824SOL     OW12370   1.990   2.127   0.796
 3824SOL    HW112371   1.962   2.214   0.756
 3824SOL    HW212372   2.088   2.114   0.782
 3825SOL     OW12373   0.738   4.648   5.294
 3825SOL    HW112374   0.737   4.695   5.382
 3825SOL    HW212375   0.755   4.714   5.221
 3826SOL     OW12376   4.738   4.199   3.732
 3826SOL    HW112377   4.743   4.204   3.832
 3826SOL    HW212378   4.808   4.260   3.693
 3827SOL     OW12379   0.579   1.440   6.893
 3827SOL    HW112380   0.652   1.375   6.871
 3827SOL    HW212381   0.509   1.437   6.822
 3828SOL     OW12382   3.312   3.650   5.250
 3828SOL    HW112383   3.242   3.714   5.281
 3828SOL    HW212384   3.268   3.572   5.205
 3829SOL     OW12385   0.402   3.171   1.721
 3829SOL    HW112386   0.453   3.232   1.661
 3829SOL    HW212387   0.324   3.133   1.671
 3830SOL     OW12388   5.051   6.683   3.456
 3830SOL    HW112389   5.125   6.619   3.475
 3830SOL    HW212390   5.027   6.733   3.540
 3831SOL     OW12391   5.155   2.110   3.683
 3831SOL    HW112392   5.127   2.024   3.727
 3831SOL    HW212393   5.074   2.157   3.648
 3832SOL     OW12394   6.239   1.252   4.074
 3832SOL    HW112395   6.309   1.186   4.048
 3832SOL    HW212396   6.168   1.254   4.004
 3833SOL     OW12397   1.696   3.020   5.907
 3833SOL    HW112398   1.695   3.017   6.007
 3833SOL    HW212399   1.602   3.025   5.874
 3834SOL     OW12400   5.480   4.663   0.830
 3834SOL    HW112401   5.408   4.610   0.785
 3834SOL    HW212402   5.547   4.691   0.761
 3835SOL     OW12403   4.520   5.201   5.014
 3835SOL    HW112404   4.528   5.272   4.943
 3835SOL    HW212405   4.594   5.135   5.003
 3836SOL     OW12406   0.408   6.957   4.580
 3836SOL    HW112407   0.330   7.014   4.605
 3836SOL    HW212408   0.439   6.979   4.488
 3837SOL     OW12409   4.576   4.573   5.838
 3837SOL    HW112410   4.622   4.487   5.859
 3837SOL    HW212411   4.480   4.556   5.815
 3838SOL     OW12412   6.748   0.809   4.346
 3838SOL    HW112413   6.731   0.711   4.341
 3838SOL    HW212414   6.762   0.837   4.441
 3839SOL     OW12415   4.624   0.988   3.560
 3839SOL    HW112416   4.718   1.010   3.586
 3839SOL    HW212417   4.623   0.903   3.507
 3840SOL     OW12418   4.038   1.080   6.461
 3840SOL    HW112419   4.034   1.151   6.391
 3840SOL    HW212420   4.117   1.021   6.444
 3841SOL     OW12421   5.678   4.257   3.486
 3841SOL    HW112422   5.618   4.337   3.493
 3841SOL    HW212423   5.670   4.201   3.568
 3842SOL     OW12424   2.121   3.867   5.397
 3842SOL    HW112425   2.060   3.793   5.366
 3842SOL    HW212426   2.119   3.942   5.331
 3843SOL     OW12427   5.850   2.407   6.190
 3843SOL    HW112428   5.827   2.476   6.121
 3843SOL    HW212429   5.908   2.449   6.260
 3844SOL     OW12430   6.851   6.738   1.194
 3844SOL    HW112431   6.769   6.743   1.252
 3844SOL    HW212432   6.876   6.830   1.164
 3845SOL     OW12433   2.045   5.374   0.303
 3845SOL    HW112434   2.060   5.281   0.338
 3845SOL    HW212435   2.013   5.368   0.208
 3846SOL     OW12436   6.644   3.312   3.011
 3846SOL    HW112437   6.635   3.229   2.956
 3846SOL    HW212438   6.686   3.384   2.956
 3847SOL     OW12439   0.699   1.691   6.822
 3847SOL    HW112440   0.613   1.732   6.853
 3847SOL    HW212441   0.700   1.594   6.844
 3848SOL     OW12442   6.386   5.148   2.113
 3848SOL    HW112443   6.370   5.206   2.033
 3848SOL    HW212444   6.303   5.096   2.134
 3849SOL     OW12445   0.782   3.891   5.549
 3849SOL    HW112446   0.687   3.901   5.578
 3849SOL    HW212447   0.793   3.807   5.497
 3850SOL     OW12448   2.920   2.790   1.226
 3850SOL    HW112449   2.964   2.700   1.227
 3850SOL    HW212450   2.990   2.862   1.227
 3851SOL     OW12451   0.216   5.804   2.828
 3851SOL    HW112452   0.211   5.897   2.793
 3851SOL    HW212453   0.293   5.756   2.785
 3852SOL     OW12454   2.210   0.513   4.880
 3852SOL    HW112455   2.260   0.517   4.966
 3852SOL    HW212456   2.210   0.604   4.838
 3853SOL     OW12457   2.504   1.086   3.009
 3853SOL    HW112458   2.545   1.036   2.933
 3853SOL    HW212459   2.415   1.046   3.032
 3854SOL     OW12460   0.642   2.045   2.267
 3854SOL    HW112461   0.616   2.046   2.364
 3854SOL    HW212462   0.669   1.952   2.241
 3855SOL     OW12463   3.065   6.571   6.519
 3855SOL    HW112464   3.154   6.616   6.528
 3855SOL    HW212465   3.063   6.488   6.574
 3856SOL     OW12466   6.703   2.483   6.873
 3856SOL    HW112467   6.657   2.487   6.785
 3856SOL    HW212468   6.798   2.455   6.860
 3857SOL     OW12469   2.183   0.442   6.562
 3857SOL    HW112470   2.103   0.407   6.514
 3857SOL    HW212471   2.250   0.369   6.573
 3858SOL     OW12472   3.611   0.719   4.900
 3858SOL    HW112473   3.654   0.689   4.815
 3858SOL    HW212474   3.538   0.784   4.880
 3859SOL     OW12475   6.147   0.208   2.108
 3859SOL    HW112476   6.206   0.195   2.188
 3859SOL    HW212477   6.052   0.200   2.135
 3860SOL     OW12478   1.334   6.719   4.472
 3860SOL    HW112479   1.395   6.780   4.420
 3860SOL    HW212480   1.240   6.754   4.467
 3861SOL     OW12481   3.290   5.641   2.040
 3861SOL    HW112482   3.231   5.721   2.045
 3861SOL    HW212483   3.344   5.644   1.956
 3862SOL     OW12484   1.074   0.502   4.500
 3862SOL    HW112485   1.049   0.563   4.575
 3862SOL    HW212486   1.173   0.498   4.491
 3863SOL     OW12487   4.217   0.715   0.516
 3863SOL    HW112488   4.124   0.694   0.485
 3863SOL    HW212489   4.214   0.781   0.591
 3864SOL     OW12490   1.034   6.935   4.247
 3864SOL    HW112491   0.994   6.971   4.163
 3864SOL    HW212492   1.080   7.008   4.297
 3865SOL     OW12493   5.332   1.040   0.891
 3865SOL    HW112494   5.299   1.045   0.986
 3865SOL    HW212495   5.254   1.031   0.829
 3866SOL     OW12496   3.029   0.876   6.815
 3866SOL    HW112497   2.997   0.799   6.760
 3866SOL    HW212498   3.129   0.870   6.824
 3867SOL     OW12499   6.874   3.250   2.491
 3867SOL    HW112500   6.787   3.226   2.534
 3867SOL    HW212501   6.882   3.350   2.487
 3868SOL     OW12502   3.851   0.341   0.073
 3868SOL    HW112503   3.833   0.378   0.164
 3868SOL    HW212504   3.818   0.406   0.004
 3869SOL     OW12505   3.923   1.219   4.249
 3869SOL    HW112506   3.895   1.314   4.267
 3869SOL    HW212507   3.946   1.175   4.335
 3870SOL     OW12508   0.047   1.776   5.806
 3870SOL    HW112509   0.028   1.835   5.884
 3870SOL    HW212510   0.127   1.719   5.826
 3871SOL     OW12511   2.582   5.795   3.910
 3871SOL    HW112512   2.484   5.782   3.893
 3871SOL    HW212513   2.604   5.770   4.004
 3872SOL     OW12514   2.906   3.969   5.130
 3872SOL    HW112515   2.886   3.903   5.058
 3872SOL    HW212516   2.829   3.973   5.194
 3873SOL     OW12517   4.704   1.725   6.920
 3873SOL    HW112518   4.702   1.822   6.945
 3873SOL    HW212519   4.724   1.670   7.002
 3874SOL     OW12520   2.537   1.342   1.293
 3874SOL    HW112521   2.520   1.245   1.309
 3874SOL    HW212522   2.617   1.353   1.235
 3875SOL     OW12523   0.938   1.769   6.407
 3875SOL    HW112524   0.999   1.696   6.376
 3875SOL    HW212525   0.865   1.731   6.464
 3876SOL     OW12526   3.340   5.551   2.601
 3876SOL    HW112527   3.389   5.612   2.664
 3876SOL    HW212528   3.293   5.605   2.531
 3877SOL     OW12529   0.577   1.565   5.546
 3877SOL    HW112530   0.480   1.590   5.543
 3877SOL    HW212531   0.599   1.530   5.637
 3878SOL     OW12532   4.659   1.301   4.835
 3878SOL    HW112533   4.740   1.244   4.822
 3878SOL    HW212534   4.598   1.259   4.903
 3879SOL     OW12535   5.239   5.913   0.085
 3879SOL    HW112536   5.306   5.879   0.151
 3879SOL    HW212537   5.166   5.961   0.134
 3880SOL     OW12538   5.173   4.977   4.085
 3880SOL    HW112539   5.143   5.042   4.156
 3880SOL    HW212540   5.105   4.974   4.012
 3881SOL     OW12541   1.710   3.019   0.440
 3881SOL    HW112542   1.678   3.040   0.532
 3881SOL    HW212543   1.764   3.095   0.404
 3882SOL     OW12544   0.408   2.290   5.562
 3882SOL    HW112545   0.379   2.277   5.657
 3882SOL    HW212546   0.460   2.375   5.554
 3883SOL     OW12547   4.322   6.027   3.978
 3883SOL    HW112548   4.335   5.930   3.955
 3883SOL    HW212549   4.225   6.044   3.997
 3884SOL     OW12550   0.439   3.835   2.316
 3884SOL    HW112551   0.366   3.804   2.378
 3884SOL    HW212552   0.399   3.893   2.245
 3885SOL     OW12553   4.375   5.525   2.363
 3885SOL    HW112554   4.430   5.498   2.284
 3885SOL    HW212555   4.283   5.552   2.332
 3886SOL     OW12556   2.584   5.699   5.780
 3886SOL    HW112557   2.625   5.630   5.720
 3886SOL    HW212558   2.655   5.743   5.835
 3887SOL     OW12559   1.839   5.575   1.926
 3887SOL    HW112560   1.864   5.664   1.963
 3887SOL    HW212561   1.922   5.526   1.899
 3888SOL     OW12562   5.400   5.020   3.885
 3888SOL    HW112563   5.448   5.102   3.917
 3888SOL    HW212564   5.317   5.007   3.938
 3889SOL     OW12565   5.325   4.413   0.215
 3889SOL    HW112566   5.355   4.382   0.306
 3889SOL    HW212567   5.229   4.440   0.219
 3890SOL     OW12568   5.661   3.738   3.860
 3890SOL    HW112569   5.652   3.642   3.887
 3890SOL    HW212570   5.573   3.785   3.873
 3891SOL     OW12571   5.122   5.359   3.836
 3891SOL    HW112572   5.145   5.268   3.799
 3891SOL    HW212573   5.079   5.349   3.925
 3892SOL     OW12574   6.799   2.095   1.504
 3892SOL    HW112575   6.898   2.106   1.496
 3892SOL    HW212576   6.754   2.150   1.433
 3893SOL     OW12577   4.163   3.410   3.371
 3893SOL    HW112578   4.173   3.460   3.285
 3893SOL    HW212579   4.242   3.426   3.429
 3894SOL     OW12580   4.149   0.826   5.903
 3894SOL    HW112581   4.145   0.881   5.987
 3894SOL    HW212582   4.095   0.743   5.915
 3895SOL     OW12583   0.455   0.070   3.696
 3895SOL    HW112584   0.370   0.123   3.693
 3895SOL    HW212585   0.490   0.058   3.604
 3896SOL     OW12586   1.978   1.220   6.103
 3896SOL    HW112587   1.903   1.178   6.154
 3896SOL    HW212588   2.004   1.306   6.148
 3897SOL     OW12589   3.891   5.627   1.389
 3897SOL    HW112590   3.848   5.653   1.303
 3897SOL    HW212591   3.869   5.694   1.459
 3898SOL     OW12592   3.528   2.914   1.705
 3898SOL    HW112593   3.493   3.007   1.692
 3898SOL    HW212594   3.471   2.866   1.771
 3899SOL     OW12595   3.008   0.059   5.389
 3899SOL    HW112596   3.053   0.129   5.334
 3899SOL    HW212597   2.932   0.020   5.337
 3900SOL     OW12598   4.734   4.917   2.863
 3900SOL    HW112599   4.737   4.970   2.778
 3900SOL    HW212600   4.753   4.821   2.842
 3901SOL     OW12601   2.581   0.992   6.832
 3901SOL    HW112602   2.501   1.042   6.865
 3901SOL    HW212603   2.583   0.901   6.873
 3902SOL     OW12604   5.066   3.202   3.053
 3902SOL    HW112605   5.044   3.108   3.080
 3902SOL    HW212606   5.019   3.266   3.114
 3903SOL     OW12607   2.956   4.501   6.247
 3903SOL    HW112608   2.868   4.549   6.241
 3903SOL    HW212609   2.942   4.403   6.235
 3904SOL     OW12610   1.796   6.832   0.656
 3904SOL    HW112611   1.877   6.890   0.653
 3904SOL    HW212612   1.719   6.882   0.697
 3905SOL     OW12613   0.018   6.594   4.913
 3905SOL    HW112614   6.978   6.524   4.949
 3905SOL    HW212615   0.000   6.608   4.816
 3906SOL     OW12616   6.908   6.325   5.038
 3906SOL    HW112617   6.898   6.247   4.978
 3906SOL    HW212618   7.005   6.335   5.063
 3907SOL     OW12619   5.635   2.153   3.654
 3907SOL    HW112620   5.630   2.128   3.557
 3907SOL    HW212621   5.545   2.183   3.685
 3908SOL     OW12622   2.635   4.246   6.250
 3908SOL    HW112623   2.614   4.182   6.176
 3908SOL    HW212624   2.587   4.332   6.234
 3909SOL     OW12625   5.957   5.801   3.244
 3909SOL    HW112626   6.033   5.746   3.208
 3909SOL    HW212627   5.993   5.886   3.283
 3910SOL     OW12628   3.639   3.199   2.831
 3910SOL    HW112629   3.618   3.108   2.796
 3910SOL    HW212630   3.626   3.267   2.758
 3911SOL     OW12631   5.962   2.561   5.499
 3911SOL    HW112632   5.863   2.574   5.504
 3911SOL    HW212633   6.008   2.648   5.514
 3912SOL     OW12634   5.322   2.562   6.187
 3912SOL    HW112635   5.254   2.509   6.237
 3912SOL    HW212636   5.413   2.529   6.210
 3913SOL     OW12637   1.331   6.798   1.440
 3913SOL    HW112638   1.389   6.757   1.511
 3913SOL    HW212639   1.383   6.807   1.355
 3914SOL     OW12640   3.020   5.851   5.828
 3914SOL    HW112641   3.084   5.914   5.873
 3914SOL    HW212642   3.071   5.780   5.779
 3915SOL     OW12643   0.176   5.925   1.318
 3915SOL    HW112644   0.230   5.894   1.396
 3915SOL    HW212645   0.128   5.846   1.278
 3916SOL     OW12646   0.643   0.205   3.113
 3916SOL    HW112647   0.575   0.144   3.071
 3916SOL    HW212648   0.684   0.262   3.043
 3917SOL     OW12649   2.679   0.111   6.491
 3917SOL    HW112650   2.699   0.059   6.575
 3917SOL    HW212651   2.761   0.113   6.433
 3918SOL     OW12652   5.867   3.287   6.806
 3918SOL    HW112653   5.833   3.237   6.726
 3918SOL    HW212654   5.836   3.241   6.889
 3919SOL     OW12655   3.273   6.602   0.751
 3919SOL    HW112656   3.269   6.698   0.723
 3919SOL    HW212657   3.282   6.545   0.670
 3920SOL     OW12658   2.297   1.109   6.638
 3920SOL    HW112659   2.363   1.061   6.580
 3920SOL    HW212660   2.234   1.044   6.678
 3921SOL     OW12661   0.768   3.615   1.297
 3921SOL    HW112662   0.805   3.686   1.237
 3921SOL    HW212663   0.821   3.613   1.382
 3922SOL     OW12664   1.483   5.249   1.391
 3922SOL    HW112665   1.576   5.215   1.403
 3922SOL    HW212666   1.472   5.335   1.440
 3923SOL     OW12667   6.705   0.474   0.871
 3923SOL    HW112668   6.676   0.568   0.886
 3923SOL    HW212669   6.657   0.436   0.792
 3924SOL     OW12670   6.559   4.918   4.766
 3924SOL    HW112671   6.616   4.860   4.709
 3924SOL    HW212672   6.475   4.869   4.791
 3925SOL     OW12673   1.581   4.826   1.955
 3925SOL    HW112674   1.643   4.896   1.918
 3925SOL    HW212675   1.494   4.868   1.981
 3926SOL     OW12676   3.670   5.318   2.989
 3926SOL    HW112677   3.722   5.311   3.074
 3926SOL    HW212678   3.672   5.412   2.956
 3927SOL     OW12679   1.780   3.186   6.837
 3927SOL    HW112680   1.849   3.210   6.768
 3927SOL    HW212681   1.735   3.269   6.869
 3928SOL     OW12682   6.159   6.432   6.408
 3928SOL    HW112683   6.234   6.373   6.377
 3928SOL    HW212684   6.115   6.389   6.488
 3929SOL     OW12685   0.765   1.609   4.355
 3929SOL    HW112686   0.786   1.578   4.262
 3929SOL    HW212687   0.693   1.678   4.352
 3930SOL     OW12688   2.978   1.871   3.867
 3930SOL    HW112689   3.061   1.919   3.896
 3930SOL    HW212690   2.905   1.937   3.852
 3931SOL     OW12691   4.798   0.389   2.123
 3931SOL    HW112692   4.735   0.434   2.060
 3931SOL    HW212693   4.848   0.317   2.075
 3932SOL     OW12694   1.183   2.294   4.062
 3932SOL    HW112695   1.143   2.257   4.146
 3932SOL    HW212696   1.137   2.379   4.037
 3933SOL     OW12697   1.851   0.693   5.903
 3933SOL    HW112698   1.817   0.713   5.995
 3933SOL    HW212699   1.824   0.766   5.841
 3934SOL     OW12700   5.491   6.822   7.018
 3934SOL    HW112701   5.409   6.810   0.052
 3934SOL    HW212702   5.482   6.907   6.965
 3935SOL     OW12703   5.248   6.352   1.561
 3935SOL    HW112704   5.199   6.439   1.574
 3935SOL    HW212705   5.266   6.338   1.464
 3936SOL     OW12706   0.640   4.373   2.536
 3936SOL    HW112707   0.690   4.441   2.591
 3936SOL    HW212708   0.666   4.382   2.440
 3937SOL     OW12709   0.434   2.209   2.145
 3937SOL    HW112710   0.518   2.171   2.184
 3937SOL    HW212711   0.403   2.287   2.199
 3938SOL     OW12712   6.890   2.674   3.478
 3938SOL    HW112713   6.904   2.753   3.420
 3938SOL    HW212714   6.869   2.594   3.421
 3939SOL     OW12715   2.214   1.865   1.419
 3939SOL    HW112716   2.213   1.957   1.380
 3939SOL    HW212717   2.304   1.847   1.459
 3940SOL     OW12718   4.396   4.068   1.118
 3940SOL    HW112719   4.388   3.971   1.096
 3940SOL    HW212720   4.479   4.083   1.173
 3941SOL     OW12721   4.795   2.996   6.943
 3941SOL    HW112722   4.869   2.928   6.948
 3941SOL    HW212723   4.808   3.053   6.862
 3942SOL     OW12724   6.974   0.427   0.587
 3942SOL    HW112725   6.959   0.351   0.524
 3942SOL    HW212726   0.048   0.456   0.582
 3943SOL     OW12727   6.526   2.986   5.196
 3943SOL    HW112728   6.482   3.074   5.217
 3943SOL    HW212729   6.604   3.001   5.135
 3944SOL     OW12730   5.681   1.319   4.795
 3944SOL    HW112731   5.652   1.267   4.875
 3944SOL    HW212732   5.652   1.414   4.804
 3945SOL     OW12733   6.938   0.429   1.053
 3945SOL    HW112734   6.862   0.448   0.990
 3945SOL    HW212735   0.003   0.440   1.005
 3946SOL     OW12736   3.661   5.166   3.379
 3946SOL    HW112737   3.679   5.067   3.383
 3946SOL    HW212738   3.721   5.208   3.311
 3947SOL     OW12739   6.535   4.372   6.184
 3947SOL    HW112740   6.513   4.280   6.152
 3947SOL    HW212741   6.630   4.394   6.161
 3948SOL     OW12742   6.020   4.029   0.672
 3948SOL    HW112743   6.044   4.114   0.718
 3948SOL    HW212744   6.038   3.952   0.733
 3949SOL     OW12745   5.746   6.321   3.328
 3949SOL    HW112746   5.715   6.228   3.349
 3949SOL    HW212747   5.798   6.321   3.243
 3950SOL     OW12748   1.609   6.154   0.309
 3950SOL    HW112749   1.510   6.165   0.323
 3950SOL    HW212750   1.627   6.061   0.277
 3951SOL     OW12751   5.927   6.035   1.895
 3951SOL    HW112752   5.921   5.947   1.848
 3951SOL    HW212753   6.011   6.039   1.949
 3952SOL     OW12754   5.862   1.730   6.618
 3952SOL    HW112755   5.900   1.750   6.708
 3952SOL    HW212756   5.783   1.790   6.602
 3953SOL     OW12757   3.540   4.162   3.014
 3953SOL    HW112758   3.461   4.112   3.050
 3953SOL    HW212759   3.519   4.259   3.009
 3954SOL     OW12760   3.894   5.214   5.765
 3954SOL    HW112761   3.935   5.124   5.774
 3954SOL    HW212762   3.803   5.206   5.723
 3955SOL     OW12763   3.923   1.237   4.814
 3955SOL    HW112764   3.924   1.255   4.912
 3955SOL    HW212765   3.901   1.141   4.798
 3956SOL     OW12766   2.252   1.123   1.356
 3956SOL    HW112767   2.346   1.089   1.353
 3956SOL    HW212768   2.250   1.216   1.318
 3957SOL     OW12769   3.272   1.026   4.226
 3957SOL    HW112770   3.288   1.058   4.132
 3957SOL    HW212771   3.175   1.037   4.249
 3958SOL     OW12772   5.694   6.685   5.365
 3958SOL    HW112773   5.615   6.726   5.320
 3958SOL    HW212774   5.713   6.734   5.450
 3959SOL     OW12775   5.438   5.185   6.563
 3959SOL    HW112776   5.455   5.116   6.493
 3959SOL    HW212777   5.498   5.264   6.548
 3960SOL     OW12778   6.118   1.989   4.742
 3960SOL    HW112779   6.109   1.921   4.814
 3960SOL    HW212780   6.213   2.017   4.733
 3961SOL     OW12781   5.378   6.507   4.502
 3961SOL    HW112782   5.438   6.548   4.434
 3961SOL    HW212783   5.433   6.464   4.573
 3962SOL     OW12784   6.816   5.445   5.093
 3962SOL    HW112785   6.760   5.364   5.075
 3962SOL    HW212786   6.863   5.433   5.181
 3963SOL     OW12787   4.730   0.044   2.260
 3963SOL    HW112788   4.821   0.085   2.254
 3963SOL    HW212789   4.690   0.038   2.169
 3964SOL     OW12790   5.101   2.995   3.456
 3964SOL    HW112791   5.100   2.913   3.400
 3964SOL    HW212792   5.157   3.065   3.411
 3965SOL     OW12793   4.822   3.918   4.027
 3965SOL    HW112794   4.863   3.867   4.102
 3965SOL    HW212795   4.852   3.879   3.940
 3966SOL     OW12796   2.118   6.986   6.397
 3966SOL    HW112797   2.125   6.889   6.372
 3966SOL    HW212798   2.108   6.993   6.496
 3967SOL     OW12799   2.062   4.430   4.033
 3967SOL    HW112800   1.991   4.498   4.016
 3967SOL    HW212801   2.028   4.361   4.097
 3968SOL     OW12802   3.907   0.224   0.671
 3968SOL    HW112803   3.956   0.163   0.734
 3968SOL    HW212804   3.845   0.170   0.614
 3969SOL     OW12805   0.388   4.993   3.255
 3969SOL    HW112806   0.485   5.012   3.272
 3969SOL    HW212807   0.371   4.895   3.263
 3970SOL     OW12808   4.923   5.766   1.796
 3970SOL    HW112809   4.885   5.806   1.880
 3970SOL    HW212810   4.885   5.674   1.783
 3971SOL     OW12811   1.649   6.423   3.577
 3971SOL    HW112812   1.607   6.358   3.641
 3971SOL    HW212813   1.677   6.505   3.627
 3972SOL     OW12814   1.338   3.456   6.890
 3972SOL    HW112815   1.382   3.544   6.911
 3972SOL    HW212816   1.258   3.472   6.833
 3973SOL     OW12817   1.839   4.784   0.877
 3973SOL    HW112818   1.765   4.802   0.942
 3973SOL    HW212819   1.926   4.778   0.925
 3974SOL     OW12820   2.845   1.534   5.581
 3974SOL    HW112821   2.770   1.515   5.518
 3974SOL    HW212822   2.846   1.465   5.654
 3975SOL     OW12823   6.296   2.944   6.335
 3975SOL    HW112824   6.295   2.938   6.435
 3975SOL    HW212825   6.381   2.987   6.306
 3976SOL     OW12826   1.993   4.583   2.522
 3976SOL    HW112827   1.971   4.603   2.618
 3976SOL    HW212828   2.051   4.656   2.486
 3977SOL     OW12829   0.763   3.223   0.212
 3977SOL    HW112830   0.819   3.144   0.236
 3977SOL    HW212831   0.823   3.301   0.194
 3978SOL     OW12832   6.142   4.727   3.740
 3978SOL    HW112833   6.105   4.673   3.816
 3978SOL    HW212834   6.137   4.674   3.656
 3979SOL     OW12835   4.414   6.087   6.158
 3979SOL    HW112836   4.344   6.083   6.087
 3979SOL    HW212837   4.439   6.183   6.174
 3980SOL     OW12838   5.382   5.020   5.976
 3980SOL    HW112839   5.458   4.992   6.035
 3980SOL    HW212840   5.417   5.075   5.900
 3981SOL     OW12841   4.355   5.565   0.050
 3981SOL    HW112842   4.259   5.559   0.025
 3981SOL    HW212843   4.377   5.495   0.118
 3982SOL     OW12844   2.830   5.804   3.183
 3982SOL    HW112845   2.868   5.712   3.167
 3982SOL    HW212846   2.779   5.805   3.269
 3983SOL     OW12847   3.537   5.831   4.256
 3983SOL    HW112848   3.453   5.880   4.231
 3983SOL    HW212849   3.612   5.897   4.266
 3984SOL     OW12850   6.497   2.671   3.349
 3984SOL    HW112851   6.464   2.766   3.357
 3984SOL    HW212852   6.584   2.670   3.300
 3985SOL     OW12853   4.114   4.983   6.441
 3985SOL    HW112854   4.076   4.915   6.504
 3985SOL    HW212855   4.124   5.071   6.488
 3986SOL     OW12856   5.160   0.722   2.802
 3986SOL    HW112857   5.114   0.768   2.726
 3986SOL    HW212858   5.249   0.764   2.818
 3987SOL     OW12859   3.957   5.780   5.013
 3987SOL    HW112860   3.957   5.835   5.098
 3987SOL    HW212861   3.867   5.789   4.969
 3988SOL     OW12862   4.250   5.526   0.627
 3988SOL    HW112863   4.296   5.601   0.674
 3988SOL    HW212864   4.261   5.537   0.528
 3989SOL     OW12865   5.842   2.845   0.994
 3989SOL    HW112866   5.774   2.776   0.969
 3989SOL    HW212867   5.928   2.825   0.947
 3990SOL     OW12868   0.046   1.617   2.059
 3990SOL    HW112869   7.005   1.686   2.094
 3990SOL    HW212870   7.019   1.532   2.042
 3991SOL     OW12871   5.430   0.708   2.820
 3991SOL    HW112872   5.468   0.650   2.748
 3991SOL    HW212873   5.426   0.657   2.906
 3992SOL     OW12874   3.920   2.046   1.034
 3992SOL    HW112875   3.920   2.081   0.940
 3992SOL    HW212876   3.899   2.120   1.097
 3993SOL     OW12877   0.971   2.971   2.134
 3993SOL    HW112878   0.973   3.019   2.221
 3993SOL    HW212879   0.883   2.985   2.089
 3994SOL     OW12880   2.334   6.286   4.297
 3994SOL    HW112881   2.389   6.302   4.215
 3994SOL    HW212882   2.384   6.227   4.360
 3995SOL     OW12883   1.951   1.517   4.662
 3995SOL    HW112884   2.022   1.587   4.653
 3995SOL    HW212885   1.869   1.557   4.703
 3996SOL     OW12886   0.086   6.246   4.723
 3996SOL    HW112887   0.143   6.225   4.643
 3996SOL    HW212888   0.136   6.307   4.783
 3997SOL     OW12889   3.200   0.874   3.923
 3997SOL    HW112890   3.223   0.971   3.929
 3997SOL    HW212891   3.137   0.859   3.847
 3998SOL     OW12892   4.737   2.123   3.075
 3998SOL    HW112893   4.677   2.101   3.151
 3998SOL    HW212894   4.697   2.091   2.989
 3999SOL     OW12895   4.841   2.018   4.028
 3999SOL    HW112896   4.814   2.000   4.123
 3999SOL    HW212897   4.935   1.987   4.014
 4000SOL     OW12898   4.086   6.084   4.104
 4000SOL    HW112899   4.036   6.131   4.031
 4000SOL    HW212900   4.024   6.065   4.180
 4001SOL     OW12901   0.802   1.529   4.094
 4001SOL    HW112902   0.830   1.614   4.049
 4001SOL    HW212903   0.858   1.453   4.060
 4002SOL     OW12904   2.258   4.499   1.371
 4002SOL    HW112905   2.334   4.543   1.419
 4002SOL    HW212906   2.286   4.407   1.342
 4003SOL     OW12907   4.118   2.171   5.026
 4003SOL    HW112908   4.151   2.261   5.053
 4003SOL    HW212909   4.025   2.157   5.061
 4004SOL     OW12910   6.330   1.923   6.229
 4004SOL    HW112911   6.249   1.865   6.214
 4004SOL    HW212912   6.409   1.879   6.187
 4005SOL     OW12913   5.869   4.118   5.376
 4005SOL    HW112914   5.799   4.068   5.427
 4005SOL    HW212915   5.826   4.188   5.320
 4006SOL     OW12916   3.746   5.943   2.672
 4006SOL    HW112917   3.827   5.997   2.693
 4006SOL    HW212918   3.773   5.848   2.655
 4007SOL     OW12919   0.269   1.621   5.839
 4007SOL    HW112920   0.319   1.579   5.764
 4007SOL    HW212921   0.268   1.559   5.918
 4008SOL     OW12922   3.185   1.659   5.348
 4008SOL    HW112923   3.113   1.628   5.287
 4008SOL    HW212924   3.196   1.758   5.342
 4009SOL     OW12925   3.501   3.509   2.914
 4009SOL    HW112926   3.540   3.561   2.838
 4009SOL    HW212927   3.445   3.570   2.970
 4010SOL     OW12928   1.682   3.290   0.436
 4010SOL    HW112929   1.674   3.375   0.489
 4010SOL    HW212930   1.592   3.261   0.405
 4011SOL     OW12931   0.724   2.918   0.861
 4011SOL    HW112932   0.694   2.849   0.796
 4011SOL    HW212933   0.749   2.874   0.947
 4012SOL     OW12934   5.608   3.361   3.601
 4012SOL    HW112935   5.596   3.302   3.522
 4012SOL    HW212936   5.537   3.432   3.602
 4013SOL     OW12937   5.395   2.671   3.056
 4013SOL    HW112938   5.354   2.590   3.014
 4013SOL    HW212939   5.383   2.749   2.996
 4014SOL     OW12940   5.297   5.960   1.986
 4014SOL    HW112941   5.388   5.929   2.013
 4014SOL    HW212942   5.262   5.902   1.912
 4015SOL     OW12943   4.662   3.907   0.250
 4015SOL    HW112944   4.663   3.808   0.263
 4015SOL    HW212945   4.630   3.951   0.334
 4016SOL     OW12946   3.171   6.228   4.727
 4016SOL    HW112947   3.107   6.252   4.800
 4016SOL    HW212948   3.257   6.199   4.767
 4017SOL     OW12949   6.272   6.827   6.563
 4017SOL    HW112950   6.228   6.755   6.509
 4017SOL    HW212951   6.356   6.856   6.517
 4018SOL     OW12952   2.279   0.263   6.924
 4018SOL    HW112953   2.210   0.237   6.992
 4018SOL    HW212954   2.331   0.182   6.897
 4019SOL     OW12955   4.760   5.878   3.291
 4019SOL    HW112956   4.788   5.789   3.254
 4019SOL    HW212957   4.743   5.941   3.215
 4020SOL     OW12958   5.338   2.020   4.953
 4020SOL    HW112959   5.306   1.994   5.044
 4020SOL    HW212960   5.334   2.119   4.943
 4021SOL     OW12961   4.727   3.708   6.826
 4021SOL    HW112962   4.740   3.736   6.731
 4021SOL    HW212963   4.809   3.729   6.879
 4022SOL     OW12964   5.613   0.399   0.698
 4022SOL    HW112965   5.513   0.397   0.687
 4022SOL    HW212966   5.637   0.470   0.765
 4023SOL     OW12967   6.507   6.465   5.814
 4023SOL    HW112968   6.510   6.506   5.723
 4023SOL    HW212969   6.417   6.483   5.855
 4024SOL     OW12970   4.582   4.597   4.834
 4024SOL    HW112971   4.575   4.624   4.738
 4024SOL    HW212972   4.494   4.609   4.879
 4025SOL     OW12973   0.666   3.793   4.203
 4025SOL    HW112974   0.737   3.722   4.199
 4025SOL    HW212975   0.617   3.785   4.290
 4026SOL     OW12976   5.064   0.181   5.420
 4026SOL    HW112977   5.020   0.223   5.341
 4026SOL    HW212978   5.011   0.201   5.502
 4027SOL     OW12979   3.303   5.174   2.489
 4027SOL    HW112980   3.339   5.194   2.580
 4027SOL    HW212981   3.379   5.165   2.425
 4028SOL     OW12982   2.244   5.628   3.237
 4028SOL    HW112983   2.282   5.535   3.238
 4028SOL    HW212984   2.222   5.656   3.330
 4029SOL     OW12985   1.818   4.048   3.577
 4029SOL    HW112986   1.760   4.046   3.659
 4029SOL    HW212987   1.913   4.031   3.603
 4030SOL     OW12988   1.883   1.610   6.543
 4030SOL    HW112989   1.875   1.689   6.604
 4030SOL    HW212990   1.792   1.582   6.512
 4031SOL     OW12991   6.673   5.858   4.168
 4031SOL    HW112992   6.683   5.813   4.257
 4031SOL    HW212993   6.648   5.790   4.099
 4032SOL     OW12994   3.584   0.322   4.976
 4032SOL    HW112995   3.555   0.351   4.885
 4032SOL    HW212996   3.606   0.402   5.031
 4033SOL     OW12997   4.090   3.882   6.084
 4033SOL    HW112998   4.118   3.842   6.172
 4033SOL    HW212999   4.016   3.827   6.045
 4034SOL     OW13000   6.048   3.223   4.864
 4034SOL    HW113001   6.038   3.126   4.886
 4034SOL    HW213002   6.003   3.278   4.934
 4035SOL     OW13003   0.576   5.954   1.820
 4035SOL    HW113004   0.644   5.910   1.879
 4035SOL    HW213005   0.561   5.898   1.739
 4036SOL     OW13006   6.334   5.889   1.705
 4036SOL    HW113007   6.269   5.920   1.636
 4036SOL    HW213008   6.386   5.968   1.739
 4037SOL     OW13009   0.206   3.863   5.381
 4037SOL    HW113010   0.290   3.824   5.343
 4037SOL    HW213011   0.131   3.797   5.372
 4038SOL     OW13012   6.106   5.138   2.978
 4038SOL    HW113013   6.160   5.213   2.940
 4038SOL    HW213014   6.022   5.127   2.923
 4039SOL     OW13015   2.535   5.662   1.197
 4039SOL    HW113016   2.628   5.695   1.213
 4039SOL    HW213017   2.531   5.564   1.214
 4040SOL     OW13018   3.408   6.499   7.013
 4040SOL    HW113019   3.396   6.554   0.074
 4040SOL    HW213020   3.477   6.429   0.007
 4041SOL     OW13021   0.864   5.784   2.981
 4041SOL    HW113022   0.788   5.847   2.963
 4041SOL    HW213023   0.865   5.761   3.078
 4042SOL     OW13024   6.171   6.013   2.027
 4042SOL    HW113025   6.254   6.069   2.025
 4042SOL    HW213026   6.194   5.920   2.057
 4043SOL     OW13027   6.210   3.749   1.307
 4043SOL    HW113028   6.269   3.673   1.332
 4043SOL    HW213029   6.157   3.779   1.386
 4044SOL     OW13030   5.876   5.079   1.829
 4044SOL    HW113031   5.785   5.038   1.839
 4044SOL    HW213032   5.942   5.029   1.886
 4045SOL     OW13033   2.754   4.595   5.891
 4045SOL    HW113034   2.820   4.662   5.925
 4045SOL    HW213035   2.704   4.634   5.814
 4046SOL     OW13036   0.621   3.309   0.626
 4046SOL    HW113037   0.647   3.251   0.704
 4046SOL    HW213038   0.560   3.382   0.657
 4047SOL     OW13039   2.933   3.715   2.709
 4047SOL    HW113040   2.947   3.806   2.670
 4047SOL    HW213041   2.961   3.715   2.805
 4048SOL     OW13042   4.397   2.600   0.439
 4048SOL    HW113043   4.331   2.673   0.455
 4048SOL    HW213044   4.443   2.577   0.525
 4049SOL     OW13045   6.442   0.141   0.206
 4049SOL    HW113046   6.458   0.043   0.215
 4049SOL    HW213047   6.530   0.188   0.193
 4050SOL     OW13048   2.771   0.630   2.560
 4050SOL    HW113049   2.806   0.713   2.605
 4050SOL    HW213050   2.743   0.652   2.467
 4051SOL     OW13051   1.977   3.652   0.971
 4051SOL    HW113052   2.002   3.740   1.013
 4051SOL    HW213053   2.055   3.616   0.919
 4052SOL     OW13054   1.145   7.015   1.293
 4052SOL    HW113055   1.118   0.042   1.376
 4052SOL    HW213056   1.206   6.940   1.317
 4053SOL     OW13057   2.917   5.150   3.164
 4053SOL    HW113058   2.907   5.137   3.065
 4053SOL    HW213059   2.982   5.082   3.199
 4054SOL     OW13060   5.193   1.801   6.959
 4054SOL    HW113061   5.136   1.720   6.966
 4054SOL    HW213062   5.181   1.843   6.869
 4055SOL     OW13063   4.752   3.387   0.367
 4055SOL    HW113064   4.820   3.367   0.297
 4055SOL    HW213065   4.721   3.302   0.410
 4056SOL     OW13066   4.354   3.182   0.090
 4056SOL    HW113067   4.452   3.165   0.082
 4056SOL    HW213068   4.337   3.258   0.152
 4057SOL     OW13069   6.214   2.961   0.622
 4057SOL    HW113070   6.263   3.048   0.618
 4057SOL    HW213071   6.280   2.886   0.615
 4058SOL     OW13072   0.838   2.352   3.962
 4058SOL    HW113073   0.873   2.362   4.055
 4058SOL    HW213074   0.826   2.255   3.941
 4059SOL     OW13075   6.706   2.209   5.192
 4059SOL    HW113076   6.765   2.285   5.219
 4059SOL    HW213077   6.762   2.137   5.151
 4060SOL     OW13078   2.926   6.898   5.890
 4060SOL    HW113079   2.990   6.974   5.902
 4060SOL    HW213080   2.976   6.812   5.888
 4061SOL     OW13081   2.235   3.072   1.406
 4061SOL    HW113082   2.301   3.126   1.459
 4061SOL    HW213083   2.149   3.066   1.457
 4062SOL     OW13084   3.114   6.881   2.833
 4062SOL    HW113085   3.089   6.801   2.888
 4062SOL    HW213086   3.096   6.964   2.886
 4063SOL     OW13087   3.166   5.820   6.269
 4063SOL    HW113088   3.130   5.737   6.309
 4063SOL    HW213089   3.249   5.799   6.216
 4064SOL     OW13090   6.381   6.917   4.334
 4064SOL    HW113091   6.341   6.972   4.407
 4064SOL    HW213092   6.370   6.820   4.355
 4065SOL     OW13093   1.319   4.419   6.016
 4065SOL    HW113094   1.225   4.452   6.014
 4065SOL    HW213095   1.370   4.458   5.940
 4066SOL     OW13096   4.794   5.373   1.328
 4066SOL    HW113097   4.874   5.319   1.300
 4066SOL    HW213098   4.713   5.314   1.328
 4067SOL     OW13099   5.583   0.930   1.246
 4067SOL    HW113100   5.595   1.011   1.304
 4067SOL    HW213101   5.659   0.922   1.182
 4068SOL     OW13102   5.347   0.858   4.930
 4068SOL    HW113103   5.431   0.802   4.929
 4068SOL    HW213104   5.273   0.808   4.885
 4069SOL     OW13105   6.530   6.309   0.979
 4069SOL    HW113106   6.520   6.235   1.046
 4069SOL    HW213107   6.463   6.380   0.998
 4070SOL     OW13108   6.478   3.754   2.604
 4070SOL    HW113109   6.543   3.808   2.550
 4070SOL    HW213110   6.443   3.810   2.679
 4071SOL     OW13111   2.748   0.484   4.463
 4071SOL    HW113112   2.831   0.536   4.441
 4071SOL    HW213113   2.692   0.537   4.527
 4072SOL     OW13114   0.783   0.034   4.328
 4072SOL    HW113115   0.873   7.011   4.323
 4072SOL    HW213116   0.784   0.117   4.274
 4073SOL     OW13117   2.566   5.084   2.569
 4073SOL    HW113118   2.587   5.026   2.491
 4073SOL    HW213119   2.602   5.176   2.553
 4074SOL     OW13120   0.413   3.026   0.846
 4074SOL    HW113121   0.511   3.032   0.826
 4074SOL    HW213122   0.367   2.974   0.775
 4075SOL     OW13123   6.263   6.907   3.825
 4075SOL    HW113124   6.309   6.993   3.802
 4075SOL    HW213125   6.164   6.921   3.823
 4076SOL     OW13126   1.722   2.815   3.343
 4076SOL    HW113127   1.693   2.841   3.250
 4076SOL    HW213128   1.763   2.725   3.341
 4077SOL     OW13129   3.554   0.938   1.287
 4077SOL    HW113130   3.631   0.937   1.224
 4077SOL    HW213131   3.583   0.906   1.377
 4078SOL     OW13132   4.864   4.433   3.066
 4078SOL    HW113133   4.915   4.435   2.980
 4078SOL    HW213134   4.780   4.381   3.053
 4079SOL     OW13135   4.983   0.893   4.023
 4079SOL    HW113136   5.053   0.829   3.989
 4079SOL    HW213137   4.894   0.869   3.984
 4080SOL     OW13138   3.272   4.094   4.582
 4080SOL    HW113139   3.366   4.068   4.559
 4080SOL    HW213140   3.267   4.193   4.595
 4081SOL     OW13141   2.576   0.766   6.978
 4081SOL    HW113142   2.552   0.670   6.971
 4081SOL    HW213143   2.500   0.817   7.018
 4082SOL     OW13144   1.099   1.059   5.883
 4082SOL    HW113145   1.162   1.093   5.813
 4082SOL    HW213146   1.009   1.103   5.871
 4083SOL     OW13147   6.216   4.929   2.148
 4083SOL    HW113148   6.205   4.947   2.245
 4083SOL    HW213149   6.212   4.831   2.132
 4084SOL     OW13150   4.492   6.701   2.090
 4084SOL    HW113151   4.590   6.712   2.102
 4084SOL    HW213152   4.453   6.788   2.058
 4085SOL     OW13153   2.342   4.337   2.841
 4085SOL    HW113154   2.345   4.260   2.904
 4085SOL    HW213155   2.259   4.331   2.785
 4086SOL     OW13156   5.863   5.167   5.131
 4086SOL    HW113157   5.898   5.124   5.214
 4086SOL    HW213158   5.808   5.100   5.080
 4087SOL     OW13159   1.785   1.244   1.723
 4087SOL    HW113160   1.808   1.223   1.817
 4087SOL    HW213161   1.857   1.300   1.682
 4088SOL     OW13162   6.929   2.076   5.568
 4088SOL    HW113163   6.984   1.995   5.547
 4088SOL    HW213164   6.850   2.049   5.622
 4089SOL     OW13165   0.828   0.651   2.672
 4089SOL    HW113166   0.806   0.615   2.763
 4089SOL    HW213167   0.743   0.679   2.626
 4090SOL     OW13168   3.275   2.518   5.579
 4090SOL    HW113169   3.279   2.531   5.678
 4090SOL    HW213170   3.179   2.505   5.551
 4091SOL     OW13171   3.843   6.240   2.362
 4091SOL    HW113172   3.806   6.290   2.284
 4091SOL    HW213173   3.767   6.199   2.414
 4092SOL     OW13174   5.545   1.724   6.312
 4092SOL    HW113175   5.512   1.646   6.258
 4092SOL    HW213176   5.625   1.695   6.365
 4093SOL     OW13177   5.947   4.058   2.341
 4093SOL    HW113178   6.012   4.119   2.388
 4093SOL    HW213179   5.944   3.970   2.388
 4094SOL     OW13180   6.640   6.868   0.252
 4094SOL    HW113181   6.664   6.922   0.171
 4094SOL    HW213182   6.617   6.775   0.223
 4095SOL     OW13183   1.452   5.049   1.108
 4095SOL    HW113184   1.545   5.084   1.122
 4095SOL    HW213185   1.450   4.996   1.023
 4096SOL     OW13186   0.588   6.917   6.270
 4096SOL    HW113187   0.622   7.010   6.281
 4096SOL    HW213188   0.514   6.901   6.336
 4097SOL     OW13189   1.248   3.847   5.060
 4097SOL    HW113190   1.188   3.877   5.134
 4097SOL    HW213191   1.202   3.775   5.007
 4098SOL     OW13192   1.594   5.897   2.073
 4098SOL    HW113193   1.551   5.938   2.154
 4098SOL    HW213194   1.694   5.904   2.081
 4099SOL     OW13195   6.949   2.746   5.737
 4099SOL    HW113196   6.898   2.670   5.695
 4099SOL    HW213197   6.902   2.775   5.821
 4100SOL     OW13198   2.299   0.626   3.550
 4100SOL    HW113199   2.281   0.723   3.535
 4100SOL    HW213200   2.331   0.585   3.466
 4101SOL     OW13201   6.342   6.217   6.321
 4101SOL    HW113202   6.355   6.158   6.400
 4101SOL    HW213203   6.430   6.234   6.276
 4102SOL     OW13204   2.216   5.395   0.751
 4102SOL    HW113205   2.148   5.462   0.723
 4102SOL    HW213206   2.290   5.441   0.800
 4103SOL     OW13207   2.363   5.062   2.942
 4103SOL    HW113208   2.276   5.037   2.985
 4103SOL    HW213209   2.376   5.161   2.951
 4104SOL     OW13210   1.923   5.514   5.919
 4104SOL    HW113211   1.945   5.452   5.844
 4104SOL    HW213212   1.832   5.493   5.955
 4105SOL     OW13213   3.710   6.927   1.441
 4105SOL    HW113214   3.703   6.980   1.526
 4105SOL    HW213215   3.748   6.837   1.461
 4106SOL     OW13216   1.198   7.011   2.680
 4106SOL    HW113217   1.277   0.039   2.647
 4106SOL    HW213218   1.115   0.024   2.636
 4107SOL     OW13219   1.835   1.916   0.905
 4107SOL    HW113220   1.899   1.974   0.856
 4107SOL    HW213221   1.881   1.874   0.984
 4108SOL     OW13222   0.788   6.174   4.828
 4108SOL    HW113223   0.768   6.250   4.766
 4108SOL    HW213224   0.703   6.140   4.869
 4109SOL     OW13225   4.963   6.951   4.946
 4109SOL    HW113226   4.885   6.976   4.890
 4109SOL    HW213227   5.019   0.010   4.963
 4110SOL     OW13228   4.243   2.818   0.496
 4110SOL    HW113229   4.184   2.856   0.568
 4110SOL    HW213230   4.242   2.879   0.417
 4111SOL     OW13231   6.006   4.949   3.707
 4111SOL    HW113232   6.047   4.859   3.723
 4111SOL    HW213233   6.038   4.985   3.619
 4112SOL     OW13234   4.196   5.896   5.547
 4112SOL    HW113235   4.202   5.801   5.516
 4112SOL    HW213236   4.289   5.933   5.557
 4113SOL     OW13237   4.593   5.534   5.464
 4113SOL    HW113238   4.609   5.453   5.407
 4113SOL    HW213239   4.604   5.616   5.409
 4114SOL     OW13240   6.529   1.554   3.026
 4114SOL    HW113241   6.513   1.493   3.104
 4114SOL    HW213242   6.537   1.649   3.059
 4115SOL     OW13243   3.895   6.330   4.495
 4115SOL    HW113244   3.954   6.410   4.486
 4115SOL    HW213245   3.894   6.279   4.409
 4116SOL     OW13246   6.344   3.733   3.723
 4116SOL    HW113247   6.299   3.822   3.733
 4116SOL    HW213248   6.441   3.742   3.745
 4117SOL     OW13249   0.272   1.922   2.804
 4117SOL    HW113250   0.362   1.885   2.825
 4117SOL    HW213251   0.258   1.919   2.705
 4118SOL     OW13252   1.111   0.154   1.530
 4118SOL    HW113253   1.067   0.076   1.575
 4118SOL    HW213254   1.184   0.190   1.588
 4119SOL     OW13255   6.808   1.020   5.041
 4119SOL    HW113256   6.893   0.998   5.089
 4119SOL    HW213257   6.802   0.967   4.957
 4120SOL     OW13258   1.655   0.582   6.241
 4120SOL    HW113259   1.650   0.593   6.340
 4120SOL    HW213260   1.672   0.671   6.199
 4121SOL     OW13261   6.612   0.972   1.102
 4121SOL    HW113262   6.667   1.049   1.070
 4121SOL    HW213263   6.599   0.980   1.201
 4122SOL     OW13264   0.868   4.621   3.687
 4122SOL    HW113265   0.908   4.633   3.778
 4122SOL    HW213266   0.932   4.654   3.618
 4123SOL     OW13267   5.669   4.310   1.712
 4123SOL    HW113268   5.718   4.302   1.625
 4123SOL    HW213269   5.581   4.263   1.705
 4124SOL     OW13270   6.132   6.614   0.228
 4124SOL    HW113271   6.124   6.603   0.327
 4124SOL    HW213272   6.187   6.695   0.208
 4125SOL     OW13273   7.005   2.833   6.653
 4125SOL    HW113274   0.024   2.799   6.737
 4125SOL    HW213275   0.019   2.781   6.575
 4126SOL     OW13276   1.007   4.164   3.564
 4126SOL    HW113277   1.000   4.194   3.659
 4126SOL    HW213278   0.948   4.221   3.506
 4127SOL     OW13279   4.324   2.272   4.077
 4127SOL    HW113280   4.368   2.184   4.057
 4127SOL    HW213281   4.369   2.344   4.024
 4128SOL     OW13282   6.535   2.366   6.317
 4128SOL    HW113283   6.565   2.339   6.408
 4128SOL    HW213284   6.466   2.438   6.325
 4129SOL     OW13285   3.484   0.002   1.995
 4129SOL    HW113286   3.568   6.971   2.001
 4129SOL    HW213287   3.506   0.096   1.968
 4130SOL     OW13288   5.278   2.508   0.247
 4130SOL    HW113289   5.327   2.428   0.281
 4130SOL    HW213290   5.187   2.511   0.287
 4131SOL     OW13291   5.189   6.451   3.580
 4131SOL    HW113292   5.125   6.416   3.649
 4131SOL    HW213293   5.258   6.381   3.560
 4132SOL     OW13294   6.082   3.754   2.755
 4132SOL    HW113295   6.134   3.732   2.838
 4132SOL    HW213296   6.145   3.782   2.683
 4133SOL     OW13297   5.740   6.528   3.865
 4133SOL    HW113298   5.773   6.622   3.860
 4133SOL    HW213299   5.773   6.477   3.786
 4134SOL     OW13300   1.079   3.323   1.513
 4134SOL    HW113301   1.004   3.277   1.467
 4134SOL    HW213302   1.056   3.337   1.610
 4135SOL     OW13303   5.986   1.225   0.761
 4135SOL    HW113304   6.014   1.256   0.852
 4135SOL    HW213305   5.968   1.305   0.703
 4136SOL     OW13306   1.055   4.598   0.567
 4136SOL    HW113307   1.134   4.551   0.529
 4136SOL    HW213308   1.010   4.652   0.496
 4137SOL     OW13309   0.165   2.785   5.608
 4137SOL    HW113310   0.210   2.703   5.641
 4137SOL    HW213311   0.069   2.785   5.637
 4138SOL     OW13312   5.805   6.908   6.085
 4138SOL    HW113313   5.771   7.002   6.091
 4138SOL    HW213314   5.834   6.877   6.176
 4139SOL     OW13315   1.837   3.824   2.531
 4139SOL    HW113316   1.828   3.839   2.433
 4139SOL    HW213317   1.824   3.728   2.552
 4140SOL     OW13318   2.305   6.724   0.016
 4140SOL    HW113319   2.389   6.670   0.012
 4140SOL    HW213320   2.225   6.664   0.010
 4141SOL     OW13321   5.358   0.189   6.024
 4141SOL    HW113322   5.282   0.189   5.960
 4141SOL    HW213323   5.324   0.178   6.117
 4142SOL     OW13324   6.967   6.558   1.393
 4142SOL    HW113325   6.944   6.629   1.327
 4142SOL    HW213326   7.020   6.598   1.469
 4143SOL     OW13327   6.872   3.708   6.806
 4143SOL    HW113328   6.892   3.806   6.802
 4143SOL    HW213329   6.790   3.689   6.753
 4144SOL     OW13330   3.759   0.492   1.706
 4144SOL    HW113331   3.723   0.556   1.638
 4144SOL    HW213332   3.859   0.489   1.701
 4145SOL     OW13333   5.252   0.854   1.544
 4145SOL    HW113334   5.276   0.794   1.467
 4145SOL    HW213335   5.311   0.832   1.622
 4146SOL     OW13336   3.895   0.068   2.482
 4146SOL    HW113337   3.983   0.111   2.463
 4146SOL    HW213338   3.890   0.042   2.578
 4147SOL     OW13339   4.729   4.006   6.712
 4147SOL    HW113340   4.695   3.978   6.802
 4147SOL    HW213341   4.820   4.048   6.723
 4148SOL     OW13342   3.161   1.119   5.801
 4148SOL    HW113343   3.155   1.140   5.704
 4148SOL    HW213344   3.157   1.020   5.814
 4149SOL     OW13345   1.855   3.431   0.126
 4149SOL    HW113346   1.760   3.401   0.115
 4149SOL    HW213347   1.856   3.529   0.145
 4150SOL     OW13348   6.422   1.329   0.619
 4150SOL    HW113349   6.361   1.327   0.540
 4150SOL    HW213350   6.367   1.330   0.703
 4151SOL     OW13351   2.806   5.614   4.593
 4151SOL    HW113352   2.709   5.593   4.599
 4151SOL    HW213353   2.856   5.531   4.567
 4152SOL     OW13354   2.744   3.849   1.230
 4152SOL    HW113355   2.747   3.898   1.317
 4152SOL    HW213356   2.686   3.768   1.240
 4153SOL     OW13357   6.549   6.077   1.143
 4153SOL    HW113358   6.648   6.085   1.132
 4153SOL    HW213359   6.524   5.980   1.145
 4154SOL     OW13360   0.260   6.221   4.517
 4154SOL    HW113361   0.238   6.225   4.420
 4154SOL    HW213362   0.341   6.164   4.531
 4155SOL     OW13363   6.007   1.614   2.018
 4155SOL    HW113364   6.054   1.643   2.102
 4155SOL    HW213365   6.003   1.690   1.954
 4156SOL     OW13366   0.753   4.777   5.545
 4156SOL    HW113367   0.850   4.798   5.531
 4156SOL    HW213368   0.714   4.843   5.609
 4157SOL     OW13369   5.424   6.028   0.830
 4157SOL    HW113370   5.418   5.990   0.922
 4157SOL    HW213371   5.518   6.017   0.796
 4158SOL     OW13372   6.565   1.988   6.987
 4158SOL    HW113373   6.538   1.992   0.062
 4158SOL    HW213374   6.614   2.072   6.962
 4159SOL     OW13375   3.209   0.583   4.863
 4159SOL    HW113376   3.282   0.535   4.815
 4159SOL    HW213377   3.133   0.520   4.880
 4160SOL     OW13378   1.590   0.036   5.734
 4160SOL    HW113379   1.689   0.027   5.724
 4160SOL    HW213380   1.558   0.114   5.681
 4161SOL     OW13381   3.050   3.118   4.413
 4161SOL    HW113382   2.996   3.083   4.337
 4161SOL    HW213383   3.143   3.136   4.382
 4162SOL     OW13384   5.094   5.968   1.541
 4162SOL    HW113385   5.132   5.933   1.627
 4162SOL    HW213386   5.061   5.892   1.486
 4163SOL     OW13387   3.745   5.679   1.171
 4163SOL    HW113388   3.733   5.709   1.076
 4163SOL    HW213389   3.746   5.579   1.174
 4164SOL     OW13390   5.464   1.798   6.923
 4164SOL    HW113391   5.517   1.825   7.003
 4164SOL    HW213392   5.367   1.795   6.948
 4165SOL     OW13393   3.149   2.085   4.047
 4165SOL    HW113394   3.193   2.047   4.128
 4165SOL    HW213395   3.201   2.060   3.966
 4166SOL     OW13396   6.171   2.734   2.402
 4166SOL    HW113397   6.168   2.766   2.497
 4166SOL    HW213398   6.093   2.674   2.384
 4167SOL     OW13399   3.779   6.482   4.718
 4167SOL    HW113400   3.680   6.471   4.709
 4167SOL    HW213401   3.826   6.424   4.651
 4168SOL     OW13402   4.923   3.803   6.306
 4168SOL    HW113403   4.931   3.881   6.244
 4168SOL    HW213404   4.831   3.764   6.299
 4169SOL     OW13405   5.051   3.855   6.775
 4169SOL    HW113406   5.053   3.948   6.739
 4169SOL    HW213407   4.993   3.852   6.856
 4170SOL     OW13408   1.519   3.181   4.953
 4170SOL    HW113409   1.607   3.206   4.993
 4170SOL    HW213410   1.465   3.130   5.019
 4171SOL     OW13411   0.513   0.984   6.298
 4171SOL    HW113412   0.463   1.001   6.213
 4171SOL    HW213413   0.600   0.940   6.278
 4172SOL     OW13414   2.643   2.979   0.059
 4172SOL    HW113415   2.570   3.029   0.107
 4172SOL    HW213416   2.626   2.981   6.982
 4173SOL     OW13417   5.238   0.984   5.268
 4173SOL    HW113418   5.219   0.920   5.342
 4173SOL    HW213419   5.175   0.968   5.192
 4174SOL     OW13420   3.019   6.945   3.795
 4174SOL    HW113421   3.114   6.914   3.792
 4174SOL    HW213422   3.008   0.002   3.734
 4175SOL     OW13423   0.918   4.959   6.179
 4175SOL    HW113424   0.991   4.908   6.223
 4175SOL    HW213425   0.868   5.012   6.247
 4176SOL     OW13426   4.619   0.003   5.655
 4176SOL    HW113427   4.564   0.086   5.660
 4176SOL    HW213428   4.626   6.995   5.560
 4177SOL     OW13429   4.399   6.020   3.557
 4177SOL    HW113430   4.450   6.047   3.639
 4177SOL    HW213431   4.437   6.068   3.477
 4178SOL     OW13432   3.960   6.834   1.088
 4178SOL    HW113433   3.931   6.890   1.166
 4178SOL    HW213434   3.906   6.859   1.008
 4179SOL     OW13435   4.393   1.955   6.905
 4179SOL    HW113436   4.331   1.903   6.963
 4179SOL    HW213437   4.449   2.016   6.961
 4180SOL     OW13438   3.627   4.209   6.957
 4180SOL    HW113439   3.601   4.113   6.966
 4180SOL    HW213440   3.725   4.219   6.978
 4181SOL     OW13441   5.437   6.367   5.290
 4181SOL    HW113442   5.406   6.446   5.342
 4181SOL    HW213443   5.399   6.371   5.197
 4182SOL     OW13444   6.909   5.387   5.379
 4182SOL    HW113445   6.913   5.291   5.408
 4182SOL    HW213446   6.848   5.438   5.440
 4183SOL     OW13447   5.026   2.558   0.291
 4183SOL    HW113448   4.983   2.507   0.216
 4183SOL    HW213449   4.956   2.613   0.337
 4184SOL     OW13450   3.537   5.550   3.395
 4184SOL    HW113451   3.581   5.509   3.476
 4184SOL    HW213452   3.444   5.516   3.388
 4185SOL     OW13453   4.634   4.303   3.006
 4185SOL    HW113454   4.553   4.359   2.986
 4185SOL    HW213455   4.663   4.256   2.923
 4186SOL     OW13456   1.623   4.782   6.832
 4186SOL    HW113457   1.538   4.730   6.820
 4186SOL    HW213458   1.611   4.873   6.792
 4187SOL     OW13459   2.273   4.094   6.499
 4187SOL    HW113460   2.211   4.097   6.578
 4187SOL    HW213461   2.301   3.999   6.483
 4188SOL     OW13462   5.423   0.594   6.361
 4188SOL    HW113463   5.476   0.677   6.373
 4188SOL    HW213464   5.383   0.593   6.269
 4189SOL     OW13465   4.657   5.448   3.110
 4189SOL    HW113466   4.642   5.437   3.209
 4189SOL    HW213467   4.580   5.407   3.061
 4190SOL     OW13468   6.690   6.203   1.706
 4190SOL    HW113469   6.790   6.194   1.713
 4190SOL    HW213470   6.666   6.245   1.619
 4191SOL     OW13471   4.498   2.490   6.090
 4191SOL    HW113472   4.589   2.472   6.052
 4191SOL    HW213473   4.429   2.448   6.032
 4192SOL     OW13474   1.354   3.501   6.256
 4192SOL    HW113475   1.380   3.522   6.350
 4192SOL    HW213476   1.259   3.527   6.241
 4193SOL     OW13477   6.475   6.716   1.773
 4193SOL    HW113478   6.413   6.666   1.713
 4193SOL    HW213479   6.444   6.709   1.868
 4194SOL     OW13480   5.518   0.512   6.765
 4194SOL    HW113481   5.434   0.469   6.734
 4194SOL    HW213482   5.588   0.504   6.694
 4195SOL     OW13483   2.181   5.932   0.596
 4195SOL    HW113484   2.145   5.973   0.512
 4195SOL    HW213485   2.279   5.913   0.585
 4196SOL     OW13486   6.930   3.027   3.595
 4196SOL    HW113487   7.014   2.975   3.607
 4196SOL    HW213488   6.879   3.030   3.681
 4197SOL     OW13489   4.299   0.575   0.300
 4197SOL    HW113490   4.379   0.606   0.249
 4197SOL    HW213491   4.286   0.633   0.380
 4198SOL     OW13492   0.109   2.404   1.497
 4198SOL    HW113493   0.208   2.410   1.486
 4198SOL    HW213494   0.087   2.329   1.560
 4199SOL     OW13495   1.024   4.002   6.771
 4199SOL    HW113496   1.007   3.980   6.674
 4199SOL    HW213497   0.937   4.005   6.819
 4200SOL     OW13498   5.454   1.630   2.653
 4200SOL    HW113499   5.510   1.706   2.685
 4200SOL    HW213500   5.390   1.603   2.726
 4201SOL     OW13501   5.162   0.243   4.658
 4201SOL    HW113502   5.096   0.177   4.623
 4201SOL    HW213503   5.115   0.309   4.717
 4202SOL     OW13504   4.478   4.030   1.635
 4202SOL    HW113505   4.461   4.083   1.718
 4202SOL    HW213506   4.392   3.994   1.599
 4203SOL     OW13507   6.044   4.047   5.042
 4203SOL    HW113508   6.065   4.066   5.138
 4203SOL    HW213509   6.086   3.961   5.015
 4204SOL     OW13510   2.304   4.219   6.087
 4204SOL    HW113511   2.308   4.119   6.085
 4204SOL    HW213512   2.226   4.250   6.032
 4205SOL     OW13513   5.497   6.160   5.765
 4205SOL    HW113514   5.538   6.243   5.728
 4205SOL    HW213515   5.557   6.122   5.836
 4206SOL     OW13516   2.416   2.410   4.648
 4206SOL    HW113517   2.490   2.356   4.689
 4206SOL    HW213518   2.448   2.503   4.630
 4207SOL     OW13519   2.099   2.562   1.562
 4207SOL    HW113520   2.147   2.500   1.499
 4207SOL    HW213521   2.001   2.542   1.560
 4208SOL     OW13522   2.702   2.453   3.205
 4208SOL    HW113523   2.741   2.450   3.297
 4208SOL    HW213524   2.613   2.498   3.207
 4209SOL     OW13525   6.519   5.895   2.641
 4209SOL    HW113526   6.468   5.938   2.567
 4209SOL    HW213527   6.617   5.917   2.632
 4210SOL     OW13528   2.896   4.816   5.712
 4210SOL    HW113529   2.811   4.777   5.676
 4210SOL    HW213530   2.937   4.876   5.644
 4211SOL     OW13531   4.336   2.721   5.992
 4211SOL    HW113532   4.249   2.673   5.982
 4211SOL    HW213533   4.398   2.667   6.048
 4212SOL     OW13534   0.851   2.712   3.236
 4212SOL    HW113535   0.883   2.653   3.163
 4212SOL    HW213536   0.773   2.766   3.204
 4213SOL     OW13537   3.624   0.840   3.359
 4213SOL    HW113538   3.653   0.850   3.265
 4213SOL    HW213539   3.693   0.878   3.420
 4214SOL     OW13540   6.612   6.906   3.968
 4214SOL    HW113541   6.556   6.828   3.939
 4214SOL    HW213542   6.605   6.979   3.900
 4215SOL     OW13543   5.914   0.181   5.125
 4215SOL    HW113544   5.831   0.235   5.143
 4215SOL    HW213545   5.981   0.201   5.196
 4216SOL     OW13546   2.520   5.608   2.489
 4216SOL    HW113547   2.420   5.609   2.501
 4216SOL    HW213548   2.544   5.664   2.410
 4217SOL     OW13549   0.582   0.563   2.583
 4217SOL    HW113550   0.575   0.550   2.682
 4217SOL    HW213551   0.619   0.480   2.541
 4218SOL     OW13552   3.150   0.417   1.877
 4218SOL    HW113553   3.222   0.465   1.826
 4218SOL    HW213554   3.072   0.400   1.816
 4219SOL     OW13555   3.298   5.331   3.090
 4219SOL    HW113556   3.232   5.291   3.026
 4219SOL    HW213557   3.266   5.315   3.184
 4220SOL     OW13558   5.958   2.268   1.327
 4220SOL    HW113559   5.924   2.283   1.420
 4220SOL    HW213560   5.917   2.185   1.290
 4221SOL     OW13561   0.565   6.909   1.172
 4221SOL    HW113562   0.578   6.997   1.127
 4221SOL    HW213563   0.625   6.840   1.130
 4222SOL     OW13564   4.961   3.350   4.454
 4222SOL    HW113565   5.056   3.323   4.471
 4222SOL    HW213566   4.950   3.376   4.358
 4223SOL     OW13567   3.330   4.000   3.069
 4223SOL    HW113568   3.276   3.981   3.150
 4223SOL    HW213569   3.269   4.020   2.992
 4224SOL     OW13570   4.670   4.402   4.497
 4224SOL    HW113571   4.656   4.308   4.528
 4224SOL    HW213572   4.610   4.464   4.546
 4225SOL     OW13573   0.706   1.931   6.461
 4225SOL    HW113574   0.677   1.847   6.416
 4225SOL    HW213575   0.653   2.008   6.425
 4226SOL     OW13576   5.467   4.819   4.611
 4226SOL    HW113577   5.557   4.775   4.607
 4226SOL    HW213578   5.395   4.750   4.616
 4227SOL     OW13579   5.402   5.386   1.035
 4227SOL    HW113580   5.459   5.444   0.977
 4227SOL    HW213581   5.336   5.443   1.084
 4228SOL     OW13582   1.461   4.383   3.496
 4228SOL    HW113583   1.507   4.431   3.421
 4228SOL    HW213584   1.528   4.356   3.565
 4229SOL     OW13585   6.242   6.128   5.425
 4229SOL    HW113586   6.178   6.053   5.438
 4229SOL    HW213587   6.313   6.101   5.361
 4230SOL     OW13588   0.137   1.155   2.006
 4230SOL    HW113589   0.081   1.077   1.979
 4230SOL    HW213590   0.186   1.190   1.927
 4231SOL     OW13591   0.494   0.286   6.299
 4231SOL    HW113592   0.564   0.216   6.288
 4231SOL    HW213593   0.432   0.284   6.221
 4232SOL     OW13594   1.570   4.483   3.267
 4232SOL    HW113595   1.519   4.563   3.236
 4232SOL    HW213596   1.553   4.406   3.206
 4233SOL     OW13597   4.420   4.997   2.470
 4233SOL    HW113598   4.353   5.057   2.427
 4233SOL    HW213599   4.479   4.958   2.400
 4234SOL     OW13600   3.449   5.131   5.865
 4234SOL    HW113601   3.400   5.066   5.923
 4234SOL    HW213602   3.464   5.090   5.775
 4235SOL     OW13603   6.929   6.039   6.609
 4235SOL    HW113604   6.904   6.036   6.512
 4235SOL    HW213605   6.918   5.947   6.649
 4236SOL     OW13606   0.478   5.396   2.945
 4236SOL    HW113607   0.532   5.374   3.026
 4236SOL    HW213608   0.528   5.462   2.889
 4237SOL     OW13609   6.340   4.499   3.466
 4237SOL    HW113610   6.372   4.439   3.393
 4237SOL    HW213611   6.402   4.491   3.544
 4238SOL     OW13612   2.860   5.759   2.820
 4238SOL    HW113613   2.958   5.738   2.817
 4238SOL    HW213614   2.810   5.676   2.844
 4239SOL     OW13615   3.915   1.019   3.363
 4239SOL    HW113616   3.860   1.000   3.282
 4239SOL    HW213617   3.922   0.937   3.420
 4240SOL     OW13618   5.661   0.043   2.549
 4240SOL    HW113619   5.631   0.113   2.614
 4240SOL    HW213620   5.622   0.064   2.459
 4241SOL     OW13621   6.801   4.627   0.351
 4241SOL    HW113622   6.745   4.710   0.349
 4241SOL    HW213623   6.897   4.652   0.360
 4242SOL     OW13624   3.567   2.147   3.129
 4242SOL    HW113625   3.621   2.136   3.046
 4242SOL    HW213626   3.471   2.165   3.104
 4243SOL     OW13627   3.570   2.091   2.566
 4243SOL    HW113628   3.660   2.049   2.580
 4243SOL    HW213629   3.555   2.105   2.469
 4244SOL     OW13630   2.970   3.460   5.056
 4244SOL    HW113631   3.058   3.424   5.087
 4244SOL    HW213632   2.946   3.418   4.968
 4245SOL     OW13633   6.650   0.738   6.232
 4245SOL    HW113634   6.657   0.775   6.139
 4245SOL    HW213635   6.567   0.685   6.240
 4246SOL     OW13636   0.753   4.498   6.223
 4246SOL    HW113637   0.736   4.566   6.151
 4246SOL    HW213638   0.732   4.407   6.187
 4247SOL     OW13639   0.268   5.325   5.027
 4247SOL    HW113640   0.221   5.344   5.114
 4247SOL    HW213641   0.337   5.395   5.011
 4248SOL     OW13642   2.142   3.641   6.558
 4248SOL    HW113643   2.173   3.626   6.652
 4248SOL    HW213644   2.058   3.590   6.542
 4249SOL     OW13645   5.326   2.820   6.261
 4249SOL    HW113646   5.318   2.721   6.245
 4249SOL    HW213647   5.394   2.837   6.332
 4250SOL     OW13648   6.554   4.128   3.330
 4250SOL    HW113649   6.650   4.147   3.352
 4250SOL    HW213650   6.526   4.042   3.374
 4251SOL     OW13651   6.156   4.813   6.139
 4251SOL    HW113652   6.067   4.772   6.162
 4251SOL    HW213653   6.227   4.773   6.196
 4252SOL     OW13654   6.784   5.038   5.261
 4252SOL    HW113655   6.853   4.986   5.212
 4252SOL    HW213656   6.700   4.984   5.267
 4253SOL     OW13657   3.489   6.472   3.136
 4253SOL    HW113658   3.418   6.542   3.146
 4253SOL    HW213659   3.447   6.381   3.134
 4254SOL     OW13660   3.007   3.359   2.225
 4254SOL    HW113661   3.105   3.377   2.235
 4254SOL    HW213662   2.959   3.446   2.212
 4255SOL     OW13663   0.600   2.214   4.103
 4255SOL    HW113664   0.502   2.232   4.113
 4255SOL    HW213665   0.617   2.172   4.014
 4256SOL     OW13666   1.678   1.204   2.014
 4256SOL    HW113667   1.687   1.302   2.033
 4256SOL    HW213668   1.609   1.165   2.074
 4257SOL     OW13669   4.076   2.159   5.358
 4257SOL    HW113670   4.059   2.068   5.319
 4257SOL    HW213671   4.170   2.165   5.390
 4258SOL     OW13672   5.409   6.270   2.469
 4258SOL    HW113673   5.481   6.324   2.512
 4258SOL    HW213674   5.351   6.229   2.540
 4259SOL     OW13675   2.421   3.646   1.459
 4259SOL    HW113676   2.434   3.695   1.545
 4259SOL    HW213677   2.366   3.564   1.474
 4260SOL     OW13678   4.170   5.853   4.312
 4260SOL    HW113679   4.169   5.860   4.411
 4260SOL    HW213680   4.213   5.934   4.272
 4261SOL     OW13681   0.901   1.327   3.262
 4261SOL    HW113682   0.810   1.339   3.302
 4261SOL    HW213683   0.967   1.308   3.334
 4262SOL     OW13684   0.875   5.956   5.804
 4262SOL    HW113685   0.795   5.899   5.784
 4262SOL    HW213686   0.920   5.982   5.719
 4263SOL     OW13687   4.309   5.074   6.618
 4263SOL    HW113688   4.332   4.979   6.599
 4263SOL    HW213689   4.391   5.122   6.649
 4264SOL     OW13690   0.493   0.233   1.517
 4264SOL    HW113691   0.550   0.296   1.465
 4264SOL    HW213692   0.397   0.259   1.506
 4265SOL     OW13693   1.576   1.345   0.381
 4265SOL    HW113694   1.610   1.366   0.289
 4265SOL    HW213695   1.643   1.289   0.430
 4266SOL     OW13696   3.402   4.591   0.631
 4266SOL    HW113697   3.394   4.542   0.544
 4266SOL    HW213698   3.344   4.672   0.629
 4267SOL     OW13699   1.447   3.968   5.714
 4267SOL    HW113700   1.540   3.950   5.682
 4267SOL    HW213701   1.431   4.067   5.719
 4268SOL     OW13702   1.328   1.328   1.602
 4268SOL    HW113703   1.253   1.393   1.587
 4268SOL    HW213704   1.414   1.372   1.577
 4269SOL     OW13705   2.836   3.782   0.872
 4269SOL    HW113706   2.921   3.818   0.834
 4269SOL    HW213707   2.771   3.858   0.886
 4270SOL     OW13708   4.027   2.960   6.630
 4270SOL    HW113709   4.010   3.050   6.671
 4270SOL    HW213710   3.989   2.958   6.537
 4271SOL     OW13711   1.528   0.629   1.032
 4271SOL    HW113712   1.605   0.623   1.096
 4271SOL    HW213713   1.446   0.594   1.076
 4272SOL     OW13714   0.021   3.888   3.852
 4272SOL    HW113715   0.013   3.964   3.917
 4272SOL    HW213716   0.099   3.904   3.792
 4273SOL     OW13717   5.886   7.006   3.785
 4273SOL    HW113718   5.852   0.073   3.753
 4273SOL    HW213719   5.953   6.970   3.720
 4274SOL     OW13720   2.398   0.283   3.941
 4274SOL    HW113721   2.307   0.318   3.918
 4274SOL    HW213722   2.399   0.255   4.037
 4275SOL     OW13723   0.637   0.452   5.465
 4275SOL    HW113724   0.664   0.411   5.378
 4275SOL    HW213725   0.568   0.395   5.509
 4276SOL     OW13726   2.381   4.362   2.495
 4276SOL    HW113727   2.289   4.333   2.521
 4276SOL    HW213728   2.420   4.420   2.567
 4277SOL     OW13729   0.637   5.350   5.372
 4277SOL    HW113730   0.633   5.362   5.273
 4277SOL    HW213731   0.705   5.280   5.394
 4278SOL     OW13732   1.433   6.052   6.476
 4278SOL    HW113733   1.411   6.080   6.383
 4278SOL    HW213734   1.532   6.057   6.490
 4279SOL     OW13735   3.092   6.054   3.649
 4279SOL    HW113736   3.158   5.982   3.670
 4279SOL    HW213737   3.003   6.013   3.630
 4280SOL     OW13738   5.094   2.262   3.297
 4280SOL    HW113739   5.060   2.271   3.391
 4280SOL    HW213740   5.153   2.340   3.275
 4281SOL     OW13741   1.873   3.991   5.095
 4281SOL    HW113742   1.952   4.031   5.142
 4281SOL    HW213743   1.893   3.896   5.071
 4282SOL     OW13744   0.307   2.166   0.826
 4282SOL    HW113745   0.283   2.071   0.808
 4282SOL    HW213746   0.228   2.225   0.811
 4283SOL     OW13747   2.257   1.109   4.521
 4283SOL    HW113748   2.241   1.190   4.578
 4283SOL    HW213749   2.313   1.135   4.442
 4284SOL     OW13750   6.703   2.216   2.956
 4284SOL    HW113751   6.670   2.161   2.880
 4284SOL    HW213752   6.631   2.278   2.986
 4285SOL     OW13753   0.991   6.258   4.434
 4285SOL    HW113754   0.992   6.240   4.335
 4285SOL    HW213755   1.077   6.301   4.461
 4286SOL     OW13756   4.130   5.527   6.598
 4286SOL    HW113757   4.191   5.584   6.543
 4286SOL    HW213758   4.035   5.555   6.581
 4287SOL     OW13759   4.067   5.682   5.381
 4287SOL    HW113760   3.973   5.702   5.354
 4287SOL    HW213761   4.094   5.594   5.343
 4288SOL     OW13762   1.109   5.937   3.481
 4288SOL    HW113763   1.166   5.981   3.411
 4288SOL    HW213764   1.168   5.900   3.553
 4289SOL     OW13765   0.363   4.083   0.070
 4289SOL    HW113766   0.408   4.140   0.138
 4289SOL    HW213767   0.359   4.131   7.004
 4290SOL     OW13768   1.862   1.438   3.142
 4290SOL    HW113769   1.882   1.527   3.099
 4290SOL    HW213770   1.936   1.414   3.204
 4291SOL     OW13771   0.259   4.151   1.282
 4291SOL    HW113772   0.330   4.133   1.351
 4291SOL    HW213773   0.246   4.249   1.272
 4292SOL     OW13774   5.787   5.527   5.620
 4292SOL    HW113775   5.822   5.535   5.526
 4292SOL    HW213776   5.856   5.558   5.684
 4293SOL     OW13777   0.374   2.095   6.799
 4293SOL    HW113778   0.303   2.041   6.845
 4293SOL    HW213779   0.402   2.049   6.715
 4294SOL     OW13780   5.144   1.572   6.229
 4294SOL    HW113781   5.114   1.488   6.273
 4294SOL    HW213782   5.233   1.558   6.185
 4295SOL     OW13783   3.817   5.990   5.755
 4295SOL    HW113784   3.752   5.960   5.824
 4295SOL    HW213785   3.819   6.090   5.752
 4296SOL     OW13786   2.190   1.209   2.528
 4296SOL    HW113787   2.250   1.265   2.585
 4296SOL    HW213788   2.143   1.266   2.462
 4297SOL     OW13789   5.838   0.272   0.621
 4297SOL    HW113790   5.751   0.297   0.662
 4297SOL    HW213791   5.854   0.328   0.540
 4298SOL     OW13792   1.998   5.034   2.011
 4298SOL    HW113793   1.952   5.059   1.926
 4298SOL    HW213794   1.932   4.989   2.072
 4299SOL     OW13795   1.521   5.201   5.103
 4299SOL    HW113796   1.583   5.123   5.096
 4299SOL    HW213797   1.427   5.169   5.104
 4300SOL     OW13798   6.177   6.796   5.549
 4300SOL    HW113799   6.136   6.705   5.540
 4300SOL    HW213800   6.127   6.861   5.491
 4301SOL     OW13801   3.258   0.902   0.692
 4301SOL    HW113802   3.211   0.932   0.609
 4301SOL    HW213803   3.192   0.893   0.766
 4302SOL     OW13804   0.915   0.305   6.725
 4302SOL    HW113805   0.853   0.326   6.800
 4302SOL    HW213806   1.006   0.286   6.761
 4303SOL     OW13807   0.043   4.307   1.466
 4303SOL    HW113808   0.069   4.381   1.404
 4303SOL    HW213809   0.016   4.345   1.554
 4304SOL     OW13810   3.027   3.726   5.585
 4304SOL    HW113811   3.074   3.748   5.671
 4304SOL    HW213812   3.059   3.787   5.513
 4305SOL     OW13813   6.970   1.258   5.430
 4305SOL    HW113814   6.885   1.285   5.385
 4305SOL    HW213815   0.025   1.278   5.369
 4306SOL     OW13816   6.306   5.595   5.738
 4306SOL    HW113817   6.257   5.532   5.678
 4306SOL    HW213818   6.297   5.688   5.702
 4307SOL     OW13819   5.679   3.417   0.197
 4307SOL    HW113820   5.707   3.498   0.146
 4307SOL    HW213821   5.670   3.441   0.294
 4308SOL     OW13822   3.221   6.756   5.206
 4308SOL    HW113823   3.283   6.832   5.225
 4308SOL    HW213824   3.154   6.749   5.280
 4309SOL     OW13825   1.577   0.623   1.391
 4309SOL    HW113826   1.669   0.584   1.387
 4309SOL    HW213827   1.582   0.722   1.396
 4310SOL     OW13828   1.596   0.258   2.779
 4310SOL    HW113829   1.513   0.291   2.824
 4310SOL    HW213830   1.672   0.319   2.802
 4311SOL     OW13831   1.548   5.618   4.456
 4311SOL    HW113832   1.541   5.591   4.360
 4311SOL    HW213833   1.530   5.538   4.514
 4312SOL     OW13834   1.093   5.694   1.552
 4312SOL    HW113835   1.166   5.761   1.543
 4312SOL    HW213836   1.068   5.659   1.462
 4313SOL     OW13837   4.923   0.546   1.689
 4313SOL    HW113838   4.913   0.565   1.592
 4313SOL    HW213839   4.887   0.622   1.743
 4314SOL     OW13840   5.563   3.463   1.205
 4314SOL    HW113841   5.651   3.507   1.184
 4314SOL    HW213842   5.488   3.518   1.168
 4315SOL     OW13843   2.095   1.418   2.323
 4315SOL    HW113844   2.016   1.358   2.319
 4315SOL    HW213845   2.164   1.388   2.257
 4316SOL     OW13846   0.396   1.388   2.643
 4316SOL    HW113847   0.445   1.310   2.681
 4316SOL    HW213848   0.412   1.392   2.544
 4317SOL     OW13849   3.877   0.542   3.105
 4317SOL    HW113850   3.914   0.543   3.198
 4317SOL    HW213851   3.908   0.623   3.055
 4318SOL     OW13852   6.591   2.633   5.246
 4318SOL    HW113853   6.623   2.659   5.337
 4318SOL    HW213854   6.638   2.688   5.177
 4319SOL     OW13855   3.578   2.266   6.068
 4319SOL    HW113856   3.487   2.228   6.050
 4319SOL    HW213857   3.569   2.350   6.121
 4320SOL     OW13858   0.135   6.236   3.423
 4320SOL    HW113859   0.098   6.146   3.400
 4320SOL    HW213860   0.203   6.263   3.356
 4321SOL     OW13861   0.689   0.355   4.828
 4321SOL    HW113862   0.741   0.281   4.786
 4321SOL    HW213863   0.724   0.443   4.797
 4322SOL     OW13864   5.798   1.433   1.338
 4322SOL    HW113865   5.732   1.411   1.265
 4322SOL    HW213866   5.777   1.378   1.419
 4323SOL     OW13867   6.991   1.932   3.935
 4323SOL    HW113868   6.968   1.909   3.841
 4323SOL    HW213869   6.917   1.904   3.996
 4324SOL     OW13870   5.477   2.753   5.701
 4324SOL    HW113871   5.518   2.736   5.790
 4324SOL    HW213872   5.446   2.667   5.661
 4325SOL     OW13873   1.609   2.200   6.720
 4325SOL    HW113874   1.589   2.287   6.675
 4325SOL    HW213875   1.678   2.215   6.791
 4326SOL     OW13876   6.280   2.405   5.080
 4326SOL    HW113877   6.186   2.438   5.067
 4326SOL    HW213878   6.278   2.319   5.132
 4327SOL     OW13879   4.817   0.986   2.689
 4327SOL    HW113880   4.732   1.026   2.724
 4327SOL    HW213881   4.857   0.925   2.757
 4328SOL     OW13882   5.772   4.791   0.379
 4328SOL    HW113883   5.768   4.804   0.280
 4328SOL    HW213884   5.866   4.800   0.411
 4329SOL     OW13885   4.934   2.195   0.341
 4329SOL    HW113886   4.875   2.263   0.298
 4329SOL    HW213887   4.928   2.108   0.292
 4330SOL     OW13888   1.051   1.026   6.537
 4330SOL    HW113889   0.963   1.023   6.583
 4330SOL    HW213890   1.066   0.941   6.487
 4331SOL     OW13891   5.179   2.108   6.756
 4331SOL    HW113892   5.091   2.066   6.781
 4331SOL    HW213893   5.162   2.197   6.712
 4332SOL     OW13894   5.431   3.800   1.761
 4332SOL    HW113895   5.402   3.854   1.840
 4332SOL    HW213896   5.418   3.703   1.781
 4333SOL     OW13897   6.358   1.516   5.128
 4333SOL    HW113898   6.408   1.578   5.067
 4333SOL    HW213899   6.303   1.453   5.073
 4334SOL     OW13900   3.859   0.156   1.869
 4334SOL    HW113901   3.956   0.176   1.883
 4334SOL    HW213902   3.805   0.233   1.903
 4335SOL     OW13903   3.601   4.453   5.781
 4335SOL    HW113904   3.590   4.441   5.682
 4335SOL    HW213905   3.682   4.508   5.799
 4336SOL     OW13906   1.184   6.919   5.837
 4336SOL    HW113907   1.265   6.918   5.895
 4336SOL    HW213908   1.202   6.867   5.753
 4337SOL     OW13909   0.490   5.760   6.986
 4337SOL    HW113910   0.486   5.813   6.901
 4337SOL    HW213911   0.484   5.822   0.043
 4338SOL     OW13912   5.466   6.536   3.482
 4338SOL    HW113913   5.480   6.453   3.536
 4338SOL    HW213914   5.389   6.588   3.520
 4339SOL     OW13915   6.655   1.518   6.320
 4339SOL    HW113916   6.568   1.548   6.360
 4339SOL    HW213917   6.676   1.573   6.240
 4340SOL     OW13918   4.215   3.677   1.565
 4340SOL    HW113919   4.207   3.578   1.572
 4340SOL    HW213920   4.237   3.703   1.471
 4341SOL     OW13921   1.052   3.496   0.941
 4341SOL    HW113922   1.050   3.468   1.037
 4341SOL    HW213923   1.059   3.416   0.882
 4342SOL     OW13924   0.378   1.953   3.137
 4342SOL    HW113925   0.419   1.987   3.222
 4342SOL    HW213926   0.450   1.940   3.069
 4343SOL     OW13927   2.942   2.076   0.784
 4343SOL    HW113928   2.931   2.062   0.685
 4343SOL    HW213929   2.898   2.000   0.833
 4344SOL     OW13930   1.851   3.718   2.016
 4344SOL    HW113931   1.834   3.751   1.924
 4344SOL    HW213932   1.801   3.633   2.031
 4345SOL     OW13933   2.862   1.134   6.094
 4345SOL    HW113934   2.780   1.168   6.048
 4345SOL    HW213935   2.928   1.208   6.104
 4346SOL     OW13936   6.943   3.763   1.392
 4346SOL    HW113937   6.974   3.844   1.441
 4346SOL    HW213938   0.001   3.715   1.355
 4347SOL     OW13939   4.722   5.545   2.674
 4347SOL    HW113940   4.814   5.559   2.710
 4347SOL    HW213941   4.655   5.564   2.746
 4348SOL     OW13942   1.265   3.667   0.250
 4348SOL    HW113943   1.253   3.571   0.227
 4348SOL    HW213944   1.354   3.699   0.218
 4349SOL     OW13945   6.678   0.743   1.698
 4349SOL    HW113946   6.701   0.740   1.601
 4349SOL    HW213947   6.745   0.689   1.750
 4350SOL     OW13948   4.133   0.855   2.736
 4350SOL    HW113949   4.144   0.898   2.826
 4350SOL    HW213950   4.153   0.757   2.743
 4351SOL     OW13951   3.023   6.811   6.997
 4351SOL    HW113952   3.084   6.846   6.925
 4351SOL    HW213953   2.998   6.717   6.978
 4352SOL     OW13954   6.651   1.908   2.444
 4352SOL    HW113955   6.585   1.918   2.518
 4352SOL    HW213956   6.610   1.937   2.357
 4353SOL     OW13957   3.130   5.501   1.174
 4353SOL    HW113958   3.222   5.501   1.136
 4353SOL    HW213959   3.085   5.588   1.155
 4354SOL     OW13960   3.058   0.644   1.108
 4354SOL    HW113961   3.065   0.738   1.075
 4354SOL    HW213962   2.979   0.636   1.169
 4355SOL     OW13963   4.985   6.801   0.162
 4355SOL    HW113964   5.014   6.811   0.257
 4355SOL    HW213965   4.930   6.879   0.135
 4356SOL     OW13966   3.445   3.496   0.633
 4356SOL    HW113967   3.443   3.439   0.715
 4356SOL    HW213968   3.458   3.592   0.660
 4357SOL     OW13969   5.724   0.870   6.970
 4357SOL    HW113970   5.767   0.960   6.963
 4357SOL    HW213971   5.662   0.857   6.893
 4358SOL     OW13972   6.025   0.831   1.389
 4358SOL    HW113973   6.086   0.775   1.334
 4358SOL    HW213974   6.029   0.926   1.358
 4359SOL     OW13975   6.541   4.124   4.352
 4359SOL    HW113976   6.609   4.071   4.403
 4359SOL    HW213977   6.511   4.071   4.272
 4360SOL     OW13978   2.155   3.953   0.817
 4360SOL    HW113979   2.133   3.872   0.763
 4360SOL    HW213980   2.249   3.948   0.849
 4361SOL     OW13981   5.942   2.540   2.322
 4361SOL    HW113982   6.000   2.571   2.247
 4361SOL    HW213983   5.850   2.577   2.311
 4362SOL     OW13984   5.256   4.014   2.699
 4362SOL    HW113985   5.226   4.040   2.607
 4362SOL    HW213986   5.254   3.914   2.707
 4363SOL     OW13987   5.110   0.551   6.496
 4363SOL    HW113988   5.030   0.540   6.437
 4363SOL    HW213989   5.181   0.601   6.447
 4364SOL     OW13990   3.790   4.012   4.645
 4364SOL    HW113991   3.839   4.015   4.558
 4364SOL    HW213992   3.854   3.993   4.720
 4365SOL     OW13993   4.369   2.367   0.269
 4365SOL    HW113994   4.449   2.311   0.289
 4365SOL    HW213995   4.357   2.435   0.342
 4366SOL     OW13996   5.041   4.822   6.982
 4366SOL    HW113997   5.070   4.841   6.888
 4366SOL    HW213998   5.075   4.732   7.010
 4367SOL     OW13999   6.854   7.009   1.156
 4367SOL    HW114000   6.785   0.043   1.109
 4367SOL    HW214001   6.870   0.025   1.247
 4368SOL     OW14002   4.292   4.641   2.156
 4368SOL    HW114003   4.379   4.592   2.157
 4368SOL    HW214004   4.263   4.660   2.250
 4369SOL     OW14005   3.227   5.234   1.733
 4369SOL    HW114006   3.225   5.324   1.689
 4369SOL    HW214007   3.179   5.168   1.675
 4370SOL     OW14008   5.094   4.526   2.194
 4370SOL    HW114009   5.072   4.616   2.233
 4370SOL    HW214010   5.080   4.528   2.095
 4371SOL     OW14011   1.266   1.751   2.604
 4371SOL    HW114012   1.279   1.830   2.544
 4371SOL    HW214013   1.252   1.783   2.698
 4372SOL     OW14014   4.844   0.010   3.661
 4372SOL    HW114015   4.758   0.056   3.681
 4372SOL    HW214016   4.878   0.041   3.572
 4373SOL     OW14017   6.891   1.496   6.076
 4373SOL    HW114018   6.944   1.483   6.160
 4373SOL    HW214019   6.851   1.588   6.075
 4374SOL     OW14020   3.518   1.300   0.404
 4374SOL    HW114021   3.575   1.220   0.386
 4374SOL    HW214022   3.437   1.273   0.457
 4375SOL     OW14023   3.692   5.622   4.102
 4375SOL    HW114024   3.787   5.651   4.112
 4375SOL    HW214025   3.632   5.685   4.151
 4376SOL     OW14026   0.319   2.217   4.131
 4376SOL    HW114027   0.314   2.199   4.229
 4376SOL    HW214028   0.288   2.137   4.081
 4377SOL     OW14029   6.607   4.752   6.233
 4377SOL    HW114030   6.590   4.693   6.312
 4377SOL    HW214031   6.520   4.785   6.197
 4378SOL     OW14032   3.049   1.731   4.122
 4378SOL    HW114033   3.021   1.802   4.186
 4378SOL    HW214034   2.999   1.743   4.036
 4379SOL     OW14035   3.977   2.089   6.332
 4379SOL    HW114036   3.917   2.167   6.312
 4379SOL    HW214037   4.038   2.074   6.255
 4380SOL     OW14038   0.189   2.284   3.186
 4380SOL    HW114039   0.194   2.275   3.286
 4380SOL    HW214040   0.097   2.261   3.155
 4381SOL     OW14041   1.272   5.528   0.067
 4381SOL    HW114042   1.308   5.566   0.152
 4381SOL    HW214043   1.268   5.600   7.019
 4382SOL     OW14044   1.180   5.613   4.413
 4382SOL    HW114045   1.186   5.536   4.349
 4382SOL    HW214046   1.234   5.690   4.379
 4383SOL     OW14047   6.997   4.272   0.781
 4383SOL    HW114048   6.903   4.243   0.768
 4383SOL    HW214049   7.008   4.366   0.748
 4384SOL     OW14050   5.005   6.826   3.712
 4384SOL    HW114051   4.925   6.879   3.684
 4384SOL    HW214052   4.989   6.787   3.802
 4385SOL     OW14053   4.634   1.164   5.583
 4385SOL    HW114054   4.645   1.197   5.489
 4385SOL    HW214055   4.605   1.069   5.582
 4386SOL     OW14056   2.148   3.838   4.233
 4386SOL    HW114057   2.183   3.789   4.312
 4386SOL    HW214058   2.186   3.797   4.149
 4387SOL     OW14059   5.637   2.008   1.109
 4387SOL    HW114060   5.608   2.046   1.022
 4387SOL    HW214061   5.568   1.943   1.141
 4388SOL     OW14062   5.285   3.476   0.093
 4388SOL    HW114063   5.257   3.563   0.053
 4388SOL    HW214064   5.245   3.467   0.185
 4389SOL     OW14065   2.390   1.298   6.834
 4389SOL    HW114066   2.411   1.396   6.829
 4389SOL    HW214067   2.340   1.270   6.752
 4390SOL     OW14068   6.952   1.995   0.922
 4390SOL    HW114069   6.912   1.906   0.944
 4390SOL    HW214070   0.019   1.983   0.878
 4391SOL     OW14071   0.582   5.879   1.025
 4391SOL    HW114072   0.583   5.979   1.014
 4391SOL    HW214073   0.581   5.836   0.934
 4392SOL     OW14074   1.283   2.722   6.266
 4392SOL    HW114075   1.342   2.778   6.209
 4392SOL    HW214076   1.229   2.660   6.208
 4393SOL     OW14077   6.122   0.313   2.651
 4393SOL    HW114078   6.088   0.403   2.625
 4393SOL    HW214079   6.138   0.310   2.749
 4394SOL     OW14080   0.408   0.120   2.176
 4394SOL    HW114081   0.310   0.140   2.178
 4394SOL    HW214082   0.429   0.048   2.242
 4395SOL     OW14083   1.728   3.565   2.298
 4395SOL    HW114084   1.645   3.621   2.305
 4395SOL    HW214085   1.739   3.533   2.205
 4396SOL     OW14086   3.017   1.706   3.048
 4396SOL    HW114087   3.027   1.786   2.989
 4396SOL    HW214088   3.094   1.643   3.034
 4397SOL     OW14089   3.638   1.328   5.248
 4397SOL    HW114090   3.635   1.327   5.148
 4397SOL    HW214091   3.625   1.236   5.282
 4398SOL     OW14092   2.464   3.263   5.703
 4398SOL    HW114093   2.390   3.275   5.637
 4398SOL    HW214094   2.531   3.197   5.667
 4399SOL     OW14095   2.764   6.401   1.385
 4399SOL    HW114096   2.813   6.450   1.457
 4399SOL    HW214097   2.817   6.403   1.300
 4400SOL     OW14098   1.725   6.222   4.835
 4400SOL    HW114099   1.801   6.268   4.881
 4400SOL    HW214100   1.648   6.213   4.899
 4401SOL     OW14101   2.506   6.676   6.455
 4401SOL    HW114102   2.571   6.632   6.393
 4401SOL    HW214103   2.501   6.773   6.435
 4402SOL     OW14104   1.549   0.532   2.583
 4402SOL    HW114105   1.573   0.458   2.520
 4402SOL    HW214106   1.524   0.493   2.671
 4403SOL     OW14107   6.869   5.717   2.857
 4403SOL    HW114108   6.844   5.651   2.786
 4403SOL    HW214109   6.898   5.803   2.814
 4404SOL     OW14110   0.607   6.775   5.843
 4404SOL    HW114111   0.674   6.809   5.777
 4404SOL    HW214112   0.654   6.718   5.911
 4405SOL     OW14113   1.481   5.009   2.618
 4405SOL    HW114114   1.385   4.991   2.595
 4405SOL    HW214115   1.515   5.086   2.564
 4406SOL     OW14116   6.494   4.713   2.325
 4406SOL    HW114117   6.441   4.711   2.241
 4406SOL    HW214118   6.587   4.679   2.307
 4407SOL     OW14119   6.369   6.775   0.875
 4407SOL    HW114120   6.456   6.728   0.859
 4407SOL    HW214121   6.334   6.749   0.965
 4408SOL     OW14122   4.758   0.878   1.079
 4408SOL    HW114123   4.701   0.797   1.069
 4408SOL    HW214124   4.727   0.930   1.159
 4409SOL     OW14125   2.910   0.900   4.625
 4409SOL    HW114126   2.846   0.973   4.650
 4409SOL    HW214127   2.891   0.870   4.532
 4410SOL     OW14128   0.698   0.257   0.861
 4410SOL    HW114129   0.640   0.339   0.865
 4410SOL    HW214130   0.684   0.211   0.773
 4411SOL     OW14131   4.450   4.707   5.339
 4411SOL    HW114132   4.461   4.748   5.430
 4411SOL    HW214133   4.500   4.621   5.335
 4412SOL     OW14134   4.405   6.101   2.022
 4412SOL    HW114135   4.399   6.198   2.045
 4412SOL    HW214136   4.430   6.091   1.925
 4413SOL     OW14137   4.843   6.158   3.879
 4413SOL    HW114138   4.776   6.091   3.911
 4413SOL    HW214139   4.895   6.193   3.957
 4414SOL     OW14140   5.773   3.738   1.408
 4414SOL    HW114141   5.834   3.807   1.446
 4414SOL    HW214142   5.680   3.775   1.404
 4415SOL     OW14143   1.761   3.913   1.104
 4415SOL    HW114144   1.851   3.875   1.082
 4415SOL    HW214145   1.744   3.994   1.048
 4416SOL     OW14146   4.971   2.915   4.697
 4416SOL    HW114147   4.954   2.830   4.748
 4416SOL    HW214148   5.057   2.907   4.647
 4417SOL     OW14149   0.102   4.325   1.934
 4417SOL    HW114150   0.088   4.229   1.908
 4417SOL    HW214151   0.197   4.337   1.963
 4418SOL     OW14152   6.058   1.513   5.305
 4418SOL    HW114153   6.072   1.570   5.386
 4418SOL    HW214154   6.121   1.542   5.233
 4419SOL     OW14155   6.685   6.302   6.536
 4419SOL    HW114156   6.662   6.394   6.566
 4419SOL    HW214157   6.726   6.251   6.612
 4420SOL     OW14158   4.036   1.361   0.907
 4420SOL    HW114159   3.943   1.369   0.871
 4420SOL    HW214160   4.052   1.434   0.973
 4421SOL     OW14161   2.379   2.671   0.342
 4421SOL    HW114162   2.469   2.671   0.386
 4421SOL    HW214163   2.384   2.623   0.254
 4422SOL     OW14164   0.464   2.900   6.198
 4422SOL    HW114165   0.442   2.864   6.289
 4422SOL    HW214166   0.501   2.992   6.206
 4423SOL     OW14167   5.716   4.717   4.540
 4423SOL    HW114168   5.769   4.719   4.455
 4423SOL    HW214169   5.735   4.632   4.589
 4424SOL     OW14170   4.461   5.872   2.683
 4424SOL    HW114171   4.468   5.774   2.702
 4424SOL    HW214172   4.538   5.900   2.624
 4425SOL     OW14173   0.659   6.352   1.407
 4425SOL    HW114174   0.690   6.329   1.315
 4425SOL    HW214175   0.588   6.424   1.401
 4426SOL     OW14176   0.426   0.257   4.539
 4426SOL    HW114177   0.521   0.238   4.566
 4426SOL    HW214178   0.369   0.177   4.558
 4427SOL     OW14179   2.933   5.712   2.344
 4427SOL    HW114180   2.886   5.637   2.298
 4427SOL    HW214181   2.872   5.791   2.350
 4428SOL     OW14182   6.417   5.694   3.795
 4428SOL    HW114183   6.420   5.672   3.698
 4428SOL    HW214184   6.342   5.758   3.812
 4429SOL     OW14185   2.465   6.420   3.321
 4429SOL    HW114186   2.454   6.490   3.250
 4429SOL    HW214187   2.561   6.413   3.347
 4430SOL     OW14188   6.283   3.449   4.791
 4430SOL    HW114189   6.319   3.369   4.840
 4430SOL    HW214190   6.213   3.493   4.846
 4431SOL     OW14191   4.446   6.829   4.949
 4431SOL    HW114192   4.349   6.840   4.969
 4431SOL    HW214193   4.474   6.735   4.968
 4432SOL     OW14194   1.216   3.317   6.570
 4432SOL    HW114195   1.119   3.339   6.563
 4432SOL    HW214196   1.269   3.381   6.513
 4433SOL     OW14197   0.624   0.706   4.538
 4433SOL    HW114198   0.680   0.767   4.481
 4433SOL    HW214199   0.682   0.658   4.603
 4434SOL     OW14200   6.655   1.308   2.100
 4434SOL    HW114201   6.719   1.269   2.166
 4434SOL    HW214202   6.566   1.262   2.109
 4435SOL     OW14203   2.792   4.390   0.843
 4435SOL    HW114204   2.842   4.469   0.807
 4435SOL    HW214205   2.771   4.326   0.769
 4436SOL     OW14206   4.729   2.135   1.766
 4436SOL    HW114207   4.645   2.149   1.819
 4436SOL    HW214208   4.808   2.158   1.822
 4437SOL     OW14209   6.470   4.526   0.078
 4437SOL    HW114210   6.521   4.572   0.005
 4437SOL    HW214211   6.414   4.453   0.039
 4438SOL     OW14212   4.177   1.591   4.659
 4438SOL    HW114213   4.112   1.639   4.717
 4438SOL    HW214214   4.128   1.542   4.587
 4439SOL     OW14215   2.602   5.338   2.201
 4439SOL    HW114216   2.661   5.286   2.139
 4439SOL    HW214217   2.634   5.433   2.206
 4440SOL     OW14218   1.812   5.069   5.546
 4440SOL    HW114219   1.739   5.013   5.506
 4440SOL    HW214220   1.772   5.133   5.612
 4441SOL     OW14221   6.984   1.641   1.550
 4441SOL    HW114222   0.061   1.655   1.543
 4441SOL    HW214223   6.963   1.593   1.635
 4442SOL     OW14224   1.903   4.912   1.233
 4442SOL    HW114225   1.942   4.936   1.143
 4442SOL    HW214226   1.958   4.839   1.274
 4443SOL     OW14227   0.798   5.813   5.423
 4443SOL    HW114228   0.772   5.762   5.505
 4443SOL    HW214229   0.854   5.892   5.449
 4444SOL     OW14230   5.571   5.598   6.957
 4444SOL    HW114231   5.597   5.653   0.015
 4444SOL    HW214232   5.533   5.511   6.987
 4445SOL     OW14233   2.279   4.057   0.480
 4445SOL    HW114234   2.317   4.077   0.570
 4445SOL    HW214235   2.352   4.029   0.418
 4446SOL     OW14236   4.724   2.217   2.388
 4446SOL    HW114237   4.793   2.172   2.445
 4446SOL    HW214238   4.744   2.315   2.382
 4447SOL     OW14239   4.900   5.645   5.239
 4447SOL    HW114240   4.843   5.573   5.199
 4447SOL    HW214241   4.852   5.733   5.234
 4448SOL     OW14242   3.272   6.279   2.380
 4448SOL    HW114243   3.306   6.291   2.287
 4448SOL    HW214244   3.176   6.250   2.377
 4449SOL     OW14245   3.910   1.736   5.453
 4449SOL    HW114246   3.974   1.664   5.482
 4449SOL    HW214247   3.886   1.793   5.531
 4450SOL     OW14248   2.102   5.888   0.299
 4450SOL    HW114249   2.019   5.839   0.327
 4450SOL    HW214250   2.079   5.982   0.276
 4451SOL     OW14251   4.710   5.779   3.556
 4451SOL    HW114252   4.711   5.808   3.460
 4451SOL    HW214253   4.683   5.856   3.614
 4452SOL     OW14254   5.222   4.662   3.780
 4452SOL    HW114255   5.173   4.664   3.867
 4452SOL    HW214256   5.234   4.567   3.751
 4453SOL     OW14257   0.493   4.866   1.019
 4453SOL    HW114258   0.531   4.825   1.101
 4453SOL    HW214259   0.564   4.918   0.971
 4454SOL     OW14260   0.370   2.025   0.222
 4454SOL    HW114261   0.401   1.946   0.275
 4454SOL    HW214262   0.436   2.042   0.148
 4455SOL     OW14263   1.206   0.350   3.795
 4455SOL    HW114264   1.123   0.317   3.750
 4455SOL    HW214265   1.182   0.398   3.879
 4456SOL     OW14266   1.604   5.876   4.210
 4456SOL    HW114267   1.665   5.942   4.167
 4456SOL    HW214268   1.621   5.873   4.308
 4457SOL     OW14269   1.530   1.591   4.699
 4457SOL    HW114270   1.451   1.629   4.746
 4457SOL    HW214271   1.599   1.662   4.684
 4458SOL     OW14272   1.816   2.653   6.417
 4458SOL    HW114273   1.904   2.673   6.374
 4458SOL    HW214274   1.797   2.721   6.488
 4459SOL     OW14275   0.182   4.039   3.044
 4459SOL    HW114276   0.206   4.046   3.141
 4459SOL    HW214277   0.096   4.087   3.026
 4460SOL     OW14278   6.815   3.063   4.996
 4460SOL    HW114279   6.876   3.138   4.970
 4460SOL    HW214280   6.767   3.031   4.914
 4461SOL     OW14281   1.880   0.390   0.653
 4461SOL    HW114282   1.903   0.448   0.731
 4461SOL    HW214283   1.787   0.411   0.622
 4462SOL     OW14284   6.264   4.128   2.323
 4462SOL    HW114285   6.207   4.095   2.248
 4462SOL    HW214286   6.256   4.228   2.330
 4463SOL     OW14287   5.697   1.934   0.037
 4463SOL    HW114288   5.755   1.941   0.118
 4463SOL    HW214289   5.697   2.022   7.011
 4464SOL     OW14290   0.526   3.689   1.196
 4464SOL    HW114291   0.608   3.658   1.245
 4464SOL    HW214292   0.451   3.699   1.261
 4465SOL     OW14293   4.521   5.118   1.882
 4465SOL    HW114294   4.573   5.179   1.942
 4465SOL    HW214295   4.463   5.059   1.938
 4466SOL     OW14296   0.230   2.939   2.744
 4466SOL    HW114297   0.306   2.974   2.799
 4466SOL    HW214298   0.167   3.014   2.724
 4467SOL     OW14299   5.182   4.609   1.422
 4467SOL    HW114300   5.242   4.529   1.416
 4467SOL    HW214301   5.237   4.690   1.444
 4468SOL     OW14302   1.529   3.370   0.910
 4468SOL    HW114303   1.467   3.325   0.846
 4468SOL    HW214304   1.476   3.412   0.983
 4469SOL     OW14305   1.940   6.112   1.574
 4469SOL    HW114306   1.878   6.034   1.585
 4469SOL    HW214307   2.019   6.100   1.635
 4470SOL     OW14308   0.879   6.912   2.571
 4470SOL    HW114309   0.895   7.010   2.561
 4470SOL    HW214310   0.839   6.875   2.487
 4471SOL     OW14311   1.095   0.878   6.799
 4471SOL    HW114312   1.117   0.916   6.709
 4471SOL    HW214313   1.027   0.806   6.789
 4472SOL     OW14314   1.637   2.323   0.782
 4472SOL    HW114315   1.558   2.384   0.770
 4472SOL    HW214316   1.612   2.248   0.843
 4473SOL     OW14317   0.727   2.714   5.132
 4473SOL    HW114318   0.785   2.633   5.130
 4473SOL    HW214319   0.783   2.795   5.150
 4474SOL     OW14320   2.291   6.268   0.691
 4474SOL    HW114321   2.383   6.230   0.679
 4474SOL    HW214322   2.242   6.215   0.761
 4475SOL     OW14323   0.971   3.430   0.257
 4475SOL    HW114324   1.062   3.414   0.219
 4475SOL    HW214325   0.979   3.453   0.354
 4476SOL     OW14326   5.301   0.341   3.573
 4476SOL    HW114327   5.253   0.309   3.655
 4476SOL    HW214328   5.328   0.436   3.585
 4477SOL     OW14329   6.996   1.159   4.145
 4477SOL    HW114330   6.917   1.104   4.171
 4477SOL    HW214331   0.044   1.101   4.103
 4478SOL     OW14332   1.564   0.620   2.067
 4478SOL    HW114333   1.631   0.668   2.124
 4478SOL    HW214334   1.472   0.652   2.090
 4479SOL     OW14335   2.597   2.489   6.654
 4479SOL    HW114336   2.552   2.550   6.718
 4479SOL    HW214337   2.574   2.516   6.560
 4480SOL     OW14338   6.729   6.448   3.240
 4480SOL    HW114339   6.771   6.387   3.308
 4480SOL    HW214340   6.673   6.517   3.287
 4481SOL     OW14341   2.340   3.943   5.978
 4481SOL    HW114342   2.324   3.878   6.052
 4481SOL    HW214343   2.405   3.905   5.913
 4482SOL     OW14344   2.796   0.161   1.329
 4482SOL    HW114345   2.788   0.115   1.417
 4482SOL    HW214346   2.877   0.128   1.281
 4483SOL     OW14347   0.793   3.371   1.172
 4483SOL    HW114348   0.764   3.456   1.216
 4483SOL    HW214349   0.762   3.370   1.078
 4484SOL     OW14350   3.744   0.673   0.580
 4484SOL    HW114351   3.743   0.605   0.653
 4484SOL    HW214352   3.663   0.731   0.587
 4485SOL     OW14353   0.469   3.010   5.039
 4485SOL    HW114354   0.500   2.983   5.131
 4485SOL    HW214355   0.371   3.027   5.041
 4486SOL     OW14356   4.961   4.669   3.349
 4486SOL    HW114357   5.028   4.713   3.409
 4486SOL    HW214358   5.009   4.631   3.269
 4487SOL     OW14359   0.689   2.719   6.720
 4487SOL    HW114360   0.761   2.775   6.761
 4487SOL    HW214361   0.694   2.727   6.620
 4488SOL     OW14362   6.094   4.596   3.990
 4488SOL    HW114363   6.163   4.594   4.063
 4488SOL    HW214364   6.038   4.678   3.999
 4489SOL     OW14365   3.374   6.234   6.780
 4489SOL    HW114366   3.423   6.220   6.866
 4489SOL    HW214367   3.389   6.327   6.748
 4490SOL     OW14368   5.550   1.502   2.036
 4490SOL    HW114369   5.585   1.560   2.109
 4490SOL    HW214370   5.471   1.546   1.993
 4491SOL     OW14371   0.031   3.802   2.994
 4491SOL    HW114372   6.995   3.814   3.075
 4491SOL    HW214373   0.096   3.878   2.988
 4492SOL     OW14374   6.209   1.425   2.405
 4492SOL    HW114375   6.164   1.384   2.485
 4492SOL    HW214376   6.307   1.407   2.409
 4493SOL     OW14377   5.403   1.574   6.108
 4493SOL    HW114378   5.500   1.556   6.097
 4493SOL    HW214379   5.369   1.628   6.031
 4494SOL     OW14380   1.537   1.252   2.671
 4494SOL    HW114381   1.456   1.222   2.722
 4494SOL    HW214382   1.614   1.262   2.735
 4495SOL     OW14383   4.568   6.370   0.777
 4495SOL    HW114384   4.615   6.282   0.767
 4495SOL    HW214385   4.625   6.442   0.738
 4496SOL     OW14386   2.461   5.636   6.028
 4496SOL    HW114387   2.521   5.667   5.955
 4496SOL    HW214388   2.376   5.688   6.026
 4497SOL     OW14389   4.345   7.018   5.910
 4497SOL    HW114390   4.246   7.010   5.916
 4497SOL    HW214391   4.369   0.072   5.849
 4498SOL     OW14392   1.408   4.786   4.124
 4498SOL    HW114393   1.502   4.775   4.156
 4498SOL    HW214394   1.406   4.849   4.046
 4499SOL     OW14395   5.753   1.838   2.118
 4499SOL    HW114396   5.770   1.911   2.185
 4499SOL    HW214397   5.704   1.763   2.163
 4500SOL     OW14398   3.436   6.485   6.763
 4500SOL    HW114399   3.438   6.503   6.862
 4500SOL    HW214400   3.349   6.517   6.726
 4501SOL     OW14401   6.454   0.193   2.889
 4501SOL    HW114402   6.428   0.225   2.980
 4501SOL    HW214403   6.430   0.263   2.821
 4502SOL     OW14404   1.266   3.864   6.943
 4502SOL    HW114405   1.178   3.817   6.951
 4502SOL    HW214406   1.261   3.931   6.869
 4503SOL     OW14407   3.588   1.301   2.774
 4503SOL    HW114408   3.662   1.249   2.731
 4503SOL    HW214409   3.505   1.294   2.718
 4504SOL     OW14410   1.400   2.526   3.967
 4504SOL    HW114411   1.364   2.434   3.950
 4504SOL    HW214412   1.333   2.594   3.939
 4505SOL     OW14413   6.434   2.931   3.343
 4505SOL    HW114414   6.486   2.994   3.286
 4505SOL    HW214415   6.391   2.981   3.418
 4506SOL     OW14416   4.056   4.057   0.296
 4506SOL    HW114417   3.964   4.023   0.315
 4506SOL    HW214418   4.052   4.122   0.220
 4507SOL     OW14419   5.902   2.452   3.019
 4507SOL    HW114420   5.884   2.485   3.111
 4507SOL    HW214421   6.000   2.439   3.006
 4508SOL     OW14422   6.342   5.179   0.670
 4508SOL    HW114423   6.392   5.117   0.610
 4508SOL    HW214424   6.332   5.268   0.625
 4509SOL     OW14425   5.129   2.282   2.340
 4509SOL    HW114426   5.113   2.378   2.319
 4509SOL    HW214427   5.098   2.226   2.263
 4510SOL     OW14428   4.664   1.673   4.078
 4510SOL    HW114429   4.739   1.629   4.029
 4510SOL    HW214430   4.701   1.737   4.145
 4511SOL     OW14431   0.590   4.434   6.950
 4511SOL    HW114432   0.582   4.529   6.921
 4511SOL    HW214433   0.505   4.385   6.929
 4512SOL     OW14434   3.173   3.269   5.752
 4512SOL    HW114435   3.137   3.362   5.760
 4512SOL    HW214436   3.204   3.253   5.658
 4513SOL     OW14437   0.460   0.865   0.998
 4513SOL    HW114438   0.441   0.831   1.090
 4513SOL    HW214439   0.559   0.860   0.981
 4514SOL     OW14440   4.515   4.633   6.284
 4514SOL    HW114441   4.443   4.660   6.220
 4514SOL    HW214442   4.531   4.707   6.349
 4515SOL     OW14443   4.333   0.281   6.004
 4515SOL    HW114444   4.258   0.308   6.065
 4515SOL    HW214445   4.352   0.183   6.016
 4516SOL     OW14446   3.263   1.895   5.248
 4516SOL    HW114447   3.232   1.953   5.323
 4516SOL    HW214448   3.285   1.953   5.169
 4517SOL     OW14449   3.566   0.955   4.252
 4517SOL    HW114450   3.560   0.925   4.348
 4517SOL    HW214451   3.487   1.012   4.230
 4518SOL     OW14452   6.946   0.229   0.824
 4518SOL    HW114453   6.918   0.297   0.757
 4518SOL    HW214454   6.873   0.218   0.892
 4519SOL     OW14455   4.957   0.149   6.154
 4519SOL    HW114456   5.010   0.096   6.087
 4519SOL    HW214457   4.905   0.087   6.212
 4520SOL     OW14458   4.438   5.012   5.445
 4520SOL    HW114459   4.404   4.995   5.352
 4520SOL    HW214460   4.374   5.072   5.493
 4521SOL     OW14461   4.455   2.407   3.866
 4521SOL    HW114462   4.547   2.389   3.831
 4521SOL    HW214463   4.390   2.349   3.817
 4522SOL     OW14464   5.404   3.878   3.574
 4522SOL    HW114465   5.484   3.827   3.544
 4522SOL    HW214466   5.322   3.821   3.567
 4523SOL     OW14467   0.377   2.842   6.442
 4523SOL    HW114468   0.357   2.793   6.527
 4523SOL    HW214469   0.327   2.928   6.441
 4524SOL     OW14470   2.143   3.854   1.915
 4524SOL    HW114471   2.078   3.905   1.858
 4524SOL    HW214472   2.170   3.910   1.993
 4525SOL     OW14473   3.856   1.704   6.168
 4525SOL    HW114474   3.861   1.629   6.102
 4525SOL    HW214475   3.775   1.694   6.225
 4526SOL     OW14476   1.641   0.146   5.117
 4526SOL    HW114477   1.700   0.097   5.052
 4526SOL    HW214478   1.691   0.158   5.203
 4527SOL     OW14479   1.073   2.428   2.833
 4527SOL    HW114480   1.159   2.475   2.814
 4527SOL    HW214481   1.076   2.336   2.796
 4528SOL     OW14482   5.328   1.504   4.748
 4528SOL    HW114483   5.293   1.413   4.729
 4528SOL    HW214484   5.416   1.498   4.794
 4529SOL     OW14485   1.818   1.894   3.779
 4529SOL    HW114486   1.730   1.931   3.809
 4529SOL    HW214487   1.804   1.801   3.744
 4530SOL     OW14488   3.873   4.929   5.920
 4530SOL    HW114489   3.968   4.948   5.946
 4530SOL    HW214490   3.811   4.970   5.986
 4531SOL     OW14491   1.399   0.005   5.075
 4531SOL    HW114492   1.481   0.060   5.089
 4531SOL    HW214493   1.373   0.009   4.978
 4532SOL     OW14494   5.440   1.282   1.958
 4532SOL    HW114495   5.487   1.202   1.919
 4532SOL    HW214496   5.507   1.352   1.981
 4533SOL     OW14497   2.870   6.383   1.139
 4533SOL    HW114498   2.878   6.311   1.070
 4533SOL    HW214499   2.811   6.456   1.105
 4534SOL     OW14500   5.757   0.927   4.630
 4534SOL    HW114501   5.710   0.850   4.587
 4534SOL    HW214502   5.839   0.949   4.578
 4535SOL     OW14503   1.291   0.743   6.967
 4535SOL    HW114504   1.249   0.796   6.893
 4535SOL    HW214505   1.237   0.754   0.029
 4536SOL     OW14506   3.826   0.672   5.888
 4536SOL    HW114507   3.796   0.681   5.983
 4536SOL    HW214508   3.808   0.758   5.840
 4537SOL     OW14509   3.154   3.453   3.252
 4537SOL    HW114510   3.141   3.404   3.338
 4537SOL    HW214511   3.064   3.470   3.210
 4538SOL     OW14512   1.446   2.975   0.210
 4538SOL    HW114513   1.392   2.997   0.291
 4538SOL    HW214514   1.529   2.926   0.238
 4539SOL     OW14515   1.231   4.692   4.318
 4539SOL    HW114516   1.267   4.758   4.251
 4539SOL    HW214517   1.143   4.726   4.352
 4540SOL     OW14518   1.969   1.848   0.560
 4540SOL    HW114519   2.022   1.836   0.644
 4540SOL    HW214520   2.022   1.904   0.495
 4541SOL     OW14521   4.018   3.162   0.126
 4541SOL    HW114522   4.037   3.245   0.074
 4541SOL    HW214523   4.013   3.183   0.223
 4542SOL     OW14524   6.851   1.558   0.775
 4542SOL    HW114525   6.784   1.630   0.791
 4542SOL    HW214526   6.820   1.474   0.819
 4543SOL     OW14527   4.503   1.232   1.164
 4543SOL    HW114528   4.417   1.278   1.185
 4543SOL    HW214529   4.544   1.273   1.082
 4544SOL     OW14530   5.071   6.073   0.258
 4544SOL    HW114531   4.981   6.104   0.227
 4544SOL    HW214532   5.110   6.142   0.319
 4545SOL     OW14533   3.106   3.162   5.256
 4545SOL    HW114534   3.008   3.181   5.264
 4545SOL    HW214535   3.124   3.069   5.288
 4546SOL     OW14536   4.827   0.002   6.330
 4546SOL    HW114537   4.834   7.021   6.430
 4546SOL    HW214538   4.828   6.931   6.294
 4547SOL     OW14539   6.686   1.302   0.114
 4547SOL    HW114540   6.640   1.389   0.134
 4547SOL    HW214541   6.752   1.316   0.040
 4548SOL     OW14542   3.101   1.202   2.189
 4548SOL    HW114543   3.174   1.135   2.175
 4548SOL    HW214544   3.097   1.264   2.111
 4549SOL     OW14545   6.348   4.874   3.623
 4549SOL    HW114546   6.274   4.821   3.664
 4549SOL    HW214547   6.359   4.960   3.673
 4550SOL     OW14548   2.571   5.219   6.710
 4550SOL    HW114549   2.547   5.182   6.620
 4550SOL    HW214550   2.508   5.183   6.778
 4551SOL     OW14551   3.581   2.796   5.984
 4551SOL    HW114552   3.618   2.834   6.069
 4551SOL    HW214553   3.493   2.753   6.003
 4552SOL     OW14554   4.986   0.599   6.966
 4552SOL    HW114555   4.956   0.646   6.883
 4552SOL    HW214556   5.038   0.517   6.941
 4553SOL     OW14557   0.082   6.965   0.329
 4553SOL    HW114558   0.121   6.957   0.237
 4553SOL    HW214559   7.017   6.915   0.333
 4554SOL     OW14560   5.630   6.448   2.835
 4554SOL    HW114561   5.697   6.375   2.822
 4554SOL    HW214562   5.548   6.410   2.877
 4555SOL     OW14563   0.674   0.110   2.718
 4555SOL    HW114564   0.773   0.105   2.729
 4555SOL    HW214565   0.637   0.018   2.705
 4556SOL     OW14566   5.202   4.621   4.678
 4556SOL    HW114567   5.165   4.576   4.759
 4556SOL    HW214568   5.202   4.557   4.601
 4557SOL     OW14569   0.039   5.376   4.869
 4557SOL    HW114570   6.978   5.348   4.917
 4557SOL    HW214571   0.119   5.344   4.920
 4558SOL     OW14572   0.930   4.552   4.184
 4558SOL    HW114573   1.020   4.540   4.140
 4558SOL    HW214574   0.924   4.490   4.263
 4559SOL     OW14575   0.226   3.192   4.312
 4559SOL    HW114576   0.288   3.266   4.286
 4559SOL    HW214577   0.216   3.129   4.236
 4560SOL     OW14578   6.204   4.531   3.130
 4560SOL    HW114579   6.237   4.603   3.068
 4560SOL    HW214580   6.281   4.474   3.159
 4561SOL     OW14581   4.994   2.933   4.276
 4561SOL    HW114582   5.002   2.977   4.187
 4561SOL    HW214583   4.939   2.991   4.337
 4562SOL     OW14584   4.658   1.038   1.311
 4562SOL    HW114585   4.606   1.103   1.256
 4562SOL    HW214586   4.747   1.077   1.335
 4563SOL     OW14587   0.935   4.085   1.784
 4563SOL    HW114588   0.965   4.139   1.862
 4563SOL    HW214589   0.966   3.990   1.795
 4564SOL     OW14590   2.131   3.675   2.282
 4564SOL    HW114591   2.179   3.619   2.215
 4564SOL    HW214592   2.063   3.620   2.330
 4565SOL     OW14593   2.221   7.018   5.400
 4565SOL    HW114594   2.317   7.011   5.426
 4565SOL    HW214595   2.213   7.003   5.301
 4566SOL     OW14596   6.804   5.034   3.274
 4566SOL    HW114597   6.873   5.006   3.206
 4566SOL    HW214598   6.850   5.063   3.358
 4567SOL     OW14599   0.658   6.878   0.525
 4567SOL    HW114600   0.569   6.890   0.570
 4567SOL    HW214601   0.724   6.843   0.591
 4568SOL     OW14602   0.506   4.107   3.589
 4568SOL    HW114603   0.577   4.160   3.543
 4568SOL    HW214604   0.422   4.162   3.595
 4569SOL     OW14605   0.867   2.890   3.490
 4569SOL    HW114606   0.816   2.974   3.473
 4569SOL    HW214607   0.843   2.822   3.421
 4570SOL     OW14608   5.016   5.918   0.981
 4570SOL    HW114609   5.059   5.981   0.917
 4570SOL    HW214610   5.046   5.939   1.074
 4571SOL     OW14611   1.931   3.041   5.616
 4571SOL    HW114612   1.907   3.135   5.591
 4571SOL    HW214613   1.848   2.990   5.638
 4572SOL     OW14614   4.415   3.129   1.683
 4572SOL    HW114615   4.451   3.078   1.605
 4572SOL    HW214616   4.473   3.112   1.763
 4573SOL     OW14617   1.975   5.113   1.038
 4573SOL    HW114618   1.939   5.115   0.944
 4573SOL    HW214619   2.068   5.076   1.037
 4574SOL     OW14620   5.286   0.326   1.885
 4574SOL    HW114621   5.244   0.369   1.965
 4574SOL    HW214622   5.244   0.362   1.802
 4575SOL     OW14623   6.926   1.587   5.386
 4575SOL    HW114624   6.998   1.568   5.319
 4575SOL    HW214625   6.860   1.512   5.386
 4576SOL     OW14626   3.252   3.614   0.101
 4576SOL    HW114627   3.223   3.663   0.018
 4576SOL    HW214628   3.337   3.565   0.082
 4577SOL     OW14629   0.600   1.693   1.653
 4577SOL    HW114630   0.552   1.774   1.619
 4577SOL    HW214631   0.649   1.717   1.737
 4578SOL     OW14632   1.202   0.603   3.043
 4578SOL    HW114633   1.153   0.676   3.091
 4578SOL    HW214634   1.299   0.626   3.038
 4579SOL     OW14635   4.397   1.001   2.935
 4579SOL    HW114636   4.457   1.005   2.856
 4579SOL    HW214637   4.432   1.062   3.007
 4580SOL     OW14638   0.625   0.429   1.759
 4580SOL    HW114639   0.683   0.486   1.701
 4580SOL    HW214640   0.651   0.333   1.747
 4581SOL     OW14641   2.935   0.432   1.698
 4581SOL    HW114642   2.992   0.428   1.616
 4581SOL    HW214643   2.853   0.487   1.680
 4582SOL     OW14644   5.907   0.597   4.060
 4582SOL    HW114645   6.003   0.589   4.034
 4582SOL    HW214646   5.873   0.509   4.092
 4583SOL     OW14647   1.999   6.823   0.027
 4583SOL    HW114648   1.981   6.731   0.061
 4583SOL    HW214649   2.075   6.863   0.078
 4584SOL     OW14650   0.183   1.240   4.558
 4584SOL    HW114651   0.117   1.311   4.582
 4584SOL    HW214652   0.269   1.257   4.606
 4585SOL     OW14653   0.988   3.013   3.214
 4585SOL    HW114654   0.951   3.057   3.296
 4585SOL    HW214655   0.964   2.916   3.215
 4586SOL     OW14656   0.060   5.173   5.687
 4586SOL    HW114657   0.009   5.108   5.743
 4586SOL    HW214658   0.003   5.203   5.610
 4587SOL     OW14659   4.122   3.289   6.031
 4587SOL    HW114660   4.148   3.199   6.066
 4587SOL    HW214661   4.200   3.331   5.984
 4588SOL     OW14662   2.947   4.269   6.479
 4588SOL    HW114663   2.853   4.295   6.460
 4588SOL    HW214664   2.948   4.202   6.554
 4589SOL     OW14665   5.570   6.276   2.060
 4589SOL    HW114666   5.514   6.233   2.130
 4589SOL    HW214667   5.612   6.205   2.003
 4590SOL     OW14668   2.618   5.186   1.581
 4590SOL    HW114669   2.600   5.232   1.668
 4590SOL    HW214670   2.677   5.107   1.598
 4591SOL     OW14671   1.963   1.148   4.790
 4591SOL    HW114672   1.875   1.178   4.827
 4591SOL    HW214673   2.016   1.227   4.761
 4592SOL     OW14674   2.753   2.367   3.454
 4592SOL    HW114675   2.663   2.349   3.492
 4592SOL    HW214676   2.818   2.298   3.486
 4593SOL     OW14677   1.563   5.960   4.509
 4593SOL    HW114678   1.662   5.976   4.507
 4593SOL    HW214679   1.542   5.887   4.573
 4594SOL     OW14680   1.205   6.039   3.871
 4594SOL    HW114681   1.228   5.983   3.791
 4594SOL    HW214682   1.161   5.981   3.940
 4595SOL     OW14683   5.848   2.177   6.672
 4595SOL    HW114684   5.766   2.184   6.615
 4595SOL    HW214685   5.919   2.127   6.622
 4596SOL     OW14686   0.698   1.541   2.729
 4596SOL    HW114687   0.624   1.474   2.735
 4596SOL    HW214688   0.663   1.626   2.690
 4597SOL     OW14689   2.047   5.605   0.703
 4597SOL    HW114690   1.992   5.686   0.723
 4597SOL    HW214691   1.998   5.546   0.638
 4598SOL     OW14692   0.411   2.901   0.012
 4598SOL    HW114693   0.430   2.994   7.001
 4598SOL    HW214694   0.476   2.877   0.084
 4599SOL     OW14695   3.147   6.489   3.174
 4599SOL    HW114696   3.209   6.566   3.158
 4599SOL    HW214697   3.077   6.516   3.241
 4600SOL     OW14698   1.017   6.341   5.922
 4600SOL    HW114699   1.062   6.252   5.913
 4600SOL    HW214700   1.008   6.364   6.019
 4601SOL     OW14701   1.087   1.048   5.420
 4601SOL    HW114702   1.080   1.073   5.324
 4601SOL    HW214703   1.107   0.950   5.428
 4602SOL     OW14704   4.279   0.487   6.524
 4602SOL    HW114705   4.322   0.484   6.433
 4602SOL    HW214706   4.231   0.573   6.535
 4603SOL     OW14707   4.227   6.869   0.989
 4603SOL    HW114708   4.256   6.778   0.961
 4603SOL    HW214709   4.132   6.867   1.018
 4604SOL     OW14710   0.871   6.546   3.004
 4604SOL    HW114711   0.775   6.528   3.022
 4604SOL    HW214712   0.920   6.553   3.091
 4605SOL     OW14713   4.443   1.231   1.921
 4605SOL    HW114714   4.471   1.217   2.016
 4605SOL    HW214715   4.347   1.260   1.919
 4606SOL     OW14716   6.696   6.968   4.481
 4606SOL    HW114717   6.646   6.979   4.395
 4606SOL    HW214718   6.637   6.922   4.548
 4607SOL     OW14719   3.179   2.022   1.220
 4607SOL    HW114720   3.099   2.036   1.277
 4607SOL    HW214721   3.220   2.110   1.196
 4608SOL     OW14722   0.515   2.538   5.567
 4608SOL    HW114723   0.580   2.513   5.638
 4608SOL    HW214724   0.501   2.637   5.568
 4609SOL     OW14725   6.070   5.067   6.268
 4609SOL    HW114726   6.112   4.989   6.223
 4609SOL    HW214727   6.023   5.037   6.351
 4610SOL     OW14728   5.289   4.546   6.200
 4610SOL    HW114729   5.228   4.620   6.227
 4610SOL    HW214730   5.376   4.554   6.250
 4611SOL     OW14731   0.078   0.476   6.609
 4611SOL    HW114732   0.018   0.538   6.559
 4611SOL    HW214733   0.126   0.527   6.681
 4612SOL     OW14734   2.126   1.035   2.904
 4612SOL    HW114735   2.114   0.984   2.818
 4612SOL    HW214736   2.139   1.132   2.883
 4613SOL     OW14737   1.332   5.155   3.416
 4613SOL    HW114738   1.366   5.249   3.404
 4613SOL    HW214739   1.241   5.148   3.376
 4614SOL     OW14740   0.090   4.422   3.223
 4614SOL    HW114741   0.167   4.457   3.170
 4614SOL    HW214742   0.058   4.493   3.286
 4615SOL     OW14743   1.455   4.504   0.165
 4615SOL    HW114744   1.396   4.429   0.136
 4615SOL    HW214745   1.536   4.508   0.105
 4616SOL     OW14746   1.272   3.975   6.394
 4616SOL    HW114747   1.326   3.891   6.391
 4616SOL    HW214748   1.332   4.052   6.414
 4617SOL     OW14749   0.204   4.156   3.972
 4617SOL    HW114750   0.244   4.227   4.029
 4617SOL    HW214751   0.116   4.127   4.010
 4618SOL     OW14752   2.313   4.036   5.595
 4618SOL    HW114753   2.220   4.014   5.625
 4618SOL    HW214754   2.340   3.974   5.521
 4619SOL     OW14755   4.222   5.797   6.826
 4619SOL    HW114756   4.284   5.829   6.755
 4619SOL    HW214757   4.256   5.828   6.915
 4620SOL     OW14758   1.429   4.460   1.631
 4620SOL    HW114759   1.448   4.498   1.722
 4620SOL    HW214760   1.360   4.388   1.638
 4621SOL     OW14761   2.650   0.288   2.771
 4621SOL    HW114762   2.690   0.288   2.680
 4621SOL    HW214763   2.606   0.199   2.787
 4622SOL     OW14764   6.123   0.250   0.327
 4622SOL    HW114765   6.057   0.316   0.362
 4622SOL    HW214766   6.216   0.284   0.341
 4623SOL     OW14767   3.001   4.932   2.956
 4623SOL    HW114768   2.941   5.004   2.919
 4623SOL    HW214769   2.952   4.845   2.956
 4624SOL     OW14770   5.202   1.781   0.994
 4624SOL    HW114771   5.185   1.684   0.976
 4624SOL    HW214772   5.120   1.823   1.031
 4625SOL     OW14773   0.827   6.136   2.163
 4625SOL    HW114774   0.892   6.212   2.174
 4625SOL    HW214775   0.877   6.052   2.142
 4626SOL     OW14776   4.115   3.671   2.075
 4626SOL    HW114777   4.107   3.631   2.166
 4626SOL    HW214778   4.088   3.767   2.078
 4627SOL     OW14779   5.991   6.354   4.405
 4627SOL    HW114780   5.935   6.426   4.364
 4627SOL    HW214781   6.083   6.357   4.366
 4628SOL     OW14782   6.842   4.866   2.961
 4628SOL    HW114783   6.767   4.892   3.022
 4628SOL    HW214784   6.927   4.907   2.994
 4629SOL     OW14785   1.169   4.986   1.031
 4629SOL    HW114786   1.219   4.956   0.950
 4629SOL    HW214787   1.200   4.933   1.110
 4630SOL     OW14788   2.095   3.791   1.362
 4630SOL    HW114789   2.009   3.839   1.384
 4630SOL    HW214790   2.078   3.692   1.362
 4631SOL     OW14791   6.465   1.818   2.653
 4631SOL    HW114792   6.487   1.733   2.701
 4631SOL    HW214793   6.384   1.803   2.596
 4632SOL     OW14794   3.244   4.998   3.855
 4632SOL    HW114795   3.324   4.979   3.912
 4632SOL    HW214796   3.161   4.985   3.909
 4633SOL     OW14797   5.473   2.770   4.012
 4633SOL    HW114798   5.385   2.732   3.982
 4633SOL    HW214799   5.527   2.795   3.932
 4634SOL     OW14800   3.520   3.277   5.333
 4634SOL    HW114801   3.594   3.211   5.339
 4634SOL    HW214802   3.448   3.252   5.397
 4635SOL     OW14803   4.085   6.717   2.396
 4635SOL    HW114804   4.093   6.815   2.379
 4635SOL    HW214805   4.173   6.673   2.379
 4636SOL     OW14806   1.692   5.226   6.462
 4636SOL    HW114807   1.649   5.306   6.420
 4636SOL    HW214808   1.790   5.228   6.443
 4637SOL     OW14809   1.964   2.356   3.440
 4637SOL    HW114810   1.961   2.306   3.527
 4637SOL    HW214811   2.054   2.399   3.430
 4638SOL     OW14812   3.962   4.671   0.187
 4638SOL    HW114813   3.929   4.710   0.273
 4638SOL    HW214814   4.004   4.743   0.132
 4639SOL     OW14815   4.202   2.189   1.896
 4639SOL    HW114816   4.124   2.127   1.907
 4639SOL    HW214817   4.246   2.172   1.808
 4640SOL     OW14818   6.848   2.914   1.025
 4640SOL    HW114819   6.912   2.929   0.950
 4640SOL    HW214820   6.889   2.851   1.092
 4641SOL     OW14821   0.962   5.985   4.747
 4641SOL    HW114822   0.897   6.053   4.781
 4641SOL    HW214823   0.918   5.931   4.675
 4642SOL     OW14824   6.152   1.688   6.098
 4642SOL    HW114825   6.196   1.711   6.011
 4642SOL    HW214826   6.081   1.756   6.119
 4643SOL     OW14827   0.859   1.931   6.856
 4643SOL    HW114828   0.853   1.973   6.946
 4643SOL    HW214829   0.793   1.855   6.850
 4644SOL     OW14830   1.187   1.423   1.242
 4644SOL    HW114831   1.241   1.350   1.200
 4644SOL    HW214832   1.102   1.436   1.191
 4645SOL     OW14833   5.689   2.564   5.438
 4645SOL    HW114834   5.615   2.594   5.378
 4645SOL    HW214835   5.662   2.479   5.483
 4646SOL     OW14836   1.554   4.013   2.518
 4646SOL    HW114837   1.502   3.927   2.521
 4646SOL    HW214838   1.586   4.035   2.611
 4647SOL     OW14839   2.123   6.283   2.575
 4647SOL    HW114840   2.208   6.329   2.602
 4647SOL    HW214841   2.134   6.184   2.584
 4648SOL     OW14842   2.402   0.877   4.557
 4648SOL    HW114843   2.345   0.952   4.524
 4648SOL    HW214844   2.474   0.857   4.491
 4649SOL     OW14845   5.073   2.570   0.800
 4649SOL    HW114846   5.079   2.670   0.797
 4649SOL    HW214847   5.087   2.538   0.893
 4650SOL     OW14848   3.795   5.400   0.334
 4650SOL    HW114849   3.785   5.500   0.333
 4650SOL    HW214850   3.705   5.358   0.344
 4651SOL     OW14851   1.170   3.920   0.197
 4651SOL    HW114852   1.190   3.830   0.238
 4651SOL    HW214853   1.202   3.921   0.102
 4652SOL     OW14854   0.174   0.480   5.521
 4652SOL    HW114855   0.252   0.484   5.584
 4652SOL    HW214856   0.089   0.476   5.574
 4653SOL     OW14857   0.230   6.208   0.614
 4653SOL    HW114858   0.271   6.123   0.647
 4653SOL    HW214859   0.228   6.275   0.688
 4654SOL     OW14860   0.257   1.244   5.346
 4654SOL    HW114861   0.250   1.309   5.270
 4654SOL    HW214862   0.343   1.257   5.394
 4655SOL     OW14863   5.508   4.938   3.093
 4655SOL    HW114864   5.600   4.912   3.065
 4655SOL    HW214865   5.508   4.962   3.190
 4656SOL     OW14866   5.775   0.354   1.487
 4656SOL    HW114867   5.852   0.398   1.533
 4656SOL    HW214868   5.794   0.256   1.476
 4657SOL     OW14869   3.806   1.680   2.728
 4657SOL    HW114870   3.772   1.621   2.655
 4657SOL    HW214871   3.811   1.774   2.695
 4658SOL     OW14872   1.062   1.792   0.346
 4658SOL    HW114873   1.107   1.851   0.279
 4658SOL    HW214874   1.131   1.737   0.394
 4659SOL     OW14875   2.312   4.952   0.537
 4659SOL    HW114876   2.292   5.046   0.567
 4659SOL    HW214877   2.250   4.889   0.582
 4660SOL     OW14878   0.443   4.976   4.253
 4660SOL    HW114879   0.486   5.054   4.299
 4660SOL    HW214880   0.382   4.929   4.318
 4661SOL     OW14881   1.234   0.828   5.927
 4661SOL    HW114882   1.235   0.793   6.021
 4661SOL    HW214883   1.191   0.918   5.925
 4662SOL     OW14884   3.063   0.395   5.927
 4662SOL    HW114885   3.159   0.374   5.947
 4662SOL    HW214886   3.057   0.487   5.887
 4663SOL     OW14887   0.757   0.735   1.225
 4663SOL    HW114888   0.755   0.793   1.307
 4663SOL    HW214889   0.834   0.672   1.232
 4664SOL     OW14890   5.642   5.871   4.505
 4664SOL    HW114891   5.692   5.787   4.482
 4664SOL    HW214892   5.696   5.926   4.568
 4665SOL     OW14893   6.843   0.804   2.695
 4665SOL    HW114894   6.834   0.899   2.667
 4665SOL    HW214895   6.900   0.755   2.629
 4666SOL     OW14896   1.782   2.301   6.017
 4666SOL    HW114897   1.875   2.337   6.011
 4666SOL    HW214898   1.718   2.365   5.974
 4667SOL     OW14899   6.191   3.205   1.316
 4667SOL    HW114900   6.099   3.167   1.313
 4667SOL    HW214901   6.196   3.286   1.257
 4668SOL     OW14902   4.901   1.526   6.033
 4668SOL    HW114903   4.962   1.576   6.094
 4668SOL    HW214904   4.817   1.502   6.081
 4669SOL     OW14905   5.701   0.127   6.253
 4669SOL    HW114906   5.611   0.089   6.232
 4669SOL    HW214907   5.696   0.227   6.249
 4670SOL     OW14908   0.537   3.404   0.033
 4670SOL    HW114909   0.541   3.432   0.129
 4670SOL    HW214910   0.446   3.424   7.017
 4671SOL     OW14911   0.029   2.431   2.175
 4671SOL    HW114912   0.058   2.506   2.233
 4671SOL    HW214913   6.951   2.433   2.164
 4672SOL     OW14914   3.177   3.056   0.440
 4672SOL    HW114915   3.207   2.965   0.468
 4672SOL    HW214916   3.199   3.070   0.343
 4673SOL     OW14917   5.588   1.127   0.841
 4673SOL    HW114918   5.498   1.087   0.857
 4673SOL    HW214919   5.629   1.154   0.928
 4674SOL     OW14920   1.365   3.313   0.715
 4674SOL    HW114921   1.277   3.347   0.682
 4674SOL    HW214922   1.353   3.224   0.759
 4675SOL     OW14923   1.672   5.915   0.232
 4675SOL    HW114924   1.631   5.834   0.191
 4675SOL    HW214925   1.722   5.966   0.162
 4676SOL     OW14926   1.215   5.930   4.643
 4676SOL    HW114927   1.260   5.850   4.682
 4676SOL    HW214928   1.128   5.946   4.690
 4677SOL     OW14929   4.362   0.047   6.868
 4677SOL    HW114930   4.346   7.003   6.941
 4677SOL    HW214931   4.375   0.138   6.907
 4678SOL     OW14932   2.598   5.080   0.279
 4678SOL    HW114933   2.582   4.993   0.325
 4678SOL    HW214934   2.619   5.062   0.183
 4679SOL     OW14935   2.256   6.796   5.067
 4679SOL    HW114936   2.333   6.807   5.130
 4679SOL    HW214937   2.288   6.812   4.973
 4680SOL     OW14938   0.624   4.867   6.608
 4680SOL    HW114939   0.643   4.929   6.531
 4680SOL    HW214940   0.615   4.774   6.574
 4681SOL     OW14941   6.741   5.698   5.144
 4681SOL    HW114942   6.694   5.695   5.232
 4681SOL    HW214943   6.752   5.605   5.109
 4682SOL     OW14944   3.323   0.581   1.096
 4682SOL    HW114945   3.227   0.611   1.101
 4682SOL    HW214946   3.373   0.641   1.033
 4683SOL     OW14947   0.280   4.694   3.833
 4683SOL    HW114948   0.241   4.759   3.768
 4683SOL    HW214949   0.378   4.685   3.816
 4684SOL     OW14950   1.984   1.339   5.070
 4684SOL    HW114951   1.930   1.388   5.001
 4684SOL    HW214952   1.930   1.263   5.106
 4685SOL     OW14953   5.271   4.085   4.462
 4685SOL    HW114954   5.276   4.178   4.426
 4685SOL    HW214955   5.201   4.034   4.412
 4686SOL     OW14956   4.988   5.579   6.685
 4686SOL    HW114957   4.987   5.647   6.758
 4686SOL    HW214958   5.013   5.624   6.599
 4687SOL     OW14959   4.588   0.307   4.300
 4687SOL    HW114960   4.554   0.398   4.321
 4687SOL    HW214961   4.530   0.239   4.345
 4688SOL     OW14962   6.679   1.254   0.566
 4688SOL    HW114963   6.694   1.156   0.564
 4688SOL    HW214964   6.581   1.273   0.577
 4689SOL     OW14965   2.063   5.757   4.361
 4689SOL    HW114966   2.041   5.663   4.387
 4689SOL    HW214967   2.029   5.820   4.431
 4690SOL     OW14968   2.397   1.520   0.838
 4690SOL    HW114969   2.409   1.421   0.835
 4690SOL    HW214970   2.301   1.543   0.821
 4691SOL     OW14971   3.520   4.427   0.070
 4691SOL    HW114972   3.548   4.493   7.021
 4691SOL    HW214973   3.556   4.337   0.046
 4692SOL     OW14974   1.267   5.254   3.759
 4692SOL    HW114975   1.270   5.353   3.742
 4692SOL    HW214976   1.352   5.213   3.725
 4693SOL     OW14977   0.826   1.400   2.424
 4693SOL    HW114978   0.890   1.385   2.348
 4693SOL    HW214979   0.868   1.369   2.509
 4694SOL     OW14980   1.117   1.158   5.174
 4694SOL    HW114981   1.081   1.251   5.170
 4694SOL    HW214982   1.217   1.161   5.167
 4695SOL     OW14983   3.167   3.482   2.820
 4695SOL    HW114984   3.083   3.513   2.864
 4695SOL    HW214985   3.175   3.525   2.730
 4696SOL     OW14986   6.768   3.692   0.740
 4696SOL    HW114987   6.725   3.677   0.829
 4696SOL    HW214988   6.816   3.609   0.712
 4697SOL     OW14989   1.031   6.001   6.649
 4697SOL    HW114990   0.972   6.002   6.569
 4697SOL    HW214991   0.976   6.000   6.732
 4698SOL     OW14992   6.461   3.266   1.861
 4698SOL    HW114993   6.490   3.238   1.770
 4698SOL    HW214994   6.470   3.189   1.925
 4699SOL     OW14995   6.645   6.669   3.357
 4699SOL    HW114996   6.703   6.668   3.439
 4699SOL    HW214997   6.612   6.762   3.340
 4700SOL     OW14998   4.830   6.804   6.601
 4700SOL    HW114999   4.918   6.758   6.618
 4700SOL    HW215000   4.838   6.900   6.627
 4701SOL     OW15001   1.919   0.556   6.937
 4701SOL    HW115002   2.000   0.531   6.884
 4701SOL    HW215003   1.898   0.483   7.002
 4702SOL     OW15004   2.837   2.942   0.916
 4702SOL    HW115005   2.807   2.881   0.990
 4702SOL    HW215006   2.915   2.901   0.868
 4703SOL     OW15007   1.118   6.776   2.276
 4703SOL    HW115008   1.086   6.694   2.228
 4703SOL    HW215009   1.041   6.840   2.286
 4704SOL     OW15010   4.651   6.329   6.507
 4704SOL    HW115011   4.700   6.243   6.490
 4704SOL    HW215012   4.628   6.335   6.604
 4705SOL     OW15013   3.867   2.930   4.936
 4705SOL    HW115014   3.905   2.838   4.926
 4705SOL    HW215015   3.899   2.987   4.861
 4706SOL     OW15016   5.550   3.713   6.797
 4706SOL    HW115017   5.636   3.716   6.746
 4706SOL    HW215018   5.478   3.674   6.739
 4707SOL     OW15019   2.484   5.466   0.911
 4707SOL    HW115020   2.557   5.523   0.875
 4707SOL    HW215021   2.495   5.457   1.010
 4708SOL     OW15022   1.667   2.941   2.440
 4708SOL    HW115023   1.582   2.913   2.395
 4708SOL    HW215024   1.737   2.959   2.370
 4709SOL     OW15025   3.049   4.086   0.431
 4709SOL    HW115026   3.093   4.013   0.378
 4709SOL    HW215027   2.988   4.045   0.499
 4710SOL     OW15028   4.645   3.406   1.126
 4710SOL    HW115029   4.658   3.387   1.028
 4710SOL    HW215030   4.701   3.344   1.180
 4711SOL     OW15031   2.744   0.011   3.630
 4711SOL    HW115032   2.724   6.938   3.603
 4711SOL    HW215033   2.669   0.046   3.686
 4712SOL     OW15034   1.462   3.688   6.927
 4712SOL    HW115035   1.388   3.754   6.922
 4712SOL    HW215036   1.545   3.732   6.962
 4713SOL     OW15037   0.967   5.040   0.733
 4713SOL    HW115038   0.929   5.035   0.825
 4713SOL    HW215039   1.060   5.002   0.732
 4714SOL     OW15040   4.040   2.688   1.405
 4714SOL    HW115041   3.979   2.767   1.405
 4714SOL    HW215042   4.127   2.713   1.447
 4715SOL     OW15043   4.841   3.887   4.837
 4715SOL    HW115044   4.792   3.969   4.868
 4715SOL    HW215045   4.805   3.807   4.886
 4716SOL     OW15046   2.495   5.467   6.654
 4716SOL    HW115047   2.575   5.413   6.628
 4716SOL    HW215048   2.423   5.406   6.688
 4717SOL     OW15049   2.189   5.378   4.615
 4717SOL    HW115050   2.261   5.431   4.570
 4717SOL    HW215051   2.150   5.433   4.690
 4718SOL     OW15052   4.623   0.174   0.054
 4718SOL    HW115053   4.537   0.216   0.082
 4718SOL    HW215054   4.658   0.221   6.994
 4719SOL     OW15055   4.227   3.404   1.643
 4719SOL    HW115056   4.203   3.422   1.739
 4719SOL    HW215057   4.302   3.338   1.639
 4720SOL     OW15058   2.397   1.535   2.989
 4720SOL    HW115059   2.426   1.631   2.993
 4720SOL    HW215060   2.399   1.496   3.081
 4721SOL     OW15061   1.581   1.405   1.553
 4721SOL    HW115062   1.644   1.482   1.565
 4721SOL    HW215063   1.623   1.321   1.589
 4722SOL     OW15064   2.914   0.388   2.466
 4722SOL    HW115065   2.861   0.469   2.492
 4722SOL    HW215066   2.983   0.369   2.535
 4723SOL     OW15067   3.081   0.064   4.947
 4723SOL    HW115068   3.091   0.117   5.031
 4723SOL    HW215069   3.126   0.113   4.872
 4724SOL     OW15070   4.519   5.184   0.840
 4724SOL    HW115071   4.519   5.146   0.933
 4724SOL    HW215072   4.444   5.248   0.830
 4725SOL     OW15073   5.988   5.511   2.772
 4725SOL    HW115074   5.942   5.464   2.847
 4725SOL    HW215075   5.967   5.609   2.778
 4726SOL     OW15076   0.408   6.447   4.516
 4726SOL    HW115077   0.396   6.540   4.551
 4726SOL    HW215078   0.328   6.392   4.541
 4727SOL     OW15079   5.686   6.652   1.791
 4727SOL    HW115080   5.588   6.658   1.770
 4727SOL    HW215081   5.712   6.730   1.848
 4728SOL     OW15082   6.435   0.392   6.977
 4728SOL    HW115083   6.380   0.436   6.905
 4728SOL    HW215084   6.492   0.321   6.936
 4729SOL     OW15085   3.456   0.758   0.915
 4729SOL    HW115086   3.512   0.771   0.834
 4729SOL    HW215087   3.396   0.837   0.927
 4730SOL     OW15088   1.912   0.408   5.981
 4730SOL    HW115089   2.008   0.420   5.957
 4730SOL    HW215090   1.855   0.465   5.921
 4731SOL     OW15091   4.671   1.407   6.145
 4731SOL    HW115092   4.713   1.422   6.235
 4731SOL    HW215093   4.608   1.482   6.125
 4732SOL     OW15094   0.534   0.127   0.216
 4732SOL    HW115095   0.504   0.089   0.304
 4732SOL    HW215096   0.596   0.063   0.171
 4733SOL     OW15097   6.083   3.393   3.386
 4733SOL    HW115098   6.141   3.319   3.352
 4733SOL    HW215099   6.013   3.355   3.448
 4734SOL     OW15100   6.407   4.421   5.548
 4734SOL    HW115101   6.456   4.473   5.478
 4734SOL    HW215102   6.317   4.462   5.562
 4735SOL     OW15103   0.264   3.914   3.699
 4735SOL    HW115104   0.325   3.876   3.630
 4735SOL    HW215105   0.318   3.965   3.766
 4736SOL     OW15106   1.792   0.045   2.326
 4736SOL    HW115107   1.704   0.035   2.279
 4736SOL    HW215108   1.856   6.997   2.293
 4737SOL     OW15109   3.720   4.949   2.120
 4737SOL    HW115110   3.678   4.878   2.064
 4737SOL    HW215111   3.728   5.033   2.067
 4738SOL     OW15112   0.874   6.923   2.268
 4738SOL    HW115113   0.839   7.016   2.255
 4738SOL    HW215114   0.828   6.861   2.204
 4739SOL     OW15115   3.618   0.069   1.655
 4739SOL    HW115116   3.681   0.107   1.723
 4739SOL    HW215117   3.548   0.137   1.633
 4740SOL     OW15118   0.855   1.847   4.182
 4740SOL    HW115119   0.844   1.821   4.086
 4740SOL    HW215120   0.768   1.882   4.217
 4741SOL     OW15121   3.997   3.837   2.767
 4741SOL    HW115122   3.986   3.926   2.812
 4741SOL    HW215123   3.976   3.847   2.669
 4742SOL     OW15124   4.786   0.816   1.778
 4742SOL    HW115125   4.713   0.885   1.780
 4742SOL    HW215126   4.860   0.848   1.719
 4743SOL     OW15127   1.355   5.328   1.138
 4743SOL    HW115128   1.424   5.327   1.210
 4743SOL    HW215129   1.369   5.249   1.078
 4744SOL     OW15130   1.688   5.723   1.414
 4744SOL    HW115131   1.729   5.633   1.397
 4744SOL    HW215132   1.648   5.758   1.329
 4745SOL     OW15133   1.798   2.748   0.395
 4745SOL    HW115134   1.846   2.699   0.468
 4745SOL    HW215135   1.788   2.844   0.421
 4746SOL     OW15136   5.297   5.485   4.180
 4746SOL    HW115137   5.313   5.387   4.171
 4746SOL    HW215138   5.309   5.529   4.091
 4747SOL     OW15139   3.957   0.677   0.396
 4747SOL    HW115140   3.920   0.639   0.311
 4747SOL    HW215141   3.888   0.668   0.469
 4748SOL     OW15142   1.887   0.122   3.200
 4748SOL    HW115143   1.863   0.106   3.296
 4748SOL    HW215144   1.841   0.055   3.142
 4749SOL     OW15145   2.662   1.281   0.927
 4749SOL    HW115146   2.684   1.288   1.024
 4749SOL    HW215147   2.682   1.368   0.882
 4750SOL     OW15148   5.078   2.870   6.387
 4750SOL    HW115149   5.002   2.839   6.331
 4750SOL    HW215150   5.164   2.856   6.338
 4751SOL     OW15151   4.930   1.251   2.580
 4751SOL    HW115152   4.980   1.240   2.494
 4751SOL    HW215153   4.919   1.162   2.624
 4752SOL     OW15154   5.513   0.990   6.622
 4752SOL    HW115155   5.597   1.044   6.631
 4752SOL    HW215156   5.511   0.919   6.692
 4753SOL     OW15157   2.494   6.286   5.455
 4753SOL    HW115158   2.421   6.310   5.391
 4753SOL    HW215159   2.478   6.330   5.543
 4754SOL     OW15160   5.064   4.511   6.685
 4754SOL    HW115161   5.163   4.523   6.689
 4754SOL    HW215162   5.038   4.478   6.594
 4755SOL     OW15163   0.858   0.872   1.458
 4755SOL    HW115164   0.956   0.864   1.440
 4755SOL    HW215165   0.838   0.965   1.490
 4756SOL     OW15166   0.150   3.583   5.681
 4756SOL    HW115167   0.122   3.607   5.589
 4756SOL    HW215168   0.206   3.500   5.678
 4757SOL     OW15169   1.938   3.037   0.675
 4757SOL    HW115170   1.973   3.074   0.761
 4757SOL    HW215171   1.889   2.952   0.694
 4758SOL     OW15172   2.065   5.138   2.779
 4758SOL    HW115173   2.040   5.226   2.820
 4758SOL    HW215174   2.144   5.150   2.719
 4759SOL     OW15175   0.626   6.726   2.342
 4759SOL    HW115176   0.679   6.650   2.380
 4759SOL    HW215177   0.680   6.771   2.270
 4760SOL     OW15178   1.925   6.378   1.826
 4760SOL    HW115179   1.873   6.416   1.903
 4760SOL    HW215180   1.985   6.449   1.789
 4761SOL     OW15181   4.774   6.095   1.711
 4761SOL    HW115182   4.865   6.107   1.672
 4761SOL    HW215183   4.780   6.095   1.811
 4762SOL     OW15184   0.910   1.051   2.740
 4762SOL    HW115185   0.976   0.982   2.770
 4762SOL    HW215186   0.872   1.097   2.821
 4763SOL     OW15187   5.583   5.217   1.531
 4763SOL    HW115188   5.500   5.225   1.586
 4763SOL    HW215189   5.580   5.132   1.478
 4764SOL     OW15190   4.529   2.922   6.893
 4764SOL    HW115191   4.620   2.925   6.934
 4764SOL    HW215192   4.463   2.889   6.960
 4765SOL     OW15193   4.035   1.314   5.974
 4765SOL    HW115194   4.101   1.339   5.903
 4765SOL    HW215195   3.998   1.223   5.954
 4766SOL     OW15196   0.735   1.180   4.341
 4766SOL    HW115197   0.779   1.256   4.389
 4766SOL    HW215198   0.679   1.216   4.267
 4767SOL     OW15199   2.338   4.810   3.570
 4767SOL    HW115200   2.368   4.869   3.496
 4767SOL    HW215201   2.241   4.786   3.557
 4768SOL     OW15202   4.329   1.466   6.218
 4768SOL    HW115203   4.400   1.536   6.224
 4768SOL    HW215204   4.240   1.506   6.235
 4769SOL     OW15205   2.344   3.078   0.868
 4769SOL    HW115206   2.368   3.089   0.965
 4769SOL    HW215207   2.428   3.070   0.814
 4770SOL     OW15208   6.614   1.545   3.578
 4770SOL    HW115209   6.611   1.500   3.489
 4770SOL    HW215210   6.649   1.638   3.566
 4771SOL     OW15211   2.777   0.816   4.089
 4771SOL    HW115212   2.741   0.741   4.033
 4771SOL    HW215213   2.874   0.802   4.106
 4772SOL     OW15214   2.833   4.707   2.944
 4772SOL    HW115215   2.775   4.661   3.011
 4772SOL    HW215216   2.781   4.724   2.861
 4773SOL     OW15217   2.981   5.435   4.300
 4773SOL    HW115218   3.020   5.354   4.345
 4773SOL    HW215219   2.882   5.425   4.296
 4774SOL     OW15220   1.043   4.596   1.008
 4774SOL    HW115221   0.985   4.633   1.081
 4774SOL    HW215222   1.076   4.505   1.035
 4775SOL     OW15223   6.009   5.033   4.785
 4775SOL    HW115224   5.922   5.069   4.751
 4775SOL    HW215225   6.066   5.006   4.708
 4776SOL     OW15226   6.597   1.969   5.365
 4776SOL    HW115227   6.683   1.926   5.340
 4776SOL    HW215228   6.530   1.955   5.293
 4777SOL     OW15229   1.227   6.906   3.431
 4777SOL    HW115230   1.247   6.999   3.398
 4777SOL    HW215231   1.303   6.873   3.485
 4778SOL     OW15232   1.668   0.296   0.339
 4778SOL    HW115233   1.594   0.353   0.377
 4778SOL    HW215234   1.666   0.302   0.239
 4779SOL     OW15235   4.871   1.171   4.571
 4779SOL    HW115236   4.899   1.105   4.502
 4779SOL    HW215237   4.814   1.242   4.529
 4780SOL     OW15238   5.098   2.941   5.094
 4780SOL    HW115239   5.045   2.997   5.031
 4780SOL    HW215240   5.046   2.859   5.118
 4781SOL     OW15241   2.130   5.393   2.082
 4781SOL    HW115242   2.083   5.446   2.153
 4781SOL    HW215243   2.081   5.403   1.995
 4782SOL     OW15244   1.270   6.011   3.124
 4782SOL    HW115245   1.209   6.087   3.146
 4782SOL    HW215246   1.271   5.996   3.025
 4783SOL     OW15247   0.843   3.467   6.758
 4783SOL    HW115248   0.835   3.463   6.858
 4783SOL    HW215249   0.774   3.530   6.722
 4784SOL     OW15250   5.690   3.208   0.037
 4784SOL    HW115251   5.672   3.289   0.093
 4784SOL    HW215252   5.677   3.126   0.092
 4785SOL     OW15253   6.900   0.488   4.061
 4785SOL    HW115254   6.851   0.574   4.077
 4785SOL    HW215255   6.953   0.465   4.143
 4786SOL     OW15256   0.959   5.478   0.411
 4786SOL    HW115257   0.895   5.419   0.459
 4786SOL    HW215258   1.021   5.522   0.476
 4787SOL     OW15259   4.982   1.191   5.185
 4787SOL    HW115260   4.980   1.213   5.282
 4787SOL    HW215261   4.946   1.268   5.132
 4788SOL     OW15262   6.832   5.799   1.082
 4788SOL    HW115263   6.811   5.897   1.091
 4788SOL    HW215264   6.788   5.763   1.000
 4789SOL     OW15265   5.766   1.037   2.800
 4789SOL    HW115266   5.671   1.016   2.824
 4789SOL    HW215267   5.823   1.023   2.881
 4790SOL     OW15268   6.833   2.447   5.194
 4790SOL    HW115269   6.895   2.522   5.216
 4790SOL    HW215270   6.739   2.476   5.213
 4791SOL     OW15271   0.699   0.701   6.677
 4791SOL    HW115272   0.766   0.629   6.659
 4791SOL    HW215273   0.736   0.763   6.747
 4792SOL     OW15274   0.401   3.667   1.617
 4792SOL    HW115275   0.361   3.713   1.537
 4792SOL    HW215276   0.490   3.708   1.637
 4793SOL     OW15277   1.320   3.521   5.093
 4793SOL    HW115278   1.323   3.592   5.022
 4793SOL    HW215279   1.411   3.512   5.134
 4794SOL     OW15280   5.248   1.298   6.529
 4794SOL    HW115281   5.203   1.309   6.618
 4794SOL    HW215282   5.199   1.351   6.460
 4795SOL     OW15283   0.152   0.604   6.835
 4795SOL    HW115284   0.105   0.605   6.923
 4795SOL    HW215285   0.226   0.671   6.836
 4796SOL     OW15286   5.934   0.603   5.636
 4796SOL    HW115287   5.910   0.700   5.637
 4796SOL    HW215288   5.900   0.561   5.551
 4797SOL     OW15289   2.535   4.923   5.408
 4797SOL    HW115290   2.626   4.933   5.368
 4797SOL    HW215291   2.484   4.852   5.359
 4798SOL     OW15292   2.997   6.094   0.297
 4798SOL    HW115293   3.078   6.045   0.267
 4798SOL    HW215294   3.018   6.192   0.303
 4799SOL     OW15295   3.975   3.291   0.949
 4799SOL    HW115296   4.066   3.282   0.909
 4799SOL    HW215297   3.925   3.205   0.937
 4800SOL     OW15298   1.127   4.551   7.017
 4800SOL    HW115299   1.092   4.545   6.924
 4800SOL    HW215300   1.191   4.627   0.002
 4801SOL     OW15301   4.757   2.710   3.328
 4801SOL    HW115302   4.708   2.690   3.413
 4801SOL    HW215303   4.772   2.626   3.277
 4802SOL     OW15304   6.719   0.964   5.338
 4802SOL    HW115305   6.756   1.011   5.257
 4802SOL    HW215306   6.794   0.926   5.392
 4803SOL     OW15307   5.201   3.403   5.629
 4803SOL    HW115308   5.224   3.459   5.549
 4803SOL    HW215309   5.268   3.419   5.702
 4804SOL     OW15310   5.355   2.782   0.523
 4804SOL    HW115311   5.310   2.721   0.459
 4804SOL    HW215312   5.453   2.761   0.526
 4805SOL     OW15313   5.570   0.930   6.347
 4805SOL    HW115314   5.501   0.934   6.420
 4805SOL    HW215315   5.632   0.854   6.364
 4806SOL     OW15316   1.183   2.519   3.542
 4806SOL    HW115317   1.152   2.591   3.481
 4806SOL    HW215318   1.104   2.469   3.577
 4807SOL     OW15319   1.028   3.749   6.955
 4807SOL    HW115320   0.964   3.682   6.995
 4807SOL    HW215321   0.985   3.792   6.876
 4808SOL     OW15322   3.419   6.253   2.636
 4808SOL    HW115323   3.331   6.245   2.682
 4808SOL    HW215324   3.404   6.262   2.537
 4809SOL     OW15325   2.990   3.529   0.173
 4809SOL    HW115326   2.953   3.622   0.171
 4809SOL    HW215327   3.087   3.531   0.150
 4810SOL     OW15328   1.755   5.128   4.782
 4810SOL    HW115329   1.852   5.148   4.796
 4810SOL    HW215330   1.716   5.091   4.866
 4811SOL     OW15331   3.236   3.353   4.133
 4811SOL    HW115332   3.301   3.416   4.174
 4811SOL    HW215333   3.142   3.381   4.156
 4812SOL     OW15334   2.667   6.586   1.823
 4812SOL    HW115335   2.757   6.628   1.835
 4812SOL    HW215336   2.596   6.653   1.846
 4813SOL     OW15337   1.100   2.487   4.701
 4813SOL    HW115338   1.093   2.435   4.786
 4813SOL    HW215339   1.018   2.473   4.646
 4814SOL     OW15340   5.897   1.609   0.907
 4814SOL    HW115341   5.811   1.650   0.936
 4814SOL    HW215342   5.973   1.660   0.947
 4815SOL     OW15343   6.423   4.492   2.816
 4815SOL    HW115344   6.451   4.523   2.725
 4815SOL    HW215345   6.404   4.572   2.873
 4816SOL     OW15346   2.344   0.210   2.622
 4816SOL    HW115347   2.353   0.201   2.721
 4816SOL    HW215348   2.254   0.247   2.599
 4817SOL     OW15349   3.403   2.351   0.234
 4817SOL    HW115350   3.485   2.363   0.179
 4817SOL    HW215351   3.405   2.415   0.311
 4818SOL     OW15352   4.827   6.684   4.870
 4818SOL    HW115353   4.819   6.707   4.773
 4818SOL    HW215354   4.902   6.738   4.910
 4819SOL     OW15355   3.729   0.862   0.139
 4819SOL    HW115356   3.637   0.887   0.110
 4819SOL    HW215357   3.793   0.936   0.116
 4820SOL     OW15358   0.059   4.901   1.770
 4820SOL    HW115359   0.010   4.833   1.716
 4820SOL    HW215360   0.119   4.955   1.710
 4821SOL     OW15361   0.105   6.555   1.142
 4821SOL    HW115362   0.116   6.543   1.240
 4821SOL    HW215363   0.020   6.511   1.113
 4822SOL     OW15364   0.522   4.049   1.733
 4822SOL    HW115365   0.555   4.113   1.803
 4822SOL    HW215366   0.516   4.097   1.645
 4823SOL     OW15367   0.134   1.914   3.048
 4823SOL    HW115368   0.131   1.955   2.957
 4823SOL    HW215369   0.223   1.932   3.089
 4824SOL     OW15370   5.652   2.484   2.090
 4824SOL    HW115371   5.687   2.537   2.168
 4824SOL    HW215372   5.614   2.546   2.022
 4825SOL     OW15373   1.603   3.343   4.193
 4825SOL    HW115374   1.679   3.403   4.218
 4825SOL    HW215375   1.599   3.333   4.094
 4826SOL     OW15376   0.146   6.953   0.585
 4826SOL    HW115377   0.119   6.949   0.489
 4826SOL    HW215378   0.066   6.975   0.641
 4827SOL     OW15379   4.900   1.968   0.215
 4827SOL    HW115380   4.847   1.968   0.130
 4827SOL    HW215381   4.910   1.874   0.247
 4828SOL     OW15382   5.867   3.470   6.531
 4828SOL    HW115383   5.904   3.392   6.582
 4828SOL    HW215384   5.894   3.462   6.435
 4829SOL     OW15385   2.824   0.154   5.564
 4829SOL    HW115386   2.884   0.120   5.492
 4829SOL    HW215387   2.783   0.241   5.535
 4830SOL     OW15388   4.982   4.710   5.094
 4830SOL    HW115389   4.957   4.771   5.169
 4830SOL    HW215390   5.026   4.763   5.022
 4831SOL     OW15391   6.518   2.029   6.683
 4831SOL    HW115392   6.603   2.075   6.659
 4831SOL    HW215393   6.531   1.978   6.768
 4832SOL     OW15394   1.368   3.054   6.616
 4832SOL    HW115395   1.333   3.136   6.571
 4832SOL    HW215396   1.294   2.987   6.625
 4833SOL     OW15397   6.187   2.482   3.081
 4833SOL    HW115398   6.277   2.444   3.062
 4833SOL    HW215399   6.169   2.557   3.018
 4834SOL     OW15400   5.882   0.423   3.291
 4834SOL    HW115401   5.925   0.347   3.340
 4834SOL    HW215402   5.784   0.406   3.282
 4835SOL     OW15403   1.914   1.148   6.493
 4835SOL    HW115404   1.981   1.192   6.553
 4835SOL    HW215405   1.886   1.061   6.532
 4836SOL     OW15406   5.787   3.719   2.783
 4836SOL    HW115407   5.887   3.727   2.779
 4836SOL    HW215408   5.753   3.779   2.856
 4837SOL     OW15409   0.971   5.206   1.436
 4837SOL    HW115410   0.883   5.244   1.408
 4837SOL    HW215411   1.045   5.262   1.399
 4838SOL     OW15412   2.729   5.885   2.605
 4838SOL    HW115413   2.784   5.852   2.682
 4838SOL    HW215414   2.637   5.848   2.611
 4839SOL     OW15415   1.420   0.195   6.214
 4839SOL    HW115416   1.467   0.225   6.132
 4839SOL    HW215417   1.486   0.184   6.288
 4840SOL     OW15418   6.711   5.864   6.250
 4840SOL    HW115419   6.613   5.860   6.229
 4840SOL    HW215420   6.728   5.935   6.318
 4841SOL     OW15421   1.827   5.792   1.153
 4841SOL    HW115422   1.880   5.804   1.070
 4841SOL    HW215423   1.887   5.799   1.233
 4842SOL     OW15424   3.061   6.330   0.678
 4842SOL    HW115425   3.079   6.331   0.777
 4842SOL    HW215426   2.966   6.354   0.661
 4843SOL     OW15427   1.531   3.777   0.322
 4843SOL    HW115428   1.574   3.730   0.399
 4843SOL    HW215429   1.530   3.875   0.339
 4844SOL     OW15430   0.631   1.749   5.345
 4844SOL    HW115431   0.563   1.753   5.272
 4844SOL    HW215432   0.602   1.684   5.414
 4845SOL     OW15433   5.256   6.432   3.243
 4845SOL    HW115434   5.170   6.382   3.236
 4845SOL    HW215435   5.309   6.396   3.320
 4846SOL     OW15436   6.594   5.027   6.348
 4846SOL    HW115437   6.609   5.060   6.441
 4846SOL    HW215438   6.618   4.930   6.343
 4847SOL     OW15439   4.653   2.627   4.427
 4847SOL    HW115440   4.672   2.702   4.364
 4847SOL    HW215441   4.584   2.567   4.387
 4848SOL     OW15442   2.665   3.244   1.757
 4848SOL    HW115443   2.730   3.189   1.704
 4848SOL    HW215444   2.706   3.268   1.845
 4849SOL     OW15445   2.077   6.361   6.206
 4849SOL    HW115446   2.028   6.278   6.181
 4849SOL    HW215447   2.093   6.362   6.305
 4850SOL     OW15448   3.427   6.699   2.849
 4850SOL    HW115449   3.505   6.662   2.899
 4850SOL    HW215450   3.460   6.740   2.763
 4851SOL     OW15451   5.134   1.147   5.874
 4851SOL    HW115452   5.162   1.056   5.905
 4851SOL    HW215453   5.040   1.143   5.841
 4852SOL     OW15454   1.779   2.284   1.621
 4852SOL    HW115455   1.875   2.272   1.599
 4852SOL    HW215456   1.755   2.228   1.701
 4853SOL     OW15457   3.671   1.273   1.956
 4853SOL    HW115458   3.584   1.289   2.004
 4853SOL    HW215459   3.662   1.194   1.896
 4854SOL     OW15460   4.077   6.983   5.972
 4854SOL    HW115461   4.058   6.897   5.924
 4854SOL    HW215462   4.013   0.031   5.941
 4855SOL     OW15463   0.279   2.669   2.727
 4855SOL    HW115464   0.191   2.624   2.740
 4855SOL    HW215465   0.265   2.768   2.718
 4856SOL     OW15466   0.230   4.359   2.390
 4856SOL    HW115467   0.307   4.328   2.335
 4856SOL    HW215468   0.192   4.281   2.440
 4857SOL     OW15469   0.323   0.843   5.516
 4857SOL    HW115470   0.281   0.904   5.449
 4857SOL    HW215471   0.368   0.767   5.468
 4858SOL     OW15472   1.794   0.668   4.081
 4858SOL    HW115473   1.751   0.593   4.132
 4858SOL    HW215474   1.768   0.755   4.121
 4859SOL     OW15475   3.737   6.320   6.145
 4859SOL    HW115476   3.760   6.417   6.133
 4859SOL    HW215477   3.751   6.294   6.240
 4860SOL     OW15478   3.308   4.907   0.369
 4860SOL    HW115479   3.305   4.975   0.296
 4860SOL    HW215480   3.378   4.839   0.349
 4861SOL     OW15481   4.084   4.130   6.725
 4861SOL    HW115482   4.003   4.117   6.668
 4861SOL    HW215483   4.082   4.065   6.801
 4862SOL     OW15484   1.720   0.126   0.540
 4862SOL    HW115485   1.739   0.178   0.623
 4862SOL    HW215486   1.708   0.189   0.463
 4863SOL     OW15487   5.267   3.734   6.132
 4863SOL    HW115488   5.170   3.760   6.130
 4863SOL    HW215489   5.301   3.725   6.039
 4864SOL     OW15490   3.302   1.373   4.355
 4864SOL    HW115491   3.317   1.466   4.320
 4864SOL    HW215492   3.208   1.364   4.387
 4865SOL     OW15493   1.374   6.445   5.486
 4865SOL    HW115494   1.443   6.375   5.503
 4865SOL    HW215495   1.412   6.535   5.507
 4866SOL     OW15496   0.263   4.352   5.792
 4866SOL    HW115497   0.229   4.396   5.708
 4866SOL    HW215498   0.278   4.422   5.861
 4867SOL     OW15499   4.058   1.229   3.222
 4867SOL    HW115500   4.048   1.141   3.269
 4867SOL    HW215501   3.975   1.282   3.233
 4868SOL     OW15502   0.176   5.007   0.480
 4868SOL    HW115503   0.275   5.007   0.468
 4868SOL    HW215504   0.153   4.971   0.571
 4869SOL     OW15505   0.095   1.637   0.763
 4869SOL    HW115506   0.155   1.609   0.838
 4869SOL    HW215507   0.008   1.589   0.771
 4870SOL     OW15508   0.289   0.118   1.237
 4870SOL    HW115509   0.278   0.024   1.270
 4870SOL    HW215510   0.199   0.153   1.209
 4871SOL     OW15511   0.713   1.777   3.113
 4871SOL    HW115512   0.662   1.718   3.175
 4871SOL    HW215513   0.796   1.810   3.158
 4872SOL     OW15514   5.349   0.197   3.172
 4872SOL    HW115515   5.414   0.204   3.097
 4872SOL    HW215516   5.361   0.110   3.219
 4873SOL     OW15517   0.198   5.542   3.846
 4873SOL    HW115518   0.116   5.558   3.791
 4873SOL    HW215519   0.278   5.542   3.786
 4874SOL     OW15520   5.556   4.083   2.097
 4874SOL    HW115521   5.627   4.023   2.134
 4874SOL    HW215522   5.590   4.177   2.093
 4875SOL     OW15523   6.112   6.547   4.604
 4875SOL    HW115524   6.066   6.458   4.602
 4875SOL    HW215525   6.089   6.597   4.521
 4876SOL     OW15526   6.482   1.337   2.498
 4876SOL    HW115527   6.555   1.286   2.452
 4876SOL    HW215528   6.523   1.407   2.558
 4877SOL     OW15529   0.350   1.401   6.717
 4877SOL    HW115530   0.291   1.347   6.657
 4877SOL    HW215531   0.295   1.442   6.790
 4878SOL     OW15532   5.990   4.422   3.238
 4878SOL    HW115533   6.080   4.455   3.208
 4878SOL    HW215534   6.003   4.355   3.311
 4879SOL     OW15535   5.127   0.522   2.986
 4879SOL    HW115536   5.213   0.476   3.011
 4879SOL    HW215537   5.147   0.607   2.938
 4880SOL     OW15538   0.052   2.985   6.132
 4880SOL    HW115539   0.135   2.973   6.077
 4880SOL    HW215540   6.996   3.003   6.071
 4881SOL     OW15541   0.361   3.843   1.814
 4881SOL    HW115542   0.440   3.903   1.821
 4881SOL    HW215543   0.369   3.786   1.733
 4882SOL     OW15544   5.075   1.884   3.980
 4882SOL    HW115545   5.043   1.814   4.044
 4882SOL    HW215546   5.142   1.843   3.918
 4883SOL     OW15547   6.291   4.386   6.959
 4883SOL    HW115548   6.304   4.367   6.861
 4883SOL    HW215549   6.261   4.302   7.005
 4884SOL     OW15550   2.194   1.897   1.988
 4884SOL    HW115551   2.242   1.841   1.920
 4884SOL    HW215552   2.260   1.931   2.055
 4885SOL     OW15553   0.927   5.092   6.558
 4885SOL    HW115554   0.881   5.090   6.647
 4885SOL    HW215555   0.859   5.083   6.485
 4886SOL     OW15556   2.750   0.899   2.383
 4886SOL    HW115557   2.780   0.967   2.316
 4886SOL    HW215558   2.693   0.943   2.452
 4887SOL     OW15559   4.708   5.258   0.657
 4887SOL    HW115560   4.639   5.199   0.698
 4887SOL    HW215561   4.670   5.300   0.575
 4888SOL     OW15562   4.570   0.723   2.731
 4888SOL    HW115563   4.638   0.672   2.784
 4888SOL    HW215564   4.553   0.811   2.775
 4889SOL     OW15565   5.791   3.495   3.746
 4889SOL    HW115566   5.870   3.449   3.787
 4889SOL    HW215567   5.730   3.426   3.706
 4890SOL     OW15568   6.403   2.040   4.720
 4890SOL    HW115569   6.443   2.085   4.800
 4890SOL    HW215570   6.426   2.092   4.638
 4891SOL     OW15571   2.587   6.261   0.450
 4891SOL    HW115572   2.608   6.357   0.427
 4891SOL    HW215573   2.559   6.213   0.368
 4892SOL     OW15574   5.321   5.033   1.891
 4892SOL    HW115575   5.287   4.957   1.945
 4892SOL    HW215576   5.418   5.020   1.872
 4893SOL     OW15577   1.281   2.814   1.511
 4893SOL    HW115578   1.240   2.889   1.562
 4893SOL    HW215579   1.357   2.775   1.563
 4894SOL     OW15580   5.126   5.780   0.703
 4894SOL    HW115581   5.033   5.747   0.721
 4894SOL    HW215582   5.136   5.873   0.737
 4895SOL     OW15583   6.487   3.627   5.137
 4895SOL    HW115584   6.440   3.714   5.121
 4895SOL    HW215585   6.484   3.572   5.053
 4896SOL     OW15586   2.827   5.338   4.613
 4896SOL    HW115587   2.766   5.332   4.692
 4896SOL    HW215588   2.822   5.252   4.562
 4897SOL     OW15589   2.037   1.518   5.329
 4897SOL    HW115590   2.118   1.576   5.338
 4897SOL    HW215591   2.053   1.448   5.260
 4898SOL     OW15592   4.110   1.967   3.961
 4898SOL    HW115593   4.082   2.063   3.966
 4898SOL    HW215594   4.133   1.934   4.052
 4899SOL     OW15595   6.533   6.418   1.554
 4899SOL    HW115596   6.547   6.333   1.504
 4899SOL    HW215597   6.539   6.495   1.491
 4900SOL     OW15598   3.654   6.064   6.070
 4900SOL    HW115599   3.695   6.156   6.072
 4900SOL    HW215600   3.707   6.003   6.128
 4901SOL     OW15601   2.321   0.870   0.071
 4901SOL    HW115602   2.322   0.970   0.063
 4901SOL    HW215603   2.230   0.835   0.050
 4902SOL     OW15604   2.436   0.223   5.315
 4902SOL    HW115605   2.357   0.179   5.272
 4902SOL    HW215606   2.413   0.249   5.409
 4903SOL     OW15607   4.901   3.945   2.509
 4903SOL    HW115608   4.851   4.029   2.488
 4903SOL    HW215609   5.000   3.962   2.505
 4904SOL     OW15610   1.879   1.009   1.977
 4904SOL    HW115611   1.789   1.051   1.962
 4904SOL    HW215612   1.946   1.081   1.993
 4905SOL     OW15613   2.723   1.302   2.400
 4905SOL    HW115614   2.705   1.297   2.498
 4905SOL    HW215615   2.719   1.398   2.370
 4906SOL     OW15616   5.266   3.240   4.933
 4906SOL    HW115617   5.245   3.148   4.899
 4906SOL    HW215618   5.261   3.306   4.857
 4907SOL     OW15619   3.351   2.038   0.519
 4907SOL    HW115620   3.281   2.069   0.584
 4907SOL    HW215621   3.328   2.071   0.428
 4908SOL     OW15622   3.220   6.832   6.145
 4908SOL    HW115623   3.246   6.833   6.048
 4908SOL    HW215624   3.290   6.784   6.197
 4909SOL     OW15625   5.048   5.119   4.539
 4909SOL    HW115626   5.079   5.032   4.577
 4909SOL    HW215627   4.977   5.158   4.599
 4910SOL     OW15628   4.186   1.884   0.056
 4910SOL    HW115629   4.127   1.956   0.020
 4910SOL    HW215630   4.135   1.826   0.119
 4911SOL     OW15631   6.412   4.356   3.259
 4911SOL    HW115632   6.479   4.395   3.195
 4911SOL    HW215633   6.444   4.267   3.291
 4912SOL     OW15634   5.887   2.647   3.741
 4912SOL    HW115635   5.875   2.549   3.725
 4912SOL    HW215636   5.962   2.662   3.805
 4913SOL     OW15637   1.101   3.588   5.246
 4913SOL    HW115638   1.050   3.636   5.175
 4913SOL    HW215639   1.187   3.555   5.209
 4914SOL     OW15640   3.547   6.983   3.840
 4914SOL    HW115641   3.566   7.017   3.932
 4914SOL    HW215642   3.550   6.883   3.841
 4915SOL     OW15643   3.906   5.895   5.519
 4915SOL    HW115644   4.006   5.889   5.525
 4915SOL    HW215645   3.871   5.951   5.595
 4916SOL     OW15646   5.373   2.419   3.475
 4916SOL    HW115647   5.393   2.361   3.553
 4916SOL    HW215648   5.432   2.499   3.477
 4917SOL     OW15649   4.096   6.694   6.580
 4917SOL    HW115650   4.064   6.789   6.588
 4917SOL    HW215651   4.186   6.686   6.621
 4918SOL     OW15652   5.450   6.103   3.869
 4918SOL    HW115653   5.536   6.056   3.887
 4918SOL    HW215654   5.404   6.060   3.792
 4919SOL     OW15655   4.019   3.930   2.090
 4919SOL    HW115656   4.077   4.011   2.089
 4919SOL    HW215657   3.923   3.958   2.088
 4920SOL     OW15658   6.305   0.628   6.090
 4920SOL    HW115659   6.352   0.550   6.047
 4920SOL    HW215660   6.260   0.682   6.019
 4921SOL     OW15661   6.883   0.382   2.441
 4921SOL    HW115662   6.878   0.382   2.540
 4921SOL    HW215663   6.887   0.477   2.408
 4922SOL     OW15664   4.034   0.720   6.243
 4922SOL    HW115665   4.123   0.701   6.204
 4922SOL    HW215666   4.018   0.661   6.322
 4923SOL     OW15667   4.006   1.543   1.765
 4923SOL    HW115668   3.918   1.564   1.808
 4923SOL    HW215669   4.026   1.613   1.696
 4924SOL     OW15670   2.587   1.257   5.041
 4924SOL    HW115671   2.646   1.177   5.032
 4924SOL    HW215672   2.550   1.261   5.133
 4925SOL     OW15673   4.476   6.657   4.039
 4925SOL    HW115674   4.381   6.627   4.044
 4925SOL    HW215675   4.516   6.656   4.131
 4926SOL     OW15676   4.850   2.601   1.673
 4926SOL    HW115677   4.792   2.605   1.755
 4926SOL    HW215678   4.811   2.535   1.608
 4927SOL     OW15679   2.405   1.201   0.321
 4927SOL    HW115680   2.344   1.280   0.321
 4927SOL    HW215681   2.357   1.122   0.359
 4928SOL     OW15682   0.273   1.084   1.008
 4928SOL    HW115683   0.313   0.993   1.013
 4928SOL    HW215684   0.341   1.149   0.977
 4929SOL     OW15685   6.712   6.807   4.878
 4929SOL    HW115686   6.802   6.849   4.864
 4929SOL    HW215687   6.654   6.826   4.799
 4930SOL     OW15688   4.151   5.843   2.839
 4930SOL    HW115689   4.191   5.935   2.846
 4930SOL    HW215690   4.175   5.791   2.921
 4931SOL     OW15691   5.992   0.281   1.224
 4931SOL    HW115692   6.091   0.293   1.226
 4931SOL    HW215693   5.949   0.363   1.186
 4932SOL     OW15694   3.602   3.812   3.199
 4932SOL    HW115695   3.549   3.758   3.264
 4932SOL    HW215696   3.560   3.805   3.108
 4933SOL     OW15697   1.749   6.594   4.871
 4933SOL    HW115698   1.713   6.570   4.961
 4933SOL    HW215699   1.674   6.604   4.806
 4934SOL     OW15700   2.816   6.967   2.862
 4934SOL    HW115701   2.765   6.946   2.946
 4934SOL    HW215702   2.837   6.882   2.813
 4935SOL     OW15703   5.970   6.898   4.687
 4935SOL    HW115704   6.060   6.860   4.708
 4935SOL    HW215705   5.942   6.960   4.760
 4936SOL     OW15706   4.201   2.964   0.282
 4936SOL    HW115707   4.236   2.925   0.197
 4936SOL    HW215708   4.181   3.060   0.269
 4937SOL     OW15709   3.687   2.595   5.307
 4937SOL    HW115710   3.597   2.623   5.342
 4937SOL    HW215711   3.712   2.653   5.229
 4938SOL     OW15712   3.251   4.442   0.034
 4938SOL    HW115713   3.335   4.419   0.083
 4938SOL    HW215714   3.177   4.382   0.066
 4939SOL     OW15715   4.678   3.686   6.264
 4939SOL    HW115716   4.606   3.707   6.198
 4939SOL    HW215717   4.649   3.718   6.355
 4940SOL     OW15718   1.663   6.001   3.900
 4940SOL    HW115719   1.653   5.917   3.847
 4940SOL    HW215720   1.583   6.013   3.959
 4941SOL     OW15721   6.087   1.163   1.658
 4941SOL    HW115722   6.114   1.067   1.646
 4941SOL    HW215723   6.118   1.196   1.747
 4942SOL     OW15724   5.571   2.311   5.542
 4942SOL    HW115725   5.558   2.250   5.464
 4942SOL    HW215726   5.537   2.266   5.625
 4943SOL     OW15727   5.747   2.887   1.387
 4943SOL    HW115728   5.681   2.880   1.312
 4943SOL    HW215729   5.714   2.834   1.466
 4944SOL     OW15730   1.761   3.453   2.067
 4944SOL    HW115731   1.798   3.362   2.086
 4944SOL    HW215732   1.726   3.456   1.973
 4945SOL     OW15733   0.133   5.805   4.409
 4945SOL    HW115734   0.122   5.882   4.346
 4945SOL    HW215735   0.229   5.779   4.415
 4946SOL     OW15736   6.972   4.425   1.726
 4946SOL    HW115737   6.880   4.394   1.748
 4946SOL    HW215738   0.015   4.385   1.791
 4947SOL     OW15739   6.090   0.586   0.541
 4947SOL    HW115740   6.035   0.669   0.543
 4947SOL    HW215741   6.063   0.526   0.616
 4948SOL     OW15742   2.311   1.583   2.499
 4948SOL    HW115743   2.251   1.661   2.517
 4948SOL    HW215744   2.272   1.527   2.426
 4949SOL     OW15745   5.471   2.196   5.305
 4949SOL    HW115746   5.460   2.283   5.257
 4949SOL    HW215747   5.388   2.176   5.358
 4950SOL     OW15748   3.266   5.564   4.013
 4950SOL    HW115749   3.228   5.646   3.971
 4950SOL    HW215750   3.201   5.488   4.003
 4951SOL     OW15751   4.249   2.302   3.647
 4951SOL    HW115752   4.151   2.310   3.667
 4951SOL    HW215753   4.277   2.206   3.655
 4952SOL     OW15754   6.881   4.364   3.945
 4952SOL    HW115755   6.888   4.453   3.901
 4952SOL    HW215756   6.966   4.344   3.993
 4953SOL     OW15757   1.138   4.705   1.931
 4953SOL    HW115758   1.213   4.756   1.974
 4953SOL    HW215759   1.170   4.667   1.844
 4954SOL     OW15760   6.734   6.091   6.379
 4954SOL    HW115761   6.699   6.172   6.425
 4954SOL    HW215762   6.823   6.110   6.340
 4955SOL     OW15763   1.825   0.195   1.813
 4955SOL    HW115764   1.791   0.287   1.793
 4955SOL    HW215765   1.901   0.174   1.750
 4956SOL     OW15766   5.783   6.373   3.645
 4956SOL    HW115767   5.817   6.288   3.685
 4956SOL    HW215768   5.767   6.359   3.547
 4957SOL     OW15769   1.172   5.999   4.149
 4957SOL    HW115770   1.225   5.989   4.233
 4957SOL    HW215771   1.102   6.068   4.161
 4958SOL     OW15772   6.667   6.729   6.907
 4958SOL    HW115773   6.749   6.783   6.887
 4958SOL    HW215774   6.595   6.789   6.942
 4959SOL     OW15775   0.677   2.325   0.188
 4959SOL    HW115776   0.607   2.395   0.201
 4959SOL    HW215777   0.760   2.352   0.238
 4960SOL     OW15778   3.298   0.192   5.575
 4960SOL    HW115779   3.201   0.218   5.576
 4960SOL    HW215780   3.328   0.179   5.480
 4961SOL     OW15781   4.981   0.294   5.181
 4961SOL    HW115782   4.910   0.278   5.111
 4961SOL    HW215783   4.982   0.391   5.205
 4962SOL     OW15784   6.455   2.547   2.035
 4962SOL    HW115785   6.539   2.601   2.028
 4962SOL    HW215786   6.434   2.530   2.131
 4963SOL     OW15787   0.637   4.079   1.203
 4963SOL    HW115788   0.678   4.009   1.144
 4963SOL    HW215789   0.637   4.167   1.155
 4964SOL     OW15790   3.019   6.647   2.957
 4964SOL    HW115791   3.102   6.595   2.978
 4964SOL    HW215792   2.961   6.650   3.037
 4965SOL     OW15793   0.073   6.129   5.211
 4965SOL    HW115794   0.023   6.044   5.223
 4965SOL    HW215795   0.099   6.166   5.300
 4966SOL     OW15796   5.105   5.453   5.222
 4966SOL    HW115797   5.022   5.507   5.223
 4966SOL    HW215798   5.170   5.492   5.156
 4967SOL     OW15799   5.506   1.331   6.388
 4967SOL    HW115800   5.442   1.371   6.454
 4967SOL    HW215801   5.591   1.307   6.435
 4968SOL     OW15802   5.262   3.888   6.389
 4968SOL    HW115803   5.351   3.876   6.433
 4968SOL    HW215804   5.244   3.810   6.329
 4969SOL     OW15805   1.648   1.413   1.294
 4969SOL    HW115806   1.625   1.386   1.387
 4969SOL    HW215807   1.663   1.331   1.238
 4970SOL     OW15808   1.773   1.751   6.059
 4970SOL    HW115809   1.817   1.797   5.981
 4970SOL    HW215810   1.702   1.810   6.097
 4971SOL     OW15811   6.258   5.497   3.914
 4971SOL    HW115812   6.321   5.550   3.856
 4971SOL    HW215813   6.175   5.477   3.864
 4972SOL     OW15814   1.847   2.154   4.603
 4972SOL    HW115815   1.762   2.146   4.656
 4972SOL    HW215816   1.924   2.125   4.659
 4973SOL     OW15817   5.078   5.765   2.960
 4973SOL    HW115818   5.030   5.852   2.968
 4973SOL    HW215819   5.013   5.693   2.933
 4974SOL     OW15820   3.604   6.636   6.514
 4974SOL    HW115821   3.676   6.609   6.449
 4974SOL    HW215822   3.548   6.556   6.536
 4975SOL     OW15823   4.129   6.125   0.531
 4975SOL    HW115824   4.204   6.191   0.538
 4975SOL    HW215825   4.160   6.036   0.565
 4976SOL     OW15826   2.264   0.763   4.768
 4976SOL    HW115827   2.233   0.855   4.793
 4976SOL    HW215828   2.316   0.769   4.682
 4977SOL     OW15829   3.444   3.102   1.164
 4977SOL    HW115830   3.542   3.087   1.149
 4977SOL    HW215831   3.391   3.033   1.115
 4978SOL     OW15832   6.642   4.174   6.436
 4978SOL    HW115833   6.547   4.145   6.425
 4978SOL    HW215834   6.697   4.098   6.471
 4979SOL     OW15835   2.592   2.528   3.901
 4979SOL    HW115836   2.611   2.589   3.978
 4979SOL    HW215837   2.497   2.541   3.871
 4980SOL     OW15838   2.249   4.622   3.315
 4980SOL    HW115839   2.300   4.697   3.272
 4980SOL    HW215840   2.171   4.597   3.258
 4981SOL     OW15841   5.513   5.748   5.333
 4981SOL    HW115842   5.430   5.738   5.388
 4981SOL    HW215843   5.523   5.668   5.274
 4982SOL     OW15844   2.243   1.218   6.340
 4982SOL    HW115845   2.187   1.144   6.378
 4982SOL    HW215846   2.220   1.304   6.386
 4983SOL     OW15847   6.945   2.475   4.136
 4983SOL    HW115848   0.000   2.443   4.081
 4983SOL    HW215849   6.884   2.530   4.078
 4984SOL     OW15850   5.138   5.145   3.661
 4984SOL    HW115851   5.048   5.128   3.620
 4984SOL    HW215852   5.182   5.058   3.681
 4985SOL     OW15853   5.724   3.638   2.208
 4985SOL    HW115854   5.681   3.619   2.296
 4985SOL    HW215855   5.656   3.627   2.135
 4986SOL     OW15856   4.399   5.259   3.418
 4986SOL    HW115857   4.373   5.355   3.430
 4986SOL    HW215858   4.350   5.203   3.485
 4987SOL     OW15859   1.280   3.021   0.430
 4987SOL    HW115860   1.255   3.016   0.527
 4987SOL    HW215861   1.200   3.049   0.377
 4988SOL     OW15862   2.112   2.507   5.468
 4988SOL    HW115863   2.169   2.551   5.399
 4988SOL    HW215864   2.148   2.416   5.487
 4989SOL     OW15865   0.048   1.269   0.906
 4989SOL    HW115866   0.059   1.219   0.821
 4989SOL    HW215867   6.972   1.284   0.924
 4990SOL     OW15868   1.608   2.115   0.023
 4990SOL    HW115869   1.531   2.058   7.017
 4990SOL    HW215870   1.633   2.177   6.970
 4991SOL     OW15871   2.856   1.794   5.610
 4991SOL    HW115872   2.864   1.697   5.586
 4991SOL    HW215873   2.779   1.806   5.673
 4992SOL     OW15874   4.177   6.880   4.980
 4992SOL    HW115875   4.117   6.892   5.060
 4992SOL    HW215876   4.154   6.949   4.911
 4993SOL     OW15877   1.594   6.573   4.630
 4993SOL    HW115878   1.602   6.476   4.606
 4993SOL    HW215879   1.522   6.616   4.576
 4994SOL     OW15880   0.126   6.240   2.940
 4994SOL    HW115881   0.175   6.173   2.884
 4994SOL    HW215882   0.135   6.331   2.898
 4995SOL     OW15883   5.458   3.183   5.530
 4995SOL    HW115884   5.416   3.093   5.529
 4995SOL    HW215885   5.547   3.180   5.484
 4996SOL     OW15886   0.743   1.836   3.938
 4996SOL    HW115887   0.727   1.934   3.925
 4996SOL    HW215888   0.718   1.787   3.855
 4997SOL     OW15889   0.113   2.609   3.910
 4997SOL    HW115890   0.212   2.616   3.923
 4997SOL    HW215891   0.084   2.516   3.930
 4998SOL     OW15892   0.981   5.686   5.854
 4998SOL    HW115893   0.937   5.623   5.791
 4998SOL    HW215894   1.080   5.686   5.837
 4999SOL     OW15895   5.764   4.724   1.251
 4999SOL    HW115896   5.679   4.712   1.201
 4999SOL    HW215897   5.774   4.820   1.278
 5000SOL     OW15898   6.389   5.496   4.599
 5000SOL    HW115899   6.383   5.486   4.698
 5000SOL    HW215900   6.314   5.446   4.556
 5001SOL     OW15901   4.883   3.460   5.322
 5001SOL    HW115902   4.849   3.463   5.228
 5001SOL    HW215903   4.897   3.365   5.350
 5002SOL     OW15904   1.449   2.278   2.008
 5002SOL    HW115905   1.429   2.332   2.090
 5002SOL    HW215906   1.372   2.282   1.945
 5003SOL     OW15907   6.646   5.460   4.463
 5003SOL    HW115908   6.675   5.381   4.516
 5003SOL    HW215909   6.558   5.493   4.497
 5004SOL     OW15910   1.798   3.944   5.880
 5004SOL    HW115911   1.857   4.003   5.934
 5004SOL    HW215912   1.854   3.884   5.822
 5005SOL     OW15913   4.862   2.510   0.528
 5005SOL    HW115914   4.958   2.491   0.508
 5005SOL    HW215915   4.854   2.598   0.575
 5006SOL     OW15916   5.141   5.291   2.282
 5006SOL    HW115917   5.151   5.385   2.312
 5006SOL    HW215918   5.090   5.238   2.351
 5007SOL     OW15919   4.553   0.938   5.066
 5007SOL    HW115920   4.540   0.946   4.967
 5007SOL    HW215921   4.608   0.857   5.086
 5008SOL     OW15922   6.420   1.889   4.135
 5008SOL    HW115923   6.403   1.930   4.046
 5008SOL    HW215924   6.474   1.806   4.124
 5009SOL     OW15925   2.899   6.512   1.601
 5009SOL    HW115926   2.889   6.573   1.679
 5009SOL    HW215927   2.983   6.459   1.610
 5010SOL     OW15928   3.382   3.309   6.015
 5010SOL    HW115929   3.392   3.211   5.994
 5010SOL    HW215930   3.285   3.329   6.030
 5011SOL     OW15931   1.373   1.339   4.013
 5011SOL    HW115932   1.469   1.358   3.996
 5011SOL    HW215933   1.320   1.422   3.998
 5012SOL     OW15934   6.241   2.677   0.251
 5012SOL    HW115935   6.332   2.691   0.290
 5012SOL    HW215936   6.248   2.616   0.172
 5013SOL     OW15937   4.792   1.749   5.269
 5013SOL    HW115938   4.798   1.651   5.287
 5013SOL    HW215939   4.882   1.784   5.243
 5014SOL     OW15940   7.000   4.912   0.041
 5014SOL    HW115941   6.988   4.871   6.972
 5014SOL    HW215942   0.046   4.860   0.092
 5015SOL     OW15943   4.957   1.904   3.723
 5015SOL    HW115944   4.997   1.834   3.665
 5015SOL    HW215945   4.962   1.874   3.819
 5016SOL     OW15946   2.855   6.162   1.674
 5016SOL    HW115947   2.798   6.245   1.675
 5016SOL    HW215948   2.797   6.081   1.669
 5017SOL     OW15949   0.757   2.061   1.802
 5017SOL    HW115950   0.676   2.078   1.744
 5017SOL    HW215951   0.747   2.111   1.888
 5018SOL     OW15952   6.402   5.149   4.370
 5018SOL    HW115953   6.427   5.162   4.465
 5018SOL    HW215954   6.391   5.238   4.326
 5019SOL     OW15955   2.986   5.649   5.098
 5019SOL    HW115956   3.062   5.658   5.033
 5019SOL    HW215957   2.916   5.588   5.059
 5020SOL     OW15958   4.526   4.773   0.094
 5020SOL    HW115959   4.554   4.768   0.189
 5020SOL    HW215960   4.607   4.783   0.035
 5021SOL     OW15961   1.661   4.881   5.788
 5021SOL    HW115962   1.573   4.862   5.746
 5021SOL    HW215963   1.656   4.862   5.886
 5022SOL     OW15964   1.831   3.983   6.867
 5022SOL    HW115965   1.921   3.999   6.907
 5022SOL    HW215966   1.760   4.012   6.931
 5023SOL     OW15967   6.903   2.518   4.747
 5023SOL    HW115968   6.986   2.529   4.693
 5023SOL    HW215969   6.824   2.549   4.695
 5024SOL     OW15970   4.679   3.758   5.453
 5024SOL    HW115971   4.635   3.679   5.495
 5024SOL    HW215972   4.639   3.842   5.489
 5025SOL     OW15973   5.824   0.583   4.614
 5025SOL    HW115974   5.879   0.593   4.697
 5025SOL    HW215975   5.884   0.579   4.535
 5026SOL     OW15976   0.914   5.472   2.929
 5026SOL    HW115977   0.928   5.491   3.026
 5026SOL    HW215978   0.880   5.555   2.884
 5027SOL     OW15979   0.999   5.544   3.517
 5027SOL    HW115980   1.062   5.588   3.580
 5027SOL    HW215981   1.024   5.447   3.507
 5028SOL     OW15982   1.105   6.246   3.133
 5028SOL    HW115983   1.134   6.330   3.178
 5028SOL    HW215984   1.035   6.267   3.064
 5029SOL     OW15985   5.620   0.580   4.297
 5029SOL    HW115986   5.674   0.503   4.264
 5029SOL    HW215987   5.532   0.582   4.248
 5030SOL     OW15988   1.320   6.228   0.281
 5030SOL    HW115989   1.244   6.173   0.315
 5030SOL    HW215990   1.325   6.220   0.181
 5031SOL     OW15991   5.514   0.418   7.016
 5031SOL    HW115992   5.606   0.393   0.026
 5031SOL    HW215993   5.522   0.480   6.938
 5032SOL     OW15994   1.646   5.466   2.337
 5032SOL    HW115995   1.707   5.420   2.272
 5032SOL    HW215996   1.698   5.534   2.388
 5033SOL     OW15997   0.581   4.544   4.712
 5033SOL    HW115998   0.493   4.590   4.695
 5033SOL    HW215999   0.622   4.582   4.795
 5034SOL     OW16000   0.530   3.165   6.225
 5034SOL    HW116001   0.503   3.198   6.315
 5034SOL    HW216002   0.482   3.218   6.155
 5035SOL     OW16003   6.493   4.020   1.379
 5035SOL    HW116004   6.538   3.930   1.382
 5035SOL    HW216005   6.406   4.012   1.330
 5036SOL     OW16006   1.259   1.930   2.817
 5036SOL    HW116007   1.244   2.005   2.752
 5036SOL    HW216008   1.289   1.968   2.904
 5037SOL     OW16009   4.837   4.643   1.978
 5037SOL    HW116010   4.803   4.552   1.954
 5037SOL    HW216011   4.854   4.695   1.894
 5038SOL     OW16012   3.067   5.603   5.697
 5038SOL    HW116013   3.048   5.558   5.784
 5038SOL    HW216014   2.985   5.603   5.640
 5039SOL     OW16015   1.224   2.660   3.767
 5039SOL    HW116016   1.202   2.614   3.681
 5039SOL    HW216017   1.309   2.712   3.755
 5040SOL     OW16018   2.888   3.318   5.875
 5040SOL    HW116019   2.867   3.414   5.861
 5040SOL    HW216020   2.805   3.269   5.903
 5041SOL     OW16021   6.987   5.726   0.483
 5041SOL    HW116022   6.922   5.650   0.476
 5041SOL    HW216023   6.947   5.808   0.443
 5042SOL     OW16024   5.845   1.666   6.146
 5042SOL    HW116025   5.828   1.645   6.243
 5042SOL    HW216026   5.773   1.624   6.090
 5043SOL     OW16027   5.543   5.826   3.470
 5043SOL    HW116028   5.516   5.901   3.531
 5043SOL    HW216029   5.487   5.829   3.387
 5044SOL     OW16030   6.133   3.934   1.809
 5044SOL    HW116031   6.153   3.844   1.849
 5044SOL    HW216032   6.213   3.993   1.818
 5045SOL     OW16033   5.080   2.893   5.528
 5045SOL    HW116034   4.987   2.856   5.531
 5045SOL    HW216035   5.078   2.985   5.489
 5046SOL     OW16036   4.450   2.985   6.012
 5046SOL    HW116037   4.415   2.891   6.010
 5046SOL    HW216038   4.450   3.022   5.919
 5047SOL     OW16039   0.561   2.038   2.521
 5047SOL    HW116040   0.576   2.135   2.539
 5047SOL    HW216041   0.465   2.016   2.537
 5048SOL     OW16042   5.966   3.570   0.767
 5048SOL    HW116043   5.975   3.551   0.669
 5048SOL    HW216044   5.992   3.489   0.819
 5049SOL     OW16045   0.532   1.116   1.422
 5049SOL    HW116046   0.534   1.067   1.509
 5049SOL    HW216047   0.439   1.113   1.384
 5050SOL     OW16048   1.681   4.374   0.606
 5050SOL    HW116049   1.752   4.343   0.543
 5050SOL    HW216050   1.637   4.456   0.569
 5051SOL     OW16051   2.472   3.702   6.302
 5051SOL    HW116052   2.432   3.716   6.212
 5051SOL    HW216053   2.562   3.747   6.306
 5052SOL     OW16054   6.162   2.684   1.094
 5052SOL    HW116055   6.132   2.590   1.082
 5052SOL    HW216056   6.159   2.733   1.007
 5053SOL     OW16057   1.267   3.966   1.293
 5053SOL    HW116058   1.302   4.034   1.357
 5053SOL    HW216059   1.337   3.897   1.275
 5054SOL     OW16060   4.018   6.209   5.033
 5054SOL    HW116061   4.062   6.298   5.017
 5054SOL    HW216062   3.970   6.181   4.949
 5055SOL     OW16063   0.486   0.390   3.357
 5055SOL    HW116064   0.586   0.400   3.365
 5055SOL    HW216065   0.444   0.407   3.446
 5056SOL     OW16066   3.150   1.723   6.096
 5056SOL    HW116067   3.110   1.805   6.054
 5056SOL    HW216068   3.217   1.750   6.165
 5057SOL     OW16069   0.125   4.202   2.603
 5057SOL    HW116070   0.096   4.111   2.573
 5057SOL    HW216071   0.068   4.232   2.679
 5058SOL     OW16072   4.007   1.754   0.290
 5058SOL    HW116073   4.072   1.682   0.314
 5058SOL    HW216074   4.015   1.829   0.356
 5059SOL     OW16075   5.703   2.656   2.317
 5059SOL    HW116076   5.669   2.702   2.235
 5059SOL    HW216077   5.649   2.685   2.396
 5060SOL     OW16078   6.119   2.986   5.437
 5060SOL    HW116079   6.130   3.084   5.424
 5060SOL    HW216080   6.207   2.940   5.426
 5061SOL     OW16081   3.832   2.693   5.512
 5061SOL    HW116082   3.764   2.728   5.575
 5061SOL    HW216083   3.787   2.650   5.433
 5062SOL     OW16084   5.489   1.061   3.264
 5062SOL    HW116085   5.505   0.965   3.286
 5062SOL    HW216086   5.401   1.090   3.303
 5063SOL     OW16087   0.722   1.504   0.969
 5063SOL    HW116088   0.808   1.491   0.922
 5063SOL    HW216089   0.651   1.447   0.927
 5064SOL     OW16090   6.082   4.837   1.010
 5064SOL    HW116091   6.158   4.828   0.945
 5064SOL    HW216092   6.102   4.912   1.074
 5065SOL     OW16093   1.950   2.140   2.999
 5065SOL    HW116094   1.967   2.208   3.071
 5065SOL    HW216095   1.933   2.051   3.041
 5066SOL     OW16096   1.460   4.967   3.892
 5066SOL    HW116097   1.475   5.055   3.846
 5066SOL    HW216098   1.362   4.949   3.899
 5067SOL     OW16099   5.073   2.857   0.810
 5067SOL    HW116100   5.127   2.920   0.755
 5067SOL    HW216101   5.024   2.909   0.880
 5068SOL     OW16102   1.605   6.963   1.368
 5068SOL    HW116103   1.571   6.972   1.462
 5068SOL    HW216104   1.704   6.976   1.366
 5069SOL     OW16105   3.943   4.480   5.952
 5069SOL    HW116106   3.931   4.548   6.024
 5069SOL    HW216107   3.948   4.389   5.993
 5070SOL     OW16108   6.972   3.705   6.323
 5070SOL    HW116109   0.043   3.701   6.359
 5070SOL    HW216110   6.956   3.794   6.281
 5071SOL     OW16111   2.072   6.736   2.558
 5071SOL    HW116112   2.167   6.740   2.590
 5071SOL    HW216113   2.029   6.826   2.569
 5072SOL     OW16114   0.976   1.861   2.550
 5072SOL    HW116115   0.941   1.819   2.634
 5072SOL    HW216116   1.033   1.794   2.501
 5073SOL     OW16117   1.586   1.266   3.537
 5073SOL    HW116118   1.631   1.213   3.465
 5073SOL    HW216119   1.652   1.285   3.610
 5074SOL     OW16120   3.867   1.703   1.017
 5074SOL    HW116121   3.903   1.714   0.924
 5074SOL    HW216122   3.942   1.694   1.082
 5075SOL     OW16123   6.322   2.284   0.257
 5075SOL    HW116124   6.304   2.366   0.312
 5075SOL    HW216125   6.337   2.206   0.318
 5076SOL     OW16126   0.044   1.056   5.677
 5076SOL    HW116127   0.041   1.107   5.763
 5076SOL    HW216128   0.061   1.119   5.601
 5077SOL     OW16129   0.229   4.662   4.319
 5077SOL    HW116130   0.174   4.581   4.338
 5077SOL    HW216131   0.209   4.696   4.227
 5078SOL     OW16132   5.933   2.098   2.885
 5078SOL    HW116133   5.990   2.088   2.967
 5078SOL    HW216134   5.837   2.106   2.912
 5079SOL     OW16135   1.619   4.069   5.342
 5079SOL    HW116136   1.653   4.052   5.434
 5079SOL    HW216137   1.688   4.042   5.275
 5080SOL     OW16138   6.444   5.515   0.025
 5080SOL    HW116139   6.363   5.544   0.078
 5080SOL    HW216140   6.435   5.418   0.003
 5081SOL     OW16141   3.143   4.590   5.526
 5081SOL    HW116142   3.154   4.491   5.542
 5081SOL    HW216143   3.132   4.606   5.428
 5082SOL     OW16144   6.014   0.020   2.706
 5082SOL    HW116145   6.023   0.117   2.680
 5082SOL    HW216146   6.096   7.013   2.755
 5083SOL     OW16147   0.661   0.125   3.487
 5083SOL    HW116148   0.708   0.038   3.473
 5083SOL    HW216149   0.712   0.198   3.441
 5084SOL     OW16150   3.269   5.338   5.381
 5084SOL    HW116151   3.295   5.352   5.476
 5084SOL    HW216152   3.325   5.397   5.322
 5085SOL     OW16153   0.024   4.109   5.306
 5085SOL    HW116154   0.047   4.019   5.269
 5085SOL    HW216155   6.948   4.112   5.330
 5086SOL     OW16156   1.337   4.378   2.299
 5086SOL    HW116157   1.357   4.281   2.312
 5086SOL    HW216158   1.334   4.398   2.201
 5087SOL     OW16159   6.863   5.555   1.567
 5087SOL    HW116160   6.848   5.511   1.478
 5087SOL    HW216161   6.897   5.648   1.553
 5088SOL     OW16162   4.551   4.828   1.965
 5088SOL    HW116163   4.469   4.884   1.962
 5088SOL    HW216164   4.553   4.775   2.049
 5089SOL     OW16165   4.909   6.477   5.586
 5089SOL    HW116166   4.939   6.401   5.644
 5089SOL    HW216167   4.814   6.499   5.605
 5090SOL     OW16168   2.152   6.858   4.174
 5090SOL    HW116169   2.168   6.956   4.166
 5090SOL    HW216170   2.086   6.841   4.247
 5091SOL     OW16171   5.972   5.926   6.055
 5091SOL    HW116172   5.995   5.882   5.968
 5091SOL    HW216173   6.033   6.003   6.071
 5092SOL     OW16174   3.461   2.912   4.601
 5092SOL    HW116175   3.391   2.849   4.567
 5092SOL    HW216176   3.481   2.892   4.696
 5093SOL     OW16177   3.432   2.064   3.645
 5093SOL    HW116178   3.443   1.977   3.693
 5093SOL    HW216179   3.460   2.053   3.550
 5094SOL     OW16180   1.992   5.610   5.159
 5094SOL    HW116181   2.048   5.663   5.222
 5094SOL    HW216182   1.897   5.610   5.192
 5095SOL     OW16183   5.997   1.813   3.495
 5095SOL    HW116184   5.963   1.906   3.488
 5095SOL    HW216185   5.923   1.752   3.525
 5096SOL     OW16186   6.045   2.767   5.961
 5096SOL    HW116187   6.067   2.838   6.028
 5096SOL    HW216188   6.104   2.778   5.881
 5097SOL     OW16189   0.711   1.255   5.693
 5097SOL    HW116190   0.661   1.218   5.615
 5097SOL    HW216191   0.778   1.188   5.724
 5098SOL     OW16192   2.904   2.290   1.133
 5098SOL    HW116193   2.923   2.263   1.228
 5098SOL    HW216194   2.807   2.278   1.114
 5099SOL     OW16195   2.325   5.733   2.269
 5099SOL    HW116196   2.304   5.750   2.365
 5099SOL    HW216197   2.380   5.808   2.232
 5100SOL     OW16198   5.943   3.487   1.333
 5100SOL    HW116199   5.905   3.417   1.394
 5100SOL    HW216200   5.875   3.559   1.320
 5101SOL     OW16201   3.362   1.436   5.250
 5101SOL    HW116202   3.454   1.398   5.261
 5101SOL    HW216203   3.326   1.460   5.340
 5102SOL     OW16204   5.608   4.191   5.456
 5102SOL    HW116205   5.539   4.168   5.387
 5102SOL    HW216206   5.602   4.289   5.476
 5103SOL     OW16207   0.744   0.465   5.831
 5103SOL    HW116208   0.664   0.471   5.891
 5103SOL    HW216209   0.817   0.417   5.878
 5104SOL     OW16210   4.122   3.591   3.678
 5104SOL    HW116211   4.070   3.508   3.659
 5104SOL    HW216212   4.062   3.661   3.718
 5105SOL     OW16213   4.297   3.210   6.831
 5105SOL    HW116214   4.346   3.188   6.916
 5105SOL    HW216215   4.215   3.262   6.852
 5106SOL     OW16216   3.882   1.343   1.546
 5106SOL    HW116217   3.915   1.412   1.610
 5106SOL    HW216218   3.903   1.370   1.453
 5107SOL     OW16219   6.622   5.055   6.949
 5107SOL    HW116220   6.667   5.063   0.016
 5107SOL    HW216221   6.532   5.013   6.960
 5108SOL     OW16222   3.906   4.229   1.112
 5108SOL    HW116223   4.001   4.206   1.090
 5108SOL    HW216224   3.896   4.243   1.210
 5109SOL     OW16225   2.194   2.612   2.388
 5109SOL    HW116226   2.117   2.552   2.363
 5109SOL    HW216227   2.275   2.586   2.335
 5110SOL     OW16228   3.745   6.572   4.367
 5110SOL    HW116229   3.745   6.557   4.466
 5110SOL    HW216230   3.727   6.669   4.349
 5111SOL     OW16231   2.182   5.254   5.565
 5111SOL    HW116232   2.103   5.243   5.505
 5111SOL    HW216233   2.228   5.166   5.575
 5112SOL     OW16234   1.139   4.526   2.368
 5112SOL    HW116235   1.222   4.477   2.343
 5112SOL    HW216236   1.074   4.521   2.292
 5113SOL     OW16237   2.702   4.028   0.883
 5113SOL    HW116238   2.607   4.004   0.904
 5113SOL    HW216239   2.707   4.124   0.858
 5114SOL     OW16240   4.869   4.608   1.593
 5114SOL    HW116241   4.799   4.669   1.631
 5114SOL    HW216242   4.959   4.636   1.626
 5115SOL     OW16243   1.380   4.670   0.562
 5115SOL    HW116244   1.353   4.644   0.655
 5115SOL    HW216245   1.474   4.638   0.545
 5116SOL     OW16246   0.222   6.511   5.817
 5116SOL    HW116247   0.239   6.475   5.909
 5116SOL    HW216248   0.175   6.599   5.825
 5117SOL     OW16249   6.850   3.475   3.801
 5117SOL    HW116250   6.792   3.552   3.772
 5117SOL    HW216251   6.939   3.510   3.830
 5118SOL     OW16252   4.109   5.002   0.068
 5118SOL    HW116253   4.156   4.935   0.010
 5118SOL    HW216254   4.089   4.961   0.157
 5119SOL     OW16255   5.165   1.499   0.969
 5119SOL    HW116256   5.202   1.417   1.012
 5119SOL    HW216257   5.200   1.506   0.875
 5120SOL     OW16258   5.858   6.685   5.950
 5120SOL    HW116259   5.840   6.604   6.006
 5120SOL    HW216260   5.819   6.766   5.994
 5121SOL     OW16261   1.548   3.481   0.589
 5121SOL    HW116262   1.488   3.554   0.557
 5121SOL    HW216263   1.494   3.415   0.642
 5122SOL     OW16264   4.892   5.111   3.574
 5122SOL    HW116265   4.895   5.185   3.506
 5122SOL    HW216266   4.806   5.060   3.563
 5123SOL     OW16267   5.339   2.607   1.499
 5123SOL    HW116268   5.416   2.665   1.523
 5123SOL    HW216269   5.369   2.535   1.437
 5124SOL     OW16270   0.358   5.752   4.666
 5124SOL    HW116271   0.324   5.662   4.693
 5124SOL    HW216272   0.360   5.759   4.567
 5125SOL     OW16273   5.840   2.027   3.795
 5125SOL    HW116274   5.776   2.077   3.737
 5125SOL    HW216275   5.823   2.049   3.891
 5126SOL     OW16276   2.017   1.354   1.692
 5126SOL    HW116277   2.028   1.452   1.681
 5126SOL    HW216278   2.093   1.318   1.746
 5127SOL     OW16279   1.801   6.963   6.933
 5127SOL    HW116280   1.729   6.983   7.001
 5127SOL    HW216281   1.875   6.913   6.977
 5128SOL     OW16282   4.570   6.766   1.271
 5128SOL    HW116283   4.624   6.794   1.350
 5128SOL    HW216284   4.473   6.764   1.295
 5129SOL     OW16285   6.210   5.588   0.152
 5129SOL    HW116286   6.147   5.563   0.078
 5129SOL    HW216287   6.179   5.547   0.237
 5130SOL     OW16288   6.342   5.421   1.985
 5130SOL    HW116289   6.411   5.464   1.926
 5130SOL    HW216290   6.371   5.428   2.080
 5131SOL     OW16291   2.819   2.311   2.336
 5131SOL    HW116292   2.863   2.310   2.246
 5131SOL    HW216293   2.750   2.383   2.339
 5132SOL     OW16294   1.943   6.167   5.612
 5132SOL    HW116295   1.886   6.228   5.668
 5132SOL    HW216296   2.016   6.221   5.569
 5133SOL     OW16297   3.788   6.775   4.727
 5133SOL    HW116298   3.710   6.801   4.784
 5133SOL    HW216299   3.802   6.676   4.733
 5134SOL     OW16300   0.405   3.257   6.459
 5134SOL    HW116301   0.350   3.176   6.444
 5134SOL    HW216302   0.456   3.247   6.544
 5135SOL     OW16303   6.825   1.785   4.141
 5135SOL    HW116304   6.837   1.775   4.240
 5135SOL    HW216305   6.731   1.760   4.117
 5136SOL     OW16306   3.420   1.934   6.365
 5136SOL    HW116307   3.461   1.974   6.447
 5136SOL    HW216308   3.483   1.943   6.288
 5137SOL     OW16309   3.776   3.271   6.871
 5137SOL    HW116310   3.735   3.190   6.829
 5137SOL    HW216311   3.729   3.291   6.957
 5138SOL     OW16312   2.294   3.127   6.057
 5138SOL    HW116313   2.248   3.102   6.142
 5138SOL    HW216314   2.384   3.165   6.078
 5139SOL     OW16315   0.596   6.848   3.875
 5139SOL    HW116316   0.539   6.907   3.816
 5139SOL    HW216317   0.645   6.783   3.818
 5140SOL     OW16318   3.207   3.359   1.846
 5140SOL    HW116319   3.262   3.344   1.764
 5140SOL    HW216320   3.227   3.287   1.912
 5141SOL     OW16321   0.915   3.707   5.414
 5141SOL    HW116322   0.992   3.770   5.421
 5141SOL    HW216323   0.946   3.620   5.377
 5142SOL     OW16324   5.554   3.554   1.993
 5142SOL    HW116325   5.591   3.471   1.952
 5142SOL    HW216326   5.459   3.566   1.965
 5143SOL     OW16327   6.771   5.042   5.787
 5143SOL    HW116328   6.687   5.006   5.828
 5143SOL    HW216329   6.833   5.072   5.860
 5144SOL     OW16330   1.810   1.678   5.178
 5144SOL    HW116331   1.780   1.616   5.106
 5144SOL    HW216332   1.854   1.626   5.251
 5145SOL     OW16333   4.044   5.636   5.955
 5145SOL    HW116334   4.065   5.545   5.918
 5145SOL    HW216335   3.946   5.644   5.972
 5146SOL     OW16336   3.419   4.918   1.118
 5146SOL    HW116337   3.347   4.980   1.086
 5146SOL    HW216338   3.378   4.834   1.151
 5147SOL     OW16339   6.997   5.260   6.526
 5147SOL    HW116340   0.060   5.223   6.488
 5147SOL    HW216341   6.926   5.261   6.455
 5148SOL     OW16342   0.317   0.904   1.502
 5148SOL    HW116343   0.326   0.829   1.437
 5148SOL    HW216344   0.398   0.907   1.562
 5149SOL     OW16345   6.669   0.265   5.578
 5149SOL    HW116346   6.668   0.249   5.479
 5149SOL    HW216347   6.660   0.178   5.625
 5150SOL     OW16348   2.371   5.738   5.300
 5150SOL    HW116349   2.426   5.814   5.336
 5150SOL    HW216350   2.382   5.658   5.359
 5151SOL     OW16351   4.168   0.350   5.379
 5151SOL    HW116352   4.134   0.422   5.440
 5151SOL    HW216353   4.150   0.260   5.421
 5152SOL     OW16354   0.066   5.080   6.817
 5152SOL    HW116355   6.998   5.117   6.793
 5152SOL    HW216356   0.071   5.066   6.916
 5153SOL     OW16357   2.170   2.490   0.932
 5153SOL    HW116358   2.114   2.520   0.855
 5153SOL    HW216359   2.186   2.566   0.994
 5154SOL     OW16360   1.425   4.626   5.048
 5154SOL    HW116361   1.395   4.531   5.049
 5154SOL    HW216362   1.384   4.673   4.970
 5155SOL     OW16363   4.297   0.489   2.434
 5155SOL    HW116364   4.200   0.507   2.417
 5155SOL    HW216365   4.336   0.439   2.356
 5156SOL     OW16366   5.286   3.337   6.229
 5156SOL    HW116367   5.290   3.242   6.199
 5156SOL    HW216368   5.255   3.395   6.154
 5157SOL     OW16369   6.111   1.895   3.846
 5157SOL    HW116370   6.079   1.802   3.861
 5157SOL    HW216371   6.033   1.954   3.824
 5158SOL     OW16372   3.607   0.854   1.548
 5158SOL    HW116373   3.567   0.772   1.589
 5158SOL    HW216374   3.579   0.935   1.599
 5159SOL     OW16375   2.128   3.389   4.916
 5159SOL    HW116376   2.126   3.444   4.832
 5159SOL    HW216377   2.103   3.448   4.994
 5160SOL     OW16378   2.609   2.489   4.195
 5160SOL    HW116379   2.681   2.448   4.139
 5160SOL    HW216380   2.637   2.487   4.292
 5161SOL     OW16381   1.917   3.447   6.869
 5161SOL    HW116382   1.924   3.427   6.967
 5161SOL    HW216383   1.835   3.500   6.851
 5162SOL     OW16384   6.612   5.635   4.778
 5162SOL    HW116385   6.552   5.562   4.808
 5162SOL    HW216386   6.679   5.598   4.713
 5163SOL     OW16387   5.502   4.068   0.695
 5163SOL    HW116388   5.520   3.992   0.757
 5163SOL    HW216389   5.529   4.154   0.738
 5164SOL     OW16390   6.507   6.147   4.880
 5164SOL    HW116391   6.504   6.160   4.979
 5164SOL    HW216392   6.419   6.113   4.848
 5165SOL     OW16393   5.732   3.675   4.991
 5165SOL    HW116394   5.736   3.750   5.057
 5165SOL    HW216395   5.667   3.699   4.918
 5166SOL     OW16396   0.788   6.719   2.748
 5166SOL    HW116397   0.851   6.641   2.756
 5166SOL    HW216398   0.817   6.777   2.672
 5167SOL     OW16399   1.868   0.200   5.313
 5167SOL    HW116400   1.897   0.123   5.255
 5167SOL    HW216401   1.948   0.249   5.346
 5168SOL     OW16402   3.559   2.087   2.301
 5168SOL    HW116403   3.482   2.036   2.262
 5168SOL    HW216404   3.588   2.158   2.236
 5169SOL     OW16405   3.876   5.309   6.477
 5169SOL    HW116406   3.906   5.404   6.487
 5169SOL    HW216407   3.918   5.269   6.396
 5170SOL     OW16408   4.358   5.234   4.170
 5170SOL    HW116409   4.417   5.190   4.237
 5170SOL    HW216410   4.405   5.242   4.082
 5171SOL     OW16411   2.715   4.778   5.198
 5171SOL    HW116412   2.705   4.691   5.246
 5171SOL    HW216413   2.765   4.763   5.113
 5172SOL     OW16414   1.948   4.140   6.486
 5172SOL    HW116415   1.976   4.209   6.419
 5172SOL    HW216416   1.998   4.154   6.571
 5173SOL     OW16417   0.119   2.663   4.572
 5173SOL    HW116418   0.168   2.602   4.510
 5173SOL    HW216419   0.179   2.690   4.647
 5174SOL     OW16420   2.635   4.927   0.011
 5174SOL    HW116421   2.569   4.911   6.959
 5174SOL    HW216422   2.703   4.994   7.003
 5175SOL     OW16423   6.936   5.472   6.680
 5175SOL    HW116424   6.840   5.466   6.707
 5175SOL    HW216425   6.964   5.388   6.633
 5176SOL     OW16426   5.601   3.563   6.101
 5176SOL    HW116427   5.549   3.587   6.182
 5176SOL    HW216428   5.668   3.635   6.081
 5177SOL     OW16429   5.250   4.865   5.786
 5177SOL    HW116430   5.171   4.809   5.810
 5177SOL    HW216431   5.270   4.927   5.862
 5178SOL     OW16432   3.298   4.271   0.525
 5178SOL    HW116433   3.286   4.195   0.460
 5178SOL    HW216434   3.282   4.358   0.477
 5179SOL     OW16435   3.203   6.286   5.211
 5179SOL    HW116436   3.295   6.274   5.248
 5179SOL    HW216437   3.142   6.318   5.283
 5180SOL     OW16438   4.730   1.546   0.071
 5180SOL    HW116439   4.676   1.468   0.038
 5180SOL    HW216440   4.729   1.547   0.171
 5181SOL     OW16441   3.107   6.016   2.350
 5181SOL    HW116442   3.008   6.001   2.352
 5181SOL    HW216443   3.142   6.019   2.443
 5182SOL     OW16444   4.690   4.314   1.113
 5182SOL    HW116445   4.658   4.357   1.197
 5182SOL    HW216446   4.621   4.323   1.042
 5183SOL     OW16447   3.469   0.465   3.878
 5183SOL    HW116448   3.566   0.446   3.870
 5183SOL    HW216449   3.453   0.564   3.869
 5184SOL     OW16450   0.706   2.584   3.469
 5184SOL    HW116451   0.755   2.633   3.397
 5184SOL    HW216452   0.716   2.485   3.456
 5185SOL     OW16453   4.088   6.942   1.635
 5185SOL    HW116454   4.050   6.876   1.570
 5185SOL    HW216455   4.027   7.021   1.640
 5186SOL     OW16456   5.552   4.193   6.646
 5186SOL    HW116457   5.519   4.214   6.554
 5186SOL    HW216458   5.610   4.112   6.644
 5187SOL     OW16459   4.855   3.100   4.457
 5187SOL    HW116460   4.917   3.055   4.522
 5187SOL    HW216461   4.878   3.197   4.451
 5188SOL     OW16462   0.129   1.037   3.792
 5188SOL    HW116463   0.159   1.022   3.886
 5188SOL    HW216464   0.171   1.120   3.756
 5189SOL     OW16465   4.790   5.577   5.675
 5189SOL    HW116466   4.738   5.593   5.591
 5189SOL    HW216467   4.765   5.645   5.744
 5190SOL     OW16468   2.356   2.486   2.208
 5190SOL    HW116469   2.443   2.438   2.196
 5190SOL    HW216470   2.349   2.561   2.142
 5191SOL     OW16471   4.967   0.465   2.309
 5191SOL    HW116472   4.939   0.560   2.320
 5191SOL    HW216473   4.910   0.421   2.240
 5192SOL     OW16474   6.220   4.025   1.295
 5192SOL    HW116475   6.209   3.927   1.311
 5192SOL    HW216476   6.141   4.074   1.330
 5193SOL     OW16477   3.954   4.806   2.590
 5193SOL    HW116478   3.979   4.792   2.494
 5193SOL    HW216479   3.858   4.834   2.596
 5194SOL     OW16480   5.103   1.028   0.752
 5194SOL    HW116481   5.069   1.014   0.659
 5194SOL    HW216482   5.032   1.005   0.818
 5195SOL     OW16483   0.361   5.964   5.228
 5195SOL    HW116484   0.320   6.027   5.161
 5195SOL    HW216485   0.461   5.965   5.217
 5196SOL     OW16486   0.250   3.605   3.584
 5196SOL    HW116487   0.281   3.604   3.679
 5196SOL    HW216488   0.266   3.695   3.545
 5197SOL     OW16489   3.940   5.989   5.172
 5197SOL    HW116490   3.978   6.059   5.112
 5197SOL    HW216491   3.846   6.012   5.196
 5198SOL     OW16492   4.402   1.044   5.462
 5198SOL    HW116493   4.323   1.077   5.514
 5198SOL    HW216494   4.382   1.049   5.364
 5199SOL     OW16495   0.752   5.807   1.945
 5199SOL    HW116496   0.837   5.790   1.895
 5199SOL    HW216497   0.734   5.730   2.006
 5200SOL     OW16498   6.093   6.624   5.224
 5200SOL    HW116499   6.031   6.696   5.191
 5200SOL    HW216500   6.039   6.548   5.261
 5201SOL     OW16501   6.768   4.144   5.379
 5201SOL    HW116502   6.672   4.124   5.362
 5201SOL    HW216503   6.795   4.108   5.468
 5202SOL     OW16504   3.744   2.096   5.879
 5202SOL    HW116505   3.737   1.998   5.896
 5202SOL    HW216506   3.671   2.144   5.927
 5203SOL     OW16507   0.879   0.356   6.237
 5203SOL    HW116508   0.873   0.448   6.200
 5203SOL    HW216509   0.929   0.358   6.324
 5204SOL     OW16510   1.968   0.627   1.691
 5204SOL    HW116511   1.936   0.708   1.642
 5204SOL    HW216512   2.065   0.611   1.672
 5205SOL     OW16513   6.739   0.128   2.405
 5205SOL    HW116514   6.778   0.220   2.402
 5205SOL    HW216515   6.784   0.075   2.477
 5206SOL     OW16516   0.998   5.044   4.964
 5206SOL    HW116517   0.915   5.048   5.020
 5206SOL    HW216518   1.046   4.958   4.981
 5207SOL     OW16519   4.648   0.635   4.945
 5207SOL    HW116520   4.693   0.591   5.023
 5207SOL    HW216521   4.707   0.706   4.908
 5208SOL     OW16522   6.618   1.553   0.217
 5208SOL    HW116523   6.531   1.601   0.204
 5208SOL    HW216524   6.643   1.553   0.314
 5209SOL     OW16525   5.069   6.338   2.185
 5209SOL    HW116526   5.132   6.416   2.179
 5209SOL    HW216527   5.037   6.315   2.093
 5210SOL     OW16528   5.981   4.176   1.327
 5210SOL    HW116529   5.989   4.275   1.325
 5210SOL    HW216530   5.922   4.149   1.403
 5211SOL     OW16531   5.423   3.022   4.872
 5211SOL    HW116532   5.506   3.016   4.927
 5211SOL    HW216533   5.443   3.072   4.787
 5212SOL     OW16534   6.436   3.698   6.770
 5212SOL    HW116535   6.405   3.725   6.862
 5212SOL    HW216536   6.438   3.598   6.763
 5213SOL     OW16537   3.554   3.244   3.496
 5213SOL    HW116538   3.584   3.334   3.464
 5213SOL    HW216539   3.590   3.174   3.435
 5214SOL     OW16540   5.362   3.082   6.150
 5214SOL    HW116541   5.343   3.100   6.054
 5214SOL    HW216542   5.352   2.984   6.168
 5215SOL     OW16543   0.305   5.090   4.893
 5215SOL    HW116544   0.285   5.116   4.799
 5215SOL    HW216545   0.288   5.169   4.953
 5216SOL     OW16546   6.481   4.318   0.736
 5216SOL    HW116547   6.488   4.392   0.803
 5216SOL    HW216548   6.561   4.320   0.676
 5217SOL     OW16549   3.329   0.164   2.545
 5217SOL    HW116550   3.356   0.134   2.454
 5217SOL    HW216551   3.344   0.090   2.611
 5218SOL     OW16552   6.342   0.443   0.806
 5218SOL    HW116553   6.303   0.381   0.874
 5218SOL    HW216554   6.433   0.412   0.780
 5219SOL     OW16555   4.347   1.687   4.851
 5219SOL    HW116556   4.420   1.734   4.800
 5219SOL    HW216557   4.279   1.652   4.786
 5220SOL     OW16558   1.848   4.793   4.469
 5220SOL    HW116559   1.835   4.694   4.466
 5220SOL    HW216560   1.786   4.837   4.404
 5221SOL     OW16561   4.520   6.047   0.890
 5221SOL    HW116562   4.434   6.071   0.935
 5221SOL    HW216563   4.549   5.956   0.919
 5222SOL     OW16564   6.582   3.183   2.326
 5222SOL    HW116565   6.678   3.193   2.302
 5222SOL    HW216566   6.531   3.148   2.247
 5223SOL     OW16567   0.168   2.513   0.925
 5223SOL    HW116568   0.149   2.460   0.843
 5223SOL    HW216569   0.137   2.463   1.006
 5224SOL     OW16570   1.634   1.149   4.478
 5224SOL    HW116571   1.686   1.229   4.446
 5224SOL    HW216572   1.559   1.131   4.415
 5225SOL     OW16573   0.156   2.111   6.263
 5225SOL    HW116574   0.239   2.075   6.304
 5225SOL    HW216575   0.077   2.089   6.320
 5226SOL     OW16576   0.039   7.004   3.918
 5226SOL    HW116577   0.006   0.075   3.898
 5226SOL    HW216578   0.139   7.005   3.923
 5227SOL     OW16579   1.682   2.652   6.158
 5227SOL    HW116580   1.773   2.648   6.115
 5227SOL    HW216581   1.693   2.670   6.256
 5228SOL     OW16582   1.071   2.248   5.224
 5228SOL    HW116583   0.997   2.209   5.168
 5228SOL    HW216584   1.157   2.243   5.173
 5229SOL     OW16585   3.915   1.320   6.943
 5229SOL    HW116586   3.885   1.247   7.004
 5229SOL    HW216587   3.855   1.322   6.862
 5230SOL     OW16588   6.912   0.454   2.095
 5230SOL    HW116589   6.916   0.359   2.128
 5230SOL    HW216590   6.982   0.467   2.024
 5231SOL     OW16591   5.970   3.360   1.893
 5231SOL    HW116592   5.964   3.449   1.938
 5231SOL    HW216593   5.988   3.372   1.796
 5232SOL     OW16594   1.700   1.498   5.990
 5232SOL    HW116595   1.600   1.500   5.989
 5232SOL    HW216596   1.735   1.591   5.999
 5233SOL     OW16597   2.395   0.166   3.346
 5233SOL    HW116598   2.447   0.219   3.413
 5233SOL    HW216599   2.419   0.070   3.354
 5234SOL     OW16600   3.186   2.333   6.669
 5234SOL    HW116601   3.150   2.373   6.585
 5234SOL    HW216602   3.262   2.272   6.648
 5235SOL     OW16603   2.149   2.825   1.635
 5235SOL    HW116604   2.140   2.727   1.618
 5235SOL    HW216605   2.071   2.874   1.596
 5236SOL     OW16606   3.050   4.888   2.234
 5236SOL    HW116607   3.052   4.883   2.134
 5236SOL    HW216608   2.959   4.859   2.266
 5237SOL     OW16609   1.583   1.889   1.862
 5237SOL    HW116610   1.544   1.925   1.947
 5237SOL    HW216611   1.555   1.794   1.851
 5238SOL     OW16612   5.864   0.729   3.110
 5238SOL    HW116613   5.820   0.640   3.102
 5238SOL    HW216614   5.953   0.727   3.064
 5239SOL     OW16615   3.008   3.989   7.013
 5239SOL    HW116616   3.092   4.019   6.968
 5239SOL    HW216617   2.963   3.920   6.956
 5240SOL     OW16618   1.712   4.251   5.559
 5240SOL    HW116619   1.808   4.251   5.584
 5240SOL    HW216620   1.702   4.283   5.464
 5241SOL     OW16621   2.178   5.732   3.495
 5241SOL    HW116622   2.090   5.706   3.535
 5241SOL    HW216623   2.189   5.831   3.499
 5242SOL     OW16624   3.927   6.205   5.384
 5242SOL    HW116625   3.997   6.216   5.456
 5242SOL    HW216626   3.942   6.118   5.337
 5243SOL     OW16627   1.925   5.956   3.880
 5243SOL    HW116628   1.988   5.883   3.906
 5243SOL    HW216629   1.834   5.918   3.866
 5244SOL     OW16630   5.422   1.255   6.136
 5244SOL    HW116631   5.409   1.337   6.079
 5244SOL    HW216632   5.449   1.284   6.228
 5245SOL     OW16633   3.349   3.940   2.084
 5245SOL    HW116634   3.257   3.962   2.052
 5245SOL    HW216635   3.364   3.841   2.078
 5246SOL     OW16636   6.186   3.141   5.745
 5246SOL    HW116637   6.123   3.066   5.723
 5246SOL    HW216638   6.278   3.105   5.757
 5247SOL     OW16639   4.797   0.982   5.919
 5247SOL    HW116640   4.698   0.972   5.919
 5247SOL    HW216641   4.825   1.044   5.845
 5248SOL     OW16642   4.585   1.127   2.731
 5248SOL    HW116643   4.542   1.117   2.641
 5248SOL    HW216644   4.632   1.215   2.736
 5249SOL     OW16645   0.480   5.676   1.683
 5249SOL    HW116646   0.570   5.642   1.655
 5249SOL    HW216647   0.447   5.623   1.761
 5250SOL     OW16648   1.664   5.094   0.454
 5250SOL    HW116649   1.604   5.047   0.390
 5250SOL    HW216650   1.760   5.077   0.429
 5251SOL     OW16651   0.963   4.779   6.525
 5251SOL    HW116652   1.062   4.775   6.536
 5251SOL    HW216653   0.926   4.853   6.582
 5252SOL     OW16654   3.817   5.815   2.974
 5252SOL    HW116655   3.892   5.788   3.033
 5252SOL    HW216656   3.777   5.900   3.007
 5253SOL     OW16657   0.106   5.878   4.757
 5253SOL    HW116658   0.197   5.858   4.720
 5253SOL    HW216659   0.083   5.810   4.827
 5254SOL     OW16660   4.723   6.142   1.995
 5254SOL    HW116661   4.625   6.163   1.991
 5254SOL    HW216662   4.748   6.118   2.089
 5255SOL     OW16663   0.550   1.477   6.311
 5255SOL    HW116664   0.615   1.467   6.236
 5255SOL    HW216665   0.593   1.527   6.386
 5256SOL     OW16666   4.208   2.197   2.865
 5256SOL    HW116667   4.284   2.257   2.888
 5256SOL    HW216668   4.200   2.125   2.934
 5257SOL     OW16669   5.459   1.575   0.193
 5257SOL    HW116670   5.412   1.564   0.106
 5257SOL    HW216671   5.489   1.670   0.204
 5258SOL     OW16672   5.478   1.596   5.499
 5258SOL    HW116673   5.569   1.630   5.476
 5258SOL    HW216674   5.483   1.545   5.585
 5259SOL     OW16675   4.969   5.877   4.291
 5259SOL    HW116676   4.958   5.972   4.263
 5259SOL    HW216677   4.958   5.818   4.211
 5260SOL     OW16678   1.803   6.388   1.560
 5260SOL    HW116679   1.830   6.295   1.586
 5260SOL    HW216680   1.786   6.442   1.643
 5261SOL     OW16681   5.949   4.966   0.119
 5261SOL    HW116682   5.872   4.904   0.105
 5261SOL    HW216683   5.955   4.991   0.216
 5262SOL     OW16684   2.348   2.119   1.404
 5262SOL    HW116685   2.317   2.189   1.469
 5262SOL    HW216686   2.438   2.085   1.432
 5263SOL     OW16687   0.708   6.203   3.024
 5263SOL    HW116688   0.754   6.231   2.940
 5263SOL    HW216689   0.761   6.234   3.103
 5264SOL     OW16690   6.751   2.328   2.234
 5264SOL    HW116691   6.661   2.371   2.220
 5264SOL    HW216692   6.743   2.256   2.304
 5265SOL     OW16693   0.579   5.392   5.967
 5265SOL    HW116694   0.518   5.439   6.031
 5265SOL    HW216695   0.671   5.387   6.006
 5266SOL     OW16696   1.714   0.064   6.255
 5266SOL    HW116697   1.753   0.014   6.177
 5266SOL    HW216698   1.719   0.162   6.238
 5267SOL     OW16699   6.305   0.833   4.927
 5267SOL    HW116700   6.325   0.778   5.008
 5267SOL    HW216701   6.343   0.925   4.939
 5268SOL     OW16702   6.121   6.797   6.066
 5268SOL    HW116703   6.175   6.794   5.981
 5268SOL    HW216704   6.040   6.740   6.055
 5269SOL     OW16705   1.059   0.611   4.247
 5269SOL    HW116706   1.077   0.575   4.339
 5269SOL    HW216707   1.043   0.710   4.254
 5270SOL     OW16708   1.258   1.292   0.288
 5270SOL    HW116709   1.335   1.286   0.351
 5270SOL    HW216710   1.277   1.361   0.218
 5271SOL     OW16711   1.355   5.550   6.180
 5271SOL    HW116712   1.434   5.514   6.229
 5271SOL    HW216713   1.357   5.650   6.184
 5272SOL     OW16714   4.296   0.203   6.313
 5272SOL    HW116715   4.308   0.105   6.330
 5272SOL    HW216716   4.215   0.235   6.362
 5273SOL     OW16717   2.079   1.392   3.310
 5273SOL    HW116718   2.076   1.472   3.370
 5273SOL    HW216719   2.097   1.311   3.364
 5274SOL     OW16720   5.642   4.230   1.158
 5274SOL    HW116721   5.716   4.168   1.134
 5274SOL    HW216722   5.660   4.320   1.118
 5275SOL     OW16723   5.984   0.811   6.267
 5275SOL    HW116724   6.051   0.737   6.271
 5275SOL    HW216725   5.908   0.785   6.208
 5276SOL     OW16726   3.666   6.517   1.277
 5276SOL    HW116727   3.691   6.422   1.257
 5276SOL    HW216728   3.568   6.529   1.263
 5277SOL     OW16729   1.810   3.800   1.753
 5277SOL    HW116730   1.873   3.876   1.739
 5277SOL    HW216731   1.822   3.734   1.679
 5278SOL     OW16732   4.064   3.752   3.007
 5278SOL    HW116733   4.058   3.756   2.908
 5278SOL    HW216734   4.013   3.828   3.047
 5279SOL     OW16735   1.323   6.625   3.077
 5279SOL    HW116736   1.357   6.556   3.013
 5279SOL    HW216737   1.282   6.701   3.026
 5280SOL     OW16738   3.744   0.390   3.861
 5280SOL    HW116739   3.781   0.366   3.951
 5280SOL    HW216740   3.819   0.415   3.800
 5281SOL     OW16741   6.483   2.776   3.744
 5281SOL    HW116742   6.414   2.734   3.803
 5281SOL    HW216743   6.475   2.875   3.749
 5282SOL     OW16744   5.170   2.690   1.286
 5282SOL    HW116745   5.126   2.617   1.234
 5282SOL    HW216746   5.207   2.653   1.371
 5283SOL     OW16747   4.669   4.896   5.503
 5283SOL    HW116748   4.715   4.954   5.571
 5283SOL    HW216749   4.582   4.936   5.478
 5284SOL     OW16750   5.087   2.683   4.262
 5284SOL    HW116751   5.184   2.705   4.248
 5284SOL    HW216752   5.044   2.756   4.315
 5285SOL     OW16753   4.505   6.060   2.295
 5285SOL    HW116754   4.464   6.041   2.384
 5285SOL    HW216755   4.433   6.078   2.228
 5286SOL     OW16756   1.915   4.957   2.416
 5286SOL    HW116757   2.013   4.968   2.431
 5286SOL    HW216758   1.875   4.903   2.491
 5287SOL     OW16759   0.974   0.554   2.424
 5287SOL    HW116760   0.927   0.552   2.512
 5287SOL    HW216761   1.073   0.561   2.438
 5288SOL     OW16762   3.957   0.502   1.127
 5288SOL    HW116763   4.037   0.520   1.185
 5288SOL    HW216764   3.987   0.485   1.033
 5289SOL     OW16765   2.067   6.762   1.313
 5289SOL    HW116766   2.137   6.774   1.383
 5289SOL    HW216767   2.060   6.666   1.288
 5290SOL     OW16768   5.952   6.445   6.641
 5290SOL    HW116769   5.921   6.350   6.643
 5290SOL    HW216770   5.910   6.493   6.565
 5291SOL     OW16771   0.918   5.659   0.208
 5291SOL    HW116772   0.918   5.581   0.271
 5291SOL    HW216773   0.841   5.651   0.145
 5292SOL     OW16774   5.807   1.751   1.667
 5292SOL    HW116775   5.714   1.770   1.697
 5292SOL    HW216776   5.854   1.694   1.735
 5293SOL     OW16777   1.687   1.331   4.041
 5293SOL    HW116778   1.705   1.421   4.081
 5293SOL    HW216779   1.748   1.264   4.083
 5294SOL     OW16780   3.470   1.728   6.661
 5294SOL    HW116781   3.394   1.768   6.609
 5294SOL    HW216782   3.458   1.748   6.758
 5295SOL     OW16783   0.138   1.930   3.380
 5295SOL    HW116784   0.178   1.966   3.296
 5295SOL    HW216785   0.043   1.960   3.387
 5296SOL     OW16786   0.428   2.762   6.723
 5296SOL    HW116787   0.389   2.836   6.778
 5296SOL    HW216788   0.524   2.750   6.747
 5297SOL     OW16789   1.013   1.971   1.836
 5297SOL    HW116790   0.918   2.003   1.830
 5297SOL    HW216791   1.068   2.039   1.884
 5298SOL     OW16792   1.363   4.369   2.020
 5298SOL    HW116793   1.421   4.290   2.002
 5298SOL    HW216794   1.389   4.445   1.960
 5299SOL     OW16795   3.913   0.158   6.859
 5299SOL    HW116796   3.853   0.200   6.927
 5299SOL    HW216797   3.886   0.063   6.845
 5300SOL     OW16798   6.503   4.923   4.241
 5300SOL    HW116799   6.443   4.997   4.269
 5300SOL    HW216800   6.567   4.902   4.316
 5301SOL     OW16801   5.507   0.185   6.833
 5301SOL    HW116802   5.483   0.279   6.859
 5301SOL    HW216803   5.566   0.145   6.904
 5302SOL     OW16804   6.820   4.096   3.162
 5302SOL    HW116805   6.817   3.997   3.155
 5302SOL    HW216806   6.726   4.132   3.169
 5303SOL     OW16807   2.218   4.609   2.782
 5303SOL    HW116808   2.192   4.705   2.773
 5303SOL    HW216809   2.301   4.592   2.728
 5304SOL     OW16810   4.396   1.770   5.865
 5304SOL    HW116811   4.380   1.686   5.814
 5304SOL    HW216812   4.485   1.765   5.910
 5305SOL     OW16813   3.790   2.098   5.051
 5305SOL    HW116814   3.787   1.999   5.039
 5305SOL    HW216815   3.751   2.123   5.140
 5306SOL     OW16816   2.212   6.933   2.781
 5306SOL    HW116817   2.263   6.890   2.706
 5306SOL    HW216818   2.139   6.872   2.811
 5307SOL     OW16819   5.179   6.314   6.654
 5307SOL    HW116820   5.120   6.324   6.574
 5307SOL    HW216821   5.179   6.400   6.706
 5308SOL     OW16822   0.223   1.494   1.626
 5308SOL    HW116823   0.191   1.478   1.533
 5308SOL    HW216824   0.322   1.507   1.627
 5309SOL     OW16825   3.913   3.467   5.363
 5309SOL    HW116826   3.838   3.460   5.430
 5309SOL    HW216827   3.879   3.437   5.274
 5310SOL     OW16828   4.822   2.804   0.630
 5310SOL    HW116829   4.739   2.840   0.673
 5310SOL    HW216830   4.902   2.835   0.681
 5311SOL     OW16831   0.008   6.164   0.465
 5311SOL    HW116832   0.088   6.189   0.519
 5311SOL    HW216833   6.980   6.090   0.511
 5312SOL     OW16834   0.143   4.002   1.847
 5312SOL    HW116835   0.233   3.970   1.819
 5312SOL    HW216836   0.096   3.930   1.898
 5313SOL     OW16837   0.395   6.583   6.742
 5313SOL    HW116838   0.306   6.628   6.752
 5313SOL    HW216839   0.457   6.642   6.691
 5314SOL     OW16840   3.916   4.766   0.844
 5314SOL    HW116841   3.882   4.778   0.937
 5314SOL    HW216842   3.843   4.730   0.786
 5315SOL     OW16843   5.337   1.377   2.213
 5315SOL    HW116844   5.426   1.421   2.196
 5315SOL    HW216845   5.303   1.338   2.128
 5316SOL     OW16846   5.417   5.237   4.902
 5316SOL    HW116847   5.496   5.296   4.922
 5316SOL    HW216848   5.351   5.244   4.977
 5317SOL     OW16849   6.705   5.172   1.630
 5317SOL    HW116850   6.649   5.191   1.549
 5317SOL    HW216851   6.670   5.090   1.676
 5318SOL     OW16852   6.747   2.687   3.712
 5318SOL    HW116853   6.796   2.670   3.627
 5318SOL    HW216854   6.651   2.708   3.692
 5319SOL     OW16855   3.251   6.486   2.891
 5319SOL    HW116856   3.172   6.434   2.858
 5319SOL    HW216857   3.273   6.558   2.825
 5320SOL     OW16858   6.223   2.226   0.009
 5320SOL    HW116859   6.285   2.214   6.953
 5320SOL    HW216860   6.271   2.274   0.083
 5321SOL     OW16861   3.045   4.502   0.317
 5321SOL    HW116862   3.057   4.522   0.220
 5321SOL    HW216863   3.018   4.585   0.366
 5322SOL     OW16864   2.586   6.862   0.248
 5322SOL    HW116865   2.573   6.765   0.227
 5322SOL    HW216866   2.510   6.895   0.303
 5323SOL     OW16867   6.573   3.351   0.436
 5323SOL    HW116868   6.479   3.351   0.469
 5323SOL    HW216869   6.632   3.306   0.503
 5324SOL     OW16870   4.158   3.456   1.889
 5324SOL    HW116871   4.161   3.521   1.965
 5324SOL    HW216872   4.134   3.365   1.924
 5325SOL     OW16873   3.116   6.689   5.874
 5325SOL    HW116874   3.113   6.596   5.912
 5325SOL    HW216875   3.210   6.721   5.872
 5326SOL     OW16876   5.919   0.941   3.289
 5326SOL    HW116877   5.902   0.871   3.219
 5326SOL    HW216878   5.836   0.954   3.344
 5327SOL     OW16879   6.164   0.013   4.108
 5327SOL    HW116880   6.146   0.042   4.202
 5327SOL    HW216881   6.221   6.952   4.109
 5328SOL     OW16882   2.464   4.620   6.325
 5328SOL    HW116883   2.428   4.701   6.279
 5328SOL    HW216884   2.389   4.565   6.360
 5329SOL     OW16885   0.116   6.903   6.433
 5329SOL    HW116886   0.111   6.982   6.371
 5329SOL    HW216887   0.211   6.876   6.444
 5330SOL     OW16888   4.426   4.591   1.212
 5330SOL    HW116889   4.485   4.535   1.270
 5330SOL    HW216890   4.333   4.553   1.214
 5331SOL     OW16891   5.678   1.416   6.614
 5331SOL    HW116892   5.648   1.501   6.570
 5331SOL    HW216893   5.771   1.427   6.648
 5332SOL     OW16894   6.641   2.751   6.905
 5332SOL    HW116895   6.679   2.809   6.977
 5332SOL    HW216896   6.697   2.668   6.896
 5333SOL     OW16897   0.749   6.869   4.086
 5333SOL    HW116898   0.682   6.848   4.016
 5333SOL    HW216899   0.704   6.870   4.176
 5334SOL     OW16900   3.342   5.880   1.263
 5334SOL    HW116901   3.319   5.797   1.314
 5334SOL    HW216902   3.440   5.898   1.271
 5335SOL     OW16903   0.458   5.261   1.393
 5335SOL    HW116904   0.384   5.327   1.405
 5335SOL    HW216905   0.546   5.304   1.415
 5336SOL     OW16906   1.091   3.328   5.567
 5336SOL    HW116907   1.160   3.401   5.576
 5336SOL    HW216908   1.127   3.255   5.509
 5337SOL     OW16909   6.398   1.778   0.983
 5337SOL    HW116910   6.434   1.787   1.076
 5337SOL    HW216911   6.464   1.729   0.926
 5338SOL     OW16912   0.202   3.156   1.544
 5338SOL    HW116913   0.211   3.255   1.558
 5338SOL    HW216914   0.107   3.129   1.560
 5339SOL     OW16915   4.943   3.815   3.182
 5339SOL    HW116916   4.945   3.724   3.221
 5339SOL    HW216917   4.994   3.878   3.241
 5340SOL     OW16918   4.875   3.514   1.475
 5340SOL    HW116919   4.914   3.605   1.479
 5340SOL    HW216920   4.946   3.446   1.491
 5341SOL     OW16921   4.906   5.321   3.380
 5341SOL    HW116922   4.862   5.251   3.324
 5341SOL    HW216923   4.954   5.386   3.321
 5342SOL     OW16924   6.423   5.133   5.084
 5342SOL    HW116925   6.353   5.183   5.136
 5342SOL    HW216926   6.393   5.039   5.070
 5343SOL     OW16927   3.378   3.592   6.778
 5343SOL    HW116928   3.300   3.636   6.823
 5343SOL    HW216929   3.430   3.659   6.726
 5344SOL     OW16930   5.995   1.523   0.040
 5344SOL    HW116931   5.905   1.524   7.018
 5344SOL    HW216932   6.017   1.616   0.072
 5345SOL     OW16933   3.605   1.253   0.047
 5345SOL    HW116934   3.599   1.214   6.977
 5345SOL    HW216935   3.523   1.308   0.065
 5346SOL     OW16936   2.180   6.033   2.705
 5346SOL    HW116937   2.140   5.942   2.721
 5346SOL    HW216938   2.224   6.065   2.789
 5347SOL     OW16939   5.948   2.072   5.046
 5347SOL    HW116940   5.876   2.034   4.988
 5347SOL    HW216941   6.019   2.112   4.989
 5348SOL     OW16942   4.847   2.427   5.118
 5348SOL    HW116943   4.783   2.472   5.181
 5348SOL    HW216944   4.877   2.340   5.157
 5349SOL     OW16945   1.045   4.291   0.384
 5349SOL    HW116946   1.098   4.362   0.430
 5349SOL    HW216947   1.107   4.233   0.330
 5350SOL     OW16948   1.161   6.799   6.300
 5350SOL    HW116949   1.186   6.878   6.243
 5350SOL    HW216950   1.062   6.794   6.307
 5351SOL     OW16951   0.733   5.550   3.984
 5351SOL    HW116952   0.763   5.643   3.965
 5351SOL    HW216953   0.721   5.500   3.898
 5352SOL     OW16954   0.471   2.478   5.847
 5352SOL    HW116955   0.389   2.515   5.805
 5352SOL    HW216956   0.448   2.395   5.898
 5353SOL     OW16957   2.342   6.987   3.040
 5353SOL    HW116958   2.293   6.937   2.969
 5353SOL    HW216959   2.276   0.006   3.103
 5354SOL     OW16960   3.340   6.001   2.150
 5354SOL    HW116961   3.327   6.008   2.249
 5354SOL    HW216962   3.263   5.950   2.110
 5355SOL     OW16963   5.343   4.436   5.422
 5355SOL    HW116964   5.443   4.447   5.419
 5355SOL    HW216965   5.301   4.523   5.449
 5356SOL     OW16966   0.064   6.852   1.450
 5356SOL    HW116967   0.090   6.931   1.506
 5356SOL    HW216968   0.135   6.835   1.382
 5357SOL     OW16969   6.451   3.074   2.546
 5357SOL    HW116970   6.430   3.164   2.583
 5357SOL    HW216971   6.511   3.083   2.466
 5358SOL     OW16972   5.907   0.526   6.798
 5358SOL    HW116973   5.910   0.426   6.801
 5358SOL    HW216974   5.872   0.561   6.885
 5359SOL     OW16975   3.287   2.092   0.228
 5359SOL    HW116976   3.221   2.109   0.154
 5359SOL    HW216977   3.343   2.174   0.242
 5360SOL     OW16978   5.274   5.891   2.825
 5360SOL    HW116979   5.238   5.958   2.760
 5360SOL    HW216980   5.199   5.855   2.881
 5361SOL     OW16981   1.393   3.908   2.827
 5361SOL    HW116982   1.322   3.955   2.775
 5361SOL    HW216983   1.482   3.927   2.786
 5362SOL     OW16984   5.645   1.371   3.827
 5362SOL    HW116985   5.687   1.378   3.918
 5362SOL    HW216986   5.712   1.334   3.762
 5363SOL     OW16987   6.188   4.714   5.629
 5363SOL    HW116988   6.279   4.721   5.588
 5363SOL    HW216989   6.184   4.769   5.712
 5364SOL     OW16990   4.830   2.348   1.512
 5364SOL    HW116991   4.778   2.331   1.596
 5364SOL    HW216992   4.828   2.266   1.454
 5365SOL     OW16993   3.405   3.070   5.944
 5365SOL    HW116994   3.381   3.057   5.848
 5365SOL    HW216995   3.481   3.010   5.968
 5366SOL     OW16996   0.286   4.217   3.687
 5366SOL    HW116997   0.245   4.187   3.773
 5366SOL    HW216998   0.230   4.289   3.647
 5367SOL     OW16999   6.229   6.454   1.086
 5367SOL    HW117000   6.227   6.358   1.114
 5367SOL    HW217001   6.179   6.465   0.999
 5368SOL     OW17002   7.017   5.871   5.152
 5368SOL    HW117003   6.932   5.826   5.123
 5368SOL    HW217004   0.070   5.805   5.147
 5369SOL     OW17005   3.504   6.812   2.314
 5369SOL    HW117006   3.498   6.746   2.239
 5369SOL    HW217007   3.599   6.841   2.325
 5370SOL     OW17008   2.747   2.092   0.579
 5370SOL    HW117009   2.685   2.085   0.657
 5370SOL    HW217010   2.775   2.188   0.568
 5371SOL     OW17011   6.471   5.307   3.838
 5371SOL    HW117012   6.536   5.277   3.908
 5371SOL    HW217013   6.385   5.333   3.881
 5372SOL     OW17014   0.462   0.222   4.255
 5372SOL    HW117015   0.459   0.277   4.338
 5372SOL    HW217016   0.551   0.234   4.210
 5373SOL     OW17017   4.281   6.942   0.558
 5373SOL    HW117018   4.355   6.902   0.611
 5373SOL    HW217019   4.195   6.933   0.609
 5374SOL     OW17020   1.479   3.751   1.319
 5374SOL    HW117021   1.508   3.727   1.227
 5374SOL    HW217022   1.558   3.779   1.374
 5375SOL     OW17023   2.863   5.439   4.980
 5375SOL    HW117024   2.880   5.343   5.003
 5375SOL    HW217025   2.901   5.458   4.889
 5376SOL     OW17026   0.310   6.724   2.191
 5376SOL    HW117027   0.321   6.795   2.122
 5376SOL    HW217028   0.395   6.674   2.203
 5377SOL     OW17029   0.891   2.558   2.338
 5377SOL    HW117030   0.972   2.598   2.296
 5377SOL    HW217031   0.827   2.631   2.363
 5378SOL     OW17032   4.987   0.062   3.415
 5378SOL    HW117033   4.901   0.018   3.387
 5378SOL    HW217034   5.003   0.141   3.357
 5379SOL     OW17035   2.928   2.251   4.160
 5379SOL    HW117036   3.002   2.211   4.106
 5379SOL    HW217037   2.952   2.248   4.257
 5380SOL     OW17038   4.901   6.474   1.540
 5380SOL    HW117039   4.920   6.381   1.572
 5380SOL    HW217040   4.976   6.535   1.569
 5381SOL     OW17041   2.792   1.951   2.617
 5381SOL    HW117042   2.862   1.882   2.601
 5381SOL    HW217043   2.833   2.042   2.613
 5382SOL     OW17044   4.826   0.717   2.307
 5382SOL    HW117045   4.808   0.744   2.212
 5382SOL    HW217046   4.832   0.799   2.364
 5383SOL     OW17047   2.385   4.168   5.316
 5383SOL    HW117048   2.377   4.081   5.266
 5383SOL    HW217049   2.477   4.205   5.302
 5384SOL     OW17050   5.005   6.336   6.005
 5384SOL    HW117051   5.055   6.250   6.017
 5384SOL    HW217052   5.061   6.399   5.950
 5385SOL     OW17053   3.472   3.977   0.597
 5385SOL    HW117054   3.480   4.076   0.589
 5385SOL    HW217055   3.529   3.933   0.527
 5386SOL     OW17056   4.401   4.959   3.484
 5386SOL    HW117057   4.463   4.885   3.511
 5386SOL    HW217058   4.382   5.018   3.562
 5387SOL     OW17059   1.037   2.706   5.350
 5387SOL    HW117060   0.951   2.726   5.397
 5387SOL    HW217061   1.110   2.693   5.417
 5388SOL     OW17062   6.056   6.682   3.035
 5388SOL    HW117063   6.090   6.619   2.965
 5388SOL    HW217064   6.010   6.630   3.107
 5389SOL     OW17065   6.127   1.440   4.950
 5389SOL    HW117066   6.126   1.341   4.941
 5389SOL    HW217067   6.033   1.474   4.958
 5390SOL     OW17068   5.597   3.361   3.305
 5390SOL    HW117069   5.514   3.411   3.280
 5390SOL    HW217070   5.573   3.269   3.335
 5391SOL     OW17071   4.534   3.179   0.797
 5391SOL    HW117072   4.562   3.274   0.813
 5391SOL    HW217073   4.568   3.149   0.708
 5392SOL     OW17074   5.414   1.006   4.064
 5392SOL    HW117075   5.396   0.909   4.051
 5392SOL    HW217076   5.464   1.020   4.149
 5393SOL     OW17077   4.840   3.187   2.886
 5393SOL    HW117078   4.862   3.259   2.951
 5393SOL    HW217079   4.817   3.227   2.797
 5394SOL     OW17080   0.195   3.150   3.040
 5394SOL    HW117081   0.166   3.234   2.994
 5394SOL    HW217082   0.282   3.120   3.001
 5395SOL     OW17083   0.067   0.829   1.599
 5395SOL    HW117084   0.054   0.863   1.692
 5395SOL    HW217085   0.157   0.858   1.566
 5396SOL     OW17086   3.914   2.390   0.588
 5396SOL    HW117087   3.899   2.484   0.618
 5396SOL    HW217088   3.915   2.330   0.667
 5397SOL     OW17089   0.656   6.772   2.995
 5397SOL    HW117090   0.689   6.760   3.088
 5397SOL    HW217091   0.730   6.752   2.930
 5398SOL     OW17092   5.778   2.516   3.306
 5398SOL    HW117093   5.728   2.454   3.367
 5398SOL    HW217094   5.826   2.585   3.361
 5399SOL     OW17095   2.755   2.961   0.545
 5399SOL    HW117096   2.821   3.034   0.565
 5399SOL    HW217097   2.739   2.957   0.446
 5400SOL     OW17098   5.261   3.001   0.641
 5400SOL    HW117099   5.303   2.913   0.622
 5400SOL    HW217100   5.257   3.055   0.556
 5401SOL     OW17101   5.024   4.227   0.877
 5401SOL    HW117102   4.971   4.296   0.926
 5401SOL    HW217103   5.121   4.239   0.896
 5402SOL     OW17104   2.413   6.006   1.623
 5402SOL    HW117105   2.392   6.088   1.678
 5402SOL    HW217106   2.481   6.029   1.554
 5403SOL     OW17107   5.988   2.723   5.208
 5403SOL    HW117108   6.080   2.761   5.218
 5403SOL    HW217109   5.977   2.645   5.269
 5404SOL     OW17110   5.070   6.511   0.491
 5404SOL    HW117111   5.018   6.461   0.421
 5404SOL    HW217112   5.058   6.609   0.477
 5405SOL     OW17113   6.552   4.897   5.882
 5405SOL    HW117114   6.478   4.841   5.844
 5405SOL    HW217115   6.518   4.945   5.963
 5406SOL     OW17116   1.927   1.132   5.407
 5406SOL    HW117117   1.900   1.062   5.472
 5406SOL    HW217118   2.027   1.129   5.394
 5407SOL     OW17119   2.062   1.509   2.713
 5407SOL    HW117120   2.099   1.581   2.654
 5407SOL    HW217121   1.981   1.470   2.671
 5408SOL     OW17122   2.038   2.515   4.433
 5408SOL    HW117123   2.077   2.604   4.412
 5408SOL    HW217124   1.938   2.520   4.427
 5409SOL     OW17125   6.574   4.688   3.457
 5409SOL    HW117126   6.545   4.647   3.543
 5409SOL    HW217127   6.502   4.678   3.388
 5410SOL     OW17128   6.041   2.179   0.289
 5410SOL    HW117129   6.120   2.156   0.232
 5410SOL    HW217130   6.071   2.188   0.384
 5411SOL     OW17131   3.196   5.963   1.713
 5411SOL    HW117132   3.202   6.043   1.773
 5411SOL    HW217133   3.288   5.935   1.686
 5412SOL     OW17134   2.261   1.668   6.233
 5412SOL    HW117135   2.291   1.573   6.229
 5412SOL    HW217136   2.166   1.672   6.264
 5413SOL     OW17137   0.222   5.430   5.641
 5413SOL    HW117138   0.185   5.345   5.676
 5413SOL    HW217139   0.268   5.413   5.554
 5414SOL     OW17140   5.815   5.664   6.048
 5414SOL    HW117141   5.861   5.753   6.046
 5414SOL    HW217142   5.738   5.668   6.113
 5415SOL     OW17143   1.909   0.868   0.247
 5415SOL    HW117144   1.835   0.802   0.252
 5415SOL    HW217145   1.980   0.845   0.313
 5416SOL     OW17146   3.577   5.445   6.061
 5416SOL    HW117147   3.499   5.422   6.002
 5416SOL    HW217148   3.551   5.434   6.157
 5417SOL     OW17149   5.609   0.083   2.261
 5417SOL    HW117150   5.564   0.005   2.217
 5417SOL    HW217151   5.582   0.168   2.214
 5418SOL     OW17152   0.475   2.821   5.518
 5418SOL    HW117153   0.467   2.903   5.576
 5418SOL    HW217154   0.403   2.822   5.449
 5419SOL     OW17155   3.494   2.088   6.588
 5419SOL    HW117156   3.482   2.136   6.675
 5419SOL    HW217157   3.504   2.155   6.514
 5420SOL     OW17158   2.183   1.304   1.021
 5420SOL    HW117159   2.226   1.343   1.103
 5420SOL    HW217160   2.232   1.221   0.994
 5421SOL     OW17161   3.741   5.450   1.041
 5421SOL    HW117162   3.783   5.369   1.000
 5421SOL    HW217163   3.642   5.436   1.048
 5422SOL     OW17164   2.432   6.604   3.128
 5422SOL    HW117165   2.513   6.628   3.075
 5422SOL    HW217166   2.360   6.572   3.066
 5423SOL     OW17167   4.347   6.670   2.335
 5423SOL    HW117168   4.394   6.582   2.350
 5423SOL    HW217169   4.363   6.701   2.241
 5424SOL     OW17170   3.556   3.542   5.192
 5424SOL    HW117171   3.547   3.463   5.252
 5424SOL    HW217172   3.465   3.582   5.175
 5425SOL     OW17173   1.364   5.414   5.189
 5425SOL    HW117174   1.443   5.356   5.171
 5425SOL    HW217175   1.352   5.424   5.288
 5426SOL     OW17176   1.825   4.297   0.054
 5426SOL    HW117177   1.754   4.286   7.007
 5426SOL    HW217178   1.891   4.222   0.047
 5427SOL     OW17179   5.112   2.187   0.943
 5427SOL    HW117180   5.020   2.180   0.982
 5427SOL    HW217181   5.180   2.175   1.015
 5428SOL     OW17182   4.539   5.625   2.868
 5428SOL    HW117183   4.500   5.537   2.893
 5428SOL    HW217184   4.510   5.695   2.934
 5429SOL     OW17185   2.804   6.735   3.425
 5429SOL    HW117186   2.739   6.665   3.454
 5429SOL    HW217187   2.896   6.697   3.423
 5430SOL     OW17188   1.067   4.612   5.281
 5430SOL    HW117189   1.113   4.606   5.193
 5430SOL    HW217190   0.995   4.543   5.286
 5431SOL     OW17191   5.418   4.066   1.215
 5431SOL    HW117192   5.374   4.088   1.302
 5431SOL    HW217193   5.467   4.146   1.181
 5432SOL     OW17194   1.329   5.211   5.637
 5432SOL    HW117195   1.394   5.194   5.711
 5432SOL    HW217196   1.333   5.136   5.571
 5433SOL     OW17197   2.400   6.770   1.243
 5433SOL    HW117198   2.404   6.671   1.244
 5433SOL    HW217199   2.343   6.801   1.167
 5434SOL     OW17200   5.152   5.514   4.464
 5434SOL    HW117201   5.188   5.481   4.377
 5434SOL    HW217202   5.192   5.603   4.485
 5435SOL     OW17203   6.904   3.598   0.193
 5435SOL    HW117204   6.943   3.607   0.102
 5435SOL    HW217205   6.844   3.517   0.196
 5436SOL     OW17206   1.210   4.433   1.322
 5436SOL    HW117207   1.212   4.532   1.316
 5436SOL    HW217208   1.119   4.400   1.298
 5437SOL     OW17209   3.303   6.627   6.319
 5437SOL    HW117210   3.350   6.687   6.385
 5437SOL    HW217211   3.301   6.533   6.355
 5438SOL     OW17212   5.260   6.585   2.609
 5438SOL    HW117213   5.256   6.593   2.709
 5438SOL    HW217214   5.168   6.572   2.572
 5439SOL     OW17215   1.051   3.847   1.669
 5439SOL    HW117216   1.096   3.912   1.608
 5439SOL    HW217217   1.104   3.839   1.754
 5440SOL     OW17218   6.083   6.068   3.337
 5440SOL    HW117219   6.059   6.070   3.434
 5440SOL    HW217220   6.124   6.156   3.311
 5441SOL     OW17221   5.123   0.462   4.929
 5441SOL    HW117222   5.077   0.383   4.969
 5441SOL    HW217223   5.213   0.473   4.969
 5442SOL     OW17224   2.949   0.210   6.924
 5442SOL    HW117225   2.868   0.256   6.960
 5442SOL    HW217226   2.951   0.219   6.824
 5443SOL     OW17227   5.905   1.241   3.167
 5443SOL    HW117228   5.830   1.225   3.232
 5443SOL    HW217229   5.928   1.156   3.121
 5444SOL     OW17230   1.597   1.605   6.591
 5444SOL    HW117231   1.570   1.622   6.497
 5444SOL    HW217232   1.552   1.523   6.625
 5445SOL     OW17233   5.877   6.201   4.861
 5445SOL    HW117234   5.913   6.137   4.929
 5445SOL    HW217235   5.884   6.294   4.896
 5446SOL     OW17236   2.339   4.110   0.108
 5446SOL    HW117237   2.281   4.171   0.161
 5446SOL    HW217238   2.393   4.053   0.169
 5447SOL     OW17239   6.043   2.277   1.869
 5447SOL    HW117240   6.109   2.350   1.851
 5447SOL    HW217241   6.087   2.204   1.922
 5448SOL     OW17242   6.237   5.180   1.619
 5448SOL    HW117243   6.161   5.241   1.640
 5448SOL    HW217244   6.202   5.094   1.582
 5449SOL     OW17245   2.223   0.085   2.311
 5449SOL    HW117246   2.170   0.003   2.334
 5449SOL    HW217247   2.309   0.083   2.362
 5450SOL     OW17248   4.243   4.879   1.701
 5450SOL    HW117249   4.313   4.807   1.698
 5450SOL    HW217250   4.265   4.950   1.635
 5451SOL     OW17251   0.496   5.386   3.554
 5451SOL    HW117252   0.431   5.311   3.545
 5451SOL    HW217253   0.517   5.423   3.463
 5452SOL     OW17254   2.153   3.895   2.949
 5452SOL    HW117255   2.150   3.842   2.864
 5452SOL    HW217256   2.079   3.963   2.947
 5453SOL     OW17257   5.622   5.289   4.234
 5453SOL    HW117258   5.634   5.369   4.174
 5453SOL    HW217259   5.570   5.315   4.315
 5454SOL     OW17260   6.333   3.406   2.114
 5454SOL    HW117261   6.361   3.493   2.154
 5454SOL    HW217262   6.406   3.339   2.125
 5455SOL     OW17263   2.239   2.890   3.008
 5455SOL    HW117264   2.317   2.829   2.993
 5455SOL    HW217265   2.155   2.845   2.980
 5456SOL     OW17266   5.259   3.083   0.365
 5456SOL    HW117267   5.192   3.079   0.292
 5456SOL    HW217268   5.351   3.090   0.327
 5457SOL     OW17269   6.256   1.297   0.382
 5457SOL    HW117270   6.334   1.268   0.328
 5457SOL    HW217271   6.217   1.380   0.343
 5458SOL     OW17272   6.439   4.494   5.968
 5458SOL    HW117273   6.356   4.453   5.932
 5458SOL    HW217274   6.469   4.444   6.050
 5459SOL     OW17275   2.445   3.544   5.424
 5459SOL    HW117276   2.400   3.564   5.337
 5459SOL    HW217277   2.483   3.452   5.422
 5460SOL     OW17278   0.180   1.139   1.528
 5460SOL    HW117279   0.214   1.045   1.518
 5460SOL    HW217280   0.177   1.183   1.438
 5461SOL     OW17281   5.697   0.672   5.902
 5461SOL    HW117282   5.754   0.753   5.913
 5461SOL    HW217283   5.704   0.615   5.985
 5462SOL     OW17284   4.977   5.062   6.538
 5462SOL    HW117285   4.886   5.062   6.496
 5462SOL    HW217286   4.996   5.153   6.575
 5463SOL     OW17287   2.362   4.942   6.876
 5463SOL    HW117288   2.372   5.041   6.865
 5463SOL    HW217289   2.365   4.899   6.786
 5464SOL     OW17290   2.096   5.831   4.111
 5464SOL    HW117291   2.105   5.795   4.204
 5464SOL    HW217292   2.152   5.914   4.102
 5465SOL     OW17293   0.750   0.854   4.952
 5465SOL    HW117294   0.704   0.933   4.912
 5465SOL    HW217295   0.831   0.885   5.003
 5466SOL     OW17296   5.379   2.279   4.976
 5466SOL    HW117297   5.369   2.330   5.062
 5466SOL    HW217298   5.342   2.334   4.901
 5467SOL     OW17299   5.399   3.853   3.846
 5467SOL    HW117300   5.320   3.819   3.896
 5467SOL    HW217301   5.371   3.883   3.755
 5468SOL     OW17302   0.328   2.777   1.411
 5468SOL    HW117303   0.415   2.781   1.461
 5468SOL    HW217304   0.306   2.868   1.376
 5469SOL     OW17305   4.417   1.137   3.188
 5469SOL    HW117306   4.407   1.040   3.213
 5469SOL    HW217307   4.512   1.165   3.203
 5470SOL     OW17308   2.968   4.826   4.066
 5470SOL    HW117309   2.901   4.776   4.122
 5470SOL    HW217310   2.923   4.860   3.983
 5471SOL     OW17311   5.207   0.398   3.885
 5471SOL    HW117312   5.204   0.300   3.867
 5471SOL    HW217313   5.302   0.426   3.901
 5472SOL     OW17314   3.186   3.919   6.564
 5472SOL    HW117315   3.233   3.950   6.481
 5472SOL    HW217316   3.248   3.926   6.642
 5473SOL     OW17317   2.735   4.696   2.186
 5473SOL    HW117318   2.769   4.656   2.101
 5473SOL    HW217319   2.639   4.669   2.199
 5474SOL     OW17320   0.842   4.933   1.761
 5474SOL    HW117321   0.855   5.025   1.798
 5474SOL    HW217322   0.929   4.884   1.762
 5475SOL     OW17323   0.532   1.267   5.459
 5475SOL    HW117324   0.549   1.365   5.471
 5475SOL    HW217325   0.564   1.238   5.369
 5476SOL     OW17326   2.471   0.946   5.172
 5476SOL    HW117327   2.422   1.032   5.155
 5476SOL    HW217328   2.493   0.940   5.270
 5477SOL     OW17329   2.060   3.694   3.091
 5477SOL    HW117330   2.033   3.718   3.184
 5477SOL    HW217331   2.103   3.773   3.047
 5478SOL     OW17332   6.713   3.482   5.547
 5478SOL    HW117333   6.797   3.437   5.577
 5478SOL    HW217334   6.677   3.435   5.467
 5479SOL     OW17335   5.510   3.779   4.391
 5479SOL    HW117336   5.481   3.840   4.318
 5479SOL    HW217337   5.549   3.832   4.466
 5480SOL     OW17338   1.525   3.253   5.977
 5480SOL    HW117339   1.478   3.286   5.895
 5480SOL    HW217340   1.536   3.328   6.042
 5481SOL     OW17341   4.442   1.517   0.398
 5481SOL    HW117342   4.537   1.534   0.422
 5481SOL    HW217343   4.433   1.513   0.298
 5482SOL     OW17344   5.172   4.394   2.453
 5482SOL    HW117345   5.118   4.374   2.372
 5482SOL    HW217346   5.114   4.387   2.534
 5483SOL     OW17347   5.721   2.570   0.211
 5483SOL    HW117348   5.701   2.620   0.295
 5483SOL    HW217349   5.748   2.476   0.234
 5484SOL     OW17350   6.216   0.792   5.898
 5484SOL    HW117351   6.308   0.829   5.887
 5484SOL    HW217352   6.152   0.844   5.841
 5485SOL     OW17353   2.734   0.794   4.356
 5485SOL    HW117354   2.658   0.730   4.345
 5485SOL    HW217355   2.752   0.841   4.270
 5486SOL     OW17356   0.071   0.417   3.777
 5486SOL    HW117357   0.034   0.461   3.695
 5486SOL    HW217358   7.017   0.380   3.832
 5487SOL     OW17359   4.373   5.264   1.133
 5487SOL    HW117360   4.433   5.319   1.192
 5487SOL    HW217361   4.378   5.298   1.039
 5488SOL     OW17362   5.316   0.543   6.103
 5488SOL    HW117363   5.331   0.508   6.011
 5488SOL    HW217364   5.232   0.597   6.105
 5489SOL     OW17365   6.676   3.965   2.494
 5489SOL    HW117366   6.713   4.017   2.572
 5489SOL    HW217367   6.608   4.021   2.446
 5490SOL     OW17368   3.137   1.334   6.530
 5490SOL    HW117369   3.048   1.307   6.567
 5490SOL    HW217370   3.159   1.426   6.561
 5491SOL     OW17371   6.571   6.579   2.078
 5491SOL    HW117372   6.611   6.537   1.996
 5491SOL    HW217373   6.476   6.605   2.059
 5492SOL     OW17374   0.868   1.366   4.469
 5492SOL    HW117375   0.959   1.384   4.507
 5492SOL    HW217376   0.825   1.453   4.442
 5493SOL     OW17377   4.399   1.595   0.138
 5493SOL    HW117378   4.373   1.546   0.055
 5493SOL    HW217379   4.366   1.689   0.134
 5494SOL     OW17380   5.142   3.362   2.545
 5494SOL    HW117381   5.122   3.344   2.642
 5494SOL    HW217382   5.235   3.396   2.536
 5495SOL     OW17383   3.082   3.075   4.134
 5495SOL    HW117384   3.058   3.020   4.055
 5495SOL    HW217385   3.116   3.164   4.104
 5496SOL     OW17386   4.561   5.103   2.200
 5496SOL    HW117387   4.482   5.155   2.167
 5496SOL    HW217388   4.603   5.150   2.277
 5497SOL     OW17389   5.174   0.402   0.143
 5497SOL    HW117390   5.228   0.487   0.144
 5497SOL    HW217391   5.126   0.395   0.056
 5498SOL     OW17392   4.148   1.818   4.503
 5498SOL    HW117393   4.171   1.743   4.566
 5498SOL    HW217394   4.221   1.829   4.436
 5499SOL     OW17395   0.247   0.729   5.066
 5499SOL    HW117396   0.278   0.639   5.036
 5499SOL    HW217397   0.283   0.748   5.157
 5500SOL     OW17398   1.865   6.109   0.904
 5500SOL    HW117399   1.909   6.198   0.899
 5500SOL    HW217400   1.930   6.038   0.874
 5501SOL     OW17401   2.485   0.638   2.023
 5501SOL    HW117402   2.390   0.668   2.021
 5501SOL    HW217403   2.496   0.555   1.969
 5502SOL     OW17404   4.758   3.956   0.592
 5502SOL    HW117405   4.796   3.869   0.563
 5502SOL    HW217406   4.823   4.030   0.572
 5503SOL     OW17407   6.792   0.286   3.647
 5503SOL    HW117408   6.798   0.281   3.747
 5503SOL    HW217409   6.756   0.199   3.611
 5504SOL     OW17410   2.814   2.290   4.660
 5504SOL    HW117411   2.904   2.264   4.693
 5504SOL    HW217412   2.752   2.307   4.737
 5505SOL     OW17413   3.269   4.928   0.792
 5505SOL    HW117414   3.346   4.985   0.762
 5505SOL    HW217415   3.226   4.886   0.713
 5506SOL     OW17416   0.619   0.006   5.463
 5506SOL    HW117417   0.649   0.092   5.504
 5506SOL    HW217418   0.526   7.007   5.494
 5507SOL     OW17419   2.628   5.697   5.147
 5507SOL    HW117420   2.615   5.739   5.058
 5507SOL    HW217421   2.674   5.761   5.208
 5508SOL     OW17422   1.397   1.089   5.031
 5508SOL    HW117423   1.378   1.104   4.934
 5508SOL    HW217424   1.481   1.035   5.040
 5509SOL     OW17425   6.723   0.230   6.024
 5509SOL    HW117426   6.705   0.270   5.934
 5509SOL    HW217427   6.787   0.289   6.075
 5510SOL     OW17428   0.375   7.011   5.583
 5510SOL    HW117429   0.392   6.914   5.596
 5510SOL    HW217430   0.299   0.018   5.642
 5511SOL     OW17431   0.372   2.486   1.267
 5511SOL    HW117432   0.370   2.481   1.367
 5511SOL    HW217433   0.306   2.423   1.229
 5512SOL     OW17434   6.120   0.862   6.989
 5512SOL    HW117435   6.216   0.864   7.019
 5512SOL    HW217436   6.070   0.934   0.015
 5513SOL     OW17437   2.989   5.860   4.623
 5513SOL    HW117438   2.922   5.786   4.626
 5513SOL    HW217439   3.031   5.863   4.533
 5514SOL     OW17440   6.126   6.123   3.626
 5514SOL    HW117441   6.147   6.220   3.631
 5514SOL    HW217442   6.044   6.104   3.681
 5515SOL     OW17443   0.180   3.565   3.008
 5515SOL    HW117444   0.138   3.650   2.976
 5515SOL    HW217445   0.235   3.584   3.089
 5516SOL     OW17446   1.595   2.624   0.265
 5516SOL    HW117447   1.648   2.694   0.313
 5516SOL    HW217448   1.648   2.539   0.261
 5517SOL     OW17449   3.051   1.041   1.899
 5517SOL    HW117450   3.026   1.138   1.898
 5517SOL    HW217451   2.974   0.987   1.936
 5518SOL     OW17452   5.533   3.645   5.489
 5518SOL    HW117453   5.468   3.711   5.452
 5518SOL    HW217454   5.524   3.558   5.440
 5519SOL     OW17455   5.832   4.743   2.520
 5519SOL    HW117456   5.807   4.840   2.520
 5519SOL    HW217457   5.929   4.735   2.544
 5520SOL     OW17458   1.338   2.849   1.047
 5520SOL    HW117459   1.355   2.754   1.020
 5520SOL    HW217460   1.278   2.851   1.127
 5521SOL     OW17461   5.334   4.440   5.967
 5521SOL    HW117462   5.263   4.380   5.929
 5521SOL    HW217463   5.315   4.456   6.064
 5522SOL     OW17464   1.400   1.991   2.070
 5522SOL    HW117465   1.307   1.989   2.107
 5522SOL    HW217466   1.429   2.085   2.058
 5523SOL     OW17467   3.403   6.555   1.288
 5523SOL    HW117468   3.318   6.512   1.318
 5523SOL    HW217469   3.411   6.647   1.327
 5524SOL     OW17470   6.216   6.796   5.809
 5524SOL    HW117471   6.275   6.874   5.831
 5524SOL    HW217472   6.192   6.799   5.712
 5525SOL     OW17473   6.617   6.165   3.335
 5525SOL    HW117474   6.695   6.186   3.394
 5525SOL    HW217475   6.542   6.127   3.390
 5526SOL     OW17476   5.501   2.954   4.552
 5526SOL    HW117477   5.547   3.039   4.579
 5526SOL    HW217478   5.496   2.892   4.630
 5527SOL     OW17479   2.285   3.200   6.944
 5527SOL    HW117480   2.192   3.190   6.980
 5527SOL    HW217481   2.350   3.199   7.020
 5528SOL     OW17482   6.598   2.554   2.341
 5528SOL    HW117483   6.499   2.543   2.349
 5528SOL    HW217484   6.619   2.643   2.303
 5529SOL     OW17485   0.970   0.780   3.676
 5529SOL    HW117486   1.031   0.738   3.742
 5529SOL    HW217487   1.018   0.795   3.590
 5530SOL     OW17488   6.709   2.882   6.656
 5530SOL    HW117489   6.805   2.860   6.636
 5530SOL    HW217490   6.679   2.831   6.736
 5531SOL     OW17491   2.370   3.023   0.374
 5531SOL    HW117492   2.270   3.031   0.378
 5531SOL    HW217493   2.399   2.943   0.427
 5532SOL     OW17494   2.774   2.819   1.455
 5532SOL    HW117495   2.826   2.791   1.375
 5532SOL    HW217496   2.678   2.834   1.429
 5533SOL     OW17497   3.500   0.530   1.390
 5533SOL    HW117498   3.455   0.558   1.305
 5533SOL    HW217499   3.596   0.507   1.372
 5534SOL     OW17500   0.841   3.337   4.959
 5534SOL    HW117501   0.768   3.281   4.918
 5534SOL    HW217502   0.800   3.408   5.016
 5535SOL     OW17503   4.879   4.405   3.646
 5535SOL    HW117504   4.896   4.491   3.597
 5535SOL    HW217505   4.928   4.406   3.733
 5536SOL     OW17506   2.346   1.024   4.220
 5536SOL    HW117507   2.375   0.938   4.179
 5536SOL    HW217508   2.246   1.026   4.225
 5537SOL     OW17509   3.634   0.951   3.852
 5537SOL    HW117510   3.693   0.871   3.850
 5537SOL    HW217511   3.539   0.924   3.835
 5538SOL     OW17512   5.427   2.410   2.230
 5538SOL    HW117513   5.518   2.420   2.189
 5538SOL    HW217514   5.357   2.422   2.159
 5539SOL     OW17515   2.143   0.488   6.823
 5539SOL    HW117516   2.144   0.494   6.723
 5539SOL    HW217517   2.164   0.394   6.851
 5540SOL     OW17518   5.216   6.991   5.366
 5540SOL    HW117519   5.145   0.040   5.375
 5540SOL    HW217520   5.181   6.917   5.308
 5541SOL     OW17521   4.588   2.394   6.349
 5541SOL    HW117522   4.514   2.397   6.415
 5541SOL    HW217523   4.551   2.402   6.257
 5542SOL     OW17524   4.594   4.270   6.693
 5542SOL    HW117525   4.588   4.308   6.601
 5542SOL    HW217526   4.619   4.174   6.688
 5543SOL     OW17527   0.713   0.147   6.213
 5543SOL    HW117528   0.769   0.230   6.214
 5543SOL    HW217529   0.742   0.088   6.138
 5544SOL     OW17530   3.518   5.419   0.161
 5544SOL    HW117531   3.514   5.354   0.085
 5544SOL    HW217532   3.586   5.490   0.140
 5545SOL     OW17533   5.982   1.675   2.531
 5545SOL    HW117534   5.988   1.757   2.473
 5545SOL    HW217535   5.915   1.612   2.492
 5546SOL     OW17536   0.434   5.695   4.414
 5546SOL    HW117537   0.386   5.620   4.369
 5546SOL    HW217538   0.493   5.741   4.348
 5547SOL     OW17539   5.474   1.603   5.186
 5547SOL    HW117540   5.493   1.590   5.284
 5547SOL    HW217541   5.423   1.524   5.152
 5548SOL     OW17542   0.717   3.457   5.182
 5548SOL    HW117543   0.637   3.506   5.148
 5548SOL    HW217544   0.689   3.396   5.257
 5549SOL     OW17545   3.826   2.790   0.927
 5549SOL    HW117546   3.890   2.780   1.004
 5549SOL    HW217547   3.860   2.739   0.849
 5550SOL     OW17548   2.388   3.965   1.512
 5550SOL    HW117549   2.379   4.064   1.524
 5550SOL    HW217550   2.414   3.946   1.417
 5551SOL     OW17551   1.749   4.515   2.388
 5551SOL    HW117552   1.836   4.552   2.421
 5551SOL    HW217553   1.703   4.583   2.332
 5552SOL     OW17554   0.757   0.307   0.321
 5552SOL    HW117555   0.844   0.266   0.293
 5552SOL    HW217556   0.682   0.253   0.283
 5553SOL     OW17557   5.199   0.061   6.842
 5553SOL    HW117558   5.100   0.067   6.854
 5553SOL    HW217559   5.244   0.124   6.905
 5554SOL     OW17560   6.682   2.578   1.329
 5554SOL    HW117561   6.687   2.644   1.404
 5554SOL    HW217562   6.599   2.595   1.276
 5555SOL     OW17563   2.022   5.268   2.403
 5555SOL    HW117564   2.040   5.174   2.432
 5555SOL    HW217565   2.097   5.327   2.433
 5556SOL     OW17566   6.897   1.329   4.819
 5556SOL    HW117567   6.971   1.365   4.763
 5556SOL    HW217568   6.871   1.238   4.784
 5557SOL     OW17569   3.679   6.363   2.715
 5557SOL    HW117570   3.717   6.430   2.652
 5557SOL    HW217571   3.605   6.313   2.671
 5558SOL     OW17572   4.479   3.212   6.427
 5558SOL    HW117573   4.440   3.238   6.338
 5558SOL    HW217574   4.419   3.145   6.471
 5559SOL     OW17575   3.676   0.446   2.658
 5559SOL    HW117576   3.721   0.401   2.582
 5559SOL    HW217577   3.584   0.409   2.670
 5560SOL     OW17578   0.064   5.846   3.595
 5560SOL    HW117579   0.057   5.891   3.506
 5560SOL    HW217580   0.024   5.755   3.590
 5561SOL     OW17581   3.241   0.447   3.444
 5561SOL    HW117582   3.153   0.414   3.478
 5561SOL    HW217583   3.314   0.391   3.485
 5562SOL     OW17584   4.254   3.374   0.508
 5562SOL    HW117585   4.216   3.419   0.589
 5562SOL    HW217586   4.203   3.290   0.490
 5563SOL     OW17587   2.363   5.201   2.310
 5563SOL    HW117588   2.335   5.135   2.240
 5563SOL    HW217589   2.447   5.246   2.282
 5564SOL     OW17590   4.698   0.424   6.247
 5564SOL    HW117591   4.795   0.435   6.223
 5564SOL    HW217592   4.686   0.336   6.294
 5565SOL     OW17593   3.903   1.037   5.954
 5565SOL    HW117594   3.950   1.021   6.041
 5565SOL    HW217595   3.804   1.034   5.968
 5566SOL     OW17596   1.372   5.451   5.456
 5566SOL    HW117597   1.310   5.520   5.493
 5566SOL    HW217598   1.369   5.369   5.513
 5567SOL     OW17599   0.515   4.981   6.827
 5567SOL    HW117600   0.586   4.988   6.897
 5567SOL    HW217601   0.552   4.937   6.746
 5568SOL     OW17602   4.891   5.244   1.617
 5568SOL    HW117603   4.862   5.326   1.567
 5568SOL    HW217604   4.899   5.167   1.554
 5569SOL     OW17605   2.233   2.105   2.765
 5569SOL    HW117606   2.247   2.182   2.827
 5569SOL    HW217607   2.321   2.080   2.724
 5570SOL     OW17608   6.671   3.781   1.385
 5570SOL    HW117609   6.654   3.698   1.331
 5570SOL    HW217610   6.767   3.781   1.415
 5571SOL     OW17611   6.537   4.526   0.929
 5571SOL    HW117612   6.603   4.554   0.860
 5571SOL    HW217613   6.526   4.600   0.996
 5572SOL     OW17614   1.428   4.243   5.031
 5572SOL    HW117615   1.437   4.217   5.127
 5572SOL    HW217616   1.353   4.191   4.989
 5573SOL     OW17617   3.536   5.190   3.830
 5573SOL    HW117618   3.491   5.117   3.881
 5573SOL    HW217619   3.575   5.257   3.893
 5574SOL     OW17620   0.991   1.835   6.124
 5574SOL    HW117621   0.977   1.817   6.221
 5574SOL    HW217622   0.913   1.798   6.072
 5575SOL     OW17623   6.871   0.650   1.852
 5575SOL    HW117624   6.942   0.580   1.851
 5575SOL    HW217625   6.793   0.618   1.905
 5576SOL     OW17626   1.648   4.882   3.557
 5576SOL    HW117627   1.598   4.798   3.576
 5576SOL    HW217628   1.733   4.860   3.509
 5577SOL     OW17629   2.347   2.664   6.014
 5577SOL    HW117630   2.446   2.677   6.015
 5577SOL    HW217631   2.302   2.748   5.984
 5578SOL     OW17632   3.917   4.012   4.161
 5578SOL    HW117633   3.966   3.936   4.119
 5578SOL    HW217634   3.936   4.014   4.260
 5579SOL     OW17635   6.103   2.988   1.662
 5579SOL    HW117636   6.114   3.080   1.624
 5579SOL    HW217637   6.036   2.991   1.736
 5580SOL     OW17638   5.048   1.884   5.509
 5580SOL    HW117639   5.058   1.785   5.501
 5580SOL    HW217640   5.090   1.915   5.595
 5581SOL     OW17641   1.216   1.726   6.607
 5581SOL    HW117642   1.180   1.816   6.631
 5581SOL    HW217643   1.305   1.714   6.651
 5582SOL     OW17644   3.195   2.333   6.210
 5582SOL    HW117645   3.217   2.304   6.117
 5582SOL    HW217646   3.177   2.252   6.266
 5583SOL     OW17647   6.281   0.051   0.525
 5583SOL    HW117648   6.351   7.005   0.506
 5583SOL    HW217649   6.306   0.138   0.482
 5584SOL     OW17650   1.939   3.160   4.546
 5584SOL    HW117651   1.869   3.108   4.496
 5584SOL    HW217652   1.901   3.247   4.576
 5585SOL     OW17653   5.860   4.989   1.341
 5585SOL    HW117654   5.903   4.940   1.417
 5585SOL    HW217655   5.883   5.087   1.348
 5586SOL     OW17656   1.163   5.363   1.339
 5586SOL    HW117657   1.235   5.357   1.269
 5586SOL    HW217658   1.090   5.423   1.306
 5587SOL     OW17659   6.214   0.720   5.524
 5587SOL    HW117660   6.152   0.725   5.602
 5587SOL    HW217661   6.286   0.652   5.543
 5588SOL     OW17662   3.710   6.861   0.596
 5588SOL    HW117663   3.674   6.910   0.516
 5588SOL    HW217664   3.639   6.853   0.665
 5589SOL     OW17665   6.792   4.438   6.069
 5589SOL    HW117666   6.885   4.405   6.083
 5589SOL    HW217667   6.785   4.533   6.101
 5590SOL     OW17668   6.355   5.412   3.341
 5590SOL    HW117669   6.420   5.350   3.297
 5590SOL    HW217670   6.304   5.362   3.411
 5591SOL     OW17671   4.872   1.357   1.971
 5591SOL    HW117672   4.963   1.316   1.977
 5591SOL    HW217673   4.851   1.377   1.875
 5592SOL     OW17674   0.187   4.895   3.614
 5592SOL    HW117675   0.153   4.987   3.595
 5592SOL    HW217676   0.110   4.835   3.636
 5593SOL     OW17677   0.769   4.187   0.954
 5593SOL    HW117678   0.689   4.160   0.902
 5593SOL    HW217679   0.843   4.122   0.938
 5594SOL     OW17680   5.991   1.440   5.959
 5594SOL    HW117681   5.954   1.347   5.961
 5594SOL    HW217682   6.017   1.467   6.052
 5595SOL     OW17683   0.495   2.288   0.685
 5595SOL    HW117684   0.418   2.241   0.727
 5595SOL    HW217685   0.505   2.257   0.590
 5596SOL     OW17686   3.410   6.140   3.411
 5596SOL    HW117687   3.341   6.087   3.362
 5596SOL    HW217688   3.377   6.233   3.425
 5597SOL     OW17689   5.114   3.291   1.589
 5597SOL    HW117690   5.063   3.260   1.509
 5597SOL    HW217691   5.115   3.218   1.658
 5598SOL     OW17692   4.299   0.860   4.665
 5598SOL    HW117693   4.351   0.778   4.645
 5598SOL    HW217694   4.277   0.908   4.580
 5599SOL     OW17695   0.668   1.352   3.525
 5599SOL    HW117696   0.582   1.362   3.574
 5599SOL    HW217697   0.709   1.442   3.511
 5600SOL     OW17698   2.618   2.790   5.579
 5600SOL    HW117699   2.619   2.840   5.492
 5600SOL    HW217700   2.684   2.831   5.642
 5601SOL     OW17701   2.741   0.711   6.271
 5601SOL    HW117702   2.656   0.742   6.229
 5601SOL    HW217703   2.783   0.641   6.213
 5602SOL     OW17704   1.783   0.711   6.758
 5602SOL    HW117705   1.861   0.682   6.814
 5602SOL    HW217706   1.733   0.784   6.804
 5603SOL     OW17707   6.498   4.069   5.383
 5603SOL    HW117708   6.457   4.113   5.303
 5603SOL    HW217709   6.438   4.080   5.462
 5604SOL     OW17710   5.528   1.006   6.083
 5604SOL    HW117711   5.569   0.966   6.165
 5604SOL    HW217712   5.514   1.104   6.098
 5605SOL     OW17713   0.484   1.858   6.608
 5605SOL    HW117714   0.572   1.899   6.581
 5605SOL    HW217715   0.492   1.822   6.701
 5606SOL     OW17716   5.513   0.178   2.931
 5606SOL    HW117717   5.608   0.163   2.903
 5606SOL    HW217718   5.490   0.275   2.920
 5607SOL     OW17719   5.556   0.483   1.156
 5607SOL    HW117720   5.593   0.392   1.178
 5607SOL    HW217721   5.631   0.547   1.143
 5608SOL     OW17722   3.851   6.478   5.028
 5608SOL    HW117723   3.841   6.462   4.930
 5608SOL    HW217724   3.920   6.550   5.043
 5609SOL     OW17725   1.172   5.504   5.761
 5609SOL    HW117726   1.106   5.433   5.738
 5609SOL    HW217727   1.174   5.573   5.688
 5610SOL     OW17728   4.547   0.123   6.660
 5610SOL    HW117729   4.510   0.031   6.657
 5610SOL    HW217730   4.476   0.188   6.687
 5611SOL     OW17731   2.034   4.429   4.362
 5611SOL    HW117732   2.001   4.453   4.453
 5611SOL    HW217733   2.066   4.511   4.315
 5612SOL     OW17734   3.357   6.676   4.646
 5612SOL    HW117735   3.269   6.645   4.682
 5612SOL    HW217736   3.430   6.616   4.679
 5613SOL     OW17737   3.206   5.519   1.676
 5613SOL    HW117738   3.155   5.526   1.590
 5613SOL    HW217739   3.142   5.521   1.753
 5614SOL     OW17740   5.310   1.648   4.417
 5614SOL    HW117741   5.238   1.672   4.481
 5614SOL    HW217742   5.306   1.710   4.338
 5615SOL     OW17743   1.206   1.680   1.803
 5615SOL    HW117744   1.147   1.759   1.818
 5615SOL    HW217745   1.262   1.694   1.722
 5616SOL     OW17746   1.944   6.419   4.871
 5616SOL    HW117747   2.033   6.435   4.913
 5616SOL    HW217748   1.883   6.494   4.896
 5617SOL     OW17749   0.669   0.959   5.884
 5617SOL    HW117750   0.721   0.876   5.905
 5617SOL    HW217751   0.605   0.940   5.809
 5618SOL     OW17752   6.212   5.416   2.637
 5618SOL    HW117753   6.123   5.422   2.682
 5618SOL    HW217754   6.212   5.474   2.555
 5619SOL     OW17755   2.290   3.711   5.245
 5619SOL    HW117756   2.363   3.775   5.219
 5619SOL    HW217757   2.249   3.741   5.331
 5620SOL     OW17758   5.051   2.154   0.030
 5620SOL    HW117759   5.136   2.179   0.078
 5620SOL    HW217760   4.993   2.100   0.091
 5621SOL     OW17761   2.404   2.153   6.341
 5621SOL    HW117762   2.450   2.129   6.256
 5621SOL    HW217763   2.338   2.082   6.365
 5622SOL     OW17764   5.613   0.265   5.326
 5622SOL    HW117765   5.624   0.171   5.358
 5622SOL    HW217766   5.544   0.312   5.381
 5623SOL     OW17767   0.121   6.237   6.667
 5623SOL    HW117768   0.120   6.231   6.767
 5623SOL    HW217769   0.061   6.166   6.629
 5624SOL     OW17770   0.366   4.350   1.963
 5624SOL    HW117771   0.386   4.447   1.954
 5624SOL    HW217772   0.448   4.297   1.938
 5625SOL     OW17773   6.334   2.076   5.623
 5625SOL    HW117774   6.402   2.041   5.688
 5625SOL    HW217775   6.244   2.038   5.646
 5626SOL     OW17776   5.177   6.603   5.237
 5626SOL    HW117777   5.237   6.651   5.174
 5626SOL    HW217778   5.181   6.505   5.220
 5627SOL     OW17779   0.955   0.245   0.946
 5627SOL    HW117780   0.954   0.166   1.008
 5627SOL    HW217781   0.862   0.261   0.911
 5628SOL     OW17782   1.586   1.514   4.388
 5628SOL    HW117783   1.498   1.531   4.431
 5628SOL    HW217784   1.584   1.547   4.293
 5629SOL     OW17785   3.549   2.990   3.373
 5629SOL    HW117786   3.647   2.976   3.381
 5629SOL    HW217787   3.514   2.935   3.297
 5630SOL     OW17788   6.458   4.085   1.073
 5630SOL    HW117789   6.362   4.112   1.076
 5630SOL    HW217790   6.515   4.160   1.105
 5631SOL     OW17791   5.813   1.154   6.242
 5631SOL    HW117792   5.733   1.104   6.209
 5631SOL    HW217793   5.896   1.115   6.202
 5632SOL     OW17794   3.198   2.109   0.715
 5632SOL    HW117795   3.238   2.194   0.750
 5632SOL    HW217796   3.102   2.103   0.743
 5633SOL     OW17797   6.582   2.676   5.572
 5633SOL    HW117798   6.678   2.652   5.556
 5633SOL    HW217799   6.553   2.639   5.660
 5634SOL     OW17800   4.970   6.599   4.594
 5634SOL    HW117801   5.046   6.649   4.553
 5634SOL    HW217802   4.983   6.501   4.580
 5635SOL     OW17803   3.574   1.356   5.993
 5635SOL    HW117804   3.490   1.358   5.937
 5635SOL    HW217805   3.560   1.410   6.076
 5636SOL     OW17806   4.329   6.670   4.329
 5636SOL    HW117807   4.391   6.718   4.391
 5636SOL    HW217808   4.318   6.575   4.361
 5637SOL     OW17809   5.988   0.212   3.400
 5637SOL    HW117810   5.944   0.124   3.384
 5637SOL    HW217811   6.085   0.199   3.417
 5638SOL     OW17812   0.040   3.907   0.579
 5638SOL    HW117813   6.985   3.893   0.516
 5638SOL    HW217814   0.010   3.892   0.673
 5639SOL     OW17815   4.363   6.970   0.098
 5639SOL    HW117816   4.403   0.011   0.165
 5639SOL    HW217817   4.265   6.961   0.114
 5640SOL     OW17818   1.140   0.344   3.100
 5640SOL    HW117819   1.169   0.326   3.193
 5640SOL    HW217820   1.138   0.443   3.084
 5641SOL     OW17821   6.715   5.258   4.628
 5641SOL    HW117822   6.779   5.218   4.693
 5641SOL    HW217823   6.627   5.211   4.634
 5642SOL     OW17824   1.732   1.067   0.170
 5642SOL    HW117825   1.672   0.997   0.132
 5642SOL    HW217826   1.809   1.023   0.216
 5643SOL     OW17827   5.300   1.903   5.966
 5643SOL    HW117828   5.201   1.896   5.952
 5643SOL    HW217829   5.321   1.885   6.062
 5644SOL     OW17830   2.599   0.649   6.017
 5644SOL    HW117831   2.582   0.565   5.965
 5644SOL    HW217832   2.683   0.692   5.986
 5645SOL     OW17833   5.942   3.388   4.249
 5645SOL    HW117834   5.921   3.336   4.166
 5645SOL    HW217835   5.876   3.461   4.260
 5646SOL     OW17836   0.382   4.203   2.689
 5646SOL    HW117837   0.432   4.249   2.615
 5646SOL    HW217838   0.287   4.189   2.661
 5647SOL     OW17839   5.425   5.759   2.562
 5647SOL    HW117840   5.416   5.767   2.661
 5647SOL    HW217841   5.503   5.814   2.531
 5648SOL     OW17842   5.408   6.086   3.288
 5648SOL    HW117843   5.314   6.054   3.284
 5648SOL    HW217844   5.440   6.108   3.196
 5649SOL     OW17845   0.688   0.196   4.562
 5649SOL    HW117846   0.746   0.201   4.481
 5649SOL    HW217847   0.745   0.181   4.643
 5650SOL     OW17848   0.219   4.076   6.195
 5650SOL    HW117849   0.131   4.029   6.190
 5650SOL    HW217850   0.283   4.033   6.132
 5651SOL     OW17851   2.987   1.167   0.737
 5651SOL    HW117852   2.908   1.166   0.798
 5651SOL    HW217853   2.956   1.176   0.642
 5652SOL     OW17854   0.625   5.594   2.842
 5652SOL    HW117855   0.646   5.673   2.899
 5652SOL    HW217856   0.589   5.625   2.754
 5653SOL     OW17857   6.804   0.359   3.028
 5653SOL    HW117858   6.775   0.271   2.990
 5653SOL    HW217859   6.775   0.365   3.124
 5654SOL     OW17860   3.545   5.880   5.680
 5654SOL    HW117861   3.490   5.959   5.653
 5654SOL    HW217862   3.638   5.890   5.643
 5655SOL     OW17863   5.566   3.051   4.286
 5655SOL    HW117864   5.567   3.044   4.386
 5655SOL    HW217865   5.633   2.987   4.248
 5656SOL     OW17866   0.310   4.079   0.598
 5656SOL    HW117867   0.234   4.077   0.663
 5656SOL    HW217868   0.276   4.103   0.507
 5657SOL     OW17869   5.499   6.147   4.748
 5657SOL    HW117870   5.583   6.093   4.752
 5657SOL    HW217871   5.420   6.086   4.745
 5658SOL     OW17872   2.556   2.534   6.387
 5658SOL    HW117873   2.611   2.615   6.368
 5658SOL    HW217874   2.556   2.475   6.306
 5659SOL     OW17875   2.544   4.523   6.813
 5659SOL    HW117876   2.624   4.553   6.761
 5659SOL    HW217877   2.572   4.500   6.907
 5660SOL     OW17878   3.784   0.125   4.660
 5660SOL    HW117879   3.794   0.215   4.620
 5660SOL    HW217880   3.856   0.064   4.626
 5661SOL     OW17881   0.863   5.913   6.333
 5661SOL    HW117882   0.791   5.945   6.395
 5661SOL    HW217883   0.834   5.926   6.239
 5662SOL     OW17884   2.816   6.370   0.592
 5662SOL    HW117885   2.735   6.421   0.620
 5662SOL    HW217886   2.788   6.283   0.552
 5663SOL     OW17887   2.340   2.752   6.374
 5663SOL    HW117888   2.356   2.849   6.390
 5663SOL    HW217889   2.407   2.697   6.425
 5664SOL     OW17890   4.930   4.803   4.366
 5664SOL    HW117891   4.929   4.733   4.437
 5664SOL    HW217892   4.987   4.880   4.395
 5665SOL     OW17893   1.739   1.468   0.802
 5665SOL    HW117894   1.801   1.451   0.878
 5665SOL    HW217895   1.684   1.386   0.785
 5666SOL     OW17896   5.671   2.964   4.961
 5666SOL    HW117897   5.650   2.916   4.876
 5666SOL    HW217898   5.721   2.903   5.022
 5667SOL     OW17899   3.150   4.933   4.249
 5667SOL    HW117900   3.105   4.881   4.176
 5667SOL    HW217901   3.109   4.908   4.337
 5668SOL     OW17902   4.335   4.649   3.977
 5668SOL    HW117903   4.321   4.656   4.076
 5668SOL    HW217904   4.361   4.555   3.953
 5669SOL     OW17905   5.655   4.146   5.707
 5669SOL    HW117906   5.688   4.237   5.730
 5669SOL    HW217907   5.641   4.139   5.608
 5670SOL     OW17908   1.222   2.830   4.466
 5670SOL    HW117909   1.171   2.820   4.381
 5670SOL    HW217910   1.318   2.850   4.445
 5671SOL     OW17911   6.766   5.891   3.060
 5671SOL    HW117912   6.702   5.815   3.054
 5671SOL    HW217913   6.819   5.897   2.976
 5672SOL     OW17914   5.192   3.191   4.568
 5672SOL    HW117915   5.227   3.171   4.476
 5672SOL    HW217916   5.192   3.107   4.622
 5673SOL     OW17917   0.392   2.458   0.390
 5673SOL    HW117918   0.383   2.452   0.291
 5673SOL    HW217919   0.464   2.395   0.421
 5674SOL     OW17920   2.705   5.457   5.256
 5674SOL    HW117921   2.802   5.442   5.240
 5674SOL    HW217922   2.674   5.535   5.201
 5675SOL     OW17923   3.358   2.135   0.946
 5675SOL    HW117924   3.303   2.073   0.890
 5675SOL    HW217925   3.353   2.227   0.909
 5676SOL     OW17926   3.750   1.585   1.871
 5676SOL    HW117927   3.701   1.498   1.874
 5676SOL    HW217928   3.685   1.660   1.855
 5677SOL     OW17929   0.758   1.784   5.986
 5677SOL    HW117930   0.667   1.819   6.005
 5677SOL    HW217931   0.788   1.814   5.895
 5678SOL     OW17932   3.856   1.996   2.354
 5678SOL    HW117933   3.769   1.987   2.305
 5678SOL    HW217934   3.926   2.031   2.292
 5679SOL     OW17935   0.032   3.646   5.395
 5679SOL    HW117936   0.057   3.562   5.348
 5679SOL    HW217937   6.955   3.657   5.394
 5680SOL     OW17938   0.651   5.623   4.808
 5680SOL    HW117939   0.657   5.712   4.764
 5680SOL    HW217940   0.650   5.551   4.739
 5681SOL     OW17941   1.391   3.444   3.148
 5681SOL    HW117942   1.487   3.425   3.171
 5681SOL    HW217943   1.386   3.526   3.092
 5682SOL     OW17944   1.697   4.791   1.102
 5682SOL    HW117945   1.644   4.715   1.138
 5682SOL    HW217946   1.752   4.831   1.176
 5683SOL     OW17947   0.137   0.079   5.692
 5683SOL    HW117948   0.137   7.010   5.736
 5683SOL    HW217949   0.063   0.083   5.625
 5684SOL     OW17950   1.987   2.786   5.057
 5684SOL    HW117951   1.898   2.751   5.085
 5684SOL    HW217952   2.032   2.719   4.998
 5685SOL     OW17953   2.299   1.745   1.791
 5685SOL    HW117954   2.330   1.786   1.706
 5685SOL    HW217955   2.320   1.647   1.791
 5686SOL     OW17956   5.274   6.236   5.657
 5686SOL    HW117957   5.290   6.192   5.568
 5686SOL    HW217958   5.344   6.207   5.722
 5687SOL     OW17959   1.837   6.811   6.239
 5687SOL    HW117960   1.877   6.829   6.149
 5687SOL    HW217961   1.830   6.713   6.254
 5688SOL     OW17962   1.634   1.896   3.056
 5688SOL    HW117963   1.644   1.993   3.078
 5688SOL    HW217964   1.710   1.844   3.096
 5689SOL     OW17965   0.127   2.388   1.175
 5689SOL    HW117966   0.093   2.430   1.259
 5689SOL    HW217967   0.086   2.297   1.164
 5690SOL     OW17968   3.119   5.526   6.972
 5690SOL    HW117969   3.158   5.547   0.039
 5690SOL    HW217970   3.019   5.524   6.979
 5691SOL     OW17971   4.487   2.405   3.566
 5691SOL    HW117972   4.541   2.375   3.645
 5691SOL    HW217973   4.393   2.374   3.576
 5692SOL     OW17974   6.334   5.253   1.383
 5692SOL    HW117975   6.289   5.338   1.357
 5692SOL    HW217976   6.303   5.226   1.474
 5693SOL     OW17977   3.392   0.616   2.546
 5693SOL    HW117978   3.420   0.580   2.457
 5693SOL    HW217979   3.409   0.548   2.617
 5694SOL     OW17980   0.418   0.380   1.210
 5694SOL    HW117981   0.414   0.292   1.162
 5694SOL    HW217982   0.511   0.395   1.245
 5695SOL     OW17983   2.057   1.189   2.041
 5695SOL    HW117984   2.122   1.162   2.113
 5695SOL    HW217985   2.036   1.286   2.049
 5696SOL     OW17986   0.288   6.775   3.687
 5696SOL    HW117987   0.207   6.781   3.629
 5696SOL    HW217988   0.265   6.731   3.773
 5697SOL     OW17989   6.124   1.571   0.318
 5697SOL    HW117990   6.214   1.584   0.278
 5697SOL    HW217991   6.070   1.654   0.306
 5698SOL     OW17992   3.170   2.143   3.755
 5698SOL    HW117993   3.253   2.147   3.811
 5698SOL    HW217994   3.194   2.123   3.660
 5699SOL     OW17995   2.236   2.836   2.572
 5699SOL    HW117996   2.212   2.930   2.548
 5699SOL    HW217997   2.241   2.781   2.488
 5700SOL     OW17998   5.779   0.141   2.866
 5700SOL    HW117999   5.854   0.082   2.836
 5700SOL    HW218000   5.793   0.234   2.830
 5701SOL     OW18001   1.564   0.442   0.836
 5701SOL    HW118002   1.546   0.524   0.889
 5701SOL    HW218003   1.630   0.384   0.884
 5702SOL     OW18004   1.316   6.207   4.893
 5702SOL    HW118005   1.328   6.162   4.804
 5702SOL    HW218006   1.232   6.176   4.936
 5703SOL     OW18007   0.619   2.567   6.238
 5703SOL    HW118008   0.712   2.585   6.269
 5703SOL    HW218009   0.571   2.654   6.224
 5704SOL     OW18010   4.285   5.512   4.218
 5704SOL    HW118011   4.215   5.515   4.289
 5704SOL    HW218012   4.326   5.420   4.216
 5705SOL     OW18013   5.854   0.655   5.163
 5705SOL    HW118014   5.914   0.600   5.221
 5705SOL    HW218015   5.882   0.751   5.168
 5706SOL     OW18016   5.391   1.873   1.208
 5706SOL    HW118017   5.324   1.849   1.139
 5706SOL    HW218018   5.382   1.812   1.287
 5707SOL     OW18019   5.863   5.332   1.124
 5707SOL    HW118020   5.803   5.261   1.086
 5707SOL    HW218021   5.884   5.310   1.219
 5708SOL     OW18022   5.361   6.433   1.933
 5708SOL    HW118023   5.297   6.359   1.914
 5708SOL    HW218024   5.441   6.398   1.981
 5709SOL     OW18025   0.200   2.824   2.470
 5709SOL    HW118026   0.239   2.874   2.393
 5709SOL    HW218027   0.188   2.886   2.548
 5710SOL     OW18028   4.910   1.411   1.128
 5710SOL    HW118029   4.909   1.501   1.172
 5710SOL    HW218030   4.879   1.419   1.033
 5711SOL     OW18031   4.684   1.938   2.191
 5711SOL    HW118032   4.603   1.901   2.237
 5711SOL    HW218033   4.661   2.025   2.146
 5712SOL     OW18034   6.207   6.272   6.819
 5712SOL    HW118035   6.202   6.225   6.908
 5712SOL    HW218036   6.172   6.365   6.829
 5713SOL     OW18037   1.235   1.374   0.926
 5713SOL    HW118038   1.231   1.474   0.928
 5713SOL    HW218039   1.330   1.345   0.940
 5714SOL     OW18040   6.004   0.628   1.005
 5714SOL    HW118041   6.034   0.536   0.979
 5714SOL    HW218042   5.949   0.668   0.932
 5715SOL     OW18043   0.184   6.745   0.959
 5715SOL    HW118044   0.184   6.665   1.018
 5715SOL    HW218045   0.152   6.825   1.011
 5716SOL     OW18046   0.834   4.834   5.110
 5716SOL    HW118047   0.774   4.898   5.062
 5716SOL    HW218048   0.864   4.763   5.046
 5717SOL     OW18049   0.165   5.348   3.559
 5717SOL    HW118050   0.230   5.315   3.627
 5717SOL    HW218051   0.186   5.308   3.470
 5718SOL     OW18052   1.286   4.161   0.291
 5718SOL    HW118053   1.318   4.214   0.212
 5718SOL    HW218054   1.248   4.074   0.260
 5719SOL     OW18055   2.964   3.185   0.567
 5719SOL    HW118056   3.064   3.184   0.567
 5719SOL    HW218057   2.931   3.278   0.555
 5720SOL     OW18058   2.938   5.064   6.628
 5720SOL    HW118059   2.879   4.998   6.674
 5720SOL    HW218060   2.899   5.155   6.636
 5721SOL     OW18061   1.361   3.066   0.863
 5721SOL    HW118062   1.362   2.993   0.931
 5721SOL    HW218063   1.270   3.074   0.823
 5722SOL     OW18064   1.640   0.422   5.792
 5722SOL    HW118065   1.619   0.369   5.710
 5722SOL    HW218066   1.627   0.519   5.773
 5723SOL     OW18067   4.297   3.398   0.235
 5723SOL    HW118068   4.214   3.452   0.218
 5723SOL    HW218069   4.302   3.376   0.333
 5724SOL     OW18070   5.743   2.161   5.829
 5724SOL    HW118071   5.700   2.220   5.897
 5724SOL    HW218072   5.681   2.086   5.805
 5725SOL     OW18073   6.997   4.453   4.863
 5725SOL    HW118074   6.979   4.376   4.923
 5725SOL    HW218075   7.010   4.420   4.769
 5726SOL     OW18076   4.555   4.542   2.170
 5726SOL    HW118077   4.579   4.456   2.125
 5726SOL    HW218078   4.632   4.606   2.162
 5727SOL     OW18079   1.438   2.980   5.893
 5727SOL    HW118080   1.340   3.000   5.902
 5727SOL    HW218081   1.472   2.939   5.977
 5728SOL     OW18082   2.815   6.806   4.991
 5728SOL    HW118083   2.854   6.835   4.904
 5728SOL    HW218084   2.857   6.719   5.019
 5729SOL     OW18085   2.580   1.927   4.722
 5729SOL    HW118086   2.538   1.934   4.632
 5729SOL    HW218087   2.679   1.932   4.713
 5730SOL     OW18088   6.571   4.597   4.940
 5730SOL    HW118089   6.520   4.652   5.006
 5730SOL    HW218090   6.661   4.575   4.978
 5731SOL     OW18091   0.961   6.559   2.466
 5731SOL    HW118092   0.862   6.567   2.483
 5731SOL    HW218093   0.977   6.482   2.405
 5732SOL     OW18094   5.563   0.215   3.589
 5732SOL    HW118095   5.551   0.137   3.529
 5732SOL    HW218096   5.517   0.295   3.549
 5733SOL     OW18097   2.761   1.060   4.970
 5733SOL    HW118098   2.760   0.961   4.957
 5733SOL    HW218099   2.856   1.093   4.972
 5734SOL     OW18100   1.666   6.860   3.870
 5734SOL    HW118101   1.597   6.822   3.932
 5734SOL    HW218102   1.730   6.917   3.922
 5735SOL     OW18103   3.031   1.023   1.220
 5735SOL    HW118104   3.085   0.988   1.297
 5735SOL    HW218105   2.982   0.948   1.176
 5736SOL     OW18106   1.866   5.026   0.751
 5736SOL    HW118107   1.905   5.007   0.660
 5736SOL    HW218108   1.832   4.941   0.791
 5737SOL     OW18109   5.928   3.964   6.924
 5737SOL    HW118110   5.968   3.948   7.014
 5737SOL    HW218111   5.969   3.901   6.858
 5738SOL     OW18112   0.573   5.178   4.377
 5738SOL    HW118113   0.653   5.122   4.399
 5738SOL    HW218114   0.603   5.265   4.339
 5739SOL     OW18115   0.823   3.001   1.176
 5739SOL    HW118116   0.738   3.048   1.152
 5739SOL    HW218117   0.816   2.905   1.151
 5740SOL     OW18118   4.420   4.850   6.867
 5740SOL    HW118119   4.472   4.933   6.846
 5740SOL    HW218120   4.435   4.826   6.963
 5741SOL     OW18121   0.328   3.021   2.241
 5741SOL    HW118122   0.308   3.086   2.168
 5741SOL    HW218123   0.401   2.959   2.212
 5742SOL     OW18124   0.652   5.215   3.871
 5742SOL    HW118125   0.683   5.263   3.788
 5742SOL    HW218126   0.575   5.264   3.911
 5743SOL     OW18127   1.282   6.485   5.751
 5743SOL    HW118128   1.183   6.470   5.751
 5743SOL    HW218129   1.321   6.451   5.665
 5744SOL     OW18130   6.420   0.391   2.018
 5744SOL    HW118131   6.356   0.367   1.945
 5744SOL    HW218132   6.369   0.418   2.100
 5745SOL     OW18133   6.995   3.403   2.952
 5745SOL    HW118134   0.054   3.459   2.933
 5745SOL    HW218135   6.916   3.441   2.904
 5746SOL     OW18136   6.770   4.517   6.555
 5746SOL    HW118137   6.797   4.421   6.547
 5746SOL    HW218138   6.688   4.533   6.500
 5747SOL     OW18139   0.071   6.025   3.799
 5747SOL    HW118140   0.091   5.945   3.741
 5747SOL    HW218141   0.038   5.994   3.888
 5748SOL     OW18142   1.514   0.566   3.895
 5748SOL    HW118143   1.578   0.496   3.864
 5748SOL    HW218144   1.448   0.585   3.822
 5749SOL     OW18145   0.720   1.045   3.132
 5749SOL    HW118146   0.793   1.101   3.093
 5749SOL    HW218147   0.696   0.973   3.067
 5750SOL     OW18148   5.813   6.689   2.253
 5750SOL    HW118149   5.774   6.597   2.243
 5750SOL    HW218150   5.870   6.692   2.336
 5751SOL     OW18151   0.901   2.375   6.357
 5751SOL    HW118152   0.890   2.474   6.368
 5751SOL    HW218153   0.988   2.347   6.398
 5752SOL     OW18154   1.344   1.275   6.917
 5752SOL    HW118155   1.249   1.248   6.932
 5752SOL    HW218156   1.369   1.347   6.982
 5753SOL     OW18157   4.972   1.278   0.076
 5753SOL    HW118158   4.999   1.363   0.033
 5753SOL    HW218159   4.996   1.201   0.018
 5754SOL     OW18160   6.246   5.815   0.793
 5754SOL    HW118161   6.268   5.910   0.772
 5754SOL    HW218162   6.151   5.809   0.824
 5755SOL     OW18163   3.387   3.763   1.574
 5755SOL    HW118164   3.402   3.684   1.514
 5755SOL    HW218165   3.433   3.748   1.662
 5756SOL     OW18166   6.586   0.032   4.236
 5756SOL    HW118167   6.564   0.072   4.147
 5756SOL    HW218168   6.524   6.977   4.254
 5757SOL     OW18169   6.465   6.101   1.829
 5757SOL    HW118170   6.548   6.124   1.778
 5757SOL    HW218171   6.451   6.168   1.902
 5758SOL     OW18172   2.852   0.990   5.704
 5758SOL    HW118173   2.839   1.088   5.690
 5758SOL    HW218174   2.895   0.950   5.623
 5759SOL     OW18175   0.816   1.073   6.108
 5759SOL    HW118176   0.810   1.003   6.179
 5759SOL    HW218177   0.780   1.036   6.022
 5760SOL     OW18178   7.007   5.733   1.267
 5760SOL    HW118179   6.977   5.773   1.354
 5760SOL    HW218180   6.945   5.762   1.194
 5761SOL     OW18181   4.035   0.822   4.224
 5761SOL    HW118182   3.941   0.855   4.221
 5761SOL    HW218183   4.048   0.755   4.151
 5762SOL     OW18184   4.761   6.242   1.366
 5762SOL    HW118185   4.826   6.248   1.290
 5762SOL    HW218186   4.804   6.195   1.443
 5763SOL     OW18187   3.515   0.814   0.631
 5763SOL    HW118188   3.420   0.835   0.654
 5763SOL    HW218189   3.573   0.892   0.656
 5764SOL     OW18190   3.769   2.932   6.459
 5764SOL    HW118191   3.790   2.839   6.491
 5764SOL    HW218192   3.836   2.958   6.389
 5765SOL     OW18193   6.498   5.712   6.608
 5765SOL    HW118194   6.446   5.640   6.563
 5765SOL    HW218195   6.528   5.779   6.541
 5766SOL     OW18196   2.357   1.397   3.264
 5766SOL    HW118197   2.266   1.354   3.265
 5766SOL    HW218198   2.427   1.326   3.269
 5767SOL     OW18199   5.324   6.495   0.030
 5767SOL    HW118200   5.397   6.427   0.030
 5767SOL    HW218201   5.355   6.578   0.077
 5768SOL     OW18202   6.692   6.720   2.300
 5768SOL    HW118203   6.651   6.648   2.243
 5768SOL    HW218204   6.676   6.809   2.258
 5769SOL     OW18205   0.642   4.029   3.147
 5769SOL    HW118206   0.569   3.992   3.204
 5769SOL    HW218207   0.727   4.032   3.200
 5770SOL     OW18208   5.165   2.207   1.878
 5770SOL    HW118209   5.070   2.224   1.905
 5770SOL    HW218210   5.192   2.115   1.907
 5771SOL     OW18211   0.982   1.015   1.859
 5771SOL    HW118212   1.051   0.943   1.852
 5771SOL    HW218213   0.908   0.985   1.919
 5772SOL     OW18214   6.501   5.387   5.706
 5772SOL    HW118215   6.555   5.348   5.781
 5772SOL    HW218216   6.408   5.406   5.739
 5773SOL     OW18217   5.194   6.065   4.500
 5773SOL    HW118218   5.258   6.135   4.467
 5773SOL    HW218219   5.111   6.109   4.533
 5774SOL     OW18220   1.796   5.269   2.216
 5774SOL    HW118221   1.732   5.194   2.225
 5774SOL    HW218222   1.868   5.261   2.285
 5775SOL     OW18223   1.024   0.850   0.617
 5775SOL    HW118224   1.049   0.902   0.699
 5775SOL    HW218225   0.972   0.909   0.555
 5776SOL     OW18226   5.286   0.916   5.963
 5776SOL    HW118227   5.385   0.928   5.955
 5776SOL    HW218228   5.257   0.941   6.055
 5777SOL     OW18229   5.782   6.262   4.576
 5777SOL    HW118230   5.808   6.198   4.648
 5777SOL    HW218231   5.864   6.292   4.526
 5778SOL     OW18232   2.869   6.971   4.035
 5778SOL    HW118233   2.928   6.953   3.956
 5778SOL    HW218234   2.855   0.048   4.044
 5779SOL     OW18235   4.129   0.214   1.914
 5779SOL    HW118236   4.224   0.183   1.920
 5779SOL    HW218237   4.101   0.253   2.002
 5780SOL     OW18238   6.384   4.613   0.601
 5780SOL    HW118239   6.471   4.577   0.637
 5780SOL    HW218240   6.346   4.547   0.536
 5781SOL     OW18241   3.956   4.117   5.402
 5781SOL    HW118242   4.054   4.138   5.412
 5781SOL    HW218243   3.944   4.048   5.331
 5782SOL     OW18244   4.988   2.037   2.850
 5782SOL    HW118245   5.007   2.036   2.948
 5782SOL    HW218246   4.925   2.112   2.829
 5783SOL     OW18247   3.591   6.093   3.016
 5783SOL    HW118248   3.564   6.073   3.110
 5783SOL    HW218249   3.546   6.178   2.987
 5784SOL     OW18250   1.171   6.106   1.158
 5784SOL    HW118251   1.163   6.169   1.080
 5784SOL    HW218252   1.205   6.155   1.237
 5785SOL     OW18253   2.190   1.485   6.478
 5785SOL    HW118254   2.281   1.518   6.503
 5785SOL    HW218255   2.135   1.471   6.560
 5786SOL     OW18256   2.026   1.432   6.715
 5786SOL    HW118257   1.982   1.494   6.650
 5786SOL    HW218258   1.955   1.379   6.762
 5787SOL     OW18259   0.930   2.095   5.509
 5787SOL    HW118260   1.027   2.091   5.485
 5787SOL    HW218261   0.877   2.039   5.445
 5788SOL     OW18262   0.482   2.605   2.191
 5788SOL    HW118263   0.548   2.560   2.131
 5788SOL    HW218264   0.469   2.550   2.273
 5789SOL     OW18265   2.780   0.031   0.265
 5789SOL    HW118266   2.862   6.999   0.244
 5789SOL    HW218267   2.698   6.999   0.244
 5790SOL     OW18268   6.868   6.288   2.370
 5790SOL    HW118269   6.910   6.256   2.285
 5790SOL    HW218270   6.770   6.302   2.356
 5791SOL     OW18271   4.286   0.729   1.197
 5791SOL    HW118272   4.314   0.824   1.182
 5791SOL    HW218273   4.197   0.727   1.243
 5792SOL     OW18274   4.539   2.527   2.475
 5792SOL    HW118275   4.569   2.567   2.561
 5792SOL    HW218276   4.487   2.443   2.493
 5793SOL     OW18277   4.102   2.321   0.248
 5793SOL    HW118278   4.200   2.338   0.258
 5793SOL    HW218279   4.063   2.387   0.184
 5794SOL     OW18280   2.962   6.546   6.900
 5794SOL    HW118281   2.895   6.500   6.842
 5794SOL    HW218282   3.022   6.478   6.942
 5795SOL     OW18283   1.226   1.086   1.452
 5795SOL    HW118284   1.145   1.125   1.410
 5795SOL    HW218285   1.265   1.151   1.517
 5796SOL     OW18286   4.660   0.626   5.759
 5796SOL    HW118287   4.577   0.571   5.761
 5796SOL    HW218288   4.652   0.698   5.690
 5797SOL     OW18289   5.999   1.785   0.144
 5797SOL    HW118290   5.948   1.842   0.208
 5797SOL    HW218291   6.023   1.839   0.063
 5798SOL     OW18292   2.106   2.660   4.844
 5798SOL    HW118293   2.143   2.576   4.803
 5798SOL    HW218294   2.057   2.712   4.774
 5799SOL     OW18295   3.047   0.437   3.998
 5799SOL    HW118296   2.990   0.492   3.937
 5799SOL    HW218297   3.065   0.348   3.956
 5800SOL     OW18298   1.454   6.202   1.642
 5800SOL    HW118299   1.399   6.284   1.627
 5800SOL    HW218300   1.473   6.158   1.554
 5801SOL     OW18301   1.684   2.182   3.121
 5801SOL    HW118302   1.730   2.243   3.057
 5801SOL    HW218303   1.589   2.212   3.133
 5802SOL     OW18304   0.084   0.117   3.127
 5802SOL    HW118305   0.041   0.091   3.040
 5802SOL    HW218306   0.162   0.058   3.144
 5803SOL     OW18307   0.519   6.477   4.227
 5803SOL    HW118308   0.496   6.437   4.316
 5803SOL    HW218309   0.466   6.560   4.213
 5804SOL     OW18310   6.123   2.194   3.377
 5804SOL    HW118311   6.113   2.290   3.403
 5804SOL    HW218312   6.033   2.156   3.354
 5805SOL     OW18313   0.972   2.511   1.432
 5805SOL    HW118314   0.882   2.470   1.413
 5805SOL    HW218315   0.963   2.576   1.507
 5806SOL     OW18316   6.622   4.284   1.377
 5806SOL    HW118317   6.711   4.266   1.336
 5806SOL    HW218318   6.570   4.198   1.382
 5807SOL     OW18319   0.858   0.975   2.480
 5807SOL    HW118320   0.873   1.019   2.569
 5807SOL    HW218321   0.944   0.974   2.429
 5808SOL     OW18322   6.373   6.133   5.902
 5808SOL    HW118323   6.284   6.178   5.908
 5808SOL    HW218324   6.421   6.164   5.820
 5809SOL     OW18325   6.965   3.656   4.536
 5809SOL    HW118326   6.999   3.591   4.467
 5809SOL    HW218327   6.975   3.616   4.627
 5810SOL     OW18328   0.888   6.570   5.578
 5810SOL    HW118329   0.937   6.483   5.580
 5810SOL    HW218330   0.821   6.569   5.503
 5811SOL     OW18331   3.354   4.947   7.012
 5811SOL    HW118332   3.259   4.921   0.007
 5811SOL    HW218333   3.358   5.010   6.935
 5812SOL     OW18334   6.782   2.606   6.220
 5812SOL    HW118335   6.734   2.578   6.303
 5812SOL    HW218336   6.818   2.525   6.173
 5813SOL     OW18337   6.277   5.414   0.991
 5813SOL    HW118338   6.222   5.346   0.943
 5813SOL    HW218339   6.330   5.369   1.063
 5814SOL     OW18340   5.227   1.992   2.605
 5814SOL    HW118341   5.245   1.990   2.703
 5814SOL    HW218342   5.135   1.957   2.587
 5815SOL     OW18343   6.546   3.897   4.848
 5815SOL    HW118344   6.505   3.824   4.793
 5815SOL    HW218345   6.520   3.986   4.810
 5816SOL     OW18346   0.184   4.675   1.026
 5816SOL    HW118347   0.207   4.771   1.008
 5816SOL    HW218348   0.133   4.638   0.948
 5817SOL     OW18349   5.999   2.599   4.384
 5817SOL    HW118350   6.026   2.668   4.316
 5817SOL    HW218351   6.078   2.578   4.442
 5818SOL     OW18352   2.617   0.450   3.974
 5818SOL    HW118353   2.529   0.408   3.951
 5818SOL    HW218354   2.654   0.408   4.057
 5819SOL     OW18355   4.156   4.168   1.075
 5819SOL    HW118356   4.245   4.140   1.109
 5819SOL    HW218357   4.160   4.264   1.046
 5820SOL     OW18358   0.769   6.473   2.214
 5820SOL    HW118359   0.850   6.415   2.220
 5820SOL    HW218360   0.786   6.547   2.149
 5821SOL     OW18361   5.782   6.396   2.338
 5821SOL    HW118362   5.809   6.336   2.263
 5821SOL    HW218363   5.690   6.372   2.369
 5822SOL     OW18364   0.759   4.304   3.045
 5822SOL    HW118365   0.738   4.256   3.130
 5822SOL    HW218366   0.799   4.240   2.979
 5823SOL     OW18367   2.704   6.584   5.395
 5823SOL    HW118368   2.684   6.499   5.346
 5823SOL    HW218369   2.719   6.564   5.492
 5824SOL     OW18370   2.759   5.469   2.815
 5824SOL    HW118371   2.823   5.474   2.738
 5824SOL    HW218372   2.674   5.515   2.790
 5825SOL     OW18373   3.781   2.122   4.488
 5825SOL    HW118374   3.694   2.120   4.537
 5825SOL    HW218375   3.855   2.139   4.553
 5826SOL     OW18376   1.080   6.083   4.997
 5826SOL    HW118377   1.053   6.179   4.988
 5826SOL    HW218378   1.057   6.033   4.914
 5827SOL     OW18379   2.172   4.188   3.882
 5827SOL    HW118380   2.098   4.254   3.900
 5827SOL    HW218381   2.192   4.138   3.966
 5828SOL     OW18382   4.545   0.304   4.834
 5828SOL    HW118383   4.491   0.387   4.846
 5828SOL    HW218384   4.498   0.226   4.875
 5829SOL     OW18385   1.893   1.288   2.921
 5829SOL    HW118386   1.868   1.318   3.013
 5829SOL    HW218387   1.991   1.270   2.917
 5830SOL     OW18388   5.022   4.916   4.799
 5830SOL    HW118389   5.066   4.888   4.714
 5830SOL    HW218390   5.020   5.016   4.804
 5831SOL     OW18391   2.393   1.915   4.952
 5831SOL    HW118392   2.323   1.970   4.907
 5831SOL    HW218393   2.450   1.870   4.883
 5832SOL     OW18394   2.352   4.968   3.355
 5832SOL    HW118395   2.436   5.022   3.362
 5832SOL    HW218396   2.362   4.902   3.281
 5833SOL     OW18397   2.427   4.692   1.159
 5833SOL    HW118398   2.364   4.615   1.165
 5833SOL    HW218399   2.459   4.717   1.251
 5834SOL     OW18400   5.608   1.892   6.025
 5834SOL    HW118401   5.589   1.918   5.930
 5834SOL    HW218402   5.607   1.792   6.033
 5835SOL     OW18403   3.583   1.200   3.948
 5835SOL    HW118404   3.605   1.104   3.932
 5835SOL    HW218405   3.604   1.223   4.043
 5836SOL     OW18406   5.068   4.706   1.072
 5836SOL    HW118407   5.035   4.796   1.099
 5836SOL    HW218408   5.044   4.639   1.142
 5837SOL     OW18409   2.159   4.298   0.248
 5837SOL    HW118410   2.149   4.312   0.347
 5837SOL    HW218411   2.200   4.380   0.207
 5838SOL     OW18412   2.975   3.453   0.442
 5838SOL    HW118413   2.963   3.464   0.344
 5838SOL    HW218414   3.064   3.413   0.461
 5839SOL     OW18415   2.779   1.394   1.165
 5839SOL    HW118416   2.840   1.447   1.107
 5839SOL    HW218417   2.822   1.376   1.253
 5840SOL     OW18418   6.335   3.574   2.440
 5840SOL    HW118419   6.350   3.654   2.498
 5840SOL    HW218420   6.302   3.498   2.495
 5841SOL     OW18421   5.345   2.437   0.936
 5841SOL    HW118422   5.327   2.531   0.967
 5841SOL    HW218423   5.354   2.436   0.837
 5842SOL     OW18424   4.018   2.193   2.690
 5842SOL    HW118425   4.049   2.164   2.599
 5842SOL    HW218426   4.097   2.199   2.751
 5843SOL     OW18427   3.097   2.439   1.017
 5843SOL    HW118428   3.016   2.386   1.040
 5843SOL    HW218429   3.134   2.408   0.929
 5844SOL     OW18430   6.760   5.463   5.631
 5844SOL    HW118431   6.772   5.562   5.623
 5844SOL    HW218432   6.662   5.442   5.633
 5845SOL     OW18433   2.244   6.114   2.963
 5845SOL    HW118434   2.307   6.149   3.032
 5845SOL    HW218435   2.150   6.141   2.988
 5846SOL     OW18436   0.471   4.261   4.689
 5846SOL    HW118437   0.500   4.356   4.676
 5846SOL    HW218438   0.383   4.259   4.736
 5847SOL     OW18439   1.973   4.093   6.031
 5847SOL    HW118440   2.032   4.157   5.981
 5847SOL    HW218441   2.023   4.057   6.110
 5848SOL     OW18442   3.154   6.435   1.330
 5848SOL    HW118443   3.148   6.342   1.364
 5848SOL    HW218444   3.065   6.463   1.293
 5849SOL     OW18445   3.190   5.889   0.087
 5849SOL    HW118446   3.138   5.850   0.163
 5849SOL    HW218447   3.232   5.815   0.034
 5850SOL     OW18448   5.126   2.181   1.382
 5850SOL    HW118449   5.063   2.112   1.417
 5850SOL    HW218450   5.186   2.212   1.456
 5851SOL     OW18451   1.243   3.150   5.449
 5851SOL    HW118452   1.214   3.069   5.398
 5851SOL    HW218453   1.331   3.182   5.414
 5852SOL     OW18454   4.448   4.928   3.172
 5852SOL    HW118455   4.458   4.831   3.149
 5852SOL    HW218456   4.451   4.940   3.271
 5853SOL     OW18457   4.485   4.519   0.338
 5853SOL    HW118458   4.533   4.443   0.382
 5853SOL    HW218459   4.528   4.605   0.365
 5854SOL     OW18460   2.774   4.526   5.368
 5854SOL    HW118461   2.818   4.492   5.451
 5854SOL    HW218462   2.840   4.528   5.293
 5855SOL     OW18463   1.755   1.771   4.746
 5855SOL    HW118464   1.718   1.816   4.665
 5855SOL    HW218465   1.809   1.837   4.799
 5856SOL     OW18466   0.672   0.280   2.514
 5856SOL    HW118467   0.676   0.216   2.591
 5856SOL    HW218468   0.576   0.294   2.488
 5857SOL     OW18469   6.281   5.298   6.716
 5857SOL    HW118470   6.306   5.378   6.661
 5857SOL    HW218471   6.189   5.310   6.752
 5858SOL     OW18472   3.120   1.644   2.293
 5858SOL    HW118473   3.135   1.561   2.346
 5858SOL    HW218474   3.025   1.648   2.263
 5859SOL     OW18475   6.151   4.941   1.511
 5859SOL    HW118476   6.083   4.896   1.568
 5859SOL    HW218477   6.176   4.882   1.435
 5860SOL     OW18478   1.621   3.188   2.075
 5860SOL    HW118479   1.604   3.237   1.990
 5860SOL    HW218480   1.540   3.134   2.099
 5861SOL     OW18481   5.441   0.004   4.986
 5861SOL    HW118482   5.481   0.095   4.971
 5861SOL    HW218483   5.503   6.956   4.951
 5862SOL     OW18484   6.908   4.657   1.889
 5862SOL    HW118485   6.918   4.588   1.817
 5862SOL    HW218486   6.965   4.736   1.867
 5863SOL     OW18487   4.136   6.533   6.318
 5863SOL    HW118488   4.081   6.560   6.397
 5863SOL    HW218489   4.217   6.593   6.313
 5864SOL     OW18490   3.490   2.859   3.660
 5864SOL    HW118491   3.413   2.796   3.662
 5864SOL    HW218492   3.485   2.922   3.738
 5865SOL     OW18493   6.863   6.325   1.307
 5865SOL    HW118494   6.854   6.366   1.217
 5865SOL    HW218495   6.910   6.389   1.369
 5866SOL     OW18496   3.192   3.282   3.884
 5866SOL    HW118497   3.277   3.250   3.842
 5866SOL    HW218498   3.208   3.307   3.979
 5867SOL     OW18499   4.955   1.023   1.006
 5867SOL    HW118500   4.927   1.115   0.978
 5867SOL    HW218501   4.874   0.971   1.034
 5868SOL     OW18502   1.498   1.095   1.006
 5868SOL    HW118503   1.493   0.998   0.979
 5868SOL    HW218504   1.422   1.116   1.067
 5869SOL     OW18505   1.871   5.230   3.601
 5869SOL    HW118506   1.909   5.139   3.586
 5869SOL    HW218507   1.901   5.291   3.528
 5870SOL     OW18508   3.933   6.514   3.798
 5870SOL    HW118509   4.029   6.502   3.774
 5870SOL    HW218510   3.880   6.531   3.715
 5871SOL     OW18511   3.776   2.935   3.677
 5871SOL    HW118512   3.681   2.904   3.683
 5871SOL    HW218513   3.802   2.942   3.581
 5872SOL     OW18514   3.451   5.542   1.109
 5872SOL    HW118515   3.457   5.624   1.052
 5872SOL    HW218516   3.412   5.467   1.056
 5873SOL     OW18517   4.402   6.936   1.987
 5873SOL    HW118518   4.410   0.009   2.021
 5873SOL    HW218519   4.381   6.938   1.889
 5874SOL     OW18520   0.106   3.997   4.858
 5874SOL    HW118521   0.028   3.958   4.908
 5874SOL    HW218522   0.161   3.922   4.819
 5875SOL     OW18523   4.310   2.396   0.750
 5875SOL    HW118524   4.404   2.419   0.723
 5875SOL    HW218525   4.269   2.339   0.679
 5876SOL     OW18526   3.057   3.079   2.887
 5876SOL    HW118527   2.968   3.051   2.923
 5876SOL    HW218528   3.047   3.106   2.792
 5877SOL     OW18529   4.983   3.993   1.764
 5877SOL    HW118530   4.988   3.975   1.862
 5877SOL    HW218531   5.023   3.917   1.713
 5878SOL     OW18532   0.639   3.791   1.694
 5878SOL    HW118533   0.618   3.888   1.682
 5878SOL    HW218534   0.661   3.772   1.789
 5879SOL     OW18535   1.735   4.557   4.811
 5879SOL    HW118536   1.659   4.498   4.839
 5879SOL    HW218537   1.820   4.505   4.815
 5880SOL     OW18538   2.689   4.903   6.719
 5880SOL    HW118539   2.699   4.994   6.760
 5880SOL    HW218540   2.637   4.911   6.634
 5881SOL     OW18541   1.744   6.618   3.737
 5881SOL    HW118542   1.760   6.555   3.813
 5881SOL    HW218543   1.721   6.708   3.774
 5882SOL     OW18544   4.734   0.535   3.075
 5882SOL    HW118545   4.799   0.562   3.003
 5882SOL    HW218546   4.727   0.609   3.142
 5883SOL     OW18547   1.586   3.208   5.681
 5883SOL    HW118548   1.560   3.131   5.622
 5883SOL    HW218549   1.616   3.173   5.770
 5884SOL     OW18550   0.062   0.456   3.000
 5884SOL    HW118551   0.112   0.389   2.944
 5884SOL    HW218552   7.006   0.411   3.044
 5885SOL     OW18553   5.629   6.424   0.330
 5885SOL    HW118554   5.561   6.366   0.283
 5885SOL    HW218555   5.617   6.519   0.301
 5886SOL     OW18556   5.737   1.250   5.921
 5886SOL    HW118557   5.712   1.240   5.825
 5886SOL    HW218558   5.708   1.169   5.972
 5887SOL     OW18559   3.363   6.572   2.164
 5887SOL    HW118560   3.364   6.480   2.125
 5887SOL    HW218561   3.304   6.631   2.109
 5888SOL     OW18562   6.624   5.856   1.363
 5888SOL    HW118563   6.646   5.949   1.391
 5888SOL    HW218564   6.533   5.831   1.396
 5889SOL     OW18565   3.063   6.772   0.566
 5889SOL    HW118566   3.008   6.855   0.580
 5889SOL    HW218567   3.157   6.797   0.543
 5890SOL     OW18568   4.006   5.303   6.199
 5890SOL    HW118569   3.941   5.297   6.123
 5890SOL    HW218570   4.090   5.254   6.175
 5891SOL     OW18571   1.954   3.178   6.462
 5891SOL    HW118572   1.996   3.115   6.528
 5891SOL    HW218573   1.946   3.269   6.503
 5892SOL     OW18574   2.842   5.835   1.985
 5892SOL    HW118575   2.812   5.747   2.024
 5892SOL    HW218576   2.762   5.893   1.969
 5893SOL     OW18577   1.249   3.037   2.690
 5893SOL    HW118578   1.343   3.003   2.695
 5893SOL    HW218579   1.249   3.136   2.696
 5894SOL     OW18580   1.140   3.756   3.766
 5894SOL    HW118581   1.207   3.700   3.716
 5894SOL    HW218582   1.069   3.786   3.703
 5895SOL     OW18583   5.337   4.937   2.877
 5895SOL    HW118584   5.389   4.949   2.962
 5895SOL    HW218585   5.289   4.850   2.879
 5896SOL     OW18586   4.793   1.658   5.594
 5896SOL    HW118587   4.730   1.734   5.574
 5896SOL    HW218588   4.786   1.590   5.521
 5897SOL     OW18589   4.469   4.390   0.954
 5897SOL    HW118590   4.378   4.410   0.990
 5897SOL    HW218591   4.482   4.440   0.868
 5898SOL     OW18592   1.814   6.324   3.099
 5898SOL    HW118593   1.732   6.268   3.089
 5898SOL    HW218594   1.829   6.346   3.195
 5899SOL     OW18595   5.143   0.297   3.336
 5899SOL    HW118596   5.176   0.291   3.430
 5899SOL    HW218597   5.209   0.252   3.275
 5900SOL     OW18598   3.824   4.880   1.825
 5900SOL    HW118599   3.740   4.842   1.864
 5900SOL    HW218600   3.902   4.826   1.857
 5901SOL     OW18601   2.908   5.991   4.055
 5901SOL    HW118602   2.867   5.982   4.146
 5901SOL    HW218603   2.929   6.087   4.038
 5902SOL     OW18604   5.832   2.870   0.288
 5902SOL    HW118605   5.836   2.875   0.188
 5902SOL    HW218606   5.926   2.871   0.324
 5903SOL     OW18607   0.820   2.103   6.647
 5903SOL    HW118608   0.803   2.042   6.569
 5903SOL    HW218609   0.824   2.050   6.731
 5904SOL     OW18610   1.398   3.270   2.307
 5904SOL    HW118611   1.484   3.318   2.325
 5904SOL    HW218612   1.418   3.179   2.270
 5905SOL     OW18613   0.031   3.535   2.020
 5905SOL    HW118614   0.025   3.569   1.926
 5905SOL    HW218615   6.961   3.531   2.060
 5906SOL     OW18616   6.480   0.935   3.635
 5906SOL    HW118617   6.520   1.007   3.578
 5906SOL    HW218618   6.424   0.976   3.707
 5907SOL     OW18619   1.737   1.085   2.854
 5907SOL    HW118620   1.780   1.009   2.806
 5907SOL    HW218621   1.793   1.168   2.843
 5908SOL     OW18622   0.929   2.992   5.578
 5908SOL    HW118623   0.882   3.009   5.664
 5908SOL    HW218624   0.987   2.910   5.587
 5909SOL     OW18625   6.891   4.719   6.880
 5909SOL    HW118626   6.829   4.644   6.903
 5909SOL    HW218627   6.912   4.717   6.782
 5910SOL     OW18628   1.283   1.470   3.388
 5910SOL    HW118629   1.307   1.566   3.372
 5910SOL    HW218630   1.315   1.443   3.479
 5911SOL     OW18631   6.596   5.664   6.875
 5911SOL    HW118632   6.546   5.615   6.946
 5911SOL    HW218633   6.543   5.663   6.790
 5912SOL     OW18634   0.403   1.196   3.133
 5912SOL    HW118635   0.501   1.178   3.137
 5912SOL    HW218636   0.361   1.134   3.068
 5913SOL     OW18637   6.435   2.781   1.511
 5913SOL    HW118638   6.399   2.740   1.428
 5913SOL    HW218639   6.426   2.881   1.506
 5914SOL     OW18640   1.529   0.104   0.845
 5914SOL    HW118641   1.463   0.133   0.776
 5914SOL    HW218642   1.487   0.108   0.935
 5915SOL     OW18643   3.800   0.217   5.385
 5915SOL    HW118644   3.777   0.142   5.322
 5915SOL    HW218645   3.729   0.287   5.381
 5916SOL     OW18646   1.273   0.427   2.266
 5916SOL    HW118647   1.260   0.340   2.218
 5916SOL    HW218648   1.262   0.413   2.364
 5917SOL     OW18649   3.390   3.191   0.744
 5917SOL    HW118650   3.340   3.150   0.668
 5917SOL    HW218651   3.327   3.212   0.819
 5918SOL     OW18652   3.791   0.091   4.334
 5918SOL    HW118653   3.694   0.111   4.326
 5918SOL    HW218654   3.803   7.017   4.361
 5919SOL     OW18655   3.266   4.028   4.868
 5919SOL    HW118656   3.271   4.085   4.786
 5919SOL    HW218657   3.358   4.017   4.906
 5920SOL     OW18658   1.229   0.482   5.698
 5920SOL    HW118659   1.216   0.459   5.795
 5920SOL    HW218660   1.287   0.563   5.691
 5921SOL     OW18661   2.532   5.243   0.730
 5921SOL    HW118662   2.523   5.321   0.792
 5921SOL    HW218663   2.453   5.240   0.668
 5922SOL     OW18664   4.950   2.646   2.599
 5922SOL    HW118665   4.893   2.725   2.621
 5922SOL    HW218666   4.907   2.595   2.523
 5923SOL     OW18667   5.524   0.980   2.872
 5923SOL    HW118668   5.444   1.027   2.909
 5923SOL    HW218669   5.505   0.882   2.863
 5924SOL     OW18670   0.062   6.636   3.403
 5924SOL    HW118671   0.069   6.734   3.426
 5924SOL    HW218672   0.002   6.625   3.324
 5925SOL     OW18673   5.031   0.767   1.193
 5925SOL    HW118674   5.087   0.724   1.122
 5925SOL    HW218675   4.991   0.852   1.158
 5926SOL     OW18676   5.328   3.151   3.199
 5926SOL    HW118677   5.304   3.205   3.279
 5926SOL    HW218678   5.267   3.174   3.123
 5927SOL     OW18679   0.656   6.794   1.415
 5927SOL    HW118680   0.619   6.883   1.391
 5927SOL    HW218681   0.595   6.722   1.383
 5928SOL     OW18682   3.104   0.169   0.151
 5928SOL    HW118683   3.088   0.087   0.206
 5928SOL    HW218684   3.035   0.175   0.080
 5929SOL     OW18685   1.166   0.821   1.621
 5929SOL    HW118686   1.246   0.839   1.677
 5929SOL    HW218687   1.163   0.887   1.545
 5930SOL     OW18688   0.776   4.386   1.885
 5930SOL    HW118689   0.863   4.343   1.910
 5930SOL    HW218690   0.754   4.457   1.951
 5931SOL     OW18691   4.877   6.137   4.290
 5931SOL    HW118692   4.904   6.200   4.217
 5931SOL    HW218693   4.783   6.158   4.318
 5932SOL     OW18694   3.687   5.892   0.236
 5932SOL    HW118695   3.619   5.954   0.275
 5932SOL    HW218696   3.743   5.943   0.170
 5933SOL     OW18697   6.707   5.749   4.423
 5933SOL    HW118698   6.707   5.650   4.432
 5933SOL    HW218699   6.790   5.786   4.465
 5934SOL     OW18700   3.303   4.107   0.132
 5934SOL    HW118701   3.379   4.126   0.195
 5934SOL    HW218702   3.223   4.160   0.159
 5935SOL     OW18703   1.395   0.361   5.338
 5935SOL    HW118704   1.373   0.457   5.325
 5935SOL    HW218705   1.384   0.312   5.251
 5936SOL     OW18706   3.727   2.871   2.311
 5936SOL    HW118707   3.791   2.796   2.295
 5936SOL    HW218708   3.747   2.946   2.249
 5937SOL     OW18709   0.847   2.963   0.323
 5937SOL    HW118710   0.819   2.905   0.399
 5937SOL    HW218711   0.909   2.912   0.263
 5938SOL     OW18712   1.402   3.169   4.543
 5938SOL    HW118713   1.400   3.222   4.458
 5938SOL    HW218714   1.347   3.216   4.612
 5939SOL     OW18715   4.888   0.724   5.872
 5939SOL    HW118716   4.802   0.692   5.832
 5939SOL    HW218717   4.878   0.820   5.899
 5940SOL     OW18718   5.136   4.931   0.906
 5940SOL    HW118719   5.043   4.894   0.897
 5940SOL    HW218720   5.170   4.956   0.815
 5941SOL     OW18721   0.800   1.585   3.516
 5941SOL    HW118722   0.887   1.609   3.474
 5941SOL    HW218723   0.759   1.667   3.556
 5942SOL     OW18724   5.078   2.180   6.110
 5942SOL    HW118725   5.061   2.183   6.209
 5942SOL    HW218726   5.176   2.187   6.093
 5943SOL     OW18727   2.057   4.192   2.235
 5943SOL    HW118728   2.107   4.133   2.298
 5943SOL    HW218729   2.081   4.288   2.253
 5944SOL     OW18730   6.690   3.988   6.015
 5944SOL    HW118731   6.753   3.916   5.985
 5944SOL    HW218732   6.714   4.016   6.108
 5945SOL     OW18733   0.027   6.587   4.049
 5945SOL    HW118734   7.003   6.532   3.979
 5945SOL    HW218735   6.986   6.655   4.086
 5946SOL     OW18736   3.077   2.826   6.516
 5946SOL    HW118737   3.166   2.862   6.490
 5946SOL    HW218738   3.028   2.795   6.434
 5947SOL     OW18739   3.445   3.394   4.951
 5947SOL    HW118740   3.465   3.299   4.929
 5947SOL    HW218741   3.373   3.428   4.890
 5948SOL     OW18742   4.788   4.167   1.678
 5948SOL    HW118743   4.861   4.103   1.702
 5948SOL    HW218744   4.701   4.118   1.670
 5949SOL     OW18745   1.009   4.273   3.839
 5949SOL    HW118746   1.039   4.368   3.836
 5949SOL    HW218747   1.026   4.235   3.930
 5950SOL     OW18748   2.437   6.808   4.847
 5950SOL    HW118749   2.504   6.874   4.882
 5950SOL    HW218750   2.462   6.782   4.754
 5951SOL     OW18751   0.171   2.749   6.254
 5951SOL    HW118752   0.161   2.843   6.221
 5951SOL    HW218753   0.237   2.747   6.330
 5952SOL     OW18754   3.781   4.147   1.702
 5952SOL    HW118755   3.811   4.069   1.758
 5952SOL    HW218756   3.727   4.209   1.758
 5953SOL     OW18757   6.886   2.657   0.007
 5953SOL    HW118758   6.873   2.753   0.034
 5953SOL    HW218759   6.978   2.645   6.993
 5954SOL     OW18760   1.977   4.940   3.640
 5954SOL    HW118761   1.888   4.935   3.685
 5954SOL    HW218762   2.000   4.850   3.602
 5955SOL     OW18763   3.916   2.886   0.425
 5955SOL    HW118764   3.838   2.947   0.409
 5955SOL    HW218765   3.997   2.922   0.380
 5956SOL     OW18766   4.390   2.532   6.672
 5956SOL    HW118767   4.468   2.491   6.719
 5956SOL    HW218768   4.409   2.629   6.655
 5957SOL     OW18769   6.582   2.079   3.730
 5957SOL    HW118770   6.651   2.137   3.773
 5957SOL    HW218771   6.532   2.132   3.662
 5958SOL     OW18772   2.800   6.147   2.772
 5958SOL    HW118773   2.779   6.093   2.691
 5958SOL    HW218774   2.813   6.086   2.850
 5959SOL     OW18775   5.032   4.100   2.851
 5959SOL    HW118776   5.079   4.044   2.919
 5959SOL    HW218777   5.088   4.105   2.768
 5960SOL     OW18778   5.915   0.296   6.532
 5960SOL    HW118779   5.883   0.321   6.440
 5960SOL    HW218780   5.923   0.196   6.538
 5961SOL     OW18781   2.507   2.124   4.011
 5961SOL    HW118782   2.458   2.060   3.952
 5961SOL    HW218783   2.548   2.196   3.955
 5962SOL     OW18784   5.459   4.569   0.028
 5962SOL    HW118785   5.422   4.496   0.084
 5962SOL    HW218786   5.496   4.531   6.964
 5963SOL     OW18787   1.873   3.981   0.533
 5963SOL    HW118788   1.788   3.932   0.553
 5963SOL    HW218789   1.939   3.918   0.492
 5964SOL     OW18790   1.731   6.952   3.058
 5964SOL    HW118791   1.667   6.880   3.085
 5964SOL    HW218792   1.725   6.967   2.959
 5965SOL     OW18793   2.409   0.669   1.254
 5965SOL    HW118794   2.396   0.570   1.254
 5965SOL    HW218795   2.384   0.706   1.164
 5966SOL     OW18796   3.167   1.889   4.869
 5966SOL    HW118797   3.211   1.958   4.926
 5966SOL    HW218798   3.231   1.858   4.798
 5967SOL     OW18799   4.664   2.498   5.298
 5967SOL    HW118800   4.653   2.399   5.294
 5967SOL    HW218801   4.574   2.541   5.306
 5968SOL     OW18802   6.120   2.119   3.081
 5968SOL    HW118803   6.123   2.163   3.171
 5968SOL    HW218804   6.124   2.019   3.092
 5969SOL     OW18805   5.327   6.669   1.241
 5969SOL    HW118806   5.422   6.689   1.220
 5969SOL    HW218807   5.303   6.710   1.329
 5970SOL     OW18808   6.199   2.474   0.452
 5970SOL    HW118809   6.197   2.467   0.552
 5970SOL    HW218810   6.233   2.564   0.426
 5971SOL     OW18811   6.709   5.210   3.978
 5971SOL    HW118812   6.682   5.245   4.067
 5971SOL    HW218813   6.799   5.244   3.954
 5972SOL     OW18814   5.815   5.110   0.635
 5972SOL    HW118815   5.868   5.061   0.704
 5972SOL    HW218816   5.718   5.091   0.649
 5973SOL     OW18817   3.419   0.895   2.563
 5973SOL    HW118818   3.351   0.934   2.502
 5973SOL    HW218819   3.412   0.795   2.561
 5974SOL     OW18820   5.772   1.226   4.527
 5974SOL    HW118821   5.734   1.260   4.613
 5974SOL    HW218822   5.869   1.250   4.521
 5975SOL     OW18823   3.661   4.927   0.431
 5975SOL    HW118824   3.690   4.839   0.470
 5975SOL    HW218825   3.598   4.910   0.356
 5976SOL     OW18826   1.681   3.093   6.180
 5976SOL    HW118827   1.637   3.165   6.233
 5976SOL    HW218828   1.740   3.040   6.241
 5977SOL     OW18829   0.729   5.652   1.502
 5977SOL    HW118830   0.648   5.688   1.457
 5977SOL    HW218831   0.765   5.720   1.567
 5978SOL     OW18832   3.113   3.603   6.050
 5978SOL    HW118833   3.120   3.505   6.067
 5978SOL    HW218834   3.085   3.650   6.134
 5979SOL     OW18835   5.818   0.535   1.205
 5979SOL    HW118836   5.801   0.559   1.301
 5979SOL    HW218837   5.870   0.609   1.162
 5980SOL     OW18838   3.326   2.637   0.999
 5980SOL    HW118839   3.278   2.555   0.968
 5980SOL    HW218840   3.374   2.618   1.084
 5981SOL     OW18841   3.261   2.372   0.783
 5981SOL    HW118842   3.208   2.409   0.707
 5981SOL    HW218843   3.358   2.365   0.757
 5982SOL     OW18844   5.721   2.526   1.367
 5982SOL    HW118845   5.710   2.604   1.429
 5982SOL    HW218846   5.796   2.544   1.303
 5983SOL     OW18847   6.570   1.299   3.712
 5983SOL    HW118848   6.585   1.235   3.636
 5983SOL    HW218849   6.589   1.392   3.681
 5984SOL     OW18850   6.012   6.462   2.091
 5984SOL    HW118851   5.924   6.476   2.046
 5984SOL    HW218852   6.016   6.371   2.131
 5985SOL     OW18853   6.354   4.959   2.708
 5985SOL    HW118854   6.264   4.968   2.751
 5985SOL    HW218855   6.387   5.049   2.681
 5986SOL     OW18856   4.001   3.071   3.141
 5986SOL    HW118857   4.037   3.158   3.106
 5986SOL    HW218858   4.076   3.005   3.148
 5987SOL     OW18859   6.963   6.175   4.386
 5987SOL    HW118860   7.003   6.084   4.377
 5987SOL    HW218861   0.000   6.243   4.343
 5988SOL     OW18862   1.693   1.956   0.255
 5988SOL    HW118863   1.670   2.006   0.171
 5988SOL    HW218864   1.729   1.865   0.231
 5989SOL     OW18865   2.169   6.295   5.512
 5989SOL    HW118866   2.173   6.389   5.477
 5989SOL    HW218867   2.217   6.291   5.600
 5990SOL     OW18868   2.416   3.851   1.760
 5990SOL    HW118869   2.336   3.859   1.820
 5990SOL    HW218870   2.399   3.899   1.675
 5991SOL     OW18871   5.431   1.386   0.831
 5991SOL    HW118872   5.521   1.374   0.789
 5991SOL    HW218873   5.434   1.351   0.925
 5992SOL     OW18874   2.705   4.730   3.728
 5992SOL    HW118875   2.686   4.633   3.712
 5992SOL    HW218876   2.681   4.754   3.822
 5993SOL     OW18877   5.720   2.285   0.205
 5993SOL    HW118878   5.717   2.237   0.117
 5993SOL    HW218879   5.787   2.241   0.265
 5994SOL     OW18880   0.179   4.418   0.596
 5994SOL    HW118881   0.266   4.417   0.645
 5994SOL    HW218882   0.182   4.352   0.521
 5995SOL     OW18883   5.065   3.692   0.670
 5995SOL    HW118884   4.970   3.701   0.640
 5995SOL    HW218885   5.110   3.782   0.668
 5996SOL     OW18886   1.852   0.286   2.183
 5996SOL    HW118887   1.832   0.207   2.242
 5996SOL    HW218888   1.773   0.304   2.125
 5997SOL     OW18889   6.319   0.265   4.641
 5997SOL    HW118890   6.350   0.270   4.546
 5997SOL    HW218891   6.296   0.357   4.674
 5998SOL     OW18892   5.876   6.234   6.261
 5998SOL    HW118893   5.956   6.196   6.214
 5998SOL    HW218894   5.863   6.189   6.349
 5999SOL     OW18895   5.247   3.615   0.856
 5999SOL    HW118896   5.303   3.697   0.847
 5999SOL    HW218897   5.179   3.613   0.783
 6000SOL     OW18898   1.219   4.611   1.699
 6000SOL    HW118899   1.297   4.576   1.647
 6000SOL    HW218900   1.149   4.645   1.635
 6001SOL     OW18901   6.975   6.023   5.544
 6001SOL    HW118902   0.008   5.946   5.576
 6001SOL    HW218903   0.001   6.068   5.468
 6002SOL     OW18904   5.760   4.297   5.209
 6002SOL    HW118905   5.806   4.380   5.179
 6002SOL    HW218906   5.661   4.305   5.191
 6003SOL     OW18907   2.634   1.503   5.407
 6003SOL    HW118908   2.657   1.548   5.321
 6003SOL    HW218909   2.545   1.457   5.398
 6004SOL     OW18910   5.701   3.190   5.096
 6004SOL    HW118911   5.695   3.104   5.045
 6004SOL    HW218912   5.683   3.172   5.193
 6005SOL     OW18913   3.769   4.274   0.403
 6005SOL    HW118914   3.770   4.208   0.328
 6005SOL    HW218915   3.862   4.290   0.435
 6006SOL     OW18916   2.986   6.068   6.267
 6006SOL    HW118917   2.935   5.983   6.255
 6006SOL    HW218918   3.069   6.051   6.319
 6007SOL     OW18919   2.736   6.633   4.634
 6007SOL    HW118920   2.809   6.699   4.653
 6007SOL    HW218921   2.724   6.572   4.712
 6008SOL     OW18922   2.554   4.125   6.800
 6008SOL    HW118923   2.520   4.219   6.796
 6008SOL    HW218924   2.525   4.082   6.885
 6009SOL     OW18925   2.687   5.315   3.067
 6009SOL    HW118926   2.732   5.292   3.153
 6009SOL    HW218927   2.733   5.394   3.026
 6010SOL     OW18928   0.307   5.101   5.719
 6010SOL    HW118929   0.369   5.135   5.649
 6010SOL    HW218930   0.213   5.124   5.694
 6011SOL     OW18931   5.878   1.767   2.788
 6011SOL    HW118932   5.912   1.752   2.695
 6011SOL    HW218933   5.955   1.765   2.852
 6012SOL     OW18934   6.704   1.107   6.331
 6012SOL    HW118935   6.719   1.176   6.260
 6012SOL    HW218936   6.742   1.020   6.301
 6013SOL     OW18937   5.777   1.497   2.495
 6013SOL    HW118938   5.696   1.456   2.452
 6013SOL    HW218939   5.756   1.522   2.590
 6014SOL     OW18940   3.714   3.125   4.088
 6014SOL    HW118941   3.783   3.077   4.141
 6014SOL    HW218942   3.655   3.059   4.041
 6015SOL     OW18943   6.364   0.266   3.611
 6015SOL    HW118944   6.269   0.299   3.610
 6015SOL    HW218945   6.415   0.311   3.537
 6016SOL     OW18946   4.473   2.199   4.718
 6016SOL    HW118947   4.539   2.254   4.768
 6016SOL    HW218948   4.443   2.122   4.775
 6017SOL     OW18949   1.546   1.680   5.655
 6017SOL    HW118950   1.515   1.724   5.571
 6017SOL    HW218951   1.646   1.674   5.655
 6018SOL     OW18952   2.259   1.339   3.684
 6018SOL    HW118953   2.285   1.345   3.780
 6018SOL    HW218954   2.252   1.431   3.646
 6019SOL     OW18955   7.001   3.948   6.150
 6019SOL    HW118956   6.928   3.999   6.194
 6019SOL    HW218957   6.963   3.887   6.081
 6020SOL     OW18958   0.812   5.641   5.035
 6020SOL    HW118959   0.742   5.697   5.078
 6020SOL    HW218960   0.787   5.622   4.940
 6021SOL     OW18961   4.770   0.267   3.417
 6021SOL    HW118962   4.719   0.182   3.429
 6021SOL    HW218963   4.803   0.274   3.323
 6022SOL     OW18964   6.957   3.083   1.575
 6022SOL    HW118965   6.920   3.015   1.512
 6022SOL    HW218966   6.995   3.038   1.655
 6023SOL     OW18967   4.541   6.640   2.726
 6023SOL    HW118968   4.606   6.585   2.778
 6023SOL    HW218969   4.457   6.587   2.712
 6024SOL     OW18970   0.659   6.538   0.194
 6024SOL    HW118971   0.716   6.528   0.275
 6024SOL    HW218972   0.563   6.529   0.219
 6025SOL     OW18973   3.473   0.367   5.705
 6025SOL    HW118974   3.430   0.316   5.630
 6025SOL    HW218975   3.571   0.348   5.705
 6026SOL     OW18976   5.785   5.969   3.611
 6026SOL    HW118977   5.710   6.005   3.667
 6026SOL    HW218978   5.784   6.014   3.521
 6027SOL     OW18979   6.139   4.470   5.527
 6027SOL    HW118980   6.049   4.429   5.544
 6027SOL    HW218981   6.153   4.545   5.592
 6028SOL     OW18982   6.057   5.597   6.554
 6028SOL    HW118983   5.986   5.613   6.486
 6028SOL    HW218984   6.113   5.679   6.565
 6029SOL     OW18985   2.651   1.893   2.838
 6029SOL    HW118986   2.691   1.894   2.747
 6029SOL    HW218987   2.712   1.939   2.903
 6030SOL     OW18988   6.004   3.181   4.424
 6030SOL    HW118989   6.065   3.199   4.501
 6030SOL    HW218990   6.028   3.239   4.347
 6031SOL     OW18991   0.003   0.111   3.590
 6031SOL    HW118992   0.083   0.170   3.601
 6031SOL    HW218993   6.981   0.131   3.503
 6032SOL     OW18994   2.972   0.150   3.657
 6032SOL    HW118995   3.005   0.233   3.611
 6032SOL    HW218996   2.893   0.114   3.607
 6033SOL     OW18997   0.633   1.311   2.957
 6033SOL    HW118998   0.597   1.396   2.997
 6033SOL    HW218999   0.558   1.258   2.918
 6034SOL     OW19000   0.636   1.125   0.803
 6034SOL    HW119001   0.588   1.204   0.841
 6034SOL    HW219002   0.716   1.157   0.752
 6035SOL     OW19003   1.631   0.982   2.218
 6035SOL    HW119004   1.661   0.893   2.251
 6035SOL    HW219005   1.550   0.971   2.161
 6036SOL     OW19006   6.974   3.264   0.357
 6036SOL    HW119007   7.019   3.341   0.402
 6036SOL    HW219008   6.938   3.293   0.269
 6037SOL     OW19009   4.820   0.602   6.453
 6037SOL    HW119010   4.824   0.700   6.432
 6037SOL    HW219011   4.796   0.551   6.371
 6038SOL     OW19012   1.814   1.291   6.854
 6038SOL    HW119013   1.868   1.217   6.893
 6038SOL    HW219014   1.718   1.263   6.847
 6039SOL     OW19015   3.323   2.921   4.249
 6039SOL    HW119016   3.352   2.985   4.321
 6039SOL    HW219017   3.224   2.931   4.234
 6040SOL     OW19018   0.240   1.711   0.184
 6040SOL    HW119019   0.240   1.683   0.280
 6040SOL    HW219020   0.165   1.775   0.168
 6041SOL     OW19021   0.891   3.058   4.958
 6041SOL    HW119022   0.802   3.101   4.944
 6041SOL    HW219023   0.959   3.128   4.977
 6042SOL     OW19024   2.444   6.263   4.025
 6042SOL    HW119025   2.396   6.221   3.948
 6042SOL    HW219026   2.506   6.197   4.066
 6043SOL     OW19027   2.481   5.922   2.198
 6043SOL    HW119028   2.486   5.975   2.113
 6043SOL    HW219029   2.483   5.984   2.276
 6044SOL     OW19030   6.963   3.462   0.752
 6044SOL    HW119031   0.003   3.456   0.673
 6044SOL    HW219032   6.983   3.387   0.815
 6045SOL     OW19033   5.116   1.262   4.441
 6045SOL    HW119034   5.058   1.308   4.373
 6045SOL    HW219035   5.061   1.237   4.520
 6046SOL     OW19036   3.763   4.018   2.906
 6046SOL    HW119037   3.802   3.958   2.976
 6046SOL    HW219038   3.728   4.101   2.950
 6047SOL     OW19039   0.142   1.227   6.877
 6047SOL    HW119040   0.225   1.241   6.932
 6047SOL    HW219041   0.116   1.131   6.878
 6048SOL     OW19042   6.228   5.610   3.162
 6048SOL    HW119043   6.316   5.571   3.189
 6048SOL    HW219044   6.156   5.568   3.216
 6049SOL     OW19045   4.914   4.774   6.127
 6049SOL    HW119046   4.856   4.748   6.051
 6049SOL    HW219047   4.985   4.837   6.095
 6050SOL     OW19048   2.450   5.316   2.945
 6050SOL    HW119049   2.547   5.314   2.970
 6050SOL    HW219050   2.395   5.317   3.029
 6051SOL     OW19051   0.735   1.072   2.188
 6051SOL    HW119052   0.679   1.114   2.117
 6051SOL    HW219053   0.777   1.143   2.244
 6052SOL     OW19054   5.680   5.946   6.669
 6052SOL    HW119055   5.588   5.976   6.644
 6052SOL    HW219056   5.684   5.846   6.666
 6053SOL     OW19057   3.889   2.145   5.559
 6053SOL    HW119058   3.965   2.161   5.497
 6053SOL    HW219059   3.806   2.126   5.507
 6054SOL     OW19060   4.212   3.717   0.137
 6054SOL    HW119061   4.226   3.756   0.227
 6054SOL    HW219062   4.300   3.687   0.099
 6055SOL     OW19063   3.051   4.672   1.696
 6055SOL    HW119064   3.148   4.650   1.687
 6055SOL    HW219065   3.008   4.604   1.756
 6056SOL     OW19066   5.102   6.354   2.931
 6056SOL    HW119067   5.036   6.341   3.006
 6056SOL    HW219068   5.148   6.442   2.942
 6057SOL     OW19069   5.736   1.321   4.065
 6057SOL    HW119070   5.758   1.233   4.108
 6057SOL    HW219071   5.736   1.393   4.135
 6058SOL     OW19072   0.239   2.571   5.760
 6058SOL    HW119073   0.200   2.569   5.852
 6058SOL    HW219074   0.184   2.514   5.699
 6059SOL     OW19075   3.935   1.988   6.941
 6059SOL    HW119076   3.910   2.040   0.001
 6059SOL    HW219077   3.853   1.970   6.887
 6060SOL     OW19078   1.650   2.365   1.159
 6060SOL    HW119079   1.740   2.356   1.200
 6060SOL    HW219080   1.641   2.300   1.083
 6061SOL     OW19081   2.373   4.491   6.590
 6061SOL    HW119082   2.358   4.425   6.516
 6061SOL    HW219083   2.438   4.454   6.656
 6062SOL     OW19084   2.146   1.768   5.974
 6062SOL    HW119085   2.182   1.756   6.066
 6062SOL    HW219086   2.099   1.684   5.945
 6063SOL     OW19087   4.626   4.043   6.284
 6063SOL    HW119088   4.605   4.134   6.249
 6063SOL    HW219089   4.652   3.984   6.208
 6064SOL     OW19090   5.827   6.386   0.527
 6064SOL    HW119091   5.753   6.411   0.464
 6064SOL    HW219092   5.899   6.339   0.477
 6065SOL     OW19093   2.013   5.812   1.398
 6065SOL    HW119094   2.066   5.882   1.446
 6065SOL    HW219095   2.011   5.728   1.453
 6066SOL     OW19096   5.934   5.793   1.744
 6066SOL    HW119097   5.889   5.816   1.658
 6066SOL    HW219098   6.022   5.750   1.724
 6067SOL     OW19099   0.159   4.762   5.255
 6067SOL    HW119100   0.256   4.738   5.265
 6067SOL    HW219101   0.146   4.858   5.277
 6068SOL     OW19102   4.074   1.774   3.748
 6068SOL    HW119103   4.074   1.854   3.808
 6068SOL    HW219104   3.989   1.723   3.760
 6069SOL     OW19105   0.527   4.992   5.260
 6069SOL    HW119106   0.602   5.025   5.202
 6069SOL    HW219107   0.449   4.966   5.202
 6070SOL     OW19108   2.843   0.807   0.820
 6070SOL    HW119109   2.787   0.878   0.777
 6070SOL    HW219110   2.810   0.717   0.793
 6071SOL     OW19111   5.754   0.524   6.144
 6071SOL    HW119112   5.670   0.502   6.194
 6071SOL    HW219113   5.832   0.477   6.186
 6072SOL     OW19114   0.045   2.839   0.547
 6072SOL    HW119115   0.051   2.920   0.488
 6072SOL    HW219116   0.007   2.866   0.635
 6073SOL     OW19117   4.864   4.189   0.434
 6073SOL    HW119118   4.952   4.202   0.388
 6073SOL    HW219119   4.844   4.268   0.491
 6074SOL     OW19120   1.261   6.281   2.708
 6074SOL    HW119121   1.175   6.252   2.665
 6074SOL    HW219122   1.263   6.380   2.714
 6075SOL     OW19123   6.325   6.680   6.766
 6075SOL    HW119124   6.373   6.741   6.829
 6075SOL    HW219125   6.303   6.729   6.682
 6076SOL     OW19126   0.304   6.703   3.253
 6076SOL    HW119127   0.221   6.679   3.303
 6076SOL    HW219128   0.363   6.623   3.245
 6077SOL     OW19129   4.981   6.217   2.423
 6077SOL    HW119130   5.002   6.279   2.347
 6077SOL    HW219131   5.031   6.131   2.409
 6078SOL     OW19132   5.551   4.426   6.842
 6078SOL    HW119133   5.651   4.429   6.843
 6078SOL    HW219134   5.521   4.332   6.825
 6079SOL     OW19135   3.611   1.828   0.393
 6079SOL    HW119136   3.517   1.820   0.360
 6079SOL    HW219137   3.674   1.791   0.324
 6080SOL     OW19138   0.074   3.048   5.462
 6080SOL    HW119139   0.167   3.010   5.461
 6080SOL    HW219140   0.056   3.094   5.375
 6081SOL     OW19141   2.310   4.253   4.309
 6081SOL    HW119142   2.376   4.306   4.256
 6081SOL    HW219143   2.264   4.313   4.375
 6082SOL     OW19144   5.010   0.952   1.640
 6082SOL    HW119145   5.101   0.932   1.603
 6082SOL    HW219146   4.969   1.027   1.588
 6083SOL     OW19147   5.121   7.002   6.313
 6083SOL    HW119148   5.075   6.943   6.379
 6083SOL    HW219149   5.068   0.064   6.299
 6084SOL     OW19150   6.382   5.214   3.579
 6084SOL    HW119151   6.401   5.219   3.677
 6084SOL    HW219152   6.464   5.237   3.527
 6085SOL     OW19153   0.546   6.479   1.080
 6085SOL    HW119154   0.631   6.454   1.035
 6085SOL    HW219155   0.474   6.492   1.011
 6086SOL     OW19156   3.772   3.420   0.741
 6086SOL    HW119157   3.722   3.347   0.787
 6086SOL    HW219158   3.727   3.507   0.757
 6087SOL     OW19159   4.061   0.444   0.894
 6087SOL    HW119160   4.080   0.468   0.799
 6087SOL    HW219161   4.065   0.345   0.905
 6088SOL     OW19162   3.749   5.905   2.014
 6088SOL    HW119163   3.832   5.947   1.977
 6088SOL    HW219164   3.702   5.971   2.073
 6089SOL     OW19165   6.100   5.079   3.490
 6089SOL    HW119166   6.191   5.115   3.507
 6089SOL    HW219167   6.062   5.119   3.407
 6090SOL     OW19168   3.685   6.070   5.152
 6090SOL    HW119169   3.664   6.167   5.147
 6090SOL    HW219170   3.700   6.034   5.059
 6091SOL     OW19171   1.126   2.730   2.945
 6091SOL    HW119172   1.142   2.707   3.040
 6091SOL    HW219173   1.175   2.667   2.885
 6092SOL     OW19174   1.841   6.609   1.181
 6092SOL    HW119175   1.749   6.593   1.218
 6092SOL    HW219176   1.907   6.549   1.228
 6093SOL     OW19177   3.027   3.047   1.844
 6093SOL    HW119178   2.949   3.109   1.839
 6093SOL    HW219179   3.006   2.962   1.796
 6094SOL     OW19180   1.255   0.237   5.598
 6094SOL    HW119181   1.251   0.330   5.635
 6094SOL    HW219182   1.309   0.237   5.514
 6095SOL     OW19183   5.156   5.228   1.984
 6095SOL    HW119184   5.233   5.167   1.964
 6095SOL    HW219185   5.141   5.231   2.083
 6096SOL     OW19186   4.726   5.982   2.606
 6096SOL    HW119187   4.811   5.937   2.578
 6096SOL    HW219188   4.734   6.080   2.590
 6097SOL     OW19189   2.491   5.125   1.973
 6097SOL    HW119190   2.399   5.113   2.011
 6097SOL    HW219191   2.489   5.196   1.903
 6098SOL     OW19192   6.063   1.243   5.342
 6098SOL    HW119193   6.008   1.197   5.273
 6098SOL    HW219194   6.051   1.342   5.334
 6099SOL     OW19195   3.666   6.701   5.215
 6099SOL    HW119196   3.696   6.732   5.305
 6099SOL    HW219197   3.695   6.607   5.201
 6100SOL     OW19198   0.402   5.725   5.625
 6100SOL    HW119199   0.328   5.756   5.566
 6100SOL    HW219200   0.371   5.648   5.681
 6101SOL     OW19201   0.521   2.690   1.602
 6101SOL    HW119202   0.573   2.727   1.680
 6101SOL    HW219203   0.513   2.591   1.611
 6102SOL     OW19204   3.040   0.138   2.868
 6102SOL    HW119205   2.969   0.094   2.812
 6102SOL    HW219206   3.010   0.142   2.963
 6103SOL     OW19207   5.438   1.142   2.264
 6103SOL    HW119208   5.402   1.235   2.262
 6103SOL    HW219209   5.369   1.081   2.303
 6104SOL     OW19210   6.491   0.760   5.156
 6104SOL    HW119211   6.406   0.770   5.208
 6104SOL    HW219212   6.568   0.792   5.213
 6105SOL     OW19213   3.778   4.710   5.766
 6105SOL    HW119214   3.816   4.764   5.842
 6105SOL    HW219215   3.852   4.659   5.721
 6106SOL     OW19216   6.387   3.898   5.079
 6106SOL    HW119217   6.423   3.891   4.986
 6106SOL    HW219218   6.355   3.991   5.096
 6107SOL     OW19219   5.846   4.556   5.109
 6107SOL    HW119220   5.908   4.545   5.186
 6107SOL    HW219221   5.887   4.615   5.040
 6108SOL     OW19222   3.381   0.942   6.107
 6108SOL    HW119223   3.395   0.883   6.187
 6108SOL    HW219224   3.389   0.887   6.023
 6109SOL     OW19225   6.792   6.683   3.586
 6109SOL    HW119226   6.824   6.598   3.629
 6109SOL    HW219227   6.858   6.756   3.604
 6110SOL     OW19228   1.215   2.237   3.800
 6110SOL    HW119229   1.179   2.225   3.892
 6110SOL    HW219230   1.315   2.235   3.803
 6111SOL     OW19231   2.571   3.003   0.758
 6111SOL    HW119232   2.637   2.978   0.688
 6111SOL    HW219233   2.618   3.025   0.843
 6112SOL     OW19234   4.819   6.514   3.668
 6112SOL    HW119235   4.841   6.565   3.584
 6112SOL    HW219236   4.749   6.563   3.719
 6113SOL     OW19237   2.833   5.387   1.347
 6113SOL    HW119238   2.739   5.408   1.372
 6113SOL    HW219239   2.855   5.429   1.259
 6114SOL     OW19240   4.709   3.448   1.779
 6114SOL    HW119241   4.732   3.400   1.694
 6114SOL    HW219242   4.615   3.480   1.774
 6115SOL     OW19243   6.484   0.980   5.464
 6115SOL    HW119244   6.560   0.971   5.400
 6115SOL    HW219245   6.482   1.073   5.500
 6116SOL     OW19246   6.741   3.377   0.214
 6116SOL    HW119247   6.688   3.356   0.297
 6116SOL    HW219248   6.700   3.329   0.136
 6117SOL     OW19249   2.211   2.364   1.272
 6117SOL    HW119250   2.256   2.445   1.234
 6117SOL    HW219251   2.271   2.285   1.263
 6118SOL     OW19252   5.808   1.130   1.718
 6118SOL    HW119253   5.778   1.035   1.726
 6118SOL    HW219254   5.902   1.133   1.682
 6119SOL     OW19255   0.460   1.189   6.466
 6119SOL    HW119256   0.543   1.245   6.475
 6119SOL    HW219257   0.481   1.109   6.409
 6120SOL     OW19258   2.666   1.036   3.972
 6120SOL    HW119259   2.678   0.943   4.007
 6120SOL    HW219260   2.724   1.099   4.023
 6121SOL     OW19261   2.975   1.588   5.185
 6121SOL    HW119262   2.990   1.619   5.091
 6121SOL    HW219263   2.885   1.618   5.216
 6122SOL     OW19264   4.866   4.592   4.877
 6122SOL    HW119265   4.891   4.611   4.973
 6122SOL    HW219266   4.767   4.595   4.868
 6123SOL     OW19267   6.610   1.683   5.067
 6123SOL    HW119268   6.657   1.715   5.149
 6123SOL    HW219269   6.596   1.759   5.004
 6124SOL     OW19270   2.543   6.517   3.933
 6124SOL    HW119271   2.522   6.426   3.968
 6124SOL    HW219272   2.495   6.586   3.987
 6125SOL     OW19273   3.834   1.435   5.437
 6125SOL    HW119274   3.762   1.428   5.368
 6125SOL    HW219275   3.812   1.508   5.501
 6126SOL     OW19276   5.890   2.770   6.466
 6126SOL    HW119277   5.831   2.777   6.546
 6126SOL    HW219278   5.945   2.853   6.458
 6127SOL     OW19279   5.858   2.342   2.743
 6127SOL    HW119280   5.892   2.265   2.797
 6127SOL    HW219281   5.759   2.348   2.754
 6128SOL     OW19282   5.850   5.824   5.793
 6128SOL    HW119283   5.841   5.836   5.694
 6128SOL    HW219284   5.767   5.783   5.830
 6129SOL     OW19285   2.460   5.592   2.883
 6129SOL    HW119286   2.484   5.641   2.967
 6129SOL    HW219287   2.468   5.494   2.898
 6130SOL     OW19288   5.956   3.316   0.196
 6130SOL    HW119289   5.866   3.290   0.161
 6130SOL    HW219290   5.971   3.273   0.285
 6131SOL     OW19291   6.682   2.671   3.103
 6131SOL    HW119292   6.682   2.771   3.108
 6131SOL    HW219293   6.633   2.642   3.021
 6132SOL     OW19294   4.341   6.367   6.359
 6132SOL    HW119295   4.251   6.412   6.359
 6132SOL    HW219296   4.336   6.285   6.416
 6133SOL     OW19297   0.762   2.291   3.649
 6133SOL    HW119298   0.764   2.305   3.550
 6133SOL    HW219299   0.811   2.366   3.694
 6134SOL     OW19300   0.175   6.267   5.697
 6134SOL    HW119301   0.163   6.265   5.598
 6134SOL    HW219302   0.195   6.360   5.726
 6135SOL     OW19303   6.272   6.380   0.413
 6135SOL    HW119304   6.305   6.454   0.472
 6135SOL    HW219305   6.346   6.351   0.352
 6136SOL     OW19306   1.206   2.121   3.530
 6136SOL    HW119307   1.274   2.170   3.477
 6136SOL    HW219308   1.187   2.171   3.615
 6137SOL     OW19309   6.694   5.144   1.077
 6137SOL    HW119310   6.676   5.107   0.985
 6137SOL    HW219311   6.678   5.072   1.145
 6138SOL     OW19312   5.397   0.613   1.748
 6138SOL    HW119313   5.347   0.533   1.714
 6138SOL    HW219314   5.495   0.592   1.752
 6139SOL     OW19315   1.733   1.865   5.409
 6139SOL    HW119316   1.789   1.883   5.328
 6139SOL    HW219317   1.769   1.916   5.487
 6140SOL     OW19318   2.212   0.355   3.235
 6140SOL    HW119319   2.118   0.387   3.234
 6140SOL    HW219320   2.221   0.278   3.298
 6141SOL     OW19321   1.086   0.776   0.127
 6141SOL    HW119322   1.059   0.833   0.050
 6141SOL    HW219323   1.004   0.750   0.179
 6142SOL     OW19324   0.248   0.351   1.423
 6142SOL    HW119325   0.155   0.340   1.387
 6142SOL    HW219326   0.312   0.360   1.347
 6143SOL     OW19327   0.835   3.248   5.515
 6143SOL    HW119328   0.859   3.153   5.535
 6143SOL    HW219329   0.894   3.309   5.569
 6144SOL     OW19330   3.399   5.715   2.841
 6144SOL    HW119331   3.457   5.795   2.832
 6144SOL    HW219332   3.428   5.661   2.921
 6145SOL     OW19333   5.065   3.084   4.041
 6145SOL    HW119334   5.020   3.019   3.981
 6145SOL    HW219335   5.142   3.126   3.994
 6146SOL     OW19336   6.068   0.500   5.267
 6146SOL    HW119337   6.035   0.415   5.309
 6146SOL    HW219338   6.109   0.558   5.338
 6147SOL     OW19339   1.275   2.042   5.930
 6147SOL    HW119340   1.341   2.020   5.859
 6147SOL    HW219341   1.266   2.141   5.938
 6148SOL     OW19342   3.822   4.972   0.079
 6148SOL    HW119343   3.797   4.927   7.015
 6148SOL    HW219344   3.908   5.021   0.067
 6149SOL     OW19345   4.058   1.865   1.187
 6149SOL    HW119346   4.099   1.931   1.250
 6149SOL    HW219347   4.012   1.914   1.113
 6150SOL     OW19348   0.340   4.858   4.530
 6150SOL    HW119349   0.379   4.778   4.484
 6150SOL    HW219350   0.244   4.840   4.553
 6151SOL     OW19351   3.822   4.876   3.021
 6151SOL    HW119352   3.856   4.970   3.014
 6151SOL    HW219353   3.865   4.820   2.949
 6152SOL     OW19354   0.603   3.786   2.918
 6152SOL    HW119355   0.548   3.866   2.894
 6152SOL    HW219356   0.645   3.749   2.835
 6153SOL     OW19357   5.119   6.335   0.681
 6153SOL    HW119358   5.215   6.311   0.668
 6153SOL    HW219359   5.089   6.397   0.608
 6154SOL     OW19360   4.512   4.469   2.792
 6154SOL    HW119361   4.427   4.497   2.748
 6154SOL    HW219362   4.571   4.548   2.806
 6155SOL     OW19363   1.874   1.191   3.785
 6155SOL    HW119364   1.805   1.259   3.809
 6155SOL    HW219365   1.891   1.133   3.865
 6156SOL     OW19366   4.768   4.187   2.067
 6156SOL    HW119367   4.816   4.269   2.099
 6156SOL    HW219368   4.670   4.204   2.069
 6157SOL     OW19369   0.571   3.121   1.112
 6157SOL    HW119370   0.499   3.052   1.111
 6157SOL    HW219371   0.550   3.190   1.181
 6158SOL     OW19372   2.891   0.921   5.953
 6158SOL    HW119373   2.885   0.955   5.859
 6158SOL    HW219374   2.888   0.998   6.016
 6159SOL     OW19375   6.030   2.436   0.217
 6159SOL    HW119376   6.018   2.337   0.230
 6159SOL    HW219377   6.091   2.471   0.287
 6160SOL     OW19378   0.896   0.022   1.192
 6160SOL    HW119379   0.990   7.021   1.216
 6160SOL    HW219380   0.844   0.043   1.274
 6161SOL     OW19381   5.154   4.105   6.503
 6161SOL    HW119382   5.172   4.168   6.427
 6161SOL    HW219383   5.197   4.017   6.483
 6162SOL     OW19384   6.006   5.567   1.077
 6162SOL    HW119385   5.936   5.503   1.109
 6162SOL    HW219386   6.093   5.519   1.068
 6163SOL     OW19387   6.257   5.921   3.153
 6163SOL    HW119388   6.193   5.992   3.181
 6163SOL    HW219389   6.226   5.879   3.068
 6164SOL     OW19390   3.438   3.741   4.297
 6164SOL    HW119391   3.468   3.808   4.230
 6164SOL    HW219392   3.338   3.741   4.302
 6165SOL     OW19393   3.870   1.045   6.851
 6165SOL    HW119394   3.782   1.090   6.845
 6165SOL    HW219395   3.863   0.952   6.814
 6166SOL     OW19396   3.540   0.973   5.684
 6166SOL    HW119397   3.587   0.917   5.615
 6166SOL    HW219398   3.574   1.067   5.679
 6167SOL     OW19399   1.649   3.330   3.069
 6167SOL    HW119400   1.685   3.269   2.999
 6167SOL    HW219401   1.641   3.281   3.156
 6168SOL     OW19402   0.424   3.350   4.171
 6168SOL    HW119403   0.504   3.370   4.114
 6168SOL    HW219404   0.372   3.435   4.185
 6169SOL     OW19405   2.955   0.621   0.392
 6169SOL    HW119406   3.014   0.559   0.340
 6169SOL    HW219407   2.899   0.567   0.455
 6170SOL     OW19408   3.000   4.789   1.450
 6170SOL    HW119409   3.011   4.727   1.527
 6170SOL    HW219410   2.904   4.814   1.441
 6171SOL     OW19411   2.381   4.258   1.510
 6171SOL    HW119412   2.295   4.273   1.559
 6171SOL    HW219413   2.458   4.288   1.567
 6172SOL     OW19414   2.885   5.291   1.766
 6172SOL    HW119415   2.809   5.251   1.716
 6172SOL    HW219416   2.932   5.219   1.818
 6173SOL     OW19417   1.381   5.542   2.251
 6173SOL    HW119418   1.453   5.551   2.320
 6173SOL    HW219419   1.314   5.616   2.263
 6174SOL     OW19420   5.434   4.180   1.817
 6174SOL    HW119421   5.417   4.098   1.871
 6174SOL    HW219422   5.438   4.260   1.877
 6175SOL     OW19423   4.749   0.386   3.914
 6175SOL    HW119424   4.732   0.468   3.969
 6175SOL    HW219425   4.757   0.306   3.975
 6176SOL     OW19426   5.419   3.287   7.001
 6176SOL    HW119427   5.517   3.298   6.984
 6176SOL    HW219428   5.384   3.369   0.024
 6177SOL     OW19429   6.318   2.971   2.319
 6177SOL    HW119430   6.251   2.897   2.309
 6177SOL    HW219431   6.351   2.972   2.414
 6178SOL     OW19432   6.161   3.425   1.162
 6178SOL    HW119433   6.092   3.460   1.225
 6178SOL    HW219434   6.124   3.425   1.069
 6179SOL     OW19435   0.365   2.081   4.956
 6179SOL    HW119436   0.396   2.158   4.900
 6179SOL    HW219437   0.334   2.007   4.896
 6180SOL     OW19438   3.635   0.121   5.895
 6180SOL    HW119439   3.697   0.159   5.827
 6180SOL    HW219440   3.645   0.172   5.981
 6181SOL     OW19441   4.261   5.840   0.094
 6181SOL    HW119442   4.167   5.822   0.124
 6181SOL    HW219443   4.305   5.754   0.071
 6182SOL     OW19444   4.968   6.994   5.913
 6182SOL    HW119445   4.976   6.973   5.815
 6182SOL    HW219446   4.872   6.991   5.940
 6183SOL     OW19447   3.429   0.374   2.671
 6183SOL    HW119448   3.408   0.344   2.764
 6183SOL    HW219449   3.394   0.307   2.606
 6184SOL     OW19450   6.086   0.016   6.231
 6184SOL    HW119451   6.153   0.078   6.192
 6184SOL    HW219452   6.077   6.957   6.172
 6185SOL     OW19453   2.033   2.815   6.795
 6185SOL    HW119454   2.039   2.814   6.895
 6185SOL    HW219455   2.108   2.761   6.756
 6186SOL     OW19456   4.819   0.698   4.360
 6186SOL    HW119457   4.857   0.790   4.352
 6186SOL    HW219458   4.892   0.634   4.383
 6187SOL     OW19459   3.122   5.279   4.500
 6187SOL    HW119460   3.177   5.324   4.571
 6187SOL    HW219461   3.132   5.180   4.508
 6188SOL     OW19462   3.181   7.008   1.493
 6188SOL    HW119463   3.125   6.993   1.574
 6188SOL    HW219464   3.157   6.941   1.423
 6189SOL     OW19465   5.081   4.640   3.104
 6189SOL    HW119466   5.035   4.555   3.079
 6189SOL    HW219467   5.043   4.716   3.051
 6190SOL     OW19468   5.123   2.616   6.019
 6190SOL    HW119469   5.110   2.711   5.990
 6190SOL    HW219470   5.210   2.607   6.066
 6191SOL     OW19471   6.745   1.820   6.535
 6191SOL    HW119472   6.688   1.829   6.617
 6191SOL    HW219473   6.788   1.729   6.534
 6192SOL     OW19474   3.515   2.310   0.728
 6192SOL    HW119475   3.594   2.318   0.788
 6192SOL    HW219476   3.540   2.254   0.649
 6193SOL     OW19477   6.568   0.148   1.466
 6193SOL    HW119478   6.530   0.212   1.533
 6193SOL    HW219479   6.558   0.054   1.499
 6194SOL     OW19480   2.114   0.279   0.557
 6194SOL    HW119481   2.134   0.303   0.462
 6194SOL    HW219482   2.037   0.333   0.589
 6195SOL     OW19483   2.115   6.562   5.452
 6195SOL    HW119484   2.061   6.517   5.382
 6195SOL    HW219485   2.064   6.639   5.490
 6196SOL     OW19486   0.598   2.043   5.686
 6196SOL    HW119487   0.519   2.003   5.731
 6196SOL    HW219488   0.613   2.136   5.720
 6197SOL     OW19489   2.346   2.983   1.154
 6197SOL    HW119490   2.413   3.055   1.173
 6197SOL    HW219491   2.280   2.979   1.229
 6198SOL     OW19492   3.595   5.433   2.501
 6198SOL    HW119493   3.502   5.453   2.531
 6198SOL    HW219494   3.616   5.337   2.520
 6199SOL     OW19495   0.620   0.616   6.353
 6199SOL    HW119496   0.593   0.526   6.318
 6199SOL    HW219497   0.590   0.624   6.448
 6200SOL     OW19498   3.959   0.218   5.942
 6200SOL    HW119499   3.863   0.212   5.973
 6200SOL    HW219500   4.007   0.285   5.999
 6201SOL     OW19501   2.063   4.683   4.199
 6201SOL    HW119502   2.042   4.748   4.126
 6201SOL    HW219503   2.155   4.701   4.235
 6202SOL     OW19504   2.657   2.474   1.280
 6202SOL    HW119505   2.662   2.403   1.209
 6202SOL    HW219506   2.591   2.544   1.253
 6203SOL     OW19507   5.457   2.098   4.486
 6203SOL    HW119508   5.517   2.061   4.415
 6203SOL    HW219509   5.444   2.030   4.558
 6204SOL     OW19510   1.312   6.339   6.066
 6204SOL    HW119511   1.235   6.311   6.009
 6204SOL    HW219512   1.288   6.421   6.117
 6205SOL     OW19513   5.436   6.228   6.713
 6205SOL    HW119514   5.344   6.263   6.694
 6205SOL    HW219515   5.502   6.303   6.709
 6206SOL     OW19516   5.181   6.996   3.601
 6206SOL    HW119517   5.137   0.016   3.522
 6206SOL    HW219518   5.114   6.941   3.651
 6207SOL     OW19519   2.468   4.449   4.210
 6207SOL    HW119520   2.502   4.532   4.253
 6207SOL    HW219521   2.496   4.448   4.114
 6208SOL     OW19522   5.781   5.618   5.257
 6208SOL    HW119523   5.764   5.544   5.193
 6208SOL    HW219524   5.779   5.706   5.208
 6209SOL     OW19525   2.609   4.891   1.051
 6209SOL    HW119526   2.565   4.923   0.968
 6209SOL    HW219527   2.546   4.834   1.103
 6210SOL     OW19528   6.790   5.181   3.038
 6210SOL    HW119529   6.718   5.141   2.981
 6210SOL    HW219530   6.775   5.155   3.133
 6211SOL     OW19531   2.368   0.752   5.012
 6211SOL    HW119532   2.402   0.839   5.049
 6211SOL    HW219533   2.343   0.765   4.916
 6212SOL     OW19534   6.523   0.466   3.482
 6212SOL    HW119535   6.604   0.419   3.444
 6212SOL    HW219536   6.519   0.559   3.446
 6213SOL     OW19537   6.699   0.288   0.282
 6213SOL    HW119538   6.747   0.281   0.194
 6213SOL    HW219539   6.673   0.383   0.298
 6214SOL     OW19540   5.203   4.876   2.106
 6214SOL    HW119541   5.126   4.888   2.169
 6214SOL    HW219542   5.289   4.874   2.157
 6215SOL     OW19543   2.699   4.862   1.432
 6215SOL    HW119544   2.676   4.898   1.342
 6215SOL    HW219545   2.724   4.938   1.493
 6216SOL     OW19546   6.525   2.324   2.634
 6216SOL    HW119547   6.585   2.400   2.659
 6216SOL    HW219548   6.431   2.357   2.629
 6217SOL     OW19549   4.827   1.690   1.216
 6217SOL    HW119550   4.844   1.704   1.314
 6217SOL    HW219551   4.886   1.751   1.163
 6218SOL     OW19552   4.512   5.153   3.936
 6218SOL    HW119553   4.473   5.189   3.851
 6218SOL    HW219554   4.612   5.158   3.931
 6219SOL     OW19555   0.031   1.022   4.500
 6219SOL    HW119556   0.083   1.106   4.521
 6219SOL    HW219557   6.998   1.036   4.418
 6220SOL     OW19558   1.562   3.418   5.484
 6220SOL    HW119559   1.465   3.423   5.505
 6220SOL    HW219560   1.601   3.336   5.527
 6221SOL     OW19561   4.548   4.978   4.585
 6221SOL    HW119562   4.511   4.995   4.676
 6221SOL    HW219563   4.646   4.961   4.591
 6222SOL     OW19564   0.181   1.555   1.349
 6222SOL    HW119565   0.187   1.519   1.256
 6222SOL    HW219566   0.245   1.632   1.359
 6223SOL     OW19567   5.056   4.085   4.239
 6223SOL    HW119568   4.995   4.006   4.249
 6223SOL    HW219569   5.117   4.071   4.162
 6224SOL     OW19570   2.635   0.285   4.643
 6224SOL    HW119571   2.545   0.276   4.599
 6224SOL    HW219572   2.698   0.330   4.580
 6225SOL     OW19573   3.662   2.175   6.885
 6225SOL    HW119574   3.707   2.175   6.975
 6225SOL    HW219575   3.695   2.097   6.832
 6226SOL     OW19576   6.769   6.721   4.298
 6226SOL    HW119577   6.777   6.809   4.345
 6226SOL    HW219578   6.849   6.707   4.240
 6227SOL     OW19579   3.149   4.427   6.612
 6227SOL    HW119580   3.090   4.355   6.575
 6227SOL    HW219581   3.215   4.387   6.675
 6228SOL     OW19582   0.056   2.193   2.828
 6228SOL    HW119583   7.015   2.136   2.776
 6228SOL    HW219584   0.144   2.196   2.782
 6229SOL     OW19585   1.680   2.128   1.847
 6229SOL    HW119586   1.649   2.036   1.825
 6229SOL    HW219587   1.600   2.187   1.860
 6230SOL     OW19588   2.049   2.028   4.395
 6230SOL    HW119589   2.071   2.114   4.350
 6230SOL    HW219590   1.955   2.032   4.429
 6231SOL     OW19591   6.980   5.219   1.549
 6231SOL    HW119592   6.882   5.211   1.567
 6231SOL    HW219593   7.009   5.314   1.564
 6232SOL     OW19594   0.865   1.035   0.075
 6232SOL    HW119595   0.920   1.112   0.043
 6232SOL    HW219596   0.782   1.070   0.120
 6233SOL     OW19597   4.434   0.888   6.559
 6233SOL    HW119598   4.499   0.822   6.595
 6233SOL    HW219599   4.397   0.943   6.634
 6234SOL     OW19600   1.983   2.577   3.707
 6234SOL    HW119601   2.006   2.648   3.774
 6234SOL    HW219602   1.899   2.603   3.659
 6235SOL     OW19603   2.486   6.053   2.442
 6235SOL    HW119604   2.442   6.031   2.529
 6235SOL    HW219605   2.575   6.095   2.459
 6236SOL     OW19606   6.917   4.003   6.817
 6236SOL    HW119607   7.012   3.974   6.830
 6236SOL    HW219608   6.906   4.096   6.850
 6237SOL     OW19609   4.044   6.140   6.102
 6237SOL    HW119610   3.989   6.057   6.094
 6237SOL    HW219611   4.030   6.182   6.191
 6238SOL     OW19612   5.434   3.640   0.325
 6238SOL    HW119613   5.461   3.687   0.409
 6238SOL    HW219614   5.455   3.543   0.333
 6239SOL     OW19615   2.706   6.973   3.331
 6239SOL    HW119616   2.744   6.892   3.376
 6239SOL    HW219617   2.731   0.033   3.382
 6240SOL     OW19618   2.426   3.587   0.337
 6240SOL    HW119619   2.422   3.630   0.427
 6240SOL    HW219620   2.369   3.505   0.336
 6241SOL     OW19621   4.914   0.079   1.515
 6241SOL    HW119622   4.833   0.021   1.527
 6241SOL    HW219623   4.893   0.152   1.450
 6242SOL     OW19624   3.971   2.132   3.203
 6242SOL    HW119625   3.926   2.145   3.114
 6242SOL    HW219626   3.911   2.168   3.275
 6243SOL     OW19627   6.236   5.743   2.930
 6243SOL    HW119628   6.249   5.693   3.016
 6243SOL    HW219629   6.303   5.711   2.863
 6244SOL     OW19630   1.728   1.840   2.262
 6244SOL    HW119631   1.810   1.791   2.288
 6244SOL    HW219632   1.658   1.775   2.232
 6245SOL     OW19633   1.908   4.086   0.788
 6245SOL    HW119634   1.875   4.069   0.695
 6245SOL    HW219635   1.996   4.040   0.801
 6246SOL     OW19636   4.397   0.079   0.348
 6246SOL    HW119637   4.485   0.106   0.386
 6246SOL    HW219638   4.348   0.022   0.415
 6247SOL     OW19639   6.868   6.766   2.874
 6247SOL    HW119640   6.819   6.827   2.936
 6247SOL    HW219641   6.966   6.782   2.881
 6248SOL     OW19642   1.118   5.539   0.791
 6248SOL    HW119643   1.146   5.460   0.737
 6248SOL    HW219644   1.062   5.508   0.868
 6249SOL     OW19645   6.576   3.541   6.393
 6249SOL    HW119646   6.648   3.529   6.324
 6249SOL    HW219647   6.501   3.478   6.374
 6250SOL     OW19648   6.795   4.780   5.708
 6250SOL    HW119649   6.725   4.726   5.754
 6250SOL    HW219650   6.803   4.869   5.754
 6251SOL     OW19651   4.610   1.518   1.185
 6251SOL    HW119652   4.689   1.578   1.179
 6251SOL    HW219653   4.532   1.561   1.139
 6252SOL     OW19654   2.039   6.404   5.215
 6252SOL    HW119655   2.035   6.304   5.217
 6252SOL    HW219656   2.086   6.433   5.131
 6253SOL     OW19657   2.709   3.977   1.483
 6253SOL    HW119658   2.698   4.053   1.548
 6253SOL    HW219659   2.671   3.894   1.523
 6254SOL     OW19660   5.594   0.182   0.197
 6254SOL    HW119661   5.640   0.111   0.251
 6254SOL    HW219662   5.662   0.236   0.149
 6255SOL     OW19663   6.905   2.951   3.346
 6255SOL    HW119664   6.895   3.001   3.432
 6255SOL    HW219665   6.998   2.963   3.311
 6256SOL     OW19666   4.100   5.136   4.100
 6256SOL    HW119667   4.191   5.171   4.122
 6256SOL    HW219668   4.099   5.103   4.005
 6257SOL     OW19669   4.156   2.831   6.846
 6257SOL    HW119670   4.177   2.735   6.826
 6257SOL    HW219671   4.120   2.875   6.764
 6258SOL     OW19672   4.409   2.375   2.911
 6258SOL    HW119673   4.369   2.368   3.002
 6258SOL    HW219674   4.488   2.437   2.914
 6259SOL     OW19675   3.053   1.959   1.697
 6259SOL    HW119676   3.097   2.012   1.625
 6259SOL    HW219677   3.043   2.016   1.779
 6260SOL     OW19678   3.162   4.392   1.140
 6260SOL    HW119679   3.147   4.316   1.078
 6260SOL    HW219680   3.135   4.478   1.096
 6261SOL     OW19681   4.707   6.636   6.415
 6261SOL    HW119682   4.760   6.662   6.334
 6261SOL    HW219683   4.738   6.688   6.494
 6262SOL     OW19684   0.845   6.099   5.150
 6262SOL    HW119685   0.775   6.153   5.102
 6262SOL    HW219686   0.922   6.084   5.088
 6263SOL     OW19687   5.912   1.200   1.464
 6263SOL    HW119688   5.991   1.230   1.518
 6263SOL    HW219689   5.944   1.153   1.382
 6264SOL     OW19690   2.581   1.623   0.303
 6264SOL    HW119691   2.639   1.650   0.380
 6264SOL    HW219692   2.637   1.620   0.219
 6265SOL     OW19693   5.716   3.492   0.484
 6265SOL    HW119694   5.648   3.559   0.516
 6265SOL    HW219695   5.807   3.525   0.506
 6266SOL     OW19696   2.504   0.357   2.447
 6266SOL    HW119697   2.591   0.308   2.444
 6266SOL    HW219698   2.442   0.311   2.510
 6267SOL     OW19699   2.554   0.033   6.991
 6267SOL    HW119700   2.601   0.121   6.989
 6267SOL    HW219701   2.564   7.013   0.060
 6268SOL     OW19702   2.013   5.811   2.786
 6268SOL    HW119703   2.083   5.776   2.847
 6268SOL    HW219704   1.932   5.839   2.838
 6269SOL     OW19705   6.095   4.577   6.993
 6269SOL    HW119706   6.099   4.569   0.071
 6269SOL    HW219707   6.163   4.517   6.952
 6270SOL     OW19708   0.441   1.107   3.961
 6270SOL    HW119709   0.456   1.058   3.875
 6270SOL    HW219710   0.478   1.053   4.037
 6271SOL     OW19711   6.599   1.800   1.178
 6271SOL    HW119712   6.611   1.898   1.190
 6271SOL    HW219713   6.559   1.762   1.262
 6272SOL     OW19714   2.320   2.546   3.787
 6272SOL    HW119715   2.276   2.628   3.752
 6272SOL    HW219716   2.263   2.504   3.858
 6273SOL     OW19717   4.429   0.740   2.513
 6273SOL    HW119718   4.395   0.652   2.481
 6273SOL    HW219719   4.478   0.727   2.599
 6274SOL     OW19720   2.683   6.112   6.816
 6274SOL    HW119721   2.737   6.030   6.798
 6274SOL    HW219722   2.731   6.171   6.881
 6275SOL     OW19723   3.384   0.913   4.903
 6275SOL    HW119724   3.415   1.008   4.909
 6275SOL    HW219725   3.293   0.905   4.945
 6276SOL     OW19726   1.231   5.554   3.759
 6276SOL    HW119727   1.258   5.590   3.848
 6276SOL    HW219728   1.305   5.569   3.694
 6277SOL     OW19729   5.824   3.013   3.916
 6277SOL    HW119730   5.891   2.996   3.844
 6277SOL    HW219731   5.849   2.964   3.999
 6278SOL     OW19732   4.450   0.707   3.635
 6278SOL    HW119733   4.381   0.715   3.707
 6278SOL    HW219734   4.412   0.739   3.549
 6279SOL     OW19735   4.791   1.974   6.561
 6279SOL    HW119736   4.788   2.026   6.647
 6279SOL    HW219737   4.802   1.877   6.581
 6280SOL     OW19738   0.902   5.422   6.125
 6280SOL    HW119739   0.865   5.513   6.106
 6280SOL    HW219740   0.994   5.414   6.087
 6281SOL     OW19741   3.054   6.604   4.521
 6281SOL    HW119742   3.064   6.505   4.511
 6281SOL    HW219743   3.058   6.628   4.618
 6282SOL     OW19744   0.918   0.050   4.029
 6282SOL    HW119745   0.892   0.088   3.940
 6282SOL    HW219746   0.850   7.002   4.056
 6283SOL     OW19747   1.201   3.237   5.124
 6283SOL    HW119748   1.117   3.249   5.176
 6283SOL    HW219749   1.280   3.248   5.185
 6284SOL     OW19750   2.343   4.774   6.634
 6284SOL    HW119751   2.399   4.824   6.569
 6284SOL    HW219752   2.331   4.680   6.602
 6285SOL     OW19753   1.974   4.170   2.976
 6285SOL    HW119754   1.996   4.238   2.907
 6285SOL    HW219755   1.880   4.138   2.962
 6286SOL     OW19756   6.400   6.244   4.448
 6286SOL    HW119757   6.485   6.287   4.478
 6286SOL    HW219758   6.420   6.156   4.405
 6287SOL     OW19759   3.647   4.920   2.710
 6287SOL    HW119760   3.589   4.874   2.777
 6287SOL    HW219761   3.719   4.970   2.757
 6288SOL     OW19762   5.767   3.125   1.102
 6288SOL    HW119763   5.777   3.031   1.068
 6288SOL    HW219764   5.671   3.145   1.119
 6289SOL     OW19765   1.090   6.709   2.643
 6289SOL    HW119766   1.049   6.669   2.560
 6289SOL    HW219767   1.068   6.807   2.646
 6290SOL     OW19768   5.972   4.241   3.468
 6290SOL    HW119769   5.875   4.244   3.491
 6290SOL    HW219770   6.026   4.262   3.549
 6291SOL     OW19771   3.731   4.148   3.517
 6291SOL    HW119772   3.793   4.222   3.491
 6291SOL    HW219773   3.695   4.104   3.434
 6292SOL     OW19774   6.943   1.393   1.971
 6292SOL    HW119775   7.009   1.341   1.917
 6292SOL    HW219776   6.902   1.333   2.039
 6293SOL     OW19777   5.618   5.420   6.617
 6293SOL    HW119778   5.579   5.485   6.552
 6293SOL    HW219779   5.691   5.463   6.668
 6294SOL     OW19780   3.446   6.088   1.926
 6294SOL    HW119781   3.423   6.057   2.018
 6294SOL    HW219782   3.479   6.011   1.871
 6295SOL     OW19783   0.044   5.773   5.613
 6295SOL    HW119784   0.061   5.679   5.584
 6295SOL    HW219785   0.020   5.774   5.710
 6296SOL     OW19786   6.363   1.313   3.209
 6296SOL    HW119787   6.296   1.383   3.183
 6296SOL    HW219788   6.315   1.230   3.236
 6297SOL     OW19789   5.559   0.813   5.580
 6297SOL    HW119790   5.513   0.731   5.613
 6297SOL    HW219791   5.594   0.797   5.488
 6298SOL     OW19792   6.574   1.855   4.410
 6298SOL    HW119793   6.530   1.908   4.337
 6298SOL    HW219794   6.505   1.828   4.478
 6299SOL     OW19795   6.734   3.273   0.672
 6299SOL    HW119796   6.776   3.353   0.716
 6299SOL    HW219797   6.760   3.191   0.722
 6300SOL     OW19798   5.592   1.472   3.176
 6300SOL    HW119799   5.679   1.490   3.130
 6300SOL    HW219800   5.603   1.397   3.241
 6301SOL     OW19801   3.868   0.743   0.901
 6301SOL    HW119802   3.833   0.651   0.882
 6301SOL    HW219803   3.956   0.736   0.949
 6302SOL     OW19804   6.184   0.631   2.752
 6302SOL    HW119805   6.249   0.704   2.732
 6302SOL    HW219806   6.102   0.643   2.697
 6303SOL     OW19807   2.556   5.868   4.744
 6303SOL    HW119808   2.593   5.801   4.680
 6303SOL    HW219809   2.457   5.858   4.749
 6304SOL     OW19810   3.850   0.998   4.814
 6304SOL    HW119811   3.902   0.916   4.836
 6304SOL    HW219812   3.821   0.995   4.718
 6305SOL     OW19813   5.497   0.805   2.448
 6305SOL    HW119814   5.586   0.838   2.416
 6305SOL    HW219815   5.443   0.772   2.371
 6306SOL     OW19816   6.025   2.571   4.017
 6306SOL    HW119817   6.071   2.643   3.965
 6306SOL    HW219818   6.090   2.500   4.042
 6307SOL     OW19819   1.811   4.742   0.474
 6307SOL    HW119820   1.765   4.730   0.563
 6307SOL    HW219821   1.909   4.725   0.484
 6308SOL     OW19822   4.165   2.166   6.513
 6308SOL    HW119823   4.104   2.134   6.441
 6308SOL    HW219824   4.183   2.264   6.501
 6309SOL     OW19825   5.686   2.053   4.936
 6309SOL    HW119826   5.697   2.150   4.915
 6309SOL    HW219827   5.649   2.042   5.028
 6310SOL     OW19828   6.869   5.563   4.683
 6310SOL    HW119829   6.890   5.623   4.605
 6310SOL    HW219830   6.837   5.475   4.650
 6311SOL     OW19831   5.791   6.889   4.268
 6311SOL    HW119832   5.713   6.925   4.217
 6311SOL    HW219833   5.773   6.899   4.366
 6312SOL     OW19834   5.353   4.144   5.772
 6312SOL    HW119835   5.312   4.149   5.863
 6312SOL    HW219836   5.450   4.166   5.777
 6313SOL     OW19837   2.140   5.084   3.820
 6313SOL    HW119838   2.071   5.034   3.768
 6313SOL    HW219839   2.113   5.180   3.828
 6314SOL     OW19840   1.196   0.598   3.432
 6314SOL    HW119841   1.248   0.578   3.514
 6314SOL    HW219842   1.202   0.695   3.411
 6315SOL     OW19843   2.108   3.838   0.438
 6315SOL    HW119844   2.145   3.924   0.474
 6315SOL    HW219845   2.144   3.823   0.346
 6316SOL     OW19846   4.329   1.045   5.149
 6316SOL    HW119847   4.346   1.143   5.136
 6316SOL    HW219848   4.407   0.993   5.116
 6317SOL     OW19849   6.447   5.157   4.656
 6317SOL    HW119850   6.438   5.219   4.734
 6317SOL    HW219851   6.475   5.067   4.688
 6318SOL     OW19852   1.766   1.921   4.460
 6318SOL    HW119853   1.784   1.998   4.522
 6318SOL    HW219854   1.675   1.884   4.479
 6319SOL     OW19855   0.965   2.065   2.849
 6319SOL    HW119856   0.943   1.980   2.803
 6319SOL    HW219857   1.028   2.118   2.792
 6320SOL     OW19858   0.511   2.280   2.670
 6320SOL    HW119859   0.463   2.360   2.634
 6320SOL    HW219860   0.593   2.309   2.720
 6321SOL     OW19861   2.679   3.603   5.918
 6321SOL    HW119862   2.594   3.575   5.873
 6321SOL    HW219863   2.753   3.603   5.851
 6322SOL     OW19864   2.662   0.290   0.028
 6322SOL    HW119865   2.697   0.339   0.107
 6322SOL    HW219866   2.588   0.343   7.008
 6323SOL     OW19867   4.067   1.760   1.610
 6323SOL    HW119868   4.166   1.752   1.627
 6323SOL    HW219869   4.045   1.716   1.523
 6324SOL     OW19870   3.510   1.520   6.984
 6324SOL    HW119871   3.495   1.570   0.048
 6324SOL    HW219872   3.605   1.528   6.957
 6325SOL     OW19873   1.538   3.006   2.699
 6325SOL    HW119874   1.566   2.955   2.618
 6325SOL    HW219875   1.547   3.104   2.682
 6326SOL     OW19876   4.664   6.715   1.030
 6326SOL    HW119877   4.596   6.779   0.996
 6326SOL    HW219878   4.651   6.700   1.128
 6327SOL     OW19879   3.662   5.587   5.554
 6327SOL    HW119880   3.711   5.612   5.637
 6327SOL    HW219881   3.563   5.598   5.569
 6328SOL     OW19882   2.520   4.612   0.147
 6328SOL    HW119883   2.518   4.691   0.086
 6328SOL    HW219884   2.582   4.543   0.111
 6329SOL     OW19885   0.353   1.639   2.742
 6329SOL    HW119886   0.359   1.543   2.713
 6329SOL    HW219887   0.326   1.642   2.838
 6330SOL     OW19888   3.604   0.504   0.371
 6330SOL    HW119889   3.699   0.473   0.371
 6330SOL    HW219890   3.597   0.590   0.422
 6331SOL     OW19891   4.929   3.267   1.890
 6331SOL    HW119892   4.863   3.335   1.857
 6331SOL    HW219893   4.880   3.185   1.918
 6332SOL     OW19894   4.936   6.308   1.935
 6332SOL    HW119895   4.902   6.391   1.891
 6332SOL    HW219896   4.861   6.244   1.948
 6333SOL     OW19897   2.119   4.984   3.013
 6333SOL    HW119898   2.090   5.030   2.930
 6333SOL    HW219899   2.066   4.900   3.025
 6334SOL     OW19900   2.394   1.436   2.721
 6334SOL    HW119901   2.363   1.496   2.647
 6334SOL    HW219902   2.399   1.489   2.806
 6335SOL     OW19903   6.913   1.325   6.982
 6335SOL    HW119904   6.940   1.388   0.033
 6335SOL    HW219905   6.994   1.283   6.942
 6336SOL     OW19906   1.306   2.944   4.798
 6336SOL    HW119907   1.244   2.884   4.748
 6336SOL    HW219908   1.370   2.986   4.734
 6337SOL     OW19909   0.484   4.901   4.969
 6337SOL    HW119910   0.406   4.961   4.951
 6337SOL    HW219911   0.566   4.940   4.928
 6338SOL     OW19912   3.714   1.450   4.344
 6338SOL    HW119913   3.703   1.438   4.443
 6338SOL    HW219914   3.744   1.544   4.325
 6339SOL     OW19915   0.388   2.805   4.265
 6339SOL    HW119916   0.311   2.755   4.223
 6339SOL    HW219917   0.360   2.840   4.354
 6340SOL     OW19918   2.739   6.141   4.240
 6340SOL    HW119919   2.704   6.205   4.308
 6340SOL    HW219920   2.832   6.168   4.214
 6341SOL     OW19921   6.415   5.491   2.243
 6341SOL    HW119922   6.345   5.483   2.314
 6341SOL    HW219923   6.473   5.570   2.261
 6342SOL     OW19924   1.332   3.653   0.511
 6342SOL    HW119925   1.309   3.680   0.418
 6342SOL    HW219926   1.336   3.735   0.569
 6343SOL     OW19927   4.630   1.259   0.447
 6343SOL    HW119928   4.648   1.198   0.524
 6343SOL    HW219929   4.568   1.215   0.383
 6344SOL     OW19930   6.025   4.724   4.630
 6344SOL    HW119931   5.966   4.804   4.615
 6344SOL    HW219932   5.968   4.642   4.638
 6345SOL     OW19933   2.018   2.221   1.510
 6345SOL    HW119934   2.050   2.234   1.416
 6345SOL    HW219935   2.097   2.218   1.571
 6346SOL     OW19936   0.840   5.045   4.031
 6346SOL    HW119937   0.927   5.057   3.982
 6346SOL    HW219938   0.764   5.063   3.969
 6347SOL     OW19939   3.138   0.081   0.525
 6347SOL    HW119940   3.202   0.008   0.551
 6347SOL    HW219941   3.045   0.054   0.551
 6348SOL     OW19942   0.493   2.404   3.747
 6348SOL    HW119943   0.515   2.489   3.795
 6348SOL    HW219944   0.571   2.378   3.690
 6349SOL     OW19945   1.343   0.797   0.662
 6349SOL    HW119946   1.255   0.800   0.615
 6349SOL    HW219947   1.416   0.777   0.596
 6350SOL     OW19948   0.042   5.984   3.342
 6350SOL    HW119949   0.099   5.935   3.275
 6350SOL    HW219950   6.993   6.036   3.294
 6351SOL     OW19951   7.001   2.134   3.088
 6351SOL    HW119952   0.009   2.178   3.004
 6351SOL    HW219953   0.006   2.038   3.087
 6352SOL     OW19954   0.162   4.905   2.604
 6352SOL    HW119955   0.203   4.815   2.587
 6352SOL    HW219956   0.065   4.894   2.624
 6353SOL     OW19957   0.321   6.604   1.774
 6353SOL    HW119958   0.265   6.525   1.799
 6353SOL    HW219959   0.402   6.608   1.833
 6354SOL     OW19960   0.116   6.733   4.324
 6354SOL    HW119961   0.202   6.732   4.273
 6354SOL    HW219962   0.133   6.767   4.417
 6355SOL     OW19963   1.346   2.236   1.764
 6355SOL    HW119964   1.262   2.288   1.754
 6355SOL    HW219965   1.333   2.144   1.725
 6356SOL     OW19966   3.616   3.798   1.253
 6356SOL    HW119967   3.689   3.784   1.320
 6356SOL    HW219968   3.652   3.779   1.161
 6357SOL     OW19969   5.496   2.132   1.354
 6357SOL    HW119970   5.476   2.153   1.259
 6357SOL    HW219971   5.488   2.034   1.369
 6358SOL     OW19972   1.441   3.261   5.275
 6358SOL    HW119973   1.477   3.353   5.257
 6358SOL    HW219974   1.517   3.198   5.289
 6359SOL     OW19975   6.740   1.261   6.111
 6359SOL    HW119976   6.662   1.284   6.052
 6359SOL    HW219977   6.791   1.344   6.134
 6360SOL     OW19978   2.302   5.476   4.026
 6360SOL    HW119979   2.375   5.438   3.969
 6360SOL    HW219980   2.281   5.411   4.100
 6361SOL     OW19981   2.803   6.509   5.638
 6361SOL    HW119982   2.808   6.444   5.714
 6361SOL    HW219983   2.894   6.549   5.622
 6362SOL     OW19984   6.438   5.038   6.107
 6362SOL    HW119985   6.465   5.035   6.203
 6362SOL    HW219986   6.351   5.085   6.099
 6363SOL     OW19987   1.078   5.178   3.943
 6363SOL    HW119988   1.156   5.213   3.891
 6363SOL    HW219989   1.040   5.251   4.000
 6364SOL     OW19990   2.271   2.411   6.414
 6364SOL    HW119991   2.338   2.474   6.374
 6364SOL    HW219992   2.294   2.317   6.389
 6365SOL     OW19993   4.229   5.189   2.383
 6365SOL    HW119994   4.135   5.163   2.363
 6365SOL    HW219995   4.268   5.238   2.305
 6366SOL     OW19996   0.690   4.328   5.656
 6366SOL    HW119997   0.632   4.401   5.622
 6366SOL    HW219998   0.777   4.328   5.606
 6367SOL     OW19999   5.502   5.994   2.282
 6367SOL    HW120000   5.430   6.062   2.271
 6367SOL    HW220001   5.544   5.976   2.193
 6368SOL     OW20002   2.674   1.284   2.932
 6368SOL    HW120003   2.701   1.357   2.995
 6368SOL    HW220004   2.589   1.243   2.964
 6369SOL     OW20005   2.252   5.956   4.990
 6369SOL    HW120006   2.328   5.994   5.043
 6369SOL    HW220007   2.194   6.030   4.955
 6370SOL     OW20008   5.260   3.210   2.147
 6370SOL    HW120009   5.172   3.217   2.194
 6370SOL    HW220010   5.267   3.281   2.077
 6371SOL     OW20011   4.218   0.896   3.912
 6371SOL    HW120012   4.218   0.949   3.998
 6371SOL    HW220013   4.305   0.910   3.865
 6372SOL     OW20014   2.718   0.208   2.494
 6372SOL    HW120015   2.805   0.249   2.467
 6372SOL    HW220016   2.716   0.111   2.468
 6373SOL     OW20017   3.463   4.689   0.240
 6373SOL    HW120018   3.497   4.772   0.196
 6373SOL    HW220019   3.538   4.623   0.247
 6374SOL     OW20020   2.850   3.466   3.352
 6374SOL    HW120021   2.850   3.433   3.446
 6374SOL    HW220022   2.845   3.389   3.289
 6375SOL     OW20023   2.232   5.815   1.933
 6375SOL    HW120024   2.241   5.782   1.838
 6375SOL    HW220025   2.259   5.741   1.995
 6376SOL     OW20026   1.098   1.802   5.504
 6376SOL    HW120027   1.190   1.841   5.491
 6376SOL    HW220028   1.073   1.811   5.601
 6377SOL     OW20029   1.122   1.761   4.135
 6377SOL    HW120030   1.193   1.830   4.126
 6377SOL    HW220031   1.050   1.794   4.196
 6378SOL     OW20032   4.290   5.383   3.832
 6378SOL    HW120033   4.259   5.323   3.758
 6378SOL    HW220034   4.219   5.388   3.903
 6379SOL     OW20035   2.609   4.978   2.307
 6379SOL    HW120036   2.619   4.897   2.249
 6379SOL    HW220037   2.584   5.056   2.250
 6380SOL     OW20038   1.444   0.939   6.124
 6380SOL    HW120039   1.456   1.005   6.050
 6380SOL    HW220040   1.457   0.846   6.087
 6381SOL     OW20041   3.562   3.451   2.150
 6381SOL    HW120042   3.544   3.355   2.130
 6381SOL    HW220043   3.476   3.502   2.147
 6382SOL     OW20044   1.455   4.514   4.701
 6382SOL    HW120045   1.438   4.429   4.751
 6382SOL    HW220046   1.515   4.495   4.623
 6383SOL     OW20047   3.399   1.474   3.947
 6383SOL    HW120048   3.472   1.422   3.991
 6383SOL    HW220049   3.414   1.572   3.963
 6384SOL     OW20050   6.504   4.307   1.952
 6384SOL    HW120051   6.540   4.379   2.012
 6384SOL    HW220052   6.549   4.312   1.863
 6385SOL     OW20053   1.452   5.782   5.799
 6385SOL    HW120054   1.547   5.751   5.788
 6385SOL    HW220055   1.419   5.819   5.712
 6386SOL     OW20056   2.283   5.376   2.691
 6386SOL    HW120057   2.217   5.424   2.749
 6386SOL    HW220058   2.363   5.352   2.746
 6387SOL     OW20059   6.206   0.498   5.021
 6387SOL    HW120060   6.201   0.510   5.120
 6387SOL    HW220061   6.113   0.492   4.983
 6388SOL     OW20062   1.746   4.941   3.135
 6388SOL    HW120063   1.667   4.981   3.182
 6388SOL    HW220064   1.715   4.883   3.061
 6389SOL     OW20065   1.420   4.117   1.049
 6389SOL    HW120066   1.519   4.104   1.043
 6389SOL    HW220067   1.376   4.027   1.054
 6390SOL     OW20068   0.895   2.759   4.454
 6390SOL    HW120069   0.847   2.678   4.490
 6390SOL    HW220070   0.886   2.834   4.518
 6391SOL     OW20071   3.854   0.609   0.178
 6391SOL    HW120072   3.804   0.695   0.177
 6391SOL    HW220073   3.846   0.565   0.088
 6392SOL     OW20074   1.297   5.936   4.367
 6392SOL    HW120075   1.395   5.934   4.386
 6392SOL    HW220076   1.247   5.937   4.454
 6393SOL     OW20077   5.115   1.097   6.953
 6393SOL    HW120078   5.215   1.086   6.946
 6393SOL    HW220079   5.073   1.063   6.869
 6394SOL     OW20080   3.287   5.120   1.950
 6394SOL    HW120081   3.250   5.162   1.868
 6394SOL    HW220082   3.324   5.029   1.928
 6395SOL     OW20083   5.679   2.182   6.964
 6395SOL    HW120084   5.591   2.210   6.928
 6395SOL    HW220085   5.749   2.194   6.894
 6396SOL     OW20086   6.372   3.320   6.400
 6396SOL    HW120087   6.418   3.279   6.478
 6396SOL    HW220088   6.275   3.295   6.401
 6397SOL     OW20089   6.039   0.993   0.982
 6397SOL    HW120090   6.134   0.993   1.014
 6397SOL    HW220091   6.037   0.993   0.882
 6398SOL     OW20092   3.880   1.115   1.683
 6398SOL    HW120093   3.930   1.060   1.616
 6398SOL    HW220094   3.849   1.200   1.641
 6399SOL     OW20095   1.458   6.411   6.677
 6399SOL    HW120096   1.530   6.480   6.667
 6399SOL    HW220097   1.405   6.406   6.592
 6400SOL     OW20098   2.936   5.003   4.817
 6400SOL    HW120099   2.939   4.995   4.718
 6400SOL    HW220100   2.869   4.939   4.854
 6401SOL     OW20101   0.874   4.606   4.935
 6401SOL    HW120102   0.778   4.630   4.923
 6401SOL    HW220103   0.891   4.514   4.900
 6402SOL     OW20104   1.782   2.972   3.537
 6402SOL    HW120105   1.838   3.045   3.496
 6402SOL    HW220106   1.752   2.909   3.465
 6403SOL     OW20107   0.995   6.027   1.773
 6403SOL    HW120108   0.977   6.124   1.789
 6403SOL    HW220109   1.055   6.016   1.694
 6404SOL     OW20110   5.185   0.990   2.327
 6404SOL    HW120111   5.170   0.899   2.288
 6404SOL    HW220112   5.113   1.052   2.297
 6405SOL     OW20113   3.608   0.612   1.953
 6405SOL    HW120114   3.651   0.637   1.867
 6405SOL    HW220115   3.547   0.685   1.984
 6406SOL     OW20116   2.738   1.949   3.361
 6406SOL    HW120117   2.830   1.949   3.324
 6406SOL    HW220118   2.741   1.931   3.459
 6407SOL     OW20119   4.617   5.964   6.739
 6407SOL    HW120120   4.589   6.044   6.792
 6407SOL    HW220121   4.696   5.988   6.682
 6408SOL     OW20122   5.755   2.574   0.615
 6408SOL    HW120123   5.740   2.656   0.560
 6408SOL    HW220124   5.673   2.554   0.668
 6409SOL     OW20125   0.842   5.171   1.906
 6409SOL    HW120126   0.916   5.173   1.974
 6409SOL    HW220127   0.755   5.188   1.952
 6410SOL     OW20128   0.560   0.751   1.836
 6410SOL    HW120129   0.545   0.672   1.896
 6410SOL    HW220130   0.479   0.809   1.836
 6411SOL     OW20131   1.345   1.667   3.706
 6411SOL    HW120132   1.256   1.713   3.707
 6411SOL    HW220133   1.335   1.576   3.746
 6412SOL     OW20134   5.521   2.372   4.152
 6412SOL    HW120135   5.460   2.434   4.202
 6412SOL    HW220136   5.607   2.420   4.133
 6413SOL     OW20137   0.702   4.979   0.843
 6413SOL    HW120138   0.697   4.967   0.744
 6413SOL    HW220139   0.685   5.075   0.866
 6414SOL     OW20140   6.154   0.464   3.272
 6414SOL    HW120141   6.060   0.472   3.306
 6414SOL    HW220142   6.171   0.533   3.202
 6415SOL     OW20143   1.487   1.738   2.140
 6415SOL    HW120144   1.416   1.668   2.128
 6415SOL    HW220145   1.447   1.829   2.128
 6416SOL     OW20146   2.652   6.227   6.566
 6416SOL    HW120147   2.651   6.189   6.658
 6416SOL    HW220148   2.633   6.154   6.500
 6417SOL     OW20149   0.401   6.128   4.248
 6417SOL    HW120150   0.461   6.119   4.328
 6417SOL    HW220151   0.454   6.109   4.165
 6418SOL     OW20152   6.718   5.251   2.154
 6418SOL    HW120153   6.619   5.236   2.159
 6418SOL    HW220154   6.765   5.185   2.212
 6419SOL     OW20155   2.504   3.299   0.454
 6419SOL    HW120156   2.525   3.226   0.519
 6419SOL    HW220157   2.409   3.329   0.467
 6420SOL     OW20158   0.746   2.977   6.998
 6420SOL    HW120159   0.810   2.953   6.925
 6420SOL    HW220160   0.726   2.896   0.032
 6421SOL     OW20161   5.472   2.314   0.334
 6421SOL    HW120162   5.561   2.322   0.289
 6421SOL    HW220163   5.484   2.272   0.424
 6422SOL     OW20164   5.753   2.835   2.713
 6422SOL    HW120165   5.845   2.807   2.687
 6422SOL    HW220166   5.719   2.775   2.785
 6423SOL     OW20167   5.495   3.948   0.158
 6423SOL    HW120168   5.401   3.950   0.194
 6423SOL    HW220169   5.494   3.914   0.064
 6424SOL     OW20170   6.346   4.178   5.175
 6424SOL    HW120171   6.258   4.146   5.210
 6424SOL    HW220172   6.331   4.243   5.101
 6425SOL     OW20173   0.748   5.209   1.180
 6425SOL    HW120174   0.661   5.202   1.130
 6425SOL    HW220175   0.738   5.277   1.253
 6426SOL     OW20176   6.338   2.855   3.095
 6426SOL    HW120177   6.365   2.867   3.191
 6426SOL    HW220178   6.323   2.945   3.053
 6427SOL     OW20179   0.547   3.003   5.709
 6427SOL    HW120180   0.473   3.071   5.711
 6427SOL    HW220181   0.633   3.046   5.735
 6428SOL     OW20182   6.204   3.597   4.081
 6428SOL    HW120183   6.215   3.565   4.175
 6428SOL    HW220184   6.238   3.691   4.074
 6429SOL     OW20185   0.948   1.389   5.262
 6429SOL    HW120186   0.886   1.460   5.228
 6429SOL    HW220187   1.009   1.427   5.330
 6430SOL     OW20188   6.393   3.167   0.237
 6430SOL    HW120189   6.315   3.113   0.206
 6430SOL    HW220190   6.396   3.167   0.337
 6431SOL     OW20191   6.219   1.441   2.750
 6431SOL    HW120192   6.128   1.464   2.784
 6431SOL    HW220193   6.224   1.342   2.735
 6432SOL     OW20194   6.142   3.819   0.521
 6432SOL    HW120195   6.232   3.843   0.486
 6432SOL    HW220196   6.112   3.888   0.587
 6433SOL     OW20197   2.105   3.628   1.632
 6433SOL    HW120198   2.114   3.714   1.581
 6433SOL    HW220199   2.134   3.552   1.575
 6434SOL     OW20200   1.421   5.703   0.525
 6434SOL    HW120201   1.435   5.627   0.589
 6434SOL    HW220202   1.417   5.789   0.575
 6435SOL     OW20203   4.829   3.631   0.559
 6435SOL    HW120204   4.736   3.627   0.521
 6435SOL    HW220205   4.868   3.538   0.560
 6436SOL     OW20206   1.825   2.535   1.524
 6436SOL    HW120207   1.769   2.588   1.460
 6436SOL    HW220208   1.786   2.444   1.534
 6437SOL     OW20209   0.091   0.821   0.796
 6437SOL    HW120210   0.171   0.761   0.800
 6437SOL    HW220211   0.017   0.775   0.746
 6438SOL     OW20212   0.948   3.243   4.553
 6438SOL    HW120213   1.026   3.259   4.614
 6438SOL    HW220214   0.979   3.197   4.470
 6439SOL     OW20215   0.196   6.039   2.245
 6439SOL    HW120216   0.250   6.118   2.274
 6439SOL    HW220217   0.248   5.955   2.263
 6440SOL     OW20218   0.529   0.759   2.130
 6440SOL    HW120219   0.599   0.769   2.200
 6440SOL    HW220220   0.511   0.662   2.113
 6441SOL     OW20221   4.622   1.686   2.861
 6441SOL    HW120222   4.721   1.676   2.876
 6441SOL    HW220223   4.573   1.646   2.938
 6442SOL     OW20224   2.299   1.109   3.485
 6442SOL    HW120225   2.279   1.192   3.537
 6442SOL    HW220226   2.285   1.029   3.543
 6443SOL     OW20227   2.428   0.758   0.970
 6443SOL    HW120228   2.370   0.793   0.896
 6443SOL    HW220229   2.475   0.675   0.939
 6444SOL     OW20230   1.135   1.714   2.890
 6444SOL    HW120231   1.190   1.787   2.849
 6444SOL    HW220232   1.039   1.741   2.890
 6445SOL     OW20233   3.220   4.038   5.652
 6445SOL    HW120234   3.292   3.999   5.709
 6445SOL    HW220235   3.130   4.012   5.689
 6446SOL     OW20236   6.930   1.280   0.265
 6446SOL    HW120237   6.838   1.254   0.237
 6446SOL    HW220238   6.925   1.355   0.332
 6447SOL     OW20239   1.410   0.875   3.592
 6447SOL    HW120240   1.501   0.915   3.583
 6447SOL    HW220241   1.404   0.824   3.678
 6448SOL     OW20242   6.887   2.405   2.908
 6448SOL    HW120243   6.965   2.353   2.872
 6448SOL    HW220244   6.815   2.342   2.935
 6449SOL     OW20245   3.902   2.674   0.690
 6449SOL    HW120246   3.895   2.738   0.613
 6449SOL    HW220247   3.997   2.646   0.702
 6450SOL     OW20248   6.701   2.973   0.680
 6450SOL    HW120249   6.678   2.897   0.619
 6450SOL    HW220250   6.776   2.947   0.739
 6451SOL     OW20251   2.426   6.767   4.062
 6451SOL    HW120252   2.435   6.816   3.975
 6451SOL    HW220253   2.361   6.815   4.121
 6452SOL     OW20254   3.676   6.295   4.245
 6452SOL    HW120255   3.641   6.333   4.160
 6452SOL    HW220256   3.737   6.362   4.289
 6453SOL     OW20257   2.063   5.246   6.708
 6453SOL    HW120258   2.077   5.152   6.678
 6453SOL    HW220259   2.028   5.247   6.801
 6454SOL     OW20260   3.635   0.631   4.615
 6454SOL    HW120261   3.730   0.650   4.593
 6454SOL    HW220262   3.581   0.629   4.530
 6455SOL     OW20263   6.554   3.253   0.022
 6455SOL    HW120264   6.588   3.180   6.985
 6455SOL    HW220265   6.490   3.215   0.089
 6456SOL     OW20266   6.774   1.785   4.764
 6456SOL    HW120267   6.711   1.854   4.800
 6456SOL    HW220268   6.861   1.791   4.812
 6457SOL     OW20269   5.671   3.000   2.320
 6457SOL    HW120270   5.674   3.072   2.389
 6457SOL    HW220271   5.588   2.946   2.331
 6458SOL     OW20272   0.849   6.042   3.476
 6458SOL    HW120273   0.841   6.079   3.568
 6458SOL    HW220274   0.940   6.001   3.465
 6459SOL     OW20275   5.593   4.569   0.450
 6459SOL    HW120276   5.631   4.505   0.517
 6459SOL    HW220277   5.652   4.649   0.443
 6460SOL     OW20278   3.484   4.895   1.624
 6460SOL    HW120279   3.435   4.916   1.539
 6460SOL    HW220280   3.496   4.979   1.678
 6461SOL     OW20281   3.160   6.065   5.582
 6461SOL    HW120282   3.208   6.000   5.523
 6461SOL    HW220283   3.139   6.148   5.531
 6462SOL     OW20284   1.801   3.696   2.849
 6462SOL    HW120285   1.824   3.716   2.944
 6462SOL    HW220286   1.868   3.631   2.812
 6463SOL     OW20287   1.284   3.519   5.543
 6463SOL    HW120288   1.275   3.607   5.591
 6463SOL    HW220289   1.233   3.523   5.457
 6464SOL     OW20290   1.589   5.083   2.248
 6464SOL    HW120291   1.641   5.001   2.224
 6464SOL    HW220292   1.511   5.092   2.186
 6465SOL     OW20293   5.974   0.574   2.573
 6465SOL    HW120294   5.894   0.634   2.566
 6465SOL    HW220295   5.974   0.508   2.498
 6466SOL     OW20296   6.814   2.009   4.390
 6466SOL    HW120297   6.723   1.974   4.413
 6466SOL    HW220298   6.835   2.087   4.450
 6467SOL     OW20299   3.558   0.235   6.535
 6467SOL    HW120300   3.491   0.211   6.465
 6467SOL    HW220301   3.510   0.277   6.613
 6468SOL     OW20302   5.848   4.266   2.141
 6468SOL    HW120303   5.906   4.196   2.183
 6468SOL    HW220304   5.782   4.300   2.208
 6469SOL     OW20305   5.980   1.847   5.667
 6469SOL    HW120306   5.914   1.788   5.714
 6469SOL    HW220307   6.036   1.792   5.606
 6470SOL     OW20308   6.526   5.940   4.594
 6470SOL    HW120309   6.460   5.869   4.621
 6470SOL    HW220310   6.570   5.913   4.508
 6471SOL     OW20311   6.487   6.162   5.154
 6471SOL    HW120312   6.488   6.078   5.208
 6471SOL    HW220313   6.527   6.236   5.207
 6472SOL     OW20314   2.030   6.462   1.401
 6472SOL    HW120315   2.057   6.370   1.374
 6472SOL    HW220316   1.939   6.459   1.443
 6473SOL     OW20317   2.158   0.521   5.219
 6473SOL    HW120318   2.117   0.474   5.297
 6473SOL    HW220319   2.163   0.619   5.238
 6474SOL     OW20320   1.926   3.467   6.497
 6474SOL    HW120321   1.841   3.443   6.544
 6474SOL    HW220322   1.916   3.451   6.399
 6475SOL     OW20323   4.531   5.558   3.809
 6475SOL    HW120324   4.601   5.536   3.741
 6475SOL    HW220325   4.454   5.494   3.801
 6476SOL     OW20326   4.956   5.837   2.548
 6476SOL    HW120327   4.947   5.757   2.608
 6476SOL    HW220328   5.034   5.892   2.577
 6477SOL     OW20329   6.538   6.324   6.974
 6477SOL    HW120330   6.460   6.385   6.984
 6477SOL    HW220331   6.604   6.363   6.910
 6478SOL     OW20332   4.514   5.463   1.294
 6478SOL    HW120333   4.447   5.534   1.314
 6478SOL    HW220334   4.590   5.502   1.242
 6479SOL     OW20335   3.289   6.085   2.853
 6479SOL    HW120336   3.294   6.127   2.944
 6479SOL    HW220337   3.370   6.028   2.838
 6480SOL     OW20338   2.866   0.847   1.110
 6480SOL    HW120339   2.790   0.841   1.175
 6480SOL    HW220340   2.834   0.818   1.020
 6481SOL     OW20341   4.837   0.589   0.771
 6481SOL    HW120342   4.818   0.570   0.867
 6481SOL    HW220343   4.810   0.510   0.716
 6482SOL     OW20344   6.888   0.005   6.160
 6482SOL    HW120345   6.821   0.068   6.121
 6482SOL    HW220346   6.968   0.056   6.192
 6483SOL     OW20347   2.180   4.973   1.611
 6483SOL    HW120348   2.094   4.989   1.563
 6483SOL    HW220349   2.256   5.003   1.554
 6484SOL     OW20350   4.924   7.002   2.937
 6484SOL    HW120351   4.949   0.076   2.928
 6484SOL    HW220352   5.006   6.945   2.930
 6485SOL     OW20353   0.676   2.886   3.180
 6485SOL    HW120354   0.647   2.937   3.098
 6485SOL    HW220355   0.664   2.943   3.261
 6486SOL     OW20356   1.540   2.484   3.231
 6486SOL    HW120357   1.492   2.503   3.317
 6486SOL    HW220358   1.637   2.507   3.242
 6487SOL     OW20359   5.955   5.512   3.331
 6487SOL    HW120360   5.877   5.459   3.299
 6487SOL    HW220361   5.923   5.596   3.375
 6488SOL     OW20362   3.352   5.427   4.643
 6488SOL    HW120363   3.451   5.425   4.657
 6488SOL    HW220364   3.323   5.520   4.624
 6489SOL     OW20365   2.487   1.345   6.540
 6489SOL    HW120366   2.506   1.383   6.631
 6489SOL    HW220367   2.427   1.266   6.549
 6490SOL     OW20368   5.113   2.090   0.699
 6490SOL    HW120369   5.184   2.019   0.706
 6490SOL    HW220370   5.114   2.146   0.782
 6491SOL     OW20371   5.228   0.784   5.486
 6491SOL    HW120372   5.283   0.733   5.419
 6491SOL    HW220373   5.233   0.738   5.575
 6492SOL     OW20374   6.361   5.863   5.875
 6492SOL    HW120375   6.274   5.895   5.837
 6492SOL    HW220376   6.409   5.940   5.918
 6493SOL     OW20377   0.943   0.017   5.281
 6493SOL    HW120378   0.981   0.016   5.373
 6493SOL    HW220379   0.979   6.962   5.229
 6494SOL     OW20380   0.605   1.628   3.325
 6494SOL    HW120381   0.668   1.603   3.399
 6494SOL    HW220382   0.539   1.555   3.311
 6495SOL     OW20383   5.835   4.524   1.802
 6495SOL    HW120384   5.778   4.448   1.771
 6495SOL    HW220385   5.829   4.533   1.901
 6496SOL     OW20386   0.259   6.245   3.194
 6496SOL    HW120387   0.209   6.214   3.114
 6496SOL    HW220388   0.322   6.318   3.168
 6497SOL     OW20389   0.788   6.818   1.060
 6497SOL    HW120390   0.846   6.740   1.082
 6497SOL    HW220391   0.838   6.903   1.079
 6498SOL     OW20392   1.491   3.971   3.917
 6498SOL    HW120393   1.398   3.972   3.880
 6498SOL    HW220394   1.488   3.978   4.017
 6499SOL     OW20395   6.192   1.677   3.330
 6499SOL    HW120396   6.277   1.670   3.382
 6499SOL    HW220397   6.128   1.738   3.377
 6500SOL     OW20398   5.865   4.757   2.245
 6500SOL    HW120399   5.877   4.669   2.200
 6500SOL    HW220400   5.869   4.745   2.344
 6501SOL     OW20401   6.765   4.104   0.722
 6501SOL    HW120402   6.761   4.006   0.702
 6501SOL    HW220403   6.743   4.156   0.639
 6502SOL     OW20404   0.928   4.975   1.273
 6502SOL    HW120405   1.015   4.972   1.223
 6502SOL    HW220406   0.930   5.052   1.337
 6503SOL     OW20407   4.358   0.371   4.115
 6503SOL    HW120408   4.418   0.312   4.169
 6503SOL    HW220409   4.367   0.348   4.018
 6504SOL     OW20410   2.130   1.449   0.803
 6504SOL    HW120411   2.150   1.390   0.881
 6504SOL    HW220412   2.054   1.510   0.825
 6505SOL     OW20413   5.605   5.318   0.226
 6505SOL    HW120414   5.569   5.230   0.256
 6505SOL    HW220415   5.698   5.306   0.190
 6506SOL     OW20416   2.329   1.094   0.939
 6506SOL    HW120417   2.421   1.066   0.967
 6506SOL    HW220418   2.287   1.021   0.885
 6507SOL     OW20419   2.933   0.729   1.818
 6507SOL    HW120420   2.913   0.788   1.896
 6507SOL    HW220421   2.860   0.662   1.807
 6508SOL     OW20422   1.860   2.104   2.218
 6508SOL    HW120423   1.900   2.103   2.126
 6508SOL    HW220424   1.813   2.017   2.235
 6509SOL     OW20425   1.397   2.945   3.736
 6509SOL    HW120426   1.357   2.984   3.819
 6509SOL    HW220427   1.482   2.993   3.714
 6510SOL     OW20428   6.103   4.436   6.641
 6510SOL    HW120429   6.063   4.522   6.672
 6510SOL    HW220430   6.080   4.363   6.705
 6511SOL     OW20431   0.172   6.930   6.100
 6511SOL    HW120432   0.222   6.910   6.016
 6511SOL    HW220433   0.084   6.883   6.098
 6512SOL     OW20434   5.375   5.985   3.638
 6512SOL    HW120435   5.395   5.891   3.664
 6512SOL    HW220436   5.278   5.993   3.615
 6513SOL     OW20437   1.063   6.698   3.608
 6513SOL    HW120438   1.033   6.771   3.547
 6513SOL    HW220439   1.063   6.732   3.702
 6514SOL     OW20440   2.947   0.616   3.409
 6514SOL    HW120441   2.923   0.711   3.426
 6514SOL    HW220442   2.994   0.608   3.321
 6515SOL     OW20443   0.505   0.577   3.163
 6515SOL    HW120444   0.430   0.587   3.097
 6515SOL    HW220445   0.477   0.515   3.236
 6516SOL     OW20446   1.394   0.969   5.647
 6516SOL    HW120447   1.426   0.987   5.554
 6516SOL    HW220448   1.314   1.026   5.665
 6517SOL     OW20449   2.565   2.032   1.033
 6517SOL    HW120450   2.629   1.959   1.059
 6517SOL    HW220451   2.478   2.018   1.080
 6518SOL     OW20452   5.776   6.247   0.950
 6518SOL    HW120453   5.849   6.200   0.899
 6518SOL    HW220454   5.688   6.203   0.930
 6519SOL     OW20455   1.341   1.855   4.383
 6519SOL    HW120456   1.272   1.924   4.406
 6519SOL    HW220457   1.380   1.874   4.293
 6520SOL     OW20458   5.688   5.497   1.420
 6520SOL    HW120459   5.785   5.473   1.421
 6520SOL    HW220460   5.633   5.418   1.446
 6521SOL     OW20461   1.500   2.077   5.546
 6521SOL    HW120462   1.489   2.021   5.627
 6521SOL    HW220463   1.464   2.169   5.563
 6522SOL     OW20464   2.502   5.234   4.470
 6522SOL    HW120465   2.469   5.150   4.427
 6522SOL    HW220466   2.441   5.309   4.448
 6523SOL     OW20467   1.581   2.296   0.205
 6523SOL    HW120468   1.613   2.232   0.135
 6523SOL    HW220469   1.523   2.247   0.270
 6524SOL     OW20470   4.052   2.729   5.636
 6524SOL    HW120471   3.971   2.716   5.580
 6524SOL    HW220472   4.054   2.661   5.709
 6525SOL     OW20473   0.509   2.569   4.241
 6525SOL    HW120474   0.495   2.668   4.237
 6525SOL    HW220475   0.512   2.539   4.336
 6526SOL     OW20476   1.704   5.745   3.787
 6526SOL    HW120477   1.604   5.744   3.783
 6526SOL    HW220478   1.734   5.711   3.876
 6527SOL     OW20479   2.335   1.415   3.932
 6527SOL    HW120480   2.370   1.325   3.958
 6527SOL    HW220481   2.302   1.463   4.014
 6528SOL     OW20482   0.491   6.992   2.999
 6528SOL    HW120483   0.553   6.914   3.004
 6528SOL    HW220484   0.416   6.979   3.063
 6529SOL     OW20485   6.575   2.855   2.269
 6529SOL    HW120486   6.481   2.884   2.291
 6529SOL    HW220487   6.628   2.849   2.354
 6530SOL     OW20488   0.529   1.859   0.413
 6530SOL    HW120489   0.532   1.799   0.333
 6530SOL    HW220490   0.621   1.895   0.431
 6531SOL     OW20491   4.962   2.306   5.381
 6531SOL    HW120492   4.925   2.213   5.386
 6531SOL    HW220493   4.959   2.348   5.471
 6532SOL     OW20494   1.240   2.050   0.233
 6532SOL    HW120495   1.267   2.039   0.137
 6532SOL    HW220496   1.321   2.064   0.289
 6533SOL     OW20497   4.759   0.281   0.976
 6533SOL    HW120498   4.838   0.224   0.998
 6533SOL    HW220499   4.766   0.369   1.022
 6534SOL     OW20500   2.486   2.631   0.106
 6534SOL    HW120501   2.584   2.615   0.096
 6534SOL    HW220502   2.436   2.561   0.054
 6535SOL     OW20503   2.024   3.284   5.315
 6535SOL    HW120504   2.055   3.200   5.270
 6535SOL    HW220505   2.016   3.357   5.248
 6536SOL     OW20506   6.978   1.960   6.827
 6536SOL    HW120507   6.886   1.970   6.863
 6536SOL    HW220508   6.998   2.034   6.763
 6537SOL     OW20509   1.010   0.771   6.454
 6537SOL    HW120510   0.953   0.709   6.508
 6537SOL    HW220511   1.083   0.719   6.409
 6538SOL     OW20512   2.709   2.931   5.823
 6538SOL    HW120513   2.790   2.927   5.881
 6538SOL    HW220514   2.628   2.948   5.879
 6539SOL     OW20515   3.488   1.343   6.576
 6539SOL    HW120516   3.443   1.298   6.653
 6539SOL    HW220517   3.437   1.323   6.492
 6540SOL     OW20518   3.700   2.140   3.790
 6540SOL    HW120519   3.626   2.206   3.782
 6540SOL    HW220520   3.671   2.053   3.748
 6541SOL     OW20521   2.754   2.543   5.576
 6541SOL    HW120522   2.778   2.495   5.492
 6541SOL    HW220523   2.696   2.621   5.555
 6542SOL     OW20524   5.562   4.327   2.630
 6542SOL    HW120525   5.613   4.398   2.679
 6542SOL    HW220526   5.625   4.256   2.600
 6543SOL     OW20527   1.143   6.086   5.908
 6543SOL    HW120528   1.161   6.040   5.996
 6543SOL    HW220529   1.084   6.027   5.852
 6544SOL     OW20530   0.202   6.093   2.692
 6544SOL    HW120531   0.266   6.170   2.686
 6544SOL    HW220532   0.145   6.090   2.610
 6545SOL     OW20533   5.991   3.026   6.456
 6545SOL    HW120534   5.917   3.060   6.513
 6545SOL    HW220535   5.967   3.038   6.360
 6546SOL     OW20536   3.169   4.587   6.073
 6546SOL    HW120537   3.100   4.535   6.123
 6546SOL    HW220538   3.235   4.524   6.031
 6547SOL     OW20539   5.028   0.817   6.338
 6547SOL    HW120540   5.091   0.894   6.329
 6547SOL    HW220541   4.935   0.851   6.351
 6548SOL     OW20542   5.019   4.015   5.739
 6548SOL    HW120543   4.989   4.079   5.669
 6548SOL    HW220544   5.104   3.971   5.711
 6549SOL     OW20545   2.774   2.290   2.631
 6549SOL    HW120546   2.815   2.333   2.550
 6549SOL    HW220547   2.830   2.310   2.711
 6550SOL     OW20548   1.071   5.990   2.500
 6550SOL    HW120549   1.094   5.947   2.587
 6550SOL    HW220550   1.036   5.921   2.437
 6551SOL     OW20551   3.442   5.146   2.262
 6551SOL    HW120552   3.422   5.226   2.205
 6551SOL    HW220553   3.437   5.063   2.206
 6552SOL     OW20554   4.199   4.605   5.902
 6552SOL    HW120555   4.256   4.613   5.984
 6552SOL    HW220556   4.110   4.567   5.928
 6553SOL     OW20557   6.932   3.253   3.177
 6553SOL    HW120558   6.965   3.159   3.175
 6553SOL    HW220559   6.945   3.295   3.088
 6554SOL     OW20560   6.751   4.018   4.510
 6554SOL    HW120561   6.744   3.919   4.497
 6554SOL    HW220562   6.828   4.039   4.571
 6555SOL     OW20563   0.464   1.515   1.140
 6555SOL    HW120564   0.524   1.458   1.196
 6555SOL    HW220565   0.516   1.591   1.102
 6556SOL     OW20566   3.644   0.375   3.272
 6556SOL    HW120567   3.613   0.342   3.361
 6556SOL    HW220568   3.659   0.473   3.275
 6557SOL     OW20569   5.627   5.665   0.518
 6557SOL    HW120570   5.654   5.717   0.437
 6557SOL    HW220571   5.551   5.711   0.563
 6558SOL     OW20572   6.909   6.201   5.771
 6558SOL    HW120573   7.000   6.237   5.791
 6558SOL    HW220574   6.915   6.133   5.697
 6559SOL     OW20575   3.297   3.555   1.154
 6559SOL    HW120576   3.282   3.559   1.055
 6559SOL    HW220577   3.272   3.464   1.188
 6560SOL     OW20578   4.548   2.014   1.256
 6560SOL    HW120579   4.603   2.023   1.173
 6560SOL    HW220580   4.452   2.001   1.231
 6561SOL     OW20581   3.951   3.973   4.433
 6561SOL    HW120582   4.019   4.011   4.495
 6561SOL    HW220583   3.965   3.874   4.423
 6562SOL     OW20584   0.239   4.495   4.944
 6562SOL    HW120585   0.144   4.492   4.913
 6562SOL    HW220586   0.242   4.513   5.042
 6563SOL     OW20587   0.446   5.187   2.392
 6563SOL    HW120588   0.378   5.243   2.346
 6563SOL    HW220589   0.537   5.226   2.378
 6564SOL     OW20590   1.396   5.083   3.026
 6564SOL    HW120591   1.320   5.024   2.998
 6564SOL    HW220592   1.387   5.172   2.980
 6565SOL     OW20593   6.709   3.429   4.909
 6565SOL    HW120594   6.729   3.361   4.980
 6565SOL    HW220595   6.772   3.507   4.920
 6566SOL     OW20596   4.287   1.300   0.479
 6566SOL    HW120597   4.345   1.381   0.474
 6566SOL    HW220598   4.341   1.219   0.452
 6567SOL     OW20599   6.446   2.589   0.764
 6567SOL    HW120600   6.463   2.642   0.847
 6567SOL    HW220601   6.528   2.534   0.743
 6568SOL     OW20602   4.676   3.679   1.222
 6568SOL    HW120603   4.758   3.697   1.167
 6568SOL    HW220604   4.641   3.588   1.199
 6569SOL     OW20605   1.185   4.258   5.652
 6569SOL    HW120606   1.145   4.265   5.743
 6569SOL    HW220607   1.285   4.252   5.659
 6570SOL     OW20608   6.642   3.986   1.911
 6570SOL    HW120609   6.604   3.924   1.843
 6570SOL    HW220610   6.612   3.959   2.002
 6571SOL     OW20611   1.978   6.268   3.993
 6571SOL    HW120612   1.955   6.173   3.974
 6571SOL    HW220613   2.058   6.272   4.053
 6572SOL     OW20614   1.906   3.699   5.809
 6572SOL    HW120615   1.896   3.645   5.893
 6572SOL    HW220616   1.927   3.638   5.732
 6573SOL     OW20617   1.652   1.793   1.455
 6573SOL    HW120618   1.664   1.777   1.357
 6573SOL    HW220619   1.647   1.891   1.473
 6574SOL     OW20620   2.406   4.383   4.574
 6574SOL    HW120621   2.497   4.343   4.559
 6574SOL    HW220622   2.355   4.327   4.639
 6575SOL     OW20623   1.744   1.631   2.863
 6575SOL    HW120624   1.832   1.641   2.909
 6575SOL    HW220625   1.672   1.615   2.931
 6576SOL     OW20626   0.250   6.632   3.922
 6576SOL    HW120627   0.158   6.629   3.960
 6576SOL    HW220628   0.270   6.546   3.876
 6577SOL     OW20629   0.302   3.606   5.159
 6577SOL    HW120630   0.330   3.646   5.246
 6577SOL    HW220631   0.379   3.605   5.095
 6578SOL     OW20632   6.615   5.649   3.971
 6578SOL    HW120633   6.535   5.659   3.912
 6578SOL    HW220634   6.698   5.662   3.916
 6579SOL     OW20635   6.830   4.305   3.459
 6579SOL    HW120636   6.909   4.250   3.434
 6579SOL    HW220637   6.822   4.383   3.397
 6580SOL     OW20638   5.572   3.024   0.309
 6580SOL    HW120639   5.600   3.115   0.338
 6580SOL    HW220640   5.600   2.957   0.378
 6581SOL     OW20641   2.615   2.366   5.773
 6581SOL    HW120642   2.670   2.443   5.740
 6581SOL    HW220643   2.532   2.400   5.817
 6582SOL     OW20644   6.603   0.534   2.612
 6582SOL    HW120645   6.577   0.523   2.516
 6582SOL    HW220646   6.605   0.631   2.636
 6583SOL     OW20647   6.425   1.593   6.061
 6583SOL    HW120648   6.450   1.499   6.039
 6583SOL    HW220649   6.338   1.594   6.110
 6584SOL     OW20650   5.698   2.891   0.714
 6584SOL    HW120651   5.749   2.855   0.792
 6584SOL    HW220652   5.601   2.899   0.739
 6585SOL     OW20653   2.563   0.968   1.942
 6585SOL    HW120654   2.559   1.058   1.985
 6585SOL    HW220655   2.630   0.911   1.990
 6586SOL     OW20656   6.068   1.999   6.993
 6586SOL    HW120657   6.131   2.075   7.011
 6586SOL    HW220658   6.058   1.987   6.894
 6587SOL     OW20659   2.115   6.035   1.763
 6587SOL    HW120660   2.197   5.985   1.734
 6587SOL    HW220661   2.104   6.026   1.862
 6588SOL     OW20662   3.068   2.288   0.367
 6588SOL    HW120663   3.023   2.199   0.375
 6588SOL    HW220664   3.079   2.311   0.270
 6589SOL     OW20665   4.629   1.787   6.018
 6589SOL    HW120666   4.695   1.856   6.050
 6589SOL    HW220667   4.670   1.734   5.944
 6590SOL     OW20668   6.141   1.722   5.478
 6590SOL    HW120669   6.100   1.793   5.421
 6590SOL    HW220670   6.238   1.744   5.494
 6591SOL     OW20671   5.244   0.448   2.697
 6591SOL    HW120672   5.188   0.530   2.709
 6591SOL    HW220673   5.218   0.402   2.613
 6592SOL     OW20674   6.426   5.519   5.095
 6592SOL    HW120675   6.390   5.488   5.183
 6592SOL    HW220676   6.524   5.536   5.103
 6593SOL     OW20677   5.018   0.846   2.546
 6593SOL    HW120678   4.922   0.851   2.575
 6593SOL    HW220679   5.033   0.911   2.471
 6594SOL     OW20680   5.357   1.274   0.077
 6594SOL    HW120681   5.443   1.299   0.120
 6594SOL    HW220682   5.331   1.181   0.103
 6595SOL     OW20683   3.250   2.558   6.368
 6595SOL    HW120684   3.210   2.617   6.298
 6595SOL    HW220685   3.248   2.463   6.337
 6596SOL     OW20686   2.884   6.569   5.114
 6596SOL    HW120687   2.977   6.537   5.095
 6596SOL    HW220688   2.826   6.492   5.140
 6597SOL     OW20689   0.129   4.208   6.588
 6597SOL    HW120690   0.183   4.281   6.547
 6597SOL    HW220691   0.032   4.234   6.588
 6598SOL     OW20692   2.602   6.137   4.688
 6598SOL    HW120693   2.570   6.044   4.707
 6598SOL    HW220694   2.700   6.135   4.667
 6599SOL     OW20695   4.350   3.521   6.357
 6599SOL    HW120696   4.320   3.501   6.450
 6599SOL    HW220697   4.386   3.438   6.314
 6600SOL     OW20698   4.138   4.893   4.677
 6600SOL    HW120699   4.185   4.978   4.698
 6600SOL    HW220700   4.106   4.895   4.582
 6601SOL     OW20701   0.308   0.885   1.873
 6601SOL    HW120702   0.347   0.958   1.929
 6601SOL    HW220703   0.208   0.887   1.879
 6602SOL     OW20704   6.656   1.225   1.381
 6602SOL    HW120705   6.596   1.231   1.461
 6602SOL    HW220706   6.747   1.194   1.410
 6603SOL     OW20707   2.757   1.407   1.958
 6603SOL    HW120708   2.842   1.458   1.942
 6603SOL    HW220709   2.684   1.445   1.902
 6604SOL     OW20710   4.144   6.159   4.522
 6604SOL    HW120711   4.216   6.114   4.468
 6604SOL    HW220712   4.055   6.123   4.495
 6605SOL     OW20713   5.104   6.359   0.217
 6605SOL    HW120714   5.005   6.347   0.227
 6605SOL    HW220715   5.125   6.400   0.129
 6606SOL     OW20716   0.536   2.338   3.201
 6606SOL    HW120717   0.537   2.373   3.108
 6606SOL    HW220718   0.444   2.309   3.226
 6607SOL     OW20719   1.179   3.315   2.693
 6607SOL    HW120720   1.129   3.360   2.767
 6607SOL    HW220721   1.251   3.376   2.660
 6608SOL     OW20722   5.080   4.407   4.858
 6608SOL    HW120723   5.067   4.317   4.815
 6608SOL    HW220724   5.001   4.465   4.837
 6609SOL     OW20725   5.277   2.201   0.176
 6609SOL    HW120726   5.275   2.103   0.200
 6609SOL    HW220727   5.338   2.249   0.240
 6610SOL     OW20728   3.791   1.305   0.788
 6610SOL    HW120729   3.714   1.241   0.793
 6610SOL    HW220730   3.831   1.304   0.696
 6611SOL     OW20731   5.518   3.695   3.139
 6611SOL    HW120732   5.609   3.664   3.166
 6611SOL    HW220733   5.451   3.625   3.165
 6612SOL     OW20734   1.263   6.168   6.661
 6612SOL    HW120735   1.202   6.091   6.683
 6612SOL    HW220736   1.315   6.145   6.578
 6613SOL     OW20737   5.667   4.820   0.976
 6613SOL    HW120738   5.680   4.803   0.878
 6613SOL    HW220739   5.572   4.803   1.001
 6614SOL     OW20740   5.922   4.551   6.084
 6614SOL    HW120741   5.940   4.566   6.181
 6614SOL    HW220742   5.910   4.453   6.067
 6615SOL     OW20743   0.165   3.400   5.288
 6615SOL    HW120744   0.239   3.341   5.321
 6615SOL    HW220745   0.203   3.468   5.225
 6616SOL     OW20746   4.594   0.940   4.155
 6616SOL    HW120747   4.646   1.026   4.155
 6616SOL    HW220748   4.618   0.886   4.074
 6617SOL     OW20749   4.478   0.071   4.988
 6617SOL    HW120750   4.411   0.129   5.034
 6617SOL    HW220751   4.448   6.998   4.991
 6618SOL     OW20752   6.737   4.642   1.227
 6618SOL    HW120753   6.786   4.673   1.308
 6618SOL    HW220754   6.802   4.601   1.163
 6619SOL     OW20755   6.999   5.837   1.541
 6619SOL    HW120756   6.996   5.929   1.501
 6619SOL    HW220757   0.044   5.836   1.615
 6620SOL     OW20758   4.507   3.128   5.431
 6620SOL    HW120759   4.489   3.227   5.435
 6620SOL    HW220760   4.605   3.112   5.424
 6621SOL     OW20761   2.740   3.303   0.301
 6621SOL    HW120762   2.807   3.229   0.291
 6621SOL    HW220763   2.684   3.286   0.382
 6622SOL     OW20764   6.116   5.453   0.372
 6622SOL    HW120765   6.052   5.528   0.385
 6622SOL    HW220766   6.069   5.375   0.331
 6623SOL     OW20767   3.751   4.041   2.630
 6623SOL    HW120768   3.776   4.030   2.726
 6623SOL    HW220769   3.787   3.964   2.577
 6624SOL     OW20770   4.699   5.159   4.438
 6624SOL    HW120771   4.612   5.208   4.451
 6624SOL    HW220772   4.690   5.095   4.362
 6625SOL     OW20773   5.942   6.715   0.078
 6625SOL    HW120774   6.010   6.682   0.143
 6625SOL    HW220775   5.939   6.653   7.021
 6626SOL     OW20776   2.922   4.872   3.785
 6626SOL    HW120777   3.003   4.816   3.769
 6626SOL    HW220778   2.841   4.825   3.749
 6627SOL     OW20779   2.088   6.542   1.662
 6627SOL    HW120780   2.076   6.634   1.699
 6627SOL    HW220781   2.069   6.543   1.564
 6628SOL     OW20782   4.001   6.240   3.891
 6628SOL    HW120783   4.013   6.189   3.806
 6628SOL    HW220784   3.940   6.317   3.876
 6629SOL     OW20785   3.222   3.802   0.548
 6629SOL    HW120786   3.286   3.865   0.593
 6629SOL    HW220787   3.246   3.792   0.452
 6630SOL     OW20788   3.801   0.802   6.459
 6630SOL    HW120789   3.755   0.811   6.547
 6630SOL    HW220790   3.847   0.888   6.436
 6631SOL     OW20791   3.909   0.260   1.346
 6631SOL    HW120792   4.006   0.259   1.322
 6631SOL    HW220793   3.873   0.353   1.336
 6632SOL     OW20794   5.944   3.011   2.464
 6632SOL    HW120795   5.847   2.987   2.458
 6632SOL    HW220796   5.962   3.092   2.407
 6633SOL     OW20797   0.597   6.088   2.281
 6633SOL    HW120798   0.534   6.037   2.223
 6633SOL    HW220799   0.675   6.118   2.227
 6634SOL     OW20800   6.719   2.444   5.948
 6634SOL    HW120801   6.817   2.459   5.935
 6634SOL    HW220802   6.699   2.346   5.939
 6635SOL     OW20803   4.172   4.867   3.365
 6635SOL    HW120804   4.108   4.849   3.441
 6635SOL    HW220805   4.252   4.915   3.400
 6636SOL     OW20806   1.806   3.527   3.673
 6636SOL    HW120807   1.872   3.533   3.598
 6636SOL    HW220808   1.819   3.441   3.722
 6637SOL     OW20809   6.422   2.627   1.233
 6637SOL    HW120810   6.426   2.537   1.276
 6637SOL    HW220811   6.334   2.638   1.188
 6638SOL     OW20812   1.962   0.623   6.551
 6638SOL    HW120813   1.939   0.541   6.499
 6638SOL    HW220814   1.879   0.663   6.590
 6639SOL     OW20815   4.163   5.744   6.276
 6639SOL    HW120816   4.080   5.688   6.272
 6639SOL    HW220817   4.192   5.768   6.183
 6640SOL     OW20818   5.631   3.290   2.972
 6640SOL    HW120819   5.553   3.329   2.923
 6640SOL    HW220820   5.601   3.209   3.023
 6641SOL     OW20821   2.319   5.207   6.854
 6641SOL    HW120822   2.246   5.211   6.786
 6641SOL    HW220823   2.303   5.278   6.923
 6642SOL     OW20824   6.763   5.837   5.997
 6642SOL    HW120825   6.713   5.758   5.962
 6642SOL    HW220826   6.757   5.839   6.097
 6643SOL     OW20827   3.915   5.177   6.860
 6643SOL    HW120828   3.942   5.181   6.956
 6643SOL    HW220829   3.986   5.221   6.804
 6644SOL     OW20830   0.777   4.022   2.079
 6644SOL    HW120831   0.771   3.959   2.156
 6644SOL    HW220832   0.838   4.097   2.102
 6645SOL     OW20833   6.466   4.756   5.550
 6645SOL    HW120834   6.510   4.715   5.470
 6645SOL    HW220835   6.505   4.717   5.633
 6646SOL     OW20836   1.331   5.898   3.657
 6646SOL    HW120837   1.332   5.993   3.624
 6646SOL    HW220838   1.388   5.842   3.596
 6647SOL     OW20839   4.264   1.904   2.118
 6647SOL    HW120840   4.322   1.910   2.199
 6647SOL    HW220841   4.193   1.835   2.132
 6648SOL     OW20842   4.155   5.448   1.929
 6648SOL    HW120843   4.139   5.507   2.008
 6648SOL    HW220844   4.075   5.451   1.869
 6649SOL     OW20845   4.379   1.255   6.412
 6649SOL    HW120846   4.386   1.332   6.349
 6649SOL    HW220847   4.375   1.289   6.506
 6650SOL     OW20848   3.077   1.203   4.046
 6650SOL    HW120849   3.084   1.298   4.076
 6650SOL    HW220850   3.131   1.190   3.963
 6651SOL     OW20851   0.441   1.736   0.684
 6651SOL    HW120852   0.464   1.639   0.675
 6651SOL    HW220853   0.466   1.785   0.600
 6652SOL     OW20854   0.735   5.121   2.940
 6652SOL    HW120855   0.651   5.071   2.919
 6652SOL    HW220856   0.712   5.212   2.976
 6653SOL     OW20857   3.427   3.681   3.359
 6653SOL    HW120858   3.345   3.625   3.370
 6653SOL    HW220859   3.410   3.772   3.396
 6654SOL     OW20860   1.749   3.836   1.387
 6654SOL    HW120861   1.737   3.869   1.293
 6654SOL    HW220862   1.792   3.907   1.441
 6655SOL     OW20863   1.472   0.511   6.952
 6655SOL    HW120864   1.429   0.578   7.012
 6655SOL    HW220865   1.496   0.554   6.865
 6656SOL     OW20866   0.110   2.586   2.361
 6656SOL    HW120867   0.138   2.678   2.389
 6656SOL    HW220868   0.141   2.520   2.429
 6657SOL     OW20869   3.208   5.116   5.203
 6657SOL    HW120870   3.233   5.031   5.249
 6657SOL    HW220871   3.214   5.192   5.268
 6658SOL     OW20872   6.509   6.886   6.213
 6658SOL    HW120873   6.510   6.927   6.304
 6658SOL    HW220874   6.490   6.788   6.220
 6659SOL     OW20875   1.591   2.993   6.746
 6659SOL    HW120876   1.513   3.015   6.687
 6659SOL    HW220877   1.629   3.078   6.783
 6660SOL     OW20878   0.832   6.275   2.786
 6660SOL    HW120879   0.800   6.229   2.703
 6660SOL    HW220880   0.912   6.330   2.765
 6661SOL     OW20881   6.882   6.803   4.046
 6661SOL    HW120882   6.796   6.853   4.035
 6661SOL    HW220883   6.959   6.863   4.026
 6662SOL     OW20884   1.191   3.739   5.710
 6662SOL    HW120885   1.092   3.729   5.721
 6662SOL    HW220886   1.236   3.720   5.797
 6663SOL     OW20887   0.635   4.851   2.220
 6663SOL    HW120888   0.718   4.867   2.166
 6663SOL    HW220889   0.558   4.901   2.179
 6664SOL     OW20890   0.018   2.188   2.314
 6664SOL    HW120891   6.950   2.164   2.352
 6664SOL    HW220892   0.015   2.282   2.279
 6665SOL     OW20893   1.979   6.990   2.530
 6665SOL    HW120894   2.009   0.021   2.610
 6665SOL    HW220895   1.895   0.008   2.494
 6666SOL     OW20896   5.328   1.244   0.373
 6666SOL    HW120897   5.418   1.245   0.416
 6666SOL    HW220898   5.295   1.337   0.360
 6667SOL     OW20899   5.915   4.877   4.995
 6667SOL    HW120900   5.949   4.927   4.915
 6667SOL    HW220901   5.990   4.857   5.057
 6668SOL     OW20902   6.843   6.473   1.053
 6668SOL    HW120903   6.851   6.451   0.956
 6668SOL    HW220904   6.832   6.572   1.065
 6669SOL     OW20905   0.865   4.899   2.809
 6669SOL    HW120906   0.946   4.916   2.865
 6669SOL    HW220907   0.784   4.940   2.854
 6670SOL     OW20908   4.444   4.507   0.015
 6670SOL    HW120909   4.344   4.516   0.012
 6670SOL    HW220910   4.483   4.588   0.058
 6671SOL     OW20911   0.772   2.700   5.453
 6671SOL    HW120912   0.701   2.649   5.502
 6671SOL    HW220913   0.754   2.695   5.355
 6672SOL     OW20914   6.950   0.677   5.317
 6672SOL    HW120915   0.011   0.626   5.340
 6672SOL    HW220916   6.950   0.764   5.366
 6673SOL     OW20917   4.583   5.885   1.303
 6673SOL    HW120918   4.683   5.888   1.307
 6673SOL    HW220919   4.546   5.969   1.342
 6674SOL     OW20920   0.761   6.864   5.641
 6674SOL    HW120921   0.711   6.937   5.593
 6674SOL    HW220922   0.809   6.807   5.574
 6675SOL     OW20923   6.834   5.756   6.861
 6675SOL    HW120924   6.839   5.844   6.908
 6675SOL    HW220925   6.747   5.712   6.881
 6676SOL     OW20926   0.231   1.893   0.748
 6676SOL    HW120927   0.192   1.828   0.814
 6676SOL    HW220928   0.319   1.859   0.715
 6677SOL     OW20929   0.353   4.708   0.563
 6677SOL    HW120930   0.421   4.636   0.554
 6677SOL    HW220931   0.371   4.781   0.496
 6678SOL     OW20932   1.081   3.102   4.376
 6678SOL    HW120933   1.041   3.038   4.311
 6678SOL    HW220934   1.109   3.053   4.458
 6679SOL     OW20935   1.672   1.171   4.933
 6679SOL    HW120936   1.620   1.256   4.934
 6679SOL    HW220937   1.698   1.147   5.026
 6680SOL     OW20938   3.113   0.635   6.314
 6680SOL    HW120939   3.130   0.704   6.243
 6680SOL    HW220940   3.030   0.584   6.291
 6681SOL     OW20941   5.562   5.665   6.520
 6681SOL    HW120942   5.488   5.673   6.452
 6681SOL    HW220943   5.532   5.706   6.606
 6682SOL     OW20944   6.858   5.413   1.988
 6682SOL    HW120945   6.825   5.343   2.052
 6682SOL    HW220946   6.794   5.422   1.912
 6683SOL     OW20947   4.743   2.168   4.482
 6683SOL    HW120948   4.644   2.174   4.465
 6683SOL    HW220949   4.759   2.124   4.570
 6684SOL     OW20950   1.551   1.375   2.395
 6684SOL    HW120951   1.526   1.472   2.407
 6684SOL    HW220952   1.539   1.327   2.482
 6685SOL     OW20953   5.894   2.971   6.873
 6685SOL    HW120954   5.894   2.897   6.939
 6685SOL    HW220955   5.804   2.978   6.830
 6686SOL     OW20956   5.868   4.134   4.025
 6686SOL    HW120957   5.854   4.147   3.926
 6686SOL    HW220958   5.962   4.160   4.048
 6687SOL     OW20959   0.380   0.548   0.377
 6687SOL    HW120960   0.414   0.487   0.305
 6687SOL    HW220961   0.404   0.642   0.355
 6688SOL     OW20962   0.670   4.977   2.565
 6688SOL    HW120963   0.679   5.076   2.559
 6688SOL    HW220964   0.707   4.945   2.653
 6689SOL     OW20965   4.915   4.315   6.861
 6689SOL    HW120966   4.970   4.380   6.808
 6689SOL    HW220967   4.818   4.332   6.845
 6690SOL     OW20968   0.461   1.462   0.677
 6690SOL    HW120969   0.520   1.466   0.596
 6690SOL    HW220970   0.381   1.406   0.658
 6691SOL     OW20971   1.353   5.254   0.823
 6691SOL    HW120972   1.371   5.156   0.817
 6691SOL    HW220973   1.267   5.275   0.777
 6692SOL     OW20974   4.638   3.826   6.512
 6692SOL    HW120975   4.688   3.873   6.585
 6692SOL    HW220976   4.562   3.884   6.482
 6693SOL     OW20977   4.337   3.892   5.978
 6693SOL    HW120978   4.391   3.846   6.048
 6693SOL    HW220979   4.239   3.879   5.997
 6694SOL     OW20980   2.898   6.188   0.004
 6694SOL    HW120981   2.928   6.174   0.098
 6694SOL    HW220982   2.978   6.191   6.965
 6695SOL     OW20983   1.358   1.474   0.096
 6695SOL    HW120984   1.326   1.567   0.077
 6695SOL    HW220985   1.457   1.471   0.091
 6696SOL     OW20986   1.593   2.826   1.345
 6696SOL    HW120987   1.617   2.824   1.248
 6696SOL    HW220988   1.543   2.742   1.368
 6697SOL     OW20989   5.244   3.132   4.295
 6697SOL    HW120990   5.219   3.097   4.205
 6697SOL    HW220991   5.343   3.150   4.297
 6698SOL     OW20992   2.536   4.072   6.416
 6698SOL    HW120993   2.442   4.093   6.444
 6698SOL    HW220994   2.566   4.138   6.347
 6699SOL     OW20995   1.693   3.304   6.593
 6699SOL    HW120996   1.686   3.212   6.633
 6699SOL    HW220997   1.642   3.368   6.650
 6700SOL     OW20998   0.557   6.430   6.345
 6700SOL    HW120999   0.480   6.420   6.409
 6700SOL    HW221000   0.594   6.340   6.322
 6701SOL     OW21001   0.941   2.354   0.957
 6701SOL    HW121002   1.008   2.427   0.967
 6701SOL    HW221003   0.979   2.282   0.898
 6702SOL     OW21004   2.233   3.403   0.378
 6702SOL    HW121005   2.173   3.449   0.444
 6702SOL    HW221006   2.181   3.333   0.330
 6703SOL     OW21007   0.383   2.524   6.647
 6703SOL    HW121008   0.443   2.468   6.705
 6703SOL    HW221009   0.397   2.621   6.668
 6704SOL     OW21010   5.088   3.509   3.134
 6704SOL    HW121011   5.056   3.534   3.043
 6704SOL    HW221012   5.012   3.516   3.199
 6705SOL     OW21013   5.756   1.224   1.065
 6705SOL    HW121014   5.787   1.152   1.127
 6705SOL    HW221015   5.834   1.279   1.035
 6706SOL     OW21016   1.136   6.054   7.002
 6706SOL    HW121017   1.060   6.020   6.947
 6706SOL    HW221018   1.166   5.982   0.044
 6707SOL     OW21019   1.177   5.000   2.914
 6707SOL    HW121020   1.149   5.024   3.007
 6707SOL    HW221021   1.165   5.079   2.854
 6708SOL     OW21022   1.979   6.164   1.287
 6708SOL    HW121023   1.898   6.139   1.233
 6708SOL    HW221024   1.964   6.141   1.383
 6709SOL     OW21025   5.634   1.720   3.513
 6709SOL    HW121026   5.540   1.694   3.537
 6709SOL    HW221027   5.683   1.639   3.480
 6710SOL     OW21028   1.914   1.539   0.490
 6710SOL    HW121029   1.947   1.634   0.488
 6710SOL    HW221030   1.867   1.522   0.576
 6711SOL     OW21031   5.307   3.401   6.493
 6711SOL    HW121032   5.308   3.366   6.399
 6711SOL    HW221033   5.286   3.327   6.556
 6712SOL     OW21034   3.633   6.540   0.922
 6712SOL    HW121035   3.731   6.554   0.937
 6712SOL    HW221036   3.582   6.566   1.004
 6713SOL     OW21037   1.685   2.036   3.485
 6713SOL    HW121038   1.649   1.945   3.507
 6713SOL    HW221039   1.620   2.085   3.428
 6714SOL     OW21040   6.730   0.190   5.104
 6714SOL    HW121041   6.757   0.219   5.195
 6714SOL    HW221042   6.708   0.270   5.048
 6715SOL     OW21043   5.639   2.600   0.929
 6715SOL    HW121044   5.629   2.528   0.861
 6715SOL    HW221045   5.556   2.656   0.932
 6716SOL     OW21046   3.732   6.092   1.011
 6716SOL    HW121047   3.747   6.018   0.945
 6716SOL    HW221048   3.656   6.150   0.981
 6717SOL     OW21049   4.364   1.333   6.659
 6717SOL    HW121050   4.360   1.418   6.713
 6717SOL    HW221051   4.274   1.289   6.661
 6718SOL     OW21052   3.787   0.523   6.927
 6718SOL    HW121053   3.726   0.493   6.853
 6718SOL    HW221054   3.859   0.581   6.889
 6719SOL     OW21055   0.603   2.152   5.392
 6719SOL    HW121056   0.538   2.211   5.440
 6719SOL    HW221057   0.630   2.077   5.453
 6720SOL     OW21058   1.338   4.722   1.074
 6720SOL    HW121059   1.372   4.788   1.142
 6720SOL    HW221060   1.241   4.705   1.090
 6721SOL     OW21061   6.628   6.349   2.578
 6721SOL    HW121062   6.606   6.434   2.625
 6721SOL    HW221063   6.657   6.368   2.485
 6722SOL     OW21064   4.507   4.634   6.690
 6722SOL    HW121065   4.580   4.602   6.751
 6722SOL    HW221066   4.463   4.714   6.730
 6723SOL     OW21067   4.000   1.333   2.777
 6723SOL    HW121068   4.038   1.356   2.687
 6723SOL    HW221069   4.051   1.383   2.848
 6724SOL     OW21070   3.579   4.460   5.493
 6724SOL    HW121071   3.532   4.426   5.412
 6724SOL    HW221072   3.675   4.476   5.473
 6725SOL     OW21073   0.291   5.355   1.186
 6725SOL    HW121074   0.228   5.355   1.264
 6725SOL    HW221075   0.274   5.274   1.129
 6726SOL     OW21076   2.337   2.867   1.878
 6726SOL    HW121077   2.404   2.811   1.830
 6726SOL    HW221078   2.362   2.964   1.869
 6727SOL     OW21079   3.288   4.243   0.825
 6727SOL    HW121080   3.200   4.227   0.871
 6727SOL    HW221081   3.277   4.229   0.727
 6728SOL     OW21082   4.567   1.283   4.447
 6728SOL    HW121083   4.544   1.335   4.529
 6728SOL    HW221084   4.483   1.260   4.397
 6729SOL     OW21085   5.143   6.065   3.303
 6729SOL    HW121086   5.052   6.102   3.281
 6729SOL    HW221087   5.148   6.046   3.401
 6730SOL     OW21088   1.335   6.844   2.445
 6730SOL    HW121089   1.247   6.878   2.480
 6730SOL    HW221090   1.322   6.754   2.404
 6731SOL     OW21091   1.995   4.029   1.767
 6731SOL    HW121092   1.989   4.075   1.855
 6731SOL    HW221093   2.028   4.093   1.698
 6732SOL     OW21094   2.945   5.719   0.630
 6732SOL    HW121095   3.006   5.681   0.699
 6732SOL    HW221096   2.892   5.793   0.670
 6733SOL     OW21097   6.308   5.764   4.606
 6733SOL    HW121098   6.237   5.748   4.537
 6733SOL    HW221099   6.362   5.681   4.618
 6734SOL     OW21100   2.426   3.440   6.279
 6734SOL    HW121101   2.337   3.427   6.236
 6734SOL    HW221102   2.450   3.537   6.279
 6735SOL     OW21103   0.806   6.552   6.358
 6735SOL    HW121104   0.711   6.529   6.339
 6735SOL    HW221105   0.846   6.482   6.418
 6736SOL     OW21106   2.474   4.619   1.860
 6736SOL    HW121107   2.558   4.656   1.821
 6736SOL    HW221108   2.458   4.660   1.950
 6737SOL     OW21109   1.454   6.716   0.957
 6737SOL    HW121110   1.459   6.736   1.055
 6737SOL    HW221111   1.492   6.625   0.939
 6738SOL     OW21112   4.687   1.620   1.615
 6738SOL    HW121113   4.611   1.630   1.551
 6738SOL    HW221114   4.673   1.682   1.692
 6739SOL     OW21115   4.242   6.451   5.393
 6739SOL    HW121116   4.199   6.497   5.316
 6739SOL    HW221117   4.274   6.519   5.460
 6740SOL     OW21118   5.836   2.490   5.771
 6740SOL    HW121119   5.935   2.484   5.753
 6740SOL    HW221120   5.789   2.418   5.720
 6741SOL     OW21121   6.953   0.437   5.667
 6741SOL    HW121122   6.901   0.493   5.730
 6741SOL    HW221123   6.904   0.352   5.648
 6742SOL     OW21124   6.268   5.753   5.079
 6742SOL    HW121125   6.225   5.790   4.996
 6742SOL    HW221126   6.331   5.679   5.053
 6743SOL     OW21127   5.898   2.275   1.625
 6743SOL    HW121128   5.960   2.269   1.703
 6743SOL    HW221129   5.829   2.346   1.643
 6744SOL     OW21130   4.756   0.145   4.048
 6744SOL    HW121131   4.781   0.167   4.142
 6744SOL    HW221132   4.685   0.075   4.048
 6745SOL     OW21133   0.345   3.565   3.317
 6745SOL    HW121134   0.347   3.467   3.300
 6745SOL    HW221135   0.321   3.582   3.413
 6746SOL     OW21136   6.137   1.040   0.601
 6746SOL    HW121137   6.087   1.115   0.646
 6746SOL    HW221138   6.157   1.066   0.507
 6747SOL     OW21139   4.810   5.480   6.833
 6747SOL    HW121140   4.723   5.525   6.814
 6747SOL    HW221141   4.882   5.520   6.775
 6748SOL     OW21142   7.006   6.519   2.570
 6748SOL    HW121143   6.971   6.431   2.538
 6748SOL    HW221144   6.962   6.593   2.519
 6749SOL     OW21145   2.630   5.376   1.118
 6749SOL    HW121146   2.722   5.358   1.086
 6749SOL    HW221147   2.593   5.294   1.161
 6750SOL     OW21148   2.291   2.960   5.377
 6750SOL    HW121149   2.266   2.869   5.344
 6750SOL    HW221150   2.365   2.997   5.321
 6751SOL     OW21151   4.175   2.278   5.821
 6751SOL    HW121152   4.204   2.212   5.751
 6751SOL    HW221153   4.134   2.229   5.898
 6752SOL     OW21154   0.012   1.685   6.864
 6752SOL    HW121155   7.000   1.661   6.955
 6752SOL    HW221156   7.016   1.781   6.846
 6753SOL     OW21157   6.445   1.237   6.731
 6753SOL    HW121158   6.534   1.265   6.767
 6753SOL    HW221159   6.458   1.182   6.648
 6754SOL     OW21160   4.501   0.510   6.827
 6754SOL    HW121161   4.547   0.598   6.820
 6754SOL    HW221162   4.469   0.482   6.737
 6755SOL     OW21163   5.383   1.584   3.548
 6755SOL    HW121164   5.423   1.493   3.556
 6755SOL    HW221165   5.342   1.595   3.458
 6756SOL     OW21166   4.590   4.808   3.639
 6756SOL    HW121167   4.681   4.836   3.607
 6756SOL    HW221168   4.598   4.723   3.691
 6757SOL     OW21169   5.972   4.448   1.360
 6757SOL    HW121170   5.961   4.496   1.274
 6757SOL    HW221171   6.037   4.497   1.418
 6758SOL     OW21172   6.600   2.050   2.714
 6758SOL    HW121173   6.570   2.126   2.657
 6758SOL    HW221174   6.538   1.972   2.702
 6759SOL     OW21175   1.039   5.217   3.604
 6759SOL    HW121176   1.024   5.119   3.593
 6759SOL    HW221177   1.103   5.232   3.680
 6760SOL     OW21178   0.072   3.569   5.021
 6760SOL    HW121179   0.009   3.638   4.986
 6760SOL    HW221180   0.150   3.613   5.065
 6761SOL     OW21181   6.148   2.982   6.095
 6761SOL    HW121182   6.213   2.970   6.170
 6761SOL    HW221183   6.123   3.079   6.090
 6762SOL     OW21184   0.323   3.587   3.848
 6762SOL    HW121185   0.358   3.641   3.926
 6762SOL    HW221186   0.396   3.528   3.814
 6763SOL     OW21187   6.379   6.503   5.585
 6763SOL    HW121188   6.311   6.463   5.647
 6763SOL    HW221189   6.363   6.468   5.493
 6764SOL     OW21190   1.744   3.785   0.127
 6764SOL    HW121191   1.667   3.774   0.191
 6764SOL    HW221192   1.830   3.767   0.175
 6765SOL     OW21193   4.994   4.972   2.284
 6765SOL    HW121194   4.942   5.024   2.216
 6765SOL    HW221195   5.023   5.034   2.357
 6766SOL     OW21196   2.823   2.506   5.981
 6766SOL    HW121197   2.883   2.564   5.926
 6766SOL    HW221198   2.794   2.427   5.926
 6767SOL     OW21199   0.627   2.710   5.787
 6767SOL    HW121200   0.590   2.802   5.806
 6767SOL    HW221201   0.567   2.642   5.829
 6768SOL     OW21202   6.811   0.652   5.791
 6768SOL    HW121203   6.897   0.703   5.790
 6768SOL    HW221204   6.736   0.714   5.769
 6769SOL     OW21205   1.153   2.282   6.166
 6769SOL    HW121206   1.142   2.254   6.262
 6769SOL    HW221207   1.101   2.220   6.107
 6770SOL     OW21208   6.992   1.686   3.440
 6770SOL    HW121209   0.002   1.609   3.384
 6770SOL    HW221210   0.020   1.769   3.415
 6771SOL     OW21211   6.033   2.381   2.549
 6771SOL    HW121212   6.008   2.428   2.464
 6771SOL    HW221213   5.951   2.364   2.603
 6772SOL     OW21214   0.998   0.668   1.974
 6772SOL    HW121215   1.065   0.742   1.964
 6772SOL    HW221216   0.906   0.705   1.965
 6773SOL     OW21217   1.459   0.978   2.819
 6773SOL    HW121218   1.395   1.039   2.864
 6773SOL    HW221219   1.551   0.991   2.856
 6774SOL     OW21220   4.030   1.256   5.314
 6774SOL    HW121221   4.080   1.314   5.251
 6774SOL    HW221222   3.970   1.312   5.371
 6775SOL     OW21223   1.678   2.180   4.806
 6775SOL    HW121224   1.654   2.276   4.798
 6775SOL    HW221225   1.732   2.166   4.889
 6776SOL     OW21226   3.577   3.737   3.686
 6776SOL    HW121227   3.577   3.835   3.702
 6776SOL    HW221228   3.491   3.698   3.719
 6777SOL     OW21229   0.167   0.304   5.857
 6777SOL    HW121230   0.182   0.221   5.803
 6777SOL    HW221231   0.112   0.369   5.805
 6778SOL     OW21232   6.684   5.717   1.987
 6778SOL    HW121233   6.766   5.728   2.044
 6778SOL    HW221234   6.708   5.731   1.891
 6779SOL     OW21235   4.970   4.383   6.444
 6779SOL    HW121236   4.913   4.306   6.416
 6779SOL    HW221237   5.061   4.374   6.403
 6780SOL     OW21238   4.775   0.985   2.413
 6780SOL    HW121239   4.771   1.022   2.505
 6780SOL    HW221240   4.683   0.973   2.377
 6781SOL     OW21241   5.848   3.978   3.029
 6781SOL    HW121242   5.941   3.943   3.038
 6781SOL    HW221243   5.847   4.075   3.051
 6782SOL     OW21244   0.117   1.729   2.576
 6782SOL    HW121245   0.051   1.745   2.650
 6782SOL    HW221246   0.196   1.680   2.613
 6783SOL     OW21247   0.535   6.245   6.693
 6783SOL    HW121248   0.504   6.227   6.787
 6783SOL    HW221249   0.459   6.281   6.639
 6784SOL     OW21250   1.250   4.766   6.575
 6784SOL    HW121251   1.301   4.728   6.497
 6784SOL    HW221252   1.300   4.748   6.659
 6785SOL     OW21253   5.394   4.444   1.866
 6785SOL    HW121254   5.467   4.505   1.899
 6785SOL    HW221255   5.332   4.496   1.807
 6786SOL     OW21256   6.404   1.755   5.554
 6786SOL    HW121257   6.395   1.693   5.632
 6786SOL    HW221258   6.496   1.747   5.515
 6787SOL     OW21259   4.022   2.411   1.374
 6787SOL    HW121260   4.003   2.508   1.363
 6787SOL    HW221261   4.098   2.400   1.439
 6788SOL     OW21262   1.397   4.358   0.924
 6788SOL    HW121263   1.313   4.365   0.871
 6788SOL    HW221264   1.401   4.269   0.969
 6789SOL     OW21265   6.449   3.062   2.031
 6789SOL    HW121266   6.370   3.004   2.052
 6789SOL    HW221267   6.531   3.023   2.075
 6790SOL     OW21268   0.417   5.569   0.683
 6790SOL    HW121269   0.333   5.624   0.683
 6790SOL    HW221270   0.469   5.588   0.599
 6791SOL     OW21271   1.877   6.360   3.375
 6791SOL    HW121272   1.824   6.368   3.459
 6791SOL    HW221273   1.955   6.299   3.390
 6792SOL     OW21274   3.707   5.907   6.758
 6792SOL    HW121275   3.647   5.830   6.740
 6792SOL    HW221276   3.749   5.896   6.848
 6793SOL     OW21277   1.892   3.747   6.699
 6793SOL    HW121278   1.875   3.827   6.756
 6793SOL    HW221279   1.962   3.769   6.631
 6794SOL     OW21280   4.501   2.425   4.304
 6794SOL    HW121281   4.432   2.425   4.232
 6794SOL    HW221282   4.486   2.348   4.366
 6795SOL     OW21283   0.729   0.780   2.297
 6795SOL    HW121284   0.769   0.872   2.298
 6795SOL    HW221285   0.794   0.715   2.335
 6796SOL     OW21286   6.942   3.045   1.965
 6796SOL    HW121287   6.974   3.021   2.057
 6796SOL    HW221288   7.021   3.056   1.904
 6797SOL     OW21289   1.997   3.521   0.495
 6797SOL    HW121290   1.976   3.428   0.527
 6797SOL    HW221291   1.960   3.587   0.560
 6798SOL     OW21292   5.045   1.810   1.738
 6798SOL    HW121293   4.977   1.741   1.715
 6798SOL    HW221294   5.129   1.791   1.688
 6799SOL     OW21295   5.108   6.922   2.743
 6799SOL    HW121296   5.148   7.000   2.791
 6799SOL    HW221297   5.167   6.842   2.756
 6800SOL     OW21298   6.672   2.696   2.074
 6800SOL    HW121299   6.701   2.762   2.004
 6800SOL    HW221300   6.635   2.746   2.153
 6801SOL     OW21301   2.284   5.369   5.260
 6801SOL    HW121302   2.302   5.275   5.290
 6801SOL    HW221303   2.343   5.432   5.310
 6802SOL     OW21304   2.829   4.477   1.605
 6802SOL    HW121305   2.891   4.464   1.528
 6802SOL    HW221306   2.881   4.480   1.690
 6803SOL     OW21307   6.310   5.233   6.349
 6803SOL    HW121308   6.385   5.201   6.406
 6803SOL    HW221309   6.230   5.174   6.362
 6804SOL     OW21310   3.359   4.871   1.906
 6804SOL    HW121311   3.453   4.846   1.884
 6804SOL    HW221312   3.327   4.817   1.984
 6805SOL     OW21313   0.444   3.799   4.017
 6805SOL    HW121314   0.473   3.820   3.923
 6805SOL    HW221315   0.525   3.793   4.076
 6806SOL     OW21316   6.201   3.692   1.963
 6806SOL    HW121317   6.235   3.635   1.887
 6806SOL    HW221318   6.108   3.665   1.986
 6807SOL     OW21319   4.007   3.133   2.454
 6807SOL    HW121320   4.073   3.167   2.387
 6807SOL    HW221321   4.017   3.034   2.463
 6808SOL     OW21322   3.207   6.144   3.874
 6808SOL    HW121323   3.151   6.195   3.940
 6808SOL    HW221324   3.152   6.120   3.795
 6809SOL     OW21325   5.933   3.117   0.697
 6809SOL    HW121326   5.836   3.095   0.705
 6809SOL    HW221327   5.986   3.056   0.756
 6810SOL     OW21328   3.190   0.211   4.776
 6810SOL    HW121329   3.113   0.259   4.734
 6810SOL    HW221330   3.254   0.183   4.705
 6811SOL     OW21331   6.578   1.587   1.385
 6811SOL    HW121332   6.630   1.536   1.316
 6811SOL    HW221333   6.639   1.651   1.432
 6812SOL     OW21334   3.225   4.330   5.511
 6812SOL    HW121335   3.178   4.311   5.425
 6812SOL    HW221336   3.320   4.353   5.493
 6813SOL     OW21337   6.947   4.077   2.314
 6813SOL    HW121338   6.952   4.124   2.226
 6813SOL    HW221339   6.909   3.985   2.301
 6814SOL     OW21340   4.411   2.542   1.393
 6814SOL    HW121341   4.322   2.504   1.420
 6814SOL    HW221342   4.437   2.614   1.457
 6815SOL     OW21343   1.505   5.910   0.711
 6815SOL    HW121344   1.419   5.944   0.749
 6815SOL    HW221345   1.545   5.843   0.774
 6816SOL     OW21346   5.687   6.775   3.531
 6816SOL    HW121347   5.606   6.790   3.587
 6816SOL    HW221348   5.661   6.732   3.444
 6817SOL     OW21349   5.789   0.685   1.654
 6817SOL    HW121350   5.753   0.696   1.562
 6817SOL    HW221351   5.862   0.616   1.654
 6818SOL     OW21352   6.928   0.017   5.503
 6818SOL    HW121353   6.906   0.094   5.443
 6818SOL    HW221354   6.844   6.996   5.535
 6819SOL     OW21355   5.813   3.810   0.463
 6819SOL    HW121356   5.902   3.846   0.493
 6819SOL    HW221357   5.795   3.843   0.370
 6820SOL     OW21358   2.052   4.682   1.074
 6820SOL    HW121359   2.060   4.677   1.174
 6820SOL    HW221360   2.054   4.590   1.036
 6821SOL     OW21361   2.946   3.033   6.030
 6821SOL    HW121362   3.001   3.023   5.947
 6821SOL    HW221363   2.870   3.094   6.012
 6822SOL     OW21364   6.908   4.205   5.003
 6822SOL    HW121365   6.817   4.174   5.029
 6822SOL    HW221366   6.967   4.207   5.084
 6823SOL     OW21367   6.601   3.078   5.554
 6823SOL    HW121368   6.613   3.165   5.505
 6823SOL    HW221369   6.690   3.045   5.585
 6824SOL     OW21370   0.583   0.267   3.836
 6824SOL    HW121371   0.564   0.177   3.798
 6824SOL    HW221372   0.518   0.334   3.799
 6825SOL     OW21373   4.941   4.823   1.817
 6825SOL    HW121374   4.886   4.903   1.795
 6825SOL    HW221375   5.011   4.847   1.884
 6826SOL     OW21376   5.537   1.089   3.813
 6826SOL    HW121377   5.463   1.083   3.879
 6826SOL    HW221378   5.606   1.154   3.846
 6827SOL     OW21379   5.073   5.029   5.300
 6827SOL    HW121380   5.083   5.024   5.399
 6827SOL    HW221381   5.163   5.017   5.257
 6828SOL     OW21382   2.471   2.281   2.594
 6828SOL    HW121383   2.567   2.255   2.610
 6828SOL    HW221384   2.415   2.198   2.588
 6829SOL     OW21385   5.457   6.867   4.212
 6829SOL    HW121386   5.439   6.947   4.270
 6829SOL    HW221387   5.476   6.897   4.119
 6830SOL     OW21388   3.476   6.259   2.135
 6830SOL    HW121389   3.517   6.179   2.177
 6830SOL    HW221390   3.443   6.236   2.043
 6831SOL     OW21391   2.404   0.692   0.278
 6831SOL    HW121392   2.369   0.750   0.205
 6831SOL    HW221393   2.504   0.691   0.275
 6832SOL     OW21394   3.248   3.374   0.502
 6832SOL    HW121395   3.330   3.410   0.546
 6832SOL    HW221396   3.271   3.340   0.411
 6833SOL     OW21397   4.606   5.053   0.381
 6833SOL    HW121398   4.694   5.015   0.407
 6833SOL    HW221399   4.609   5.153   0.388
 6834SOL     OW21400   6.358   5.463   5.368
 6834SOL    HW121401   6.407   5.376   5.355
 6834SOL    HW221402   6.337   5.475   5.465
 6835SOL     OW21403   4.101   0.224   2.701
 6835SOL    HW121404   4.029   0.289   2.728
 6835SOL    HW221405   4.190   0.268   2.709
 6836SOL     OW21406   0.828   4.797   6.871
 6836SOL    HW121407   0.794   4.872   6.813
 6836SOL    HW221408   0.925   4.783   6.854
 6837SOL     OW21409   6.694   2.712   1.624
 6837SOL    HW121410   6.716   2.634   1.684
 6837SOL    HW221411   6.597   2.735   1.633
 6838SOL     OW21412   2.050   4.088   0.054
 6838SOL    HW121413   2.089   4.159   0.112
 6838SOL    HW221414   2.116   4.014   0.043
 6839SOL     OW21415   6.009   2.097   5.726
 6839SOL    HW121416   5.999   1.998   5.713
 6839SOL    HW221417   5.918   2.138   5.738
 6840SOL     OW21418   3.368   0.133   4.562
 6840SOL    HW121419   3.438   0.083   4.613
 6840SOL    HW221420   3.376   0.113   4.465
 6841SOL     OW21421   4.831   5.771   0.629
 6841SOL    HW121422   4.818   5.860   0.675
 6841SOL    HW221423   4.816   5.698   0.695
 6842SOL     OW21424   1.000   3.437   3.464
 6842SOL    HW121425   0.986   3.527   3.422
 6842SOL    HW221426   0.958   3.436   3.554
 6843SOL     OW21427   4.770   3.006   1.672
 6843SOL    HW121428   4.697   3.022   1.739
 6843SOL    HW221429   4.859   3.024   1.714
 6844SOL     OW21430   3.722   6.857   4.427
 6844SOL    HW121431   3.623   6.853   4.446
 6844SOL    HW221432   3.772   6.830   4.510
 6845SOL     OW21433   3.515   3.950   7.016
 6845SOL    HW121434   3.435   3.975   0.048
 6845SOL    HW221435   3.535   3.852   0.007
 6846SOL     OW21436   3.578   2.868   4.176
 6846SOL    HW121437   3.615   2.776   4.183
 6846SOL    HW221438   3.486   2.870   4.216
 6847SOL     OW21439   5.210   3.689   2.251
 6847SOL    HW121440   5.201   3.701   2.152
 6847SOL    HW221441   5.120   3.696   2.293
 6848SOL     OW21442   0.842   5.832   4.544
 6848SOL    HW121443   0.893   5.746   4.548
 6848SOL    HW221444   0.756   5.822   4.594
 6849SOL     OW21445   3.316   0.308   5.017
 6849SOL    HW121446   3.415   0.319   5.014
 6849SOL    HW221447   3.283   0.272   4.929
 6850SOL     OW21448   6.572   3.682   2.018
 6850SOL    HW121449   6.490   3.678   2.075
 6850SOL    HW221450   6.549   3.723   1.929
 6851SOL     OW21451   1.887   5.726   0.385
 6851SOL    HW121452   1.894   5.632   0.419
 6851SOL    HW221453   1.809   5.772   0.427
 6852SOL     OW21454   5.613   4.941   1.840
 6852SOL    HW121455   5.629   4.902   1.931
 6852SOL    HW221456   5.606   4.867   1.773
 6853SOL     OW21457   6.285   4.234   4.441
 6853SOL    HW121458   6.301   4.324   4.400
 6853SOL    HW221459   6.348   4.167   4.402
 6854SOL     OW21460   5.759   1.090   6.619
 6854SOL    HW121461   5.850   1.054   6.601
 6854SOL    HW221462   5.743   1.170   6.561
 6855SOL     OW21463   3.286   6.925   1.858
 6855SOL    HW121464   3.224   6.899   1.932
 6855SOL    HW221465   3.362   6.979   1.896
 6856SOL     OW21466   0.477   5.123   5.508
 6856SOL    HW121467   0.442   5.104   5.416
 6856SOL    HW221468   0.544   5.053   5.533
 6857SOL     OW21469   4.717   0.394   0.182
 6857SOL    HW121470   4.810   0.375   0.149
 6857SOL    HW221471   4.661   0.312   0.172
 6858SOL     OW21472   3.443   2.660   6.538
 6858SOL    HW121473   3.386   2.707   6.606
 6858SOL    HW221474   3.384   2.619   6.469
 6859SOL     OW21475   4.499   0.788   0.566
 6859SOL    HW121476   4.569   0.772   0.635
 6859SOL    HW221477   4.410   0.798   0.610
 6860SOL     OW21478   5.031   3.346   6.895
 6860SOL    HW121479   4.995   3.374   6.984
 6860SOL    HW221480   5.015   3.248   6.883
 6861SOL     OW21481   6.289   3.714   7.006
 6861SOL    HW121482   6.303   3.719   0.083
 6861SOL    HW221483   6.201   3.670   6.987
 6862SOL     OW21484   2.555   4.579   4.755
 6862SOL    HW121485   2.552   4.486   4.791
 6862SOL    HW221486   2.472   4.598   4.704
 6863SOL     OW21487   0.856   3.449   3.720
 6863SOL    HW121488   0.766   3.406   3.708
 6863SOL    HW221489   0.843   3.543   3.751
 6864SOL     OW21490   3.329   5.405   5.965
 6864SOL    HW121491   3.258   5.420   6.034
 6864SOL    HW221492   3.310   5.320   5.916
 6865SOL     OW21493   1.401   2.575   5.106
 6865SOL    HW121494   1.304   2.600   5.105
 6865SOL    HW221495   1.455   2.656   5.085
 6866SOL     OW21496   0.735   4.062   2.607
 6866SOL    HW121497   0.810   4.093   2.548
 6866SOL    HW221498   0.656   4.039   2.551
 6867SOL     OW21499   2.073   5.374   3.207
 6867SOL    HW121500   2.021   5.309   3.152
 6867SOL    HW221501   2.166   5.340   3.220
 6868SOL     OW21502   2.004   5.795   4.933
 6868SOL    HW121503   2.000   5.716   4.994
 6868SOL    HW221504   2.062   5.866   4.975
 6869SOL     OW21505   0.532   2.742   4.933
 6869SOL    HW121506   0.496   2.834   4.947
 6869SOL    HW221507   0.589   2.716   5.010
 6870SOL     OW21508   5.554   3.949   3.029
 6870SOL    HW121509   5.546   3.855   3.063
 6870SOL    HW221510   5.651   3.971   3.015
 6871SOL     OW21511   4.313   5.667   1.600
 6871SOL    HW121512   4.337   5.667   1.503
 6871SOL    HW221513   4.392   5.695   1.654
 6872SOL     OW21514   3.481   4.441   0.844
 6872SOL    HW121515   3.448   4.500   0.770
 6872SOL    HW221516   3.426   4.358   0.847
 6873SOL     OW21517   5.600   4.663   5.225
 6873SOL    HW121518   5.696   4.635   5.225
 6873SOL    HW221519   5.542   4.585   5.203
 6874SOL     OW21520   1.057   2.035   6.413
 6874SOL    HW121521   1.069   2.027   6.512
 6874SOL    HW221522   1.000   1.960   6.381
 6875SOL     OW21523   3.983   0.274   5.119
 6875SOL    HW121524   3.915   0.208   5.087
 6875SOL    HW221525   3.949   0.321   5.200
 6876SOL     OW21526   3.067   6.236   4.442
 6876SOL    HW121527   3.113   6.151   4.415
 6876SOL    HW221528   3.093   6.260   4.535
 6877SOL     OW21529   2.469   3.800   6.823
 6877SOL    HW121530   2.524   3.841   6.896
 6877SOL    HW221531   2.505   3.709   6.802
 6878SOL     OW21532   1.508   1.397   4.954
 6878SOL    HW121533   1.481   1.397   4.858
 6878SOL    HW221534   1.430   1.369   5.010
 6879SOL     OW21535   6.473   1.238   5.593
 6879SOL    HW121536   6.508   1.232   5.687
 6879SOL    HW221537   6.496   1.327   5.554
 6880SOL     OW21538   1.289   4.021   4.604
 6880SOL    HW121539   1.277   4.054   4.698
 6880SOL    HW221540   1.355   4.079   4.557
 6881SOL     OW21541   5.076   5.713   1.393
 6881SOL    HW121542   5.121   5.666   1.317
 6881SOL    HW221543   4.983   5.679   1.404
 6882SOL     OW21544   2.367   5.824   5.702
 6882SOL    HW121545   2.284   5.778   5.733
 6882SOL    HW221546   2.447   5.776   5.738
 6883SOL     OW21547   3.061   6.200   2.092
 6883SOL    HW121548   3.068   6.199   1.993
 6883SOL    HW221549   3.109   6.121   2.130
 6884SOL     OW21550   2.023   4.436   2.807
 6884SOL    HW121551   2.093   4.506   2.811
 6884SOL    HW221552   1.932   4.479   2.808
 6885SOL     OW21553   4.318   4.670   4.736
 6885SOL    HW121554   4.236   4.722   4.714
 6885SOL    HW221555   4.308   4.626   4.825
 6886SOL     OW21556   5.502   0.419   1.481
 6886SOL    HW121557   5.487   0.511   1.445
 6886SOL    HW221558   5.596   0.392   1.464
 6887SOL     OW21559   6.105   1.128   4.890
 6887SOL    HW121560   6.175   1.138   4.960
 6887SOL    HW221561   6.094   1.031   4.867
 6888SOL     OW21562   6.485   0.111   3.793
 6888SOL    HW121563   6.503   0.153   3.882
 6888SOL    HW221564   6.451   0.180   3.729
 6889SOL     OW21565   2.267   3.846   6.408
 6889SOL    HW121566   2.207   3.777   6.448
 6889SOL    HW221567   2.350   3.804   6.374
 6890SOL     OW21568   0.929   0.366   1.398
 6890SOL    HW121569   0.992   0.300   1.439
 6890SOL    HW221570   0.981   0.431   1.343
 6891SOL     OW21571   4.311   5.260   5.964
 6891SOL    HW121572   4.332   5.163   5.976
 6891SOL    HW221573   4.395   5.309   5.940
 6892SOL     OW21574   3.313   1.772   4.224
 6892SOL    HW121575   3.225   1.746   4.185
 6892SOL    HW221576   3.309   1.867   4.255
 6893SOL     OW21577   5.209   6.969   1.353
 6893SOL    HW121578   5.294   6.986   1.302
 6893SOL    HW221579   5.131   6.977   1.291
 6894SOL     OW21580   6.025   4.670   5.858
 6894SOL    HW121581   6.017   4.768   5.839
 6894SOL    HW221582   6.007   4.653   5.954
 6895SOL     OW21583   4.346   5.192   5.647
 6895SOL    HW121584   4.316   5.287   5.649
 6895SOL    HW221585   4.445   5.188   5.634
 6896SOL     OW21586   5.265   1.997   2.282
 6896SOL    HW121587   5.224   1.938   2.351
 6896SOL    HW221588   5.364   2.002   2.296
 6897SOL     OW21589   3.849   0.763   1.402
 6897SOL    HW121590   3.802   0.800   1.482
 6897SOL    HW221591   3.809   0.800   1.319
 6898SOL     OW21592   3.448   1.351   2.153
 6898SOL    HW121593   3.505   1.361   2.234
 6898SOL    HW221594   3.406   1.439   2.130
 6899SOL     OW21595   5.656   4.937   5.957
 6899SOL    HW121596   5.668   4.838   5.948
 6899SOL    HW221597   5.678   4.981   5.870
 6900SOL     OW21598   4.349   6.956   6.394
 6900SOL    HW121599   4.261   6.922   6.362
 6900SOL    HW221600   4.363   6.928   6.489
 6901SOL     OW21601   2.034   0.520   0.247
 6901SOL    HW121602   2.081   0.580   0.183
 6901SOL    HW221603   2.013   0.433   0.203
 6902SOL     OW21604   6.767   5.936   2.488
 6902SOL    HW121605   6.791   6.004   2.557
 6902SOL    HW221606   6.725   5.982   2.409
 6903SOL     OW21607   5.762   4.534   0.059
 6903SOL    HW121608   5.802   4.473   7.013
 6903SOL    HW221609   5.677   4.496   0.094
 6904SOL     OW21610   0.349   0.867   3.090
 6904SOL    HW121611   0.314   0.784   3.046
 6904SOL    HW221612   0.317   0.871   3.184
 6905SOL     OW21613   3.576   5.370   0.723
 6905SOL    HW121614   3.609   5.284   0.684
 6905SOL    HW221615   3.531   5.353   0.810
 6906SOL     OW21616   6.093   6.185   2.653
 6906SOL    HW121617   6.186   6.197   2.686
 6906SOL    HW221618   6.051   6.274   2.636
 6907SOL     OW21619   3.448   0.608   1.627
 6907SOL    HW121620   3.453   0.579   1.531
 6907SOL    HW221621   3.363   0.656   1.643
 6908SOL     OW21622   5.324   6.643   6.709
 6908SOL    HW121623   5.279   6.717   6.660
 6908SOL    HW221624   5.266   6.614   6.786
 6909SOL     OW21625   2.252   2.076   0.410
 6909SOL    HW121626   2.208   1.988   0.388
 6909SOL    HW221627   2.251   2.090   0.508
 6910SOL     OW21628   5.231   1.065   1.126
 6910SOL    HW121629   5.145   1.037   1.083
 6910SOL    HW221630   5.232   1.033   1.221
 6911SOL     OW21631   4.140   0.059   4.777
 6911SOL    HW121632   4.066   0.013   4.726
 6911SOL    HW221633   4.112   0.152   4.799
 6912SOL     OW21634   3.887   5.161   1.853
 6912SOL    HW121635   3.795   5.179   1.889
 6912SOL    HW221636   3.890   5.068   1.815
 6913SOL     OW21637   5.117   5.777   5.345
 6913SOL    HW121638   5.039   5.734   5.300
 6913SOL    HW221639   5.158   5.713   5.410
 6914SOL     OW21640   6.629   4.838   0.318
 6914SOL    HW121641   6.706   4.899   0.300
 6914SOL    HW221642   6.576   4.874   0.395
 6915SOL     OW21643   0.417   6.924   0.687
 6915SOL    HW121644   0.384   6.948   0.779
 6915SOL    HW221645   0.340   6.925   0.623
 6916SOL     OW21646   5.861   0.866   5.534
 6916SOL    HW121647   5.840   0.849   5.437
 6916SOL    HW221648   5.779   0.895   5.581
 6917SOL     OW21649   4.638   6.551   5.661
 6917SOL    HW121650   4.637   6.634   5.717
 6917SOL    HW221651   4.552   6.544   5.610
 6918SOL     OW21652   2.184   2.513   3.484
 6918SOL    HW121653   2.272   2.483   3.521
 6918SOL    HW221654   2.132   2.560   3.556
 6919SOL     OW21655   1.385   5.977   3.365
 6919SOL    HW121656   1.414   6.068   3.396
 6919SOL    HW221657   1.325   5.986   3.286
 6920SOL     OW21658   5.248   5.765   4.036
 6920SOL    HW121659   5.233   5.833   4.108
 6920SOL    HW221660   5.317   5.798   3.972
 6921SOL     OW21661   1.486   5.569   3.632
 6921SOL    HW121662   1.533   5.652   3.603
 6921SOL    HW221663   1.553   5.502   3.664
 6922SOL     OW21664   2.085   6.337   1.106
 6922SOL    HW121665   2.024   6.281   1.163
 6922SOL    HW221666   2.041   6.356   1.019
 6923SOL     OW21667   4.941   5.691   3.671
 6923SOL    HW121668   4.851   5.715   3.634
 6923SOL    HW221669   4.971   5.604   3.633
 6924SOL     OW21670   5.793   5.697   1.949
 6924SOL    HW121671   5.836   5.718   1.861
 6924SOL    HW221672   5.726   5.624   1.936
 6925SOL     OW21673   5.089   5.548   2.383
 6925SOL    HW121674   5.039   5.579   2.464
 6925SOL    HW221675   5.026   5.541   2.306
 6926SOL     OW21676   2.740   3.870   5.512
 6926SOL    HW121677   2.751   3.944   5.578
 6926SOL    HW221678   2.709   3.907   5.425
 6927SOL     OW21679   3.762   4.008   0.735
 6927SOL    HW121680   3.784   4.045   0.825
 6927SOL    HW221681   3.694   4.067   0.691
 6928SOL     OW21682   6.873   0.463   6.824
 6928SOL    HW121683   6.843   0.558   6.838
 6928SOL    HW221684   6.893   0.449   6.727
 6929SOL     OW21685   3.422   5.372   2.058
 6929SOL    HW121686   3.399   5.286   2.012
 6929SOL    HW221687   3.344   5.434   2.054
 6930SOL     OW21688   0.154   0.285   2.722
 6930SOL    HW121689   0.078   0.219   2.714
 6930SOL    HW221690   0.237   0.236   2.749
 6931SOL     OW21691   2.799   0.443   0.500
 6931SOL    HW121692   2.876   0.380   0.502
 6931SOL    HW221693   2.771   0.463   0.594
 6932SOL     OW21694   2.974   2.046   0.375
 6932SOL    HW121695   2.875   2.031   0.387
 6932SOL    HW221696   3.024   1.994   0.444
 6933SOL     OW21697   2.724   6.342   5.258
 6933SOL    HW121698   2.662   6.285   5.312
 6933SOL    HW221699   2.801   6.287   5.226
 6934SOL     OW21700   5.442   4.941   6.391
 6934SOL    HW121701   5.442   4.901   6.299
 6934SOL    HW221702   5.490   4.880   6.454
 6935SOL     OW21703   4.248   5.699   3.069
 6935SOL    HW121704   4.257   5.627   3.001
 6935SOL    HW221705   4.338   5.726   3.103
 6936SOL     OW21706   0.443   4.562   0.986
 6936SOL    HW121707   0.490   4.649   0.971
 6936SOL    HW221708   0.344   4.578   0.994
 6937SOL     OW21709   4.252   6.048   5.953
 6937SOL    HW121710   4.175   6.090   6.002
 6937SOL    HW221711   4.252   5.950   5.972
 6938SOL     OW21712   6.251   2.647   5.591
 6938SOL    HW121713   6.266   2.619   5.496
 6938SOL    HW221714   6.276   2.743   5.602
 6939SOL     OW21715   6.654   4.969   1.308
 6939SOL    HW121716   6.744   4.925   1.304
 6939SOL    HW221717   6.595   4.918   1.371
 6940SOL     OW21718   4.319   0.590   4.642
 6940SOL    HW121719   4.356   0.581   4.735
 6940SOL    HW221720   4.273   0.505   4.616
 6941SOL     OW21721   3.539   2.867   4.881
 6941SOL    HW121722   3.605   2.934   4.917
 6941SOL    HW221723   3.455   2.871   4.935
 6942SOL     OW21724   5.952   1.360   6.752
 6942SOL    HW121725   5.885   1.300   6.796
 6942SOL    HW221726   6.017   1.305   6.700
 6943SOL     OW21727   6.434   5.119   6.581
 6943SOL    HW121728   6.518   5.170   6.560
 6943SOL    HW221729   6.375   5.174   6.640
 6944SOL     OW21730   1.186   6.876   0.576
 6944SOL    HW121731   1.181   6.974   0.560
 6944SOL    HW221732   1.281   6.846   0.573
 6945SOL     OW21733   4.255   1.696   6.475
 6945SOL    HW121734   4.204   1.722   6.557
 6945SOL    HW221735   4.352   1.716   6.488
 6946SOL     OW21736   6.355   3.912   2.804
 6946SOL    HW121737   6.364   3.924   2.902
 6946SOL    HW221738   6.282   3.971   2.769
 6947SOL     OW21739   4.272   6.633   0.852
 6947SOL    HW121740   4.225   6.592   0.773
 6947SOL    HW221741   4.329   6.564   0.896
 6948SOL     OW21742   3.429   2.097   5.664
 6948SOL    HW121743   3.447   2.195   5.676
 6948SOL    HW221744   3.336   2.083   5.632
 6949SOL     OW21745   5.098   0.773   2.191
 6949SOL    HW121746   5.136   0.794   2.100
 6949SOL    HW221747   5.001   0.752   2.182
 6950SOL     OW21748   3.544   1.600   3.073
 6950SOL    HW121749   3.632   1.569   3.036
 6950SOL    HW221750   3.545   1.591   3.172
 6951SOL     OW21751   4.862   4.297   5.639
 6951SOL    HW121752   4.805   4.305   5.557
 6951SOL    HW221753   4.959   4.302   5.613
 6952SOL     OW21754   0.252   3.965   6.465
 6952SOL    HW121755   0.252   4.013   6.377
 6952SOL    HW221756   0.186   4.007   6.526
 6953SOL     OW21757   5.294   2.341   4.735
 6953SOL    HW121758   5.203   2.303   4.720
 6953SOL    HW221759   5.340   2.355   4.648
 6954SOL     OW21760   0.109   4.663   2.288
 6954SOL    HW121761   0.045   4.669   2.364
 6954SOL    HW221762   0.074   4.601   2.219
 6955SOL     OW21763   6.793   0.544   3.509
 6955SOL    HW121764   6.791   0.623   3.571
 6955SOL    HW221765   6.752   0.465   3.554
 6956SOL     OW21766   2.746   4.486   1.280
 6956SOL    HW121767   2.812   4.410   1.277
 6956SOL    HW221768   2.789   4.568   1.244
 6957SOL     OW21769   0.858   4.784   0.131
 6957SOL    HW121770   0.911   4.868   0.124
 6957SOL    HW221771   0.871   4.729   0.048
 6958SOL     OW21772   2.549   3.975   5.720
 6958SOL    HW121773   2.586   3.887   5.691
 6958SOL    HW221774   2.466   3.994   5.668
 6959SOL     OW21775   3.708   0.859   5.119
 6959SOL    HW121776   3.647   0.826   5.047
 6959SOL    HW221777   3.802   0.853   5.088
 6960SOL     OW21778   0.710   6.148   7.019
 6960SOL    HW121779   0.724   6.246   7.008
 6960SOL    HW221780   0.615   6.130   0.022
 6961SOL     OW21781   6.326   1.504   3.669
 6961SOL    HW121782   6.357   1.488   3.763
 6961SOL    HW221783   6.405   1.517   3.610
 6962SOL     OW21784   3.170   3.786   1.242
 6962SOL    HW121785   3.259   3.817   1.275
 6962SOL    HW221786   3.182   3.702   1.189
 6963SOL     OW21787   6.140   5.983   1.530
 6963SOL    HW121788   6.109   5.981   1.625
 6963SOL    HW221789   6.064   6.010   1.470
 6964SOL     OW21790   3.565   5.807   5.957
 6964SOL    HW121791   3.571   5.901   5.992
 6964SOL    HW221792   3.539   5.809   5.860
 6965SOL     OW21793   6.193   1.850   5.863
 6965SOL    HW121794   6.119   1.841   5.796
 6965SOL    HW221795   6.160   1.902   5.942
 6966SOL     OW21796   4.875   1.494   3.956
 6966SOL    HW121797   4.859   1.522   3.861
 6966SOL    HW221798   4.806   1.426   3.982
 6967SOL     OW21799   3.002   2.756   6.274
 6967SOL    HW121800   2.927   2.793   6.220
 6967SOL    HW221801   2.997   2.657   6.276
 6968SOL     OW21802   4.215   0.234   3.855
 6968SOL    HW121803   4.298   0.282   3.829
 6968SOL    HW221804   4.148   0.239   3.781
 6969SOL     OW21805   3.232   3.265   0.943
 6969SOL    HW121806   3.265   3.270   1.037
 6969SOL    HW221807   3.137   3.233   0.942
 6970SOL     OW21808   5.117   4.644   0.533
 6970SOL    HW121809   5.207   4.626   0.492
 6970SOL    HW221810   5.058   4.687   0.465
 6971SOL     OW21811   6.247   1.676   2.605
 6971SOL    HW121812   6.272   1.585   2.638
 6971SOL    HW221813   6.154   1.675   2.570
 6972SOL     OW21814   5.206   5.155   4.298
 6972SOL    HW121815   5.158   5.152   4.385
 6972SOL    HW221816   5.287   5.095   4.303
 6973SOL     OW21817   1.194   4.481   4.131
 6973SOL    HW121818   1.287   4.454   4.107
 6973SOL    HW221819   1.198   4.546   4.208
 6974SOL     OW21820   3.818   4.332   5.196
 6974SOL    HW121821   3.780   4.260   5.254
 6974SOL    HW221822   3.823   4.417   5.247
 6975SOL     OW21823   2.602   6.765   6.140
 6975SOL    HW121824   2.520   6.823   6.143
 6975SOL    HW221825   2.576   6.674   6.108
 6976SOL     OW21826   0.969   5.939   0.743
 6976SOL    HW121827   0.927   6.025   0.773
 6976SOL    HW221828   0.922   5.906   0.661
 6977SOL     OW21829   4.864   2.799   2.011
 6977SOL    HW121830   4.844   2.892   1.982
 6977SOL    HW221831   4.864   2.794   2.111
 6978SOL     OW21832   4.146   2.019   3.557
 6978SOL    HW121833   4.088   2.096   3.585
 6978SOL    HW221834   4.202   1.990   3.635
 6979SOL     OW21835   0.286   3.610   4.279
 6979SOL    HW121836   0.200   3.578   4.319
 6979SOL    HW221837   0.275   3.705   4.249
 6980SOL     OW21838   4.797   1.499   4.640
 6980SOL    HW121839   4.720   1.437   4.652
 6980SOL    HW221840   4.833   1.525   4.730
 6981SOL     OW21841   2.867   3.830   6.842
 6981SOL    HW121842   2.816   3.758   6.889
 6981SOL    HW221843   2.859   3.818   6.743
 6982SOL     OW21844   0.294   6.940   4.897
 6982SOL    HW121845   0.264   6.905   4.809
 6982SOL    HW221846   0.241   6.896   4.970
 6983SOL     OW21847   5.973   1.004   2.996
 6983SOL    HW121848   5.958   0.920   3.049
 6983SOL    HW221849   6.038   0.986   2.923
 6984SOL     OW21850   1.550   1.255   6.190
 6984SOL    HW121851   1.498   1.214   6.115
 6984SOL    HW221852   1.490   1.315   6.243
 6985SOL     OW21853   4.945   6.497   3.933
 6985SOL    HW121854   4.969   6.592   3.955
 6985SOL    HW221855   4.923   6.490   3.836
 6986SOL     OW21856   1.522   6.269   5.108
 6986SOL    HW121857   1.443   6.232   5.060
 6986SOL    HW221858   1.559   6.199   5.170
 6987SOL     OW21859   6.867   3.521   6.526
 6987SOL    HW121860   6.780   3.552   6.564
 6987SOL    HW221861   6.906   3.592   6.469
 6988SOL     OW21862   5.672   1.446   6.092
 6988SOL    HW121863   5.692   1.375   6.024
 6988SOL    HW221864   5.701   1.415   6.182
 6989SOL     OW21865   2.011   3.421   4.312
 6989SOL    HW121866   2.079   3.401   4.382
 6989SOL    HW221867   2.058   3.452   4.229
 6990SOL     OW21868   4.151   3.477   1.235
 6990SOL    HW121869   4.197   3.399   1.194
 6990SOL    HW221870   4.218   3.536   1.281
 6991SOL     OW21871   4.189   4.901   5.031
 6991SOL    HW121872   4.200   4.891   4.932
 6991SOL    HW221873   4.096   4.932   5.052
 6992SOL     OW21874   6.260   6.123   4.739
 6992SOL    HW121875   6.304   6.144   4.652
 6992SOL    HW221876   6.205   6.202   4.769
 6993SOL     OW21877   0.549   6.878   2.663
 6993SOL    HW121878   0.596   6.827   2.735
 6993SOL    HW221879   0.451   6.885   2.686
 6994SOL     OW21880   1.115   2.531   0.203
 6994SOL    HW121881   1.019   2.508   0.220
 6994SOL    HW221882   1.137   2.515   0.106
 6995SOL     OW21883   1.206   5.466   4.179
 6995SOL    HW121884   1.279   5.407   4.146
 6995SOL    HW221885   1.119   5.417   4.174
 6996SOL     OW21886   1.847   0.146   6.009
 6996SOL    HW121887   1.782   0.132   5.934
 6996SOL    HW221888   1.899   0.229   5.992
 6997SOL     OW21889   4.449   5.434   4.604
 6997SOL    HW121890   4.436   5.355   4.544
 6997SOL    HW221891   4.523   5.491   4.569
 6998SOL     OW21892   2.590   1.888   2.452
 6998SOL    HW121893   2.603   1.957   2.380
 6998SOL    HW221894   2.664   1.895   2.518
 6999SOL     OW21895   5.453   2.183   6.825
 6999SOL    HW121896   5.486   2.104   6.773
 6999SOL    HW221897   5.353   2.176   6.835
 7000SOL     OW21898   6.991   0.323   1.619
 7000SOL    HW121899   0.032   0.399   1.601
 7000SOL    HW221900   6.897   0.357   1.615
 7001SOL     OW21901   3.031   1.614   6.499
 7001SOL    HW121902   2.997   1.707   6.511
 7001SOL    HW221903   2.954   1.552   6.483
 7002SOL     OW21904   2.186   5.032   2.438
 7002SOL    HW121905   2.246   5.100   2.396
 7002SOL    HW221906   2.214   5.015   2.532
 7003SOL     OW21907   2.111   6.302   5.897
 7003SOL    HW121908   2.067   6.384   5.861
 7003SOL    HW221909   2.044   6.246   5.945
 7004SOL     OW21910   1.658   4.038   0.069
 7004SOL    HW121911   1.626   4.068   0.159
 7004SOL    HW221912   1.689   3.943   0.075
 7005SOL     OW21913   6.705   6.862   5.618
 7005SOL    HW121914   6.618   6.813   5.608
 7005SOL    HW221915   6.781   6.799   5.600
 7006SOL     OW21916   4.620   5.042   4.190
 7006SOL    HW121917   4.665   4.952   4.188
 7006SOL    HW221918   4.569   5.056   4.105
 7007SOL     OW21919   4.812   5.036   2.105
 7007SOL    HW121920   4.727   5.063   2.150
 7007SOL    HW221921   4.796   5.021   2.008
 7008SOL     OW21922   0.802   5.872   3.948
 7008SOL    HW121923   0.754   5.932   3.884
 7008SOL    HW221924   0.893   5.851   3.912
 7009SOL     OW21925   6.812   4.045   1.537
 7009SOL    HW121926   6.897   3.995   1.551
 7009SOL    HW221927   6.814   4.089   1.447
 7010SOL     OW21928   5.536   4.259   6.008
 7010SOL    HW121929   5.502   4.179   6.058
 7010SOL    HW221930   5.466   4.330   6.009
 7011SOL     OW21931   0.866   0.756   5.628
 7011SOL    HW121932   0.924   0.678   5.606
 7011SOL    HW221933   0.794   0.765   5.559
 7012SOL     OW21934   1.002   1.169   1.342
 7012SOL    HW121935   0.961   1.185   1.252
 7012SOL    HW221936   0.930   1.166   1.411
 7013SOL     OW21937   6.560   2.222   1.841
 7013SOL    HW121938   6.541   2.232   1.938
 7013SOL    HW221939   6.637   2.160   1.828
 7014SOL     OW21940   2.219   5.404   1.068
 7014SOL    HW121941   2.251   5.492   1.102
 7014SOL    HW221942   2.264   5.383   0.981
 7015SOL     OW21943   4.412   1.917   2.337
 7015SOL    HW121944   4.341   1.869   2.389
 7015SOL    HW221945   4.460   1.982   2.397
 7016SOL     OW21946   4.173   4.260   1.427
 7016SOL    HW121947   4.163   4.196   1.352
 7016SOL    HW221948   4.150   4.215   1.513
 7017SOL     OW21949   5.061   1.566   5.220
 7017SOL    HW121950   5.110   1.634   5.274
 7017SOL    HW221951   4.981   1.534   5.271
 7018SOL     OW21952   0.267   3.116   3.446
 7018SOL    HW121953   0.268   3.024   3.407
 7018SOL    HW221954   0.335   3.122   3.519
 7019SOL     OW21955   0.460   6.212   1.780
 7019SOL    HW121956   0.398   6.216   1.858
 7019SOL    HW221957   0.506   6.123   1.779
 7020SOL     OW21958   0.618   5.669   6.604
 7020SOL    HW121959   0.583   5.742   6.663
 7020SOL    HW221960   0.591   5.687   6.509
 7021SOL     OW21961   3.579   6.685   5.940
 7021SOL    HW121962   3.592   6.646   5.848
 7021SOL    HW221963   3.576   6.611   6.007
 7022SOL     OW21964   4.091   5.390   5.865
 7022SOL    HW121965   4.184   5.360   5.890
 7022SOL    HW221966   4.041   5.314   5.825
 7023SOL     OW21967   4.937   4.768   2.470
 7023SOL    HW121968   4.972   4.833   2.403
 7023SOL    HW221969   4.858   4.808   2.517
 7024SOL     OW21970   6.054   6.421   1.585
 7024SOL    HW121971   6.028   6.335   1.629
 7024SOL    HW221972   6.005   6.497   1.627
 7025SOL     OW21973   2.810   0.147   0.829
 7025SOL    HW121974   2.761   0.076   0.879
 7025SOL    HW221975   2.874   0.193   0.890
 7026SOL     OW21976   4.315   1.942   1.120
 7026SOL    HW121977   4.309   2.006   1.043
 7026SOL    HW221978   4.227   1.896   1.131
 7027SOL     OW21979   5.567   5.884   4.171
 7027SOL    HW121980   5.550   5.970   4.219
 7027SOL    HW221981   5.538   5.808   4.228
 7028SOL     OW21982   2.942   0.699   4.810
 7028SOL    HW121983   3.037   0.670   4.820
 7028SOL    HW221984   2.935   0.768   4.738
 7029SOL     OW21985   4.016   1.091   4.527
 7029SOL    HW121986   3.926   1.047   4.526
 7029SOL    HW221987   4.013   1.172   4.585
 7030SOL     OW21988   1.541   3.508   3.680
 7030SOL    HW121989   1.527   3.442   3.754
 7030SOL    HW221990   1.633   3.546   3.685
 7031SOL     OW21991   1.190   0.922   4.855
 7031SOL    HW121992   1.180   1.012   4.812
 7031SOL    HW221993   1.117   0.910   4.923
 7032SOL     OW21994   6.081   2.446   3.486
 7032SOL    HW121995   6.100   2.412   3.578
 7032SOL    HW221996   6.164   2.486   3.447
 7033SOL     OW21997   0.522   0.543   5.123
 7033SOL    HW121998   0.614   0.531   5.085
 7033SOL    HW221999   0.455   0.516   5.055
 7034SOL     OW22000   0.366   4.742   3.459
 7034SOL    HW122001   0.448   4.717   3.510
 7034SOL    HW222002   0.306   4.797   3.517
 7035SOL     OW22003   6.772   4.774   2.160
 7035SOL    HW122004   6.843   4.722   2.112
 7035SOL    HW222005   6.729   4.838   2.097
 7036SOL     OW22006   5.913   4.562   0.617
 7036SOL    HW122007   5.833   4.512   0.585
 7036SOL    HW222008   5.937   4.530   0.709
 7037SOL     OW22009   1.524   0.413   6.484
 7037SOL    HW122010   1.586   0.408   6.562
 7037SOL    HW222011   1.525   0.327   6.434
 7038SOL     OW22012   2.163   3.339   4.524
 7038SOL    HW122013   2.088   3.273   4.534
 7038SOL    HW222014   2.243   3.307   4.574
 7039SOL     OW22015   3.547   1.960   0.077
 7039SOL    HW122016   3.639   1.978   0.112
 7039SOL    HW222017   3.480   1.997   0.142
 7040SOL     OW22018   5.527   2.481   6.836
 7040SOL    HW122019   5.481   2.497   6.924
 7040SOL    HW222020   5.530   2.383   6.817
 7041SOL     OW22021   2.228   1.587   3.558
 7041SOL    HW122022   2.322   1.603   3.529
 7041SOL    HW222023   2.177   1.673   3.556
 7042SOL     OW22024   1.547   1.126   6.814
 7042SOL    HW122025   1.555   1.148   6.716
 7042SOL    HW222026   1.468   1.175   6.852
 7043SOL     OW22027   1.327   2.620   2.228
 7043SOL    HW122028   1.326   2.520   2.242
 7043SOL    HW222029   1.252   2.646   2.167
 7044SOL     OW22030   6.604   6.224   1.396
 7044SOL    HW122031   6.696   6.242   1.362
 7044SOL    HW222032   6.548   6.182   1.325
 7045SOL     OW22033   0.173   4.784   0.192
 7045SOL    HW122034   0.156   4.757   0.287
 7045SOL    HW222035   0.260   4.745   0.161
 7046SOL     OW22036   3.262   1.445   3.730
 7046SOL    HW122037   3.300   1.517   3.672
 7046SOL    HW222038   3.316   1.438   3.814
 7047SOL     OW22039   1.335   0.257   2.924
 7047SOL    HW122040   1.356   0.168   2.965
 7047SOL    HW222041   1.279   0.311   2.987
 7048SOL     OW22042   6.845   5.467   7.009
 7048SOL    HW122043   6.860   5.559   6.972
 7048SOL    HW222044   6.779   5.472   0.062
 7049SOL     OW22045   2.352   1.039   6.170
 7049SOL    HW122046   2.313   1.109   6.231
 7049SOL    HW222047   2.279   0.992   6.122
 7050SOL     OW22048   4.273   3.529   5.174
 7050SOL    HW122049   4.369   3.557   5.168
 7050SOL    HW222050   4.228   3.580   5.247
 7051SOL     OW22051   6.080   6.488   2.855
 7051SOL    HW122052   6.056   6.518   2.762
 7051SOL    HW222053   6.167   6.440   2.853
 7052SOL     OW22054   6.864   6.786   5.352
 7052SOL    HW122055   6.785   6.775   5.292
 7052SOL    HW222056   6.901   6.878   5.341
 7053SOL     OW22057   6.842   3.511   6.155
 7053SOL    HW122058   6.896   3.430   6.132
 7053SOL    HW222059   6.890   3.565   6.222
 7054SOL     OW22060   6.433   2.195   2.336
 7054SOL    HW122061   6.366   2.257   2.296
 7054SOL    HW222062   6.397   2.158   2.422
 7055SOL     OW22063   4.350   1.510   4.064
 7055SOL    HW122064   4.349   1.442   3.991
 7055SOL    HW222065   4.444   1.528   4.093
 7056SOL     OW22066   4.660   5.365   4.207
 7056SOL    HW122067   4.730   5.330   4.270
 7056SOL    HW222068   4.671   5.323   4.118
 7057SOL     OW22069   6.027   5.773   2.523
 7057SOL    HW122070   6.003   5.792   2.618
 7057SOL    HW222071   5.948   5.732   2.476
 7058SOL     OW22072   0.314   4.214   4.367
 7058SOL    HW122073   0.406   4.253   4.366
 7058SOL    HW222074   0.319   4.119   4.398
 7059SOL     OW22075   1.855   1.309   2.417
 7059SOL    HW122076   1.850   1.337   2.513
 7059SOL    HW222077   1.769   1.331   2.372
 7060SOL     OW22078   3.038   6.659   1.074
 7060SOL    HW122079   2.953   6.614   1.048
 7060SOL    HW222080   3.113   6.592   1.072
 7061SOL     OW22081   0.282   0.620   3.001
 7061SOL    HW122082   0.196   0.569   3.006
 7061SOL    HW222083   0.315   0.622   2.907
 7062SOL     OW22084   6.664   1.443   5.699
 7062SOL    HW122085   6.734   1.499   5.743
 7062SOL    HW222086   6.575   1.487   5.709
 7063SOL     OW22087   2.016   6.509   2.699
 7063SOL    HW122088   2.026   6.424   2.647
 7063SOL    HW222089   2.035   6.587   2.640
 7064SOL     OW22090   3.691   2.467   0.080
 7064SOL    HW122091   3.705   2.519   0.164
 7064SOL    HW222092   3.647   2.526   0.012
 7065SOL     OW22093   3.581   3.599   2.482
 7065SOL    HW122094   3.593   3.595   2.383
 7065SOL    HW222095   3.495   3.646   2.504
 7066SOL     OW22096   2.255   4.835   1.845
 7066SOL    HW122097   2.230   4.901   1.774
 7066SOL    HW222098   2.340   4.789   1.819
 7067SOL     OW22099   0.619   4.024   4.601
 7067SOL    HW122100   0.647   4.008   4.695
 7067SOL    HW222101   0.546   4.092   4.599
 7068SOL     OW22102   0.179   0.605   2.722
 7068SOL    HW122103   0.173   0.506   2.710
 7068SOL    HW222104   0.100   0.648   2.680
 7069SOL     OW22105   1.985   4.794   5.023
 7069SOL    HW122106   1.926   4.725   5.064
 7069SOL    HW222107   1.963   4.803   4.926
 7070SOL     OW22108   5.333   5.344   3.511
 7070SOL    HW122109   5.280   5.260   3.525
 7070SOL    HW222110   5.423   5.334   3.553
 7071SOL     OW22111   1.611   6.508   5.089
 7071SOL    HW122112   1.669   6.518   5.170
 7071SOL    HW222113   1.580   6.413   5.081
 7072SOL     OW22114   0.697   0.197   6.548
 7072SOL    HW122115   0.742   0.169   6.463
 7072SOL    HW222116   0.766   0.225   6.615
 7073SOL     OW22117   1.939   2.179   6.654
 7073SOL    HW122118   1.991   2.265   6.650
 7073SOL    HW222119   1.888   2.167   6.569
 7074SOL     OW22120   3.747   1.193   0.258
 7074SOL    HW122121   3.828   1.139   0.234
 7074SOL    HW222122   3.708   1.233   0.175
 7075SOL     OW22123   0.624   5.946   2.930
 7075SOL    HW122124   0.663   6.030   2.967
 7075SOL    HW222125   0.536   5.928   2.973
 7076SOL     OW22126   3.832   1.497   6.001
 7076SOL    HW122127   3.916   1.443   5.993
 7076SOL    HW222128   3.753   1.437   5.990
 7077SOL     OW22129   1.295   5.343   6.404
 7077SOL    HW122130   1.245   5.282   6.465
 7077SOL    HW222131   1.230   5.403   6.356
 7078SOL     OW22132   0.009   0.928   1.886
 7078SOL    HW122133   6.975   0.845   1.896
 7078SOL    HW222134   6.976   1.000   1.844
 7079SOL     OW22135   5.457   6.042   4.384
 7079SOL    HW122136   5.513   6.124   4.374
 7079SOL    HW222137   5.505   5.975   4.440
 7080SOL     OW22138   5.836   0.367   4.202
 7080SOL    HW122139   5.822   0.280   4.155
 7080SOL    HW222140   5.918   0.360   4.260
 7081SOL     OW22141   4.989   0.723   5.079
 7081SOL    HW122142   5.033   0.666   5.010
 7081SOL    HW222143   4.983   0.818   5.046
 7082SOL     OW22144   5.948   1.369   0.279
 7082SOL    HW122145   5.916   1.378   0.184
 7082SOL    HW222146   6.010   1.444   0.301
 7083SOL     OW22147   4.046   0.113   5.435
 7083SOL    HW122148   4.073   0.033   5.381
 7083SOL    HW222149   3.957   0.146   5.404
 7084SOL     OW22150   6.330   5.837   0.417
 7084SOL    HW122151   6.242   5.884   0.417
 7084SOL    HW222152   6.382   5.862   0.499
 7085SOL     OW22153   4.277   1.377   1.200
 7085SOL    HW122154   4.193   1.430   1.213
 7085SOL    HW222155   4.330   1.377   1.285
 7086SOL     OW22156   1.340   0.981   6.392
 7086SOL    HW122157   1.373   0.959   6.301
 7086SOL    HW222158   1.259   1.039   6.386
 7087SOL     OW22159   2.397   2.708   5.129
 7087SOL    HW122160   2.396   2.800   5.088
 7087SOL    HW222161   2.453   2.647   5.073
 7088SOL     OW22162   0.052   2.356   5.023
 7088SOL    HW122163   6.984   2.380   5.058
 7088SOL    HW222164   0.091   2.283   5.078
 7089SOL     OW22165   3.224   1.697   1.681
 7089SOL    HW122166   3.315   1.724   1.650
 7089SOL    HW222167   3.173   1.777   1.713
 7090SOL     OW22168   2.426   2.048   5.341
 7090SOL    HW122169   2.328   2.064   5.329
 7090SOL    HW222170   2.468   2.130   5.379
 7091SOL     OW22171   6.738   6.480   0.664
 7091SOL    HW122172   6.673   6.407   0.643
 7091SOL    HW222173   6.812   6.444   0.721
 7092SOL     OW22174   3.326   1.806   0.669
 7092SOL    HW122175   3.342   1.898   0.634
 7092SOL    HW222176   3.378   1.793   0.753
 7093SOL     OW22177   3.981   3.013   6.314
 7093SOL    HW122178   4.009   2.977   6.225
 7093SOL    HW222179   3.974   3.113   6.310
 7094SOL     OW22180   6.243   1.171   6.274
 7094SOL    HW122181   6.320   1.164   6.337
 7094SOL    HW222182   6.217   1.267   6.264
 7095SOL     OW22183   0.565   3.912   0.661
 7095SOL    HW122184   0.470   3.882   0.664
 7095SOL    HW222185   0.621   3.850   0.716
 7096SOL     OW22186   4.355   0.025   2.735
 7096SOL    HW122187   4.274   0.083   2.750
 7096SOL    HW222188   4.374   0.019   2.637
 7097SOL     OW22189   2.083   1.560   1.408
 7097SOL    HW122190   1.990   1.565   1.373
 7097SOL    HW222191   2.127   1.649   1.401
 7098SOL     OW22192   1.158   0.616   6.282
 7098SOL    HW122193   1.082   0.597   6.220
 7098SOL    HW222194   1.244   0.618   6.230
 7099SOL     OW22195   6.746   1.355   5.313
 7099SOL    HW122196   6.779   1.399   5.229
 7099SOL    HW222197   6.653   1.386   5.332
 7100SOL     OW22198   5.351   1.422   1.416
 7100SOL    HW122199   5.420   1.491   1.396
 7100SOL    HW222200   5.395   1.341   1.455
 7101SOL     OW22201   1.296   0.591   3.682
 7101SOL    HW122202   1.280   0.492   3.687
 7101SOL    HW222203   1.239   0.637   3.749
 7102SOL     OW22204   4.646   3.144   0.555
 7102SOL    HW122205   4.576   3.074   0.564
 7102SOL    HW222206   4.731   3.103   0.520
 7103SOL     OW22207   2.392   6.931   6.007
 7103SOL    HW122208   2.313   6.872   6.025
 7103SOL    HW222209   2.437   6.900   5.923
 7104SOL     OW22210   1.084   2.710   2.148
 7104SOL    HW122211   1.061   2.679   2.055
 7104SOL    HW222212   1.060   2.806   2.157
 7105SOL     OW22213   1.833   3.282   5.518
 7105SOL    HW122214   1.836   3.380   5.497
 7105SOL    HW222215   1.881   3.231   5.447
 7106SOL     OW22216   2.852   2.749   5.358
 7106SOL    HW122217   2.769   2.796   5.330
 7106SOL    HW222218   2.931   2.792   5.313
 7107SOL     OW22219   1.379   1.446   0.541
 7107SOL    HW122220   1.344   1.384   0.611
 7107SOL    HW222221   1.441   1.396   0.479
 7108SOL     OW22222   4.761   6.552   1.755
 7108SOL    HW122223   4.730   6.643   1.728
 7108SOL    HW222224   4.810   6.509   1.679
 7109SOL     OW22225   4.370   5.928   6.651
 7109SOL    HW122226   4.382   5.920   6.552
 7109SOL    HW222227   4.459   5.928   6.696
 7110SOL     OW22228   3.690   5.026   4.549
 7110SOL    HW122229   3.689   4.977   4.462
 7110SOL    HW222230   3.614   5.091   4.551
 7111SOL     OW22231   1.452   2.528   3.486
 7111SOL    HW122232   1.462   2.627   3.487
 7111SOL    HW222233   1.358   2.503   3.510
 7112SOL     OW22234   1.539   6.304   3.350
 7112SOL    HW122235   1.452   6.352   3.339
 7112SOL    HW222236   1.595   6.350   3.418
 7113SOL     OW22237   3.727   3.564   5.569
 7113SOL    HW122238   3.648   3.586   5.512
 7113SOL    HW222239   3.696   3.522   5.654
 7114SOL     OW22240   3.882   6.662   0.705
 7114SOL    HW122241   3.853   6.569   0.726
 7114SOL    HW222242   3.805   6.724   0.717
 7115SOL     OW22243   3.802   2.193   1.502
 7115SOL    HW122244   3.860   2.217   1.580
 7115SOL    HW222245   3.848   2.218   1.417
 7116SOL     OW22246   6.252   4.216   3.009
 7116SOL    HW122247   6.198   4.223   3.093
 7116SOL    HW222248   6.333   4.273   3.017
 7117SOL     OW22249   6.177   6.593   2.554
 7117SOL    HW122250   6.177   6.614   2.457
 7117SOL    HW222251   6.103   6.529   2.575
 7118SOL     OW22252   6.550   3.209   3.275
 7118SOL    HW122253   6.568   3.261   3.358
 7118SOL    HW222254   6.586   3.259   3.196
 7119SOL     OW22255   1.398   2.221   3.092
 7119SOL    HW122256   1.450   2.260   3.016
 7119SOL    HW222257   1.326   2.285   3.120
 7120SOL     OW22258   4.451   6.506   3.178
 7120SOL    HW122259   4.449   6.498   3.278
 7120SOL    HW222260   4.395   6.433   3.138
 7121SOL     OW22261   2.275   6.551   0.987
 7121SOL    HW122262   2.251   6.648   0.989
 7121SOL    HW222263   2.204   6.498   1.035
 7122SOL     OW22264   6.841   6.214   0.240
 7122SOL    HW122265   6.858   6.197   0.337
 7122SOL    HW222266   6.836   6.312   0.224
 7123SOL     OW22267   2.696   5.581   0.744
 7123SOL    HW122268   2.791   5.565   0.717
 7123SOL    HW222269   2.688   5.673   0.782
 7124SOL     OW22270   6.979   6.045   6.307
 7124SOL    HW122271   0.016   5.981   6.257
 7124SOL    HW222272   7.018   6.137   6.302
 7125SOL     OW22273   0.477   6.206   3.365
 7125SOL    HW122274   0.382   6.203   3.336
 7125SOL    HW222275   0.487   6.159   3.453
 7126SOL     OW22276   1.931   4.013   1.439
 7126SOL    HW122277   1.979   4.085   1.491
 7126SOL    HW222278   1.860   4.055   1.383
 7127SOL     OW22279   2.254   0.383   4.624
 7127SOL    HW122280   2.192   0.305   4.623
 7127SOL    HW222281   2.238   0.437   4.706
 7128SOL     OW22282   2.959   3.790   2.048
 7128SOL    HW122283   2.906   3.869   2.018
 7128SOL    HW222284   3.006   3.751   1.969
 7129SOL     OW22285   2.764   1.845   1.120
 7129SOL    HW122286   2.852   1.809   1.089
 7129SOL    HW222287   2.690   1.784   1.089
 7130SOL     OW22288   2.303   0.467   2.985
 7130SOL    HW122289   2.262   0.558   2.985
 7130SOL    HW222290   2.308   0.433   3.079
 7131SOL     OW22291   2.749   1.564   3.589
 7131SOL    HW122292   2.793   1.509   3.517
 7131SOL    HW222293   2.697   1.504   3.649
 7132SOL     OW22294   3.033   4.080   1.913
 7132SOL    HW122295   3.074   4.061   1.824
 7132SOL    HW222296   2.982   4.166   1.908
 7133SOL     OW22297   6.182   4.292   1.798
 7133SOL    HW122298   6.082   4.292   1.789
 7133SOL    HW222299   6.211   4.211   1.849
 7134SOL     OW22300   5.446   4.921   2.237
 7134SOL    HW122301   5.467   4.849   2.303
 7134SOL    HW222302   5.468   5.010   2.276
 7135SOL     OW22303   0.412   2.157   6.442
 7135SOL    HW122304   0.486   2.217   6.470
 7135SOL    HW222305   0.437   2.109   6.358
 7136SOL     OW22306   1.844   1.906   7.006
 7136SOL    HW122307   1.767   1.968   6.990
 7136SOL    HW222308   1.920   1.931   6.947
 7137SOL     OW22309   4.921   2.122   5.104
 7137SOL    HW122310   4.935   2.098   5.008
 7137SOL    HW222311   4.957   2.049   5.163
 7138SOL     OW22312   2.621   2.239   6.788
 7138SOL    HW122313   2.627   2.251   6.887
 7138SOL    HW222314   2.634   2.328   6.743
 7139SOL     OW22315   3.036   1.455   0.455
 7139SOL    HW122316   3.023   1.552   0.434
 7139SOL    HW222317   2.947   1.412   0.468
 7140SOL     OW22318   6.645   4.327   4.518
 7140SOL    HW122319   6.598   4.307   4.432
 7140SOL    HW222320   6.717   4.259   4.533
 7141SOL     OW22321   0.620   6.948   1.869
 7141SOL    HW122322   0.523   6.933   1.888
 7141SOL    HW222323   0.655   6.874   1.811
 7142SOL     OW22324   3.395   6.631   3.730
 7142SOL    HW122325   3.385   6.543   3.777
 7142SOL    HW222326   3.489   6.663   3.740
 7143SOL     OW22327   2.104   2.344   3.868
 7143SOL    HW122328   2.047   2.380   3.794
 7143SOL    HW222329   2.119   2.416   3.936
 7144SOL     OW22330   1.237   3.581   3.355
 7144SOL    HW122331   1.154   3.530   3.379
 7144SOL    HW222332   1.283   3.537   3.279
 7145SOL     OW22333   4.284   5.785   6.011
 7145SOL    HW122334   4.195   5.745   5.988
 7145SOL    HW222335   4.348   5.769   5.936
 7146SOL     OW22336   3.636   5.192   1.968
 7146SOL    HW122337   3.577   5.148   1.900
 7146SOL    HW222338   3.595   5.279   1.996
 7147SOL     OW22339   6.902   0.908   3.758
 7147SOL    HW122340   6.841   0.915   3.837
 7147SOL    HW222341   6.984   0.963   3.774
 7148SOL     OW22342   6.712   1.839   0.827
 7148SOL    HW122343   6.693   1.928   0.784
 7148SOL    HW222344   6.643   1.821   0.897
 7149SOL     OW22345   0.442   0.719   4.745
 7149SOL    HW122346   0.381   0.796   4.726
 7149SOL    HW222347   0.519   0.721   4.683
 7150SOL     OW22348   5.829   3.446   5.923
 7150SOL    HW122349   5.748   3.454   5.981
 7150SOL    HW222350   5.860   3.350   5.922
 7151SOL     OW22351   2.137   6.795   0.548
 7151SOL    HW122352   2.113   6.873   0.607
 7151SOL    HW222353   2.096   6.809   0.457
 7152SOL     OW22354   1.194   2.220   4.846
 7152SOL    HW122355   1.104   2.179   4.862
 7152SOL    HW222356   1.234   2.247   4.933
 7153SOL     OW22357   4.044   1.872   3.151
 7153SOL    HW122358   4.030   1.971   3.141
 7153SOL    HW222359   4.028   1.827   3.062
 7154SOL     OW22360   3.537   0.074   4.789
 7154SOL    HW122361   3.628   0.048   4.757
 7154SOL    HW222362   3.528   0.173   4.788
 7155SOL     OW22363   2.548   1.773   3.323
 7155SOL    HW122364   2.633   1.825   3.330
 7155SOL    HW222365   2.522   1.739   3.413
 7156SOL     OW22366   1.631   5.503   5.977
 7156SOL    HW122367   1.563   5.465   5.915
 7156SOL    HW222368   1.589   5.574   6.034
 7157SOL     OW22369   5.397   4.245   0.427
 7157SOL    HW122370   5.337   4.176   0.386
 7157SOL    HW222371   5.430   4.211   0.515
 7158SOL     OW22372   3.929   6.994   3.337
 7158SOL    HW122373   3.906   0.026   3.256
 7158SOL    HW222374   4.028   6.987   3.346
 7159SOL     OW22375   0.890   5.996   6.872
 7159SOL    HW122376   0.865   5.900   6.860
 7159SOL    HW222377   0.821   6.042   6.928
 7160SOL     OW22378   6.366   0.567   1.715
 7160SOL    HW122379   6.385   0.649   1.770
 7160SOL    HW222380   6.312   0.594   1.635
 7161SOL     OW22381   4.001   3.935   4.837
 7161SOL    HW122382   3.959   3.885   4.913
 7161SOL    HW222383   4.051   4.014   4.872
 7162SOL     OW22384   3.722   4.960   4.290
 7162SOL    HW122385   3.770   4.927   4.209
 7162SOL    HW222386   3.636   5.003   4.262
 7163SOL     OW22387   1.412   6.603   3.765
 7163SOL    HW122388   1.431   6.693   3.728
 7163SOL    HW222389   1.348   6.555   3.704
 7164SOL     OW22390   2.256   2.347   5.025
 7164SOL    HW122391   2.184   2.342   4.956
 7164SOL    HW222392   2.338   2.390   4.986
 7165SOL     OW22393   4.710   5.343   1.970
 7165SOL    HW122394   4.716   5.411   1.896
 7165SOL    HW222395   4.779   5.272   1.956
 7166SOL     OW22396   3.991   6.246   2.072
 7166SOL    HW122397   3.949   6.204   2.152
 7166SOL    HW222398   4.088   6.262   2.089
 7167SOL     OW22399   5.284   3.271   6.776
 7167SOL    HW122400   5.200   3.318   6.804
 7167SOL    HW222401   5.354   3.284   6.846
 7168SOL     OW22402   0.398   1.595   4.118
 7168SOL    HW122403   0.385   1.691   4.144
 7168SOL    HW222404   0.459   1.551   4.184
 7169SOL     OW22405   2.219   2.661   6.674
 7169SOL    HW122406   2.231   2.659   6.575
 7169SOL    HW222407   2.305   2.637   6.719
 7170SOL     OW22408   5.227   4.233   3.884
 7170SOL    HW122409   5.246   4.289   3.803
 7170SOL    HW222410   5.311   4.221   3.937
 7171SOL     OW22411   4.147   3.622   5.403
 7171SOL    HW122412   4.075   3.557   5.379
 7171SOL    HW222413   4.203   3.583   5.477
 7172SOL     OW22414   0.610   6.155   0.928
 7172SOL    HW122415   0.657   6.182   1.012
 7172SOL    HW222416   0.674   6.156   0.852
 7173SOL     OW22417   6.356   6.618   4.692
 7173SOL    HW122418   6.417   6.545   4.722
 7173SOL    HW222419   6.268   6.578   4.666
 7174SOL     OW22420   1.128   5.817   6.105
 7174SOL    HW122421   1.113   5.787   6.199
 7174SOL    HW222422   1.048   5.792   6.049
 7175SOL     OW22423   5.972   3.476   5.710
 7175SOL    HW122424   6.060   3.427   5.710
 7175SOL    HW222425   5.925   3.461   5.797
 7176SOL     OW22426   0.705   3.085   1.726
 7176SOL    HW122427   0.731   3.141   1.804
 7176SOL    HW222428   0.605   3.087   1.716
 7177SOL     OW22429   0.865   4.859   2.053
 7177SOL    HW122430   0.829   4.869   1.960
 7177SOL    HW222431   0.944   4.798   2.052
 7178SOL     OW22432   6.257   1.121   6.905
 7178SOL    HW122433   6.291   1.070   6.984
 7178SOL    HW222434   6.330   1.181   6.871
 7179SOL     OW22435   0.939   4.068   5.699
 7179SOL    HW122436   0.934   4.153   5.647
 7179SOL    HW222437   0.911   3.992   5.640
 7180SOL     OW22438   6.815   6.897   2.632
 7180SOL    HW122439   6.852   6.854   2.714
 7180SOL    HW222440   6.717   6.878   2.626
 7181SOL     OW22441   5.639   5.919   2.516
 7181SOL    HW122442   5.705   5.855   2.476
 7181SOL    HW222443   5.574   5.948   2.445
 7182SOL     OW22444   4.361   3.586   6.061
 7182SOL    HW122445   4.351   3.585   6.161
 7182SOL    HW222446   4.273   3.610   6.019
 7183SOL     OW22447   1.896   3.430   3.135
 7183SOL    HW122448   1.953   3.374   3.074
 7183SOL    HW222449   1.801   3.424   3.107
 7184SOL     OW22450   2.434   5.720   3.589
 7184SOL    HW122451   2.402   5.717   3.683
 7184SOL    HW222452   2.356   5.728   3.526
 7185SOL     OW22453   4.710   1.977   0.017
 7185SOL    HW122454   4.671   2.069   0.006
 7185SOL    HW222455   4.643   1.919   0.063
 7186SOL     OW22456   0.795   6.500   4.962
 7186SOL    HW122457   0.802   6.594   4.995
 7186SOL    HW222458   0.762   6.500   4.868
 7187SOL     OW22459   1.424   5.545   1.010
 7187SOL    HW122460   1.384   5.465   1.056
 7187SOL    HW222461   1.354   5.614   0.996
 7188SOL     OW22462   5.468   6.916   2.063
 7188SOL    HW122463   5.416   6.895   2.146
 7188SOL    HW222464   5.409   6.965   1.999
 7189SOL     OW22465   6.278   0.864   5.322
 7189SOL    HW122466   6.321   0.950   5.348
 7189SOL    HW222467   6.234   0.824   5.403
 7190SOL     OW22468   3.994   5.280   2.787
 7190SOL    HW122469   4.065   5.236   2.734
 7190SOL    HW222470   3.969   5.367   2.745
 7191SOL     OW22471   0.715   3.047   2.023
 7191SOL    HW122472   0.674   3.139   2.019
 7191SOL    HW222473   0.646   2.981   2.052
 7192SOL     OW22474   3.374   4.041   6.378
 7192SOL    HW122475   3.459   4.091   6.394
 7192SOL    HW222476   3.371   4.008   6.283
 7193SOL     OW22477   5.441   1.911   4.719
 7193SOL    HW122478   5.410   1.963   4.798
 7193SOL    HW222479   5.537   1.885   4.732
 7194SOL     OW22480   3.145   1.353   1.533
 7194SOL    HW122481   3.110   1.438   1.494
 7194SOL    HW222482   3.162   1.366   1.631
 7195SOL     OW22483   0.361   6.919   2.012
 7195SOL    HW122484   0.313   6.958   1.933
 7195SOL    HW222485   0.380   6.991   2.079
 7196SOL     OW22486   3.763   3.430   1.373
 7196SOL    HW122487   3.795   3.448   1.280
 7196SOL    HW222488   3.718   3.341   1.377
 7197SOL     OW22489   1.261   0.991   4.389
 7197SOL    HW122490   1.323   0.914   4.378
 7197SOL    HW222491   1.279   1.037   4.475
 7198SOL     OW22492   0.272   6.699   6.241
 7198SOL    HW122493   0.294   6.779   6.185
 7198SOL    HW222494   0.174   6.697   6.260
 7199SOL     OW22495   5.965   5.679   2.166
 7199SOL    HW122496   5.921   5.722   2.244
 7199SOL    HW222497   5.906   5.688   2.085
 7200SOL     OW22498   1.601   2.020   2.454
 7200SOL    HW122499   1.629   1.961   2.531
 7200SOL    HW222500   1.668   2.011   2.380
 7201SOL     OW22501   2.291   4.597   3.985
 7201SOL    HW122502   2.245   4.684   3.969
 7201SOL    HW222503   2.228   4.532   4.028
 7202SOL     OW22504   2.659   6.848   5.855
 7202SOL    HW122505   2.664   6.851   5.955
 7202SOL    HW222506   2.749   6.870   5.817
 7203SOL     OW22507   5.956   0.248   6.897
 7203SOL    HW122508   5.915   0.175   6.842
 7203SOL    HW222509   6.053   0.228   6.911
 7204SOL     OW22510   6.573   2.300   3.231
 7204SOL    HW122511   6.505   2.229   3.249
 7204SOL    HW222512   6.549   2.350   3.148
 7205SOL     OW22513   1.564   4.196   1.668
 7205SOL    HW122514   1.540   4.293   1.656
 7205SOL    HW222515   1.564   4.175   1.766
 7206SOL     OW22516   6.115   1.389   1.828
 7206SOL    HW122517   6.166   1.439   1.898
 7206SOL    HW222518   6.045   1.448   1.788
 7207SOL     OW22519   4.320   6.849   1.709
 7207SOL    HW122520   4.301   6.752   1.718
 7207SOL    HW222521   4.233   6.900   1.706
 7208SOL     OW22522   2.636   0.710   5.271
 7208SOL    HW122523   2.697   0.774   5.224
 7208SOL    HW222524   2.593   0.756   5.349
 7209SOL     OW22525   2.955   3.720   4.377
 7209SOL    HW122526   2.908   3.728   4.289
 7209SOL    HW222527   3.004   3.805   4.396
 7210SOL     OW22528   4.244   0.063   4.080
 7210SOL    HW122529   4.236   0.151   4.033
 7210SOL    HW222530   4.258   7.012   4.013
 7211SOL     OW22531   0.915   4.984   2.333
 7211SOL    HW122532   0.825   4.979   2.376
 7211SOL    HW222533   0.979   4.925   2.382
 7212SOL     OW22534   5.198   6.622   2.906
 7212SOL    HW122535   5.295   6.647   2.910
 7212SOL    HW222536   5.148   6.671   2.978
 7213SOL     OW22537   5.181   6.125   5.143
 7213SOL    HW122538   5.229   6.205   5.107
 7213SOL    HW222539   5.158   6.141   5.239
 7214SOL     OW22540   1.089   4.758   5.521
 7214SOL    HW122541   1.061   4.686   5.458
 7214SOL    HW222542   1.134   4.718   5.601
 7215SOL     OW22543   1.155   3.002   1.664
 7215SOL    HW122544   1.075   2.957   1.624
 7215SOL    HW222545   1.126   3.086   1.709
 7216SOL     OW22546   2.994   2.155   2.469
 7216SOL    HW122547   2.930   2.216   2.423
 7216SOL    HW222548   3.043   2.100   2.401
 7217SOL     OW22549   0.693   3.769   1.960
 7217SOL    HW122550   0.710   3.864   1.984
 7217SOL    HW222551   0.680   3.715   2.043
 7218SOL     OW22552   6.842   2.421   4.398
 7218SOL    HW122553   6.802   2.506   4.432
 7218SOL    HW222554   6.914   2.443   4.332
 7219SOL     OW22555   3.317   0.990   1.023
 7219SOL    HW122556   3.232   0.985   0.970
 7219SOL    HW222557   3.296   0.999   1.120
 7220SOL     OW22558   6.746   1.991   3.093
 7220SOL    HW122559   6.785   2.000   3.185
 7220SOL    HW222560   6.719   2.081   3.060
 7221SOL     OW22561   6.441   3.815   5.465
 7221SOL    HW122562   6.482   3.863   5.542
 7221SOL    HW222563   6.421   3.880   5.391
 7222SOL     OW22564   6.910   0.117   3.316
 7222SOL    HW122565   6.981   0.114   3.247
 7222SOL    HW222566   6.822   0.091   3.275
 7223SOL     OW22567   4.891   0.740   4.754
 7223SOL    HW122568   4.990   0.724   4.755
 7223SOL    HW222569   4.855   0.726   4.661
 7224SOL     OW22570   5.508   1.823   3.187
 7224SOL    HW122571   5.554   1.797   3.102
 7224SOL    HW222572   5.516   1.748   3.253
 7225SOL     OW22573   2.539   0.337   1.486
 7225SOL    HW122574   2.623   0.301   1.444
 7225SOL    HW222575   2.500   0.268   1.546
 7226SOL     OW22576   6.205   6.387   4.879
 7226SOL    HW122577   6.124   6.431   4.919
 7226SOL    HW222578   6.288   6.428   4.918
 7227SOL     OW22579   0.138   2.570   6.038
 7227SOL    HW122580   0.159   2.650   6.094
 7227SOL    HW222581   0.150   2.487   6.092
 7228SOL     OW22582   2.024   0.648   2.720
 7228SOL    HW122583   2.099   0.666   2.783
 7228SOL    HW222584   1.945   0.704   2.744
 7229SOL     OW22585   0.301   6.973   3.186
 7229SOL    HW122586   0.351   0.012   3.249
 7229SOL    HW222587   0.329   6.879   3.201
 7230SOL     OW22588   6.488   5.333   1.119
 7230SOL    HW122589   6.572   5.283   1.139
 7230SOL    HW222590   6.481   5.411   1.181
 7231SOL     OW22591   5.812   0.892   0.356
 7231SOL    HW122592   5.846   0.837   0.281
 7231SOL    HW222593   5.784   0.982   0.322
 7232SOL     OW22594   3.415   3.804   1.010
 7232SOL    HW122595   3.394   3.765   1.100
 7232SOL    HW222596   3.454   3.895   1.022
 7233SOL     OW22597   1.230   1.943   5.134
 7233SOL    HW122598   1.207   1.939   5.232
 7233SOL    HW222599   1.248   2.038   5.108
 7234SOL     OW22600   4.715   2.034   3.667
 7234SOL    HW122601   4.803   1.997   3.697
 7234SOL    HW222602   4.643   1.968   3.688
 7235SOL     OW22603   5.992   2.573   4.739
 7235SOL    HW122604   6.039   2.631   4.805
 7235SOL    HW222605   6.051   2.559   4.659
 7236SOL     OW22606   1.349   1.944   3.119
 7236SOL    HW122607   1.344   2.042   3.097
 7236SOL    HW222608   1.438   1.908   3.091
 7237SOL     OW22609   5.653   5.428   4.895
 7237SOL    HW122610   5.728   5.412   4.959
 7237SOL    HW222611   5.690   5.457   4.807
 7238SOL     OW22612   1.690   6.929   1.892
 7238SOL    HW122613   1.758   6.889   1.954
 7238SOL    HW222614   1.721   7.019   1.862
 7239SOL     OW22615   4.397   1.872   1.843
 7239SOL    HW122616   4.369   1.854   1.937
 7239SOL    HW222617   4.491   1.840   1.829
 7240SOL     OW22618   3.016   3.941   2.578
 7240SOL    HW122619   3.006   3.900   2.488
 7240SOL    HW222620   3.109   3.978   2.589
 7241SOL     OW22621   4.780   6.821   4.228
 7241SOL    HW122622   4.696   6.868   4.201
 7241SOL    HW222623   4.760   6.724   4.244
 7242SOL     OW22624   6.631   5.997   0.796
 7242SOL    HW122625   6.616   5.898   0.801
 7242SOL    HW222626   6.639   6.033   0.889
 7243SOL     OW22627   0.601   5.576   0.947
 7243SOL    HW122628   0.602   5.533   1.037
 7243SOL    HW222629   0.513   5.557   0.902
 7244SOL     OW22630   5.811   1.954   1.455
 7244SOL    HW122631   5.820   1.975   1.552
 7244SOL    HW222632   5.824   1.856   1.440
 7245SOL     OW22633   5.495   1.611   3.810
 7245SOL    HW122634   5.535   1.524   3.839
 7245SOL    HW222635   5.443   1.596   3.726
 7246SOL     OW22636   0.906   5.470   5.679
 7246SOL    HW122637   0.959   5.389   5.655
 7246SOL    HW222638   0.819   5.469   5.630
 7247SOL     OW22639   4.130   5.847   3.810
 7247SOL    HW122640   4.206   5.835   3.874
 7247SOL    HW222641   4.087   5.758   3.793
 7248SOL     OW22642   3.044   1.134   4.953
 7248SOL    HW122643   3.077   1.201   5.019
 7248SOL    HW222644   3.086   1.045   4.971
 7249SOL     OW22645   4.341   3.334   5.891
 7249SOL    HW122646   4.372   3.250   5.847
 7249SOL    HW222647   4.418   3.396   5.904
 7250SOL     OW22648   2.750   3.647   6.993
 7250SOL    HW122649   2.687   3.594   6.936
 7250SOL    HW222650   2.720   3.643   0.067
 7251SOL     OW22651   5.865   1.104   5.152
 7251SOL    HW122652   5.851   1.092   5.053
 7251SOL    HW222653   5.779   1.088   5.200
 7252SOL     OW22654   4.546   3.440   5.376
 7252SOL    HW122655   4.594   3.482   5.299
 7252SOL    HW222656   4.545   3.503   5.453
 7253SOL     OW22657   4.766   4.806   6.944
 7253SOL    HW122658   4.853   4.846   6.974
 7253SOL    HW222659   4.780   4.762   6.855
 7254SOL     OW22660   4.945   6.552   5.333
 7254SOL    HW122661   5.040   6.578   5.314
 7254SOL    HW222662   4.939   6.510   5.423
 7255SOL     OW22663   3.762   2.915   3.060
 7255SOL    HW122664   3.848   2.965   3.053
 7255SOL    HW222665   3.730   2.889   2.969
 7256SOL     OW22666   2.727   5.714   3.702
 7256SOL    HW122667   2.664   5.739   3.776
 7256SOL    HW222668   2.780   5.633   3.729
 7257SOL     OW22669   6.163   5.116   2.453
 7257SOL    HW122670   6.221   5.186   2.494
 7257SOL    HW222671   6.215   5.031   2.446
 7258SOL     OW22672   2.421   0.259   5.590
 7258SOL    HW122673   2.500   0.227   5.643
 7258SOL    HW222674   2.339   0.253   5.646
 7259SOL     OW22675   3.298   3.937   6.130
 7259SOL    HW122676   3.298   4.007   6.058
 7259SOL    HW222677   3.321   3.848   6.089
 7260SOL     OW22678   4.599   2.644   2.712
 7260SOL    HW122679   4.642   2.730   2.686
 7260SOL    HW222680   4.635   2.613   2.800
 7261SOL     OW22681   2.273   4.978   1.159
 7261SOL    HW122682   2.223   4.920   1.224
 7261SOL    HW222683   2.249   4.951   1.066
 7262SOL     OW22684   6.325   0.512   4.764
 7262SOL    HW122685   6.414   0.519   4.809
 7262SOL    HW222686   6.253   0.529   4.830
 7263SOL     OW22687   5.535   4.990   1.381
 7263SOL    HW122688   5.522   5.021   1.287
 7263SOL    HW222689   5.448   4.954   1.415
 7264SOL     OW22690   0.077   6.440   4.294
 7264SOL    HW122691   0.065   6.479   4.203
 7264SOL    HW222692   0.082   6.514   4.361
 7265SOL     OW22693   4.613   3.464   6.888
 7265SOL    HW122694   4.669   3.542   6.858
 7265SOL    HW222695   4.592   3.406   6.809
 7266SOL     OW22696   4.581   1.592   2.614
 7266SOL    HW122697   4.487   1.567   2.590
 7266SOL    HW222698   4.580   1.654   2.693
 7267SOL     OW22699   5.118   1.728   3.553
 7267SOL    HW122700   5.179   1.654   3.524
 7267SOL    HW222701   5.113   1.797   3.481
 7268SOL     OW22702   4.064   6.905   0.173
 7268SOL    HW122703   4.034   6.999   0.189
 7268SOL    HW222704   4.059   6.853   0.259
 7269SOL     OW22705   1.569   6.999   2.170
 7269SOL    HW122706   1.592   6.979   2.075
 7269SOL    HW222707   1.473   6.976   2.186
 7270SOL     OW22708   3.431   2.191   1.785
 7270SOL    HW122709   3.481   2.223   1.705
 7270SOL    HW222710   3.490   2.198   1.866
 7271SOL     OW22711   6.048   5.440   3.738
 7271SOL    HW122712   5.956   5.477   3.729
 7271SOL    HW222713   6.106   5.477   3.665
 7272SOL     OW22714   6.029   1.678   1.414
 7272SOL    HW122715   6.110   1.676   1.472
 7272SOL    HW222716   5.958   1.620   1.454
 7273SOL     OW22717   5.869   5.427   5.056
 7273SOL    HW122718   5.955   5.435   5.006
 7273SOL    HW222719   5.864   5.336   5.098
 7274SOL     OW22720   5.320   4.880   3.676
 7274SOL    HW122721   5.296   4.791   3.714
 7274SOL    HW222722   5.371   4.933   3.745
 7275SOL     OW22723   6.132   6.945   2.013
 7275SOL    HW122724   6.089   7.015   2.070
 7275SOL    HW222725   6.063   6.876   1.988
 7276SOL     OW22726   4.021   1.497   3.490
 7276SOL    HW122727   4.093   1.478   3.557
 7276SOL    HW222728   3.990   1.591   3.500
 7277SOL     OW22729   6.055   2.158   4.100
 7277SOL    HW122730   5.961   2.153   4.065
 7277SOL    HW222731   6.084   2.066   4.129
 7278SOL     OW22732   3.760   1.445   3.462
 7278SOL    HW122733   3.859   1.459   3.465
 7278SOL    HW222734   3.741   1.348   3.449
 7279SOL     OW22735   3.565   3.618   1.875
 7279SOL    HW122736   3.608   3.691   1.822
 7279SOL    HW222737   3.484   3.654   1.921
 7280SOL     OW22738   6.687   1.678   5.483
 7280SOL    HW122739   6.773   1.677   5.433
 7280SOL    HW222740   6.705   1.673   5.581
 7281SOL     OW22741   3.334   6.707   3.095
 7281SOL    HW122742   3.376   6.706   3.005
 7281SOL    HW222743   3.363   6.788   3.145
 7282SOL     OW22744   0.145   3.642   0.972
 7282SOL    HW122745   0.207   3.690   1.034
 7282SOL    HW222746   0.132   3.548   1.006
 7283SOL     OW22747   3.314   6.269   3.073
 7283SOL    HW122748   3.310   6.346   3.009
 7283SOL    HW222749   3.240   6.279   3.140
 7284SOL     OW22750   0.423   0.127   3.323
 7284SOL    HW122751   0.445   0.222   3.302
 7284SOL    HW222752   0.494   0.089   3.383
 7285SOL     OW22753   5.054   3.055   1.759
 7285SOL    HW122754   5.012   3.133   1.805
 7285SOL    HW222755   5.023   2.970   1.802
 7286SOL     OW22756   6.502   0.912   4.646
 7286SOL    HW122757   6.488   1.003   4.608
 7286SOL    HW222758   6.486   0.914   4.745
 7287SOL     OW22759   2.684   1.693   4.377
 7287SOL    HW122760   2.643   1.673   4.288
 7287SOL    HW222761   2.666   1.788   4.402
 7288SOL     OW22762   2.956   1.575   1.897
 7288SOL    HW122763   3.015   1.635   1.952
 7288SOL    HW222764   2.893   1.631   1.843
 7289SOL     OW22765   6.779   2.317   1.236
 7289SOL    HW122766   6.723   2.344   1.158
 7289SOL    HW222767   6.787   2.394   1.300
 7290SOL     OW22768   3.273   2.142   4.545
 7290SOL    HW122769   3.367   2.170   4.562
 7290SOL    HW222770   3.270   2.044   4.525
 7291SOL     OW22771   0.795   1.269   0.335
 7291SOL    HW122772   0.734   1.272   0.414
 7291SOL    HW222773   0.860   1.344   0.340
 7292SOL     OW22774   4.070   1.158   2.140
 7292SOL    HW122775   4.122   1.076   2.162
 7292SOL    HW222776   3.984   1.132   2.096
 7293SOL     OW22777   6.413   1.093   4.312
 7293SOL    HW122778   6.406   1.116   4.409
 7293SOL    HW222779   6.452   1.171   4.262
 7294SOL     OW22780   3.521   0.716   2.951
 7294SOL    HW122781   3.479   0.725   2.860
 7294SOL    HW222782   3.563   0.626   2.958
 7295SOL     OW22783   5.573   3.976   1.572
 7295SOL    HW122784   5.521   3.941   1.649
 7295SOL    HW222785   5.567   3.912   1.495
 7296SOL     OW22786   3.160   0.006   2.282
 7296SOL    HW122787   3.145   6.969   2.362
 7296SOL    HW222788   3.254   0.039   2.282
 7297SOL     OW22789   3.999   0.149   0.215
 7297SOL    HW122790   4.058   0.206   0.271
 7297SOL    HW222791   3.937   0.207   0.162
 7298SOL     OW22792   3.841   4.615   1.334
 7298SOL    HW122793   3.785   4.669   1.271
 7298SOL    HW222794   3.847   4.663   1.422
 7299SOL     OW22795   0.193   3.409   0.084
 7299SOL    HW122796   0.110   3.458   0.055
 7299SOL    HW222797   0.202   3.324   0.033
 7300SOL     OW22798   0.873   4.083   1.337
 7300SOL    HW122799   0.778   4.062   1.314
 7300SOL    HW222800   0.876   4.132   1.424
 7301SOL     OW22801   4.685   1.586   0.514
 7301SOL    HW122802   4.742   1.511   0.481
 7301SOL    HW222803   4.744   1.660   0.549
 7302SOL     OW22804   5.588   2.094   6.214
 7302SOL    HW122805   5.494   2.128   6.207
 7302SOL    HW222806   5.603   2.024   6.144
 7303SOL     OW22807   3.192   2.172   1.576
 7303SOL    HW122808   3.268   2.184   1.513
 7303SOL    HW222809   3.218   2.203   1.667
 7304SOL     OW22810   2.373   7.018   0.357
 7304SOL    HW122811   2.429   0.069   0.319
 7304SOL    HW222812   2.352   0.016   0.453
 7305SOL     OW22813   6.762   6.802   6.141
 7305SOL    HW122814   6.826   6.878   6.139
 7305SOL    HW222815   6.670   6.836   6.161
 7306SOL     OW22816   1.953   3.668   0.253
 7306SOL    HW122817   1.966   3.607   0.331
 7306SOL    HW222818   2.042   3.702   0.221
 7307SOL     OW22819   3.881   6.219   1.803
 7307SOL    HW122820   3.923   6.204   1.892
 7307SOL    HW222821   3.895   6.314   1.774
 7308SOL     OW22822   3.605   1.805   2.889
 7308SOL    HW122823   3.601   1.738   2.963
 7308SOL    HW222824   3.685   1.787   2.831
 7309SOL     OW22825   2.692   4.804   4.209
 7309SOL    HW122826   2.665   4.766   4.297
 7309SOL    HW222827   2.688   4.904   4.213
 7310SOL     OW22828   3.340   3.206   0.096
 7310SOL    HW122829   3.312   3.128   0.152
 7310SOL    HW222830   3.259   3.258   0.069
 7311SOL     OW22831   1.174   6.768   5.595
 7311SOL    HW122832   1.240   6.764   5.520
 7311SOL    HW222833   1.111   6.691   5.588
 7312SOL     OW22834   6.397   2.369   4.330
 7312SOL    HW122835   6.473   2.347   4.269
 7312SOL    HW222836   6.310   2.355   4.282
 7313SOL     OW22837   3.611   0.955   2.889
 7313SOL    HW122838   3.605   0.869   2.940
 7313SOL    HW222839   3.604   0.936   2.791
 7314SOL     OW22840   2.559   5.581   4.697
 7314SOL    HW122841   2.462   5.605   4.695
 7314SOL    HW222842   2.575   5.517   4.773
 7315SOL     OW22843   2.637   5.350   2.541
 7315SOL    HW122844   2.731   5.383   2.552
 7315SOL    HW222845   2.576   5.427   2.523
 7316SOL     OW22846   3.821   1.033   2.111
 7316SOL    HW122847   3.777   0.986   2.035
 7316SOL    HW222848   3.875   0.968   2.164
 7317SOL     OW22849   6.381   1.990   1.622
 7317SOL    HW122850   6.322   2.056   1.670
 7317SOL    HW222851   6.372   2.004   1.524
 7318SOL     OW22852   5.010   6.217   1.612
 7318SOL    HW122853   5.033   6.122   1.591
 7318SOL    HW222854   5.094   6.271   1.621
 7319SOL     OW22855   4.549   5.367   5.926
 7319SOL    HW122856   4.535   5.401   5.833
 7319SOL    HW222857   4.631   5.408   5.965
 7320SOL     OW22858   1.308   2.731   0.592
 7320SOL    HW122859   1.329   2.819   0.551
 7320SOL    HW222860   1.296   2.662   0.520
 7321SOL     OW22861   1.871   2.299   5.397
 7321SOL    HW122862   1.839   2.315   5.304
 7321SOL    HW222863   1.930   2.375   5.425
 7322SOL     OW22864   2.229   2.005   4.774
 7322SOL    HW122865   2.158   2.075   4.777
 7322SOL    HW222866   2.278   2.010   4.687
 7323SOL     OW22867   2.584   1.674   0.977
 7323SOL    HW122868   2.497   1.631   0.955
 7323SOL    HW222869   2.659   1.613   0.951
 7324SOL     OW22870   5.099   3.732   4.570
 7324SOL    HW122871   5.109   3.686   4.482
 7324SOL    HW222872   5.181   3.719   4.625
 7325SOL     OW22873   3.459   0.763   6.313
 7325SOL    HW122874   3.419   0.672   6.311
 7325SOL    HW222875   3.499   0.781   6.403
 7326SOL     OW22876   3.768   6.327   0.557
 7326SOL    HW122877   3.842   6.318   0.624
 7326SOL    HW222878   3.806   6.334   0.465
 7327SOL     OW22879   1.294   4.259   3.200
 7327SOL    HW122880   1.294   4.213   3.288
 7327SOL    HW222881   1.309   4.192   3.127
 7328SOL     OW22882   4.629   5.096   6.611
 7328SOL    HW122883   4.683   5.171   6.574
 7328SOL    HW222884   4.593   5.122   6.701
 7329SOL     OW22885   2.717   3.664   6.592
 7329SOL    HW122886   2.653   3.740   6.600
 7329SOL    HW222887   2.801   3.695   6.547
 7330SOL     OW22888   2.261   3.428   1.015
 7330SOL    HW122889   2.216   3.410   0.928
 7330SOL    HW222890   2.208   3.388   1.089
 7331SOL     OW22891   5.215   1.416   2.619
 7331SOL    HW122892   5.259   1.482   2.680
 7331SOL    HW222893   5.284   1.371   2.562
 7332SOL     OW22894   2.453   6.826   5.258
 7332SOL    HW122895   2.455   6.770   5.341
 7332SOL    HW222896   2.543   6.865   5.242
 7333SOL     OW22897   6.443   0.776   1.857
 7333SOL    HW122898   6.519   0.764   1.794
 7333SOL    HW222899   6.478   0.807   1.946
 7334SOL     OW22900   0.970   4.707   4.471
 7334SOL    HW122901   0.890   4.692   4.412
 7334SOL    HW222902   0.953   4.785   4.530
 7335SOL     OW22903   0.437   3.177   2.565
 7335SOL    HW122904   0.484   3.213   2.645
 7335SOL    HW222905   0.341   3.163   2.587
 7336SOL     OW22906   2.457   0.274   1.065
 7336SOL    HW122907   2.457   0.201   0.998
 7336SOL    HW222908   2.526   0.342   1.041
 7337SOL     OW22909   3.201   1.876   2.389
 7337SOL    HW122910   3.253   1.927   2.321
 7337SOL    HW222911   3.181   1.785   2.354
 7338SOL     OW22912   5.444   3.351   0.394
 7338SOL    HW122913   5.522   3.320   0.448
 7338SOL    HW222914   5.365   3.292   0.414
 7339SOL     OW22915   6.893   0.271   3.915
 7339SOL    HW122916   6.897   0.204   3.989
 7339SOL    HW222917   6.882   0.363   3.954
 7340SOL     OW22918   2.844   6.722   0.753
 7340SOL    HW122919   2.800   6.742   0.665
 7340SOL    HW222920   2.937   6.689   0.736
 7341SOL     OW22921   6.444   5.595   3.543
 7341SOL    HW122922   6.422   5.506   3.503
 7341SOL    HW222923   6.476   5.657   3.471
 7342SOL     OW22924   0.278   5.536   0.199
 7342SOL    HW122925   0.190   5.513   0.240
 7342SOL    HW222926   0.267   5.547   0.100
 7343SOL     OW22927   0.361   2.277   2.935
 7343SOL    HW122928   0.308   2.250   3.015
 7343SOL    HW222929   0.390   2.196   2.885
 7344SOL     OW22930   1.914   1.007   5.928
 7344SOL    HW122931   1.903   1.102   5.957
 7344SOL    HW222932   2.003   0.973   5.957
 7345SOL     OW22933   1.651   6.577   6.624
 7345SOL    HW122934   1.614   6.632   6.549
 7345SOL    HW222935   1.739   6.616   6.652
 7346SOL     OW22936   3.430   5.354   3.652
 7346SOL    HW122937   3.458   5.290   3.724
 7346SOL    HW222938   3.348   5.320   3.606
 7347SOL     OW22939   5.848   3.248   3.571
 7347SOL    HW122940   5.766   3.303   3.584
 7347SOL    HW222941   5.828   3.171   3.511
 7348SOL     OW22942   5.689   0.458   6.590
 7348SOL    HW122943   5.630   0.384   6.558
 7348SOL    HW222944   5.781   0.422   6.606
 7349SOL     OW22945   3.654   1.921   1.453
 7349SOL    HW122946   3.637   1.895   1.359
 7349SOL    HW222947   3.700   2.010   1.455
 7350SOL     OW22948   1.634   1.305   3.178
 7350SOL    HW122949   1.581   1.370   3.124
 7350SOL    HW222950   1.726   1.341   3.194
 7351SOL     OW22951   5.739   4.814   0.071
 7351SOL    HW122952   5.747   4.714   0.078
 7351SOL    HW222953   5.650   4.838   0.031
 7352SOL     OW22954   6.600   1.385   3.361
 7352SOL    HW122955   6.525   1.350   3.306
 7352SOL    HW222956   6.687   1.368   3.314
 7353SOL     OW22957   5.269   1.802   5.153
 7353SOL    HW122958   5.341   1.750   5.200
 7353SOL    HW222959   5.266   1.775   5.057
 7354SOL     OW22960   5.439   4.103   5.235
 7354SOL    HW122961   5.482   4.101   5.145
 7354SOL    HW222962   5.342   4.079   5.227
 7355SOL     OW22963   6.656   5.681   0.605
 7355SOL    HW122964   6.664   5.764   0.549
 7355SOL    HW222965   6.559   5.662   0.622
 7356SOL     OW22966   6.924   2.082   5.962
 7356SOL    HW122967   6.951   2.003   6.016
 7356SOL    HW222968   6.967   2.164   5.999
 7357SOL     OW22969   0.217   1.652   0.494
 7357SOL    HW122970   0.190   1.676   0.587
 7357SOL    HW222971   0.238   1.555   0.489
 7358SOL     OW22972   2.969   0.883   3.452
 7358SOL    HW122973   2.948   0.958   3.389
 7358SOL    HW222974   3.065   0.858   3.444
 7359SOL     OW22975   2.931   3.673   4.110
 7359SOL    HW122976   3.017   3.721   4.120
 7359SOL    HW222977   2.917   3.648   4.014
 7360SOL     OW22978   1.372   4.346   6.295
 7360SOL    HW122979   1.381   4.372   6.199
 7360SOL    HW222980   1.425   4.263   6.312
 7361SOL     OW22981   5.128   6.964   1.643
 7361SOL    HW122982   5.211   6.987   1.592
 7361SOL    HW222983   5.048   7.003   1.596
 7362SOL     OW22984   1.268   5.703   6.876
 7362SOL    HW122985   1.279   5.790   6.827
 7362SOL    HW222986   1.314   5.630   6.825
 7363SOL     OW22987   4.505   1.904   6.435
 7363SOL    HW122988   4.474   1.937   6.524
 7363SOL    HW222989   4.587   1.954   6.407
 7364SOL     OW22990   5.304   6.902   1.047
 7364SOL    HW122991   5.212   6.885   1.082
 7364SOL    HW222992   5.301   6.902   0.947
 7365SOL     OW22993   4.946   6.854   1.382
 7365SOL    HW122994   5.027   6.879   1.434
 7365SOL    HW222995   4.867   6.850   1.443
 7366SOL     OW22996   2.328   0.112   0.640
 7366SOL    HW122997   2.251   0.174   0.624
 7366SOL    HW222998   2.414   0.164   0.637
 7367SOL     OW22999   4.477   3.094   6.692
 7367SOL    HW123000   4.417   3.151   6.748
 7367SOL    HW223001   4.527   3.030   6.750
 7368SOL     OW23002   2.892   3.393   4.788
 7368SOL    HW123003   2.911   3.472   4.729
 7368SOL    HW223004   2.806   3.407   4.836
 7369SOL     OW23005   6.592   0.237   6.802
 7369SOL    HW123006   6.574   0.302   6.728
 7369SOL    HW223007   6.668   0.177   6.776
 7370SOL     OW23008   0.522   5.862   0.762
 7370SOL    HW123009   0.516   5.887   0.666
 7370SOL    HW223010   0.569   5.774   0.771
 7371SOL     OW23011   1.737   4.968   3.810
 7371SOL    HW123012   1.678   4.952   3.888
 7371SOL    HW223013   1.695   4.932   3.727
 7372SOL     OW23014   2.702   0.428   5.189
 7372SOL    HW123015   2.754   0.356   5.144
 7372SOL    HW223016   2.659   0.391   5.272
 7373SOL     OW23017   3.701   1.501   1.140
 7373SOL    HW123018   3.761   1.566   1.094
 7373SOL    HW223019   3.630   1.470   1.077
 7374SOL     OW23020   2.119   3.718   0.697
 7374SOL    HW123021   2.084   3.626   0.711
 7374SOL    HW223022   2.113   3.741   0.600
 7375SOL     OW23023   2.385   5.922   3.262
 7375SOL    HW123024   2.471   5.917   3.312
 7375SOL    HW223025   2.378   5.845   3.199
 7376SOL     OW23026   3.248   4.040   6.902
 7376SOL    HW123027   3.263   4.120   6.845
 7376SOL    HW223028   3.267   4.063   6.998
 7377SOL     OW23029   5.854   5.832   1.476
 7377SOL    HW123030   5.767   5.818   1.428
 7377SOL    HW223031   5.881   5.928   1.469
 7378SOL     OW23032   0.990   2.147   5.765
 7378SOL    HW123033   0.964   2.241   5.786
 7378SOL    HW223034   0.949   2.120   5.678
 7379SOL     OW23035   4.560   0.211   0.542
 7379SOL    HW123036   4.489   0.279   0.561
 7379SOL    HW223037   4.623   0.206   0.619
 7380SOL     OW23038   7.018   2.649   6.415
 7380SOL    HW123039   6.934   2.627   6.366
 7380SOL    HW223040   0.069   2.668   6.349
 7381SOL     OW23041   5.265   2.450   0.666
 7381SOL    HW123042   5.232   2.391   0.592
 7381SOL    HW223043   5.187   2.491   0.713
 7382SOL     OW23044   1.350   5.257   4.081
 7382SOL    HW123045   1.349   5.173   4.027
 7382SOL    HW223046   1.421   5.250   4.151
 7383SOL     OW23047   1.624   4.551   2.628
 7383SOL    HW123048   1.669   4.548   2.539
 7383SOL    HW223049   1.693   4.550   2.700
 7384SOL     OW23050   6.188   1.927   1.293
 7384SOL    HW123051   6.152   1.854   1.351
 7384SOL    HW223052   6.208   2.008   1.349
 7385SOL     OW23053   5.647   0.357   2.145
 7385SOL    HW123054   5.678   0.319   2.058
 7385SOL    HW223055   5.692   0.444   2.162
 7386SOL     OW23056   6.799   1.697   5.749
 7386SOL    HW123057   6.894   1.666   5.754
 7386SOL    HW223058   6.793   1.789   5.788
 7387SOL     OW23059   4.381   6.466   3.452
 7387SOL    HW123060   4.428   6.532   3.509
 7387SOL    HW223061   4.318   6.412   3.508
 7388SOL     OW23062   4.875   3.890   4.572
 7388SOL    HW123063   4.860   3.894   4.671
 7388SOL    HW223064   4.948   3.825   4.552
 7389SOL     OW23065   1.623   3.057   5.295
 7389SOL    HW123066   1.561   3.006   5.356
 7389SOL    HW223067   1.717   3.045   5.326
 7390SOL     OW23068   4.409   6.679   0.075
 7390SOL    HW123069   4.504   6.656   0.096
 7390SOL    HW223070   4.399   6.779   0.069
 7391SOL     OW23071   0.446   5.065   0.243
 7391SOL    HW123072   0.467   5.153   0.286
 7391SOL    HW223073   0.359   5.072   0.194
 7392SOL     OW23074   1.747   4.223   2.398
 7392SOL    HW123075   1.706   4.184   2.481
 7392SOL    HW223076   1.726   4.321   2.393
 7393SOL     OW23077   1.180   4.039   0.616
 7393SOL    HW123078   1.138   3.980   0.547
 7393SOL    HW223079   1.249   4.097   0.573
 7394SOL     OW23080   2.533   3.271   6.838
 7394SOL    HW123081   2.590   3.189   6.847
 7394SOL    HW223082   2.445   3.255   6.883
 7395SOL     OW23083   2.661   0.691   0.210
 7395SOL    HW123084   2.694   0.600   0.183
 7395SOL    HW223085   2.714   0.761   0.163
 7396SOL     OW23086   6.596   6.779   2.549
 7396SOL    HW123087   6.631   6.752   2.459
 7396SOL    HW223088   6.602   6.701   2.611
 7397SOL     OW23089   6.527   4.487   4.178
 7397SOL    HW123090   6.483   4.482   4.267
 7397SOL    HW223091   6.571   4.399   4.158
 7398SOL     OW23092   4.464   6.323   2.616
 7398SOL    HW123093   4.454   6.347   2.520
 7398SOL    HW223094   4.560   6.327   2.642
 7399SOL     OW23095   5.222   6.191   4.029
 7399SOL    HW123096   5.253   6.165   3.938
 7399SOL    HW223097   5.230   6.113   4.091
 7400SOL     OW23098   2.348   4.300   6.863
 7400SOL    HW123099   2.379   4.394   6.848
 7400SOL    HW223100   2.338   4.283   6.961
 7401SOL     OW23101   6.120   2.946   3.998
 7401SOL    HW123102   6.102   2.956   3.901
 7401SOL    HW223103   6.046   2.894   4.041
 7402SOL     OW23104   1.780   6.118   4.393
 7402SOL    HW123105   1.863   6.159   4.430
 7402SOL    HW223106   1.800   6.075   4.305
 7403SOL     OW23107   2.235   3.266   1.772
 7403SOL    HW123108   2.264   3.356   1.805
 7403SOL    HW223109   2.187   3.217   1.845
 7404SOL     OW23110   1.271   3.009   3.086
 7404SOL    HW123111   1.191   2.979   3.034
 7404SOL    HW223112   1.335   3.057   3.025
 7405SOL     OW23113   3.595   4.349   6.227
 7405SOL    HW123114   3.571   4.435   6.274
 7405SOL    HW223115   3.547   4.345   6.139
 7406SOL     OW23116   6.949   5.973   2.800
 7406SOL    HW123117   0.002   6.032   2.828
 7406SOL    HW223118   6.870   6.029   2.775
 7407SOL     OW23119   3.519   1.473   5.532
 7407SOL    HW123120   3.500   1.381   5.566
 7407SOL    HW223121   3.595   1.513   5.583
 7408SOL     OW23122   1.393   3.892   5.295
 7408SOL    HW123123   1.479   3.944   5.298
 7408SOL    HW223124   1.373   3.868   5.200
 7409SOL     OW23125   2.585   0.005   4.381
 7409SOL    HW123126   2.580   6.979   4.469
 7409SOL    HW223127   2.615   6.963   4.310
 7410SOL     OW23128   5.067   5.647   5.791
 7410SOL    HW123129   5.013   5.617   5.870
 7410SOL    HW223130   5.006   5.662   5.713
 7411SOL     OW23131   5.812   3.891   5.726
 7411SOL    HW123132   5.790   3.852   5.637
 7411SOL    HW223133   5.743   3.959   5.750
 7412SOL     OW23134   1.230   0.960   0.420
 7412SOL    HW123135   1.130   0.957   0.421
 7412SOL    HW223136   1.261   1.055   0.427
 7413SOL     OW23137   6.591   3.788   3.827
 7413SOL    HW123138   6.622   3.759   3.918
 7413SOL    HW223139   6.663   3.773   3.760
 7414SOL     OW23140   0.771   5.492   1.747
 7414SOL    HW123141   0.773   5.556   1.670
 7414SOL    HW223142   0.799   5.402   1.715
 7415SOL     OW23143   3.265   1.654   3.001
 7415SOL    HW123144   3.356   1.613   2.998
 7415SOL    HW223145   3.262   1.730   2.936
 7416SOL     OW23146   6.290   7.000   2.757
 7416SOL    HW123147   6.319   6.982   2.663
 7416SOL    HW223148   6.351   0.046   2.798
 7417SOL     OW23149   0.339   5.026   1.289
 7417SOL    HW123150   0.391   5.098   1.335
 7417SOL    HW223151   0.379   5.007   1.199
 7418SOL     OW23152   1.623   3.847   0.623
 7418SOL    HW123153   1.536   3.855   0.671
 7418SOL    HW223154   1.673   3.767   0.656
 7419SOL     OW23155   6.425   2.284   5.939
 7419SOL    HW123156   6.455   2.290   6.034
 7419SOL    HW223157   6.468   2.205   5.896
 7420SOL     OW23158   0.341   5.549   1.902
 7420SOL    HW123159   0.427   5.523   1.947
 7420SOL    HW223160   0.267   5.492   1.936
 7421SOL     OW23161   4.028   2.018   1.454
 7421SOL    HW123162   4.057   1.944   1.514
 7421SOL    HW223163   3.981   2.088   1.508
 7422SOL     OW23164   0.916   2.042   1.077
 7422SOL    HW123165   0.873   2.113   1.022
 7422SOL    HW223166   1.010   2.026   1.045
 7423SOL     OW23167   2.947   3.750   0.454
 7423SOL    HW123168   2.926   3.653   0.443
 7423SOL    HW223169   3.045   3.761   0.469
 7424SOL     OW23170   5.040   0.852   3.619
 7424SOL    HW123171   5.005   0.773   3.569
 7424SOL    HW223172   4.970   0.923   3.621
 7425SOL     OW23173   3.449   0.375   4.408
 7425SOL    HW123174   3.474   0.289   4.363
 7425SOL    HW223175   3.432   0.445   4.339
 7426SOL     OW23176   0.177   0.797   6.410
 7426SOL    HW123177   0.256   0.820   6.468
 7426SOL    HW223178   0.114   0.739   6.461
 7427SOL     OW23179   5.533   5.014   5.301
 7427SOL    HW123180   5.573   4.948   5.364
 7427SOL    HW223181   5.591   5.023   5.220
 7428SOL     OW23182   4.946   1.278   5.456
 7428SOL    HW123183   4.917   1.215   5.528
 7428SOL    HW223184   5.030   1.324   5.484
 7429SOL     OW23185   6.324   6.246   3.945
 7429SOL    HW123186   6.312   6.266   3.848
 7429SOL    HW223187   6.409   6.287   3.978
 7430SOL     OW23188   0.215   3.846   4.164
 7430SOL    HW123189   0.281   3.834   4.089
 7430SOL    HW223190   0.260   3.891   4.241
 7431SOL     OW23191   6.903   3.788   2.747
 7431SOL    HW123192   6.972   3.789   2.820
 7431SOL    HW223193   6.947   3.811   2.660
 7432SOL     OW23194   1.905   5.755   6.067
 7432SOL    HW123195   1.927   5.672   6.016
 7432SOL    HW223196   1.870   5.824   6.004
 7433SOL     OW23197   0.365   0.021   0.949
 7433SOL    HW123198   0.329   6.995   1.029
 7433SOL    HW223199   0.363   0.120   0.965
 7434SOL     OW23200   4.888   6.569   0.098
 7434SOL    HW123201   4.940   6.653   0.113
 7434SOL    HW223202   4.868   6.526   0.186
 7435SOL     OW23203   1.047   5.212   6.927
 7435SOL    HW123204   1.079   5.275   6.998
 7435SOL    HW223205   1.112   5.212   6.851
 7436SOL     OW23206   4.925   3.422   6.650
 7436SOL    HW123207   4.968   3.506   6.617
 7436SOL    HW223208   4.964   3.398   6.740
 7437SOL     OW23209   0.153   6.262   5.426
 7437SOL    HW123210   0.239   6.212   5.442
 7437SOL    HW223211   0.172   6.360   5.419
 7438SOL     OW23212   5.575   3.720   0.560
 7438SOL    HW123213   5.667   3.750   0.536
 7438SOL    HW223214   5.544   3.767   0.642
 7439SOL     OW23215   1.034   6.454   2.782
 7439SOL    HW123216   1.063   6.526   2.720
 7439SOL    HW223217   1.021   6.492   2.874
 7440SOL     OW23218   0.312   1.151   4.291
 7440SOL    HW123219   0.260   1.192   4.365
 7440SOL    HW223220   0.250   1.103   4.228
 7441SOL     OW23221   6.672   0.345   4.308
 7441SOL    HW123222   6.629   0.354   4.218
 7441SOL    HW223223   6.712   0.254   4.317
 7442SOL     OW23224   1.703   0.917   6.886
 7442SOL    HW123225   1.651   0.869   6.956
 7442SOL    HW223226   1.641   0.972   6.831
 7443SOL     OW23227   6.775   2.035   2.021
 7443SOL    HW123228   6.805   2.002   1.931
 7443SOL    HW223229   6.822   2.121   2.042
 7444SOL     OW23230   1.454   2.683   5.373
 7444SOL    HW123231   1.431   2.681   5.276
 7444SOL    HW223232   1.376   2.717   5.425
 7445SOL     OW23233   5.763   2.933   1.913
 7445SOL    HW123234   5.823   3.009   1.936
 7445SOL    HW223235   5.812   2.867   1.857
 7446SOL     OW23236   4.681   4.252   2.711
 7446SOL    HW123237   4.705   4.232   2.616
 7446SOL    HW223238   4.608   4.320   2.714
 7447SOL     OW23239   1.025   3.941   6.513
 7447SOL    HW123240   0.961   3.965   6.439
 7447SOL    HW223241   1.119   3.954   6.481
 7448SOL     OW23242   0.401   1.262   5.935
 7448SOL    HW123243   0.387   1.260   5.836
 7448SOL    HW223244   0.437   1.174   5.966
 7449SOL     OW23245   3.775   0.328   2.445
 7449SOL    HW123246   3.817   0.240   2.467
 7449SOL    HW223247   3.712   0.317   2.369
 7450SOL     OW23248   3.589   1.797   1.795
 7450SOL    HW123249   3.641   1.882   1.804
 7450SOL    HW223250   3.530   1.803   1.714
 7451SOL     OW23251   1.230   0.816   1.973
 7451SOL    HW123252   1.243   0.764   2.057
 7451SOL    HW223253   1.270   0.765   1.896
 7452SOL     OW23254   1.600   5.974   3.177
 7452SOL    HW123255   1.522   5.955   3.238
 7452SOL    HW223256   1.602   6.071   3.155
 7453SOL     OW23257   6.496   4.580   4.664
 7453SOL    HW123258   6.576   4.546   4.614
 7453SOL    HW223259   6.509   4.566   4.762
 7454SOL     OW23260   2.392   2.376   0.006
 7454SOL    HW123261   2.293   2.383   7.017
 7454SOL    HW223262   2.418   2.280   0.014
 7455SOL     OW23263   4.954   6.822   0.685
 7455SOL    HW123264   4.950   6.749   0.753
 7455SOL    HW223265   4.872   6.879   0.693
 7456SOL     OW23266   1.211   3.952   5.869
 7456SOL    HW123267   1.134   3.982   5.812
 7456SOL    HW223268   1.290   3.932   5.810
 7457SOL     OW23269   0.209   6.018   6.146
 7457SOL    HW123270   0.190   6.075   6.065
 7457SOL    HW223271   0.247   5.931   6.116
 7458SOL     OW23272   3.120   0.496   1.476
 7458SOL    HW123273   3.177   0.414   1.485
 7458SOL    HW223274   3.147   0.562   1.546
 7459SOL     OW23275   3.462   6.042   3.869
 7459SOL    HW123276   3.480   6.005   3.778
 7459SOL    HW223277   3.375   6.091   3.868
 7460SOL     OW23278   0.531   5.425   6.550
 7460SOL    HW123279   0.595   5.375   6.492
 7460SOL    HW223280   0.567   5.517   6.568
 7461SOL     OW23281   4.314   0.898   3.283
 7461SOL    HW123282   4.274   0.808   3.267
 7461SOL    HW223283   4.299   0.924   3.379
 7462SOL     OW23284   2.372   1.724   3.893
 7462SOL    HW123285   2.311   1.711   3.972
 7462SOL    HW223286   2.389   1.636   3.849
 7463SOL     OW23287   3.876   3.832   2.492
 7463SOL    HW123288   3.813   3.755   2.483
 7463SOL    HW223289   3.955   3.817   2.432
 7464SOL     OW23290   4.522   5.770   0.226
 7464SOL    HW123291   4.608   5.777   0.277
 7464SOL    HW223292   4.541   5.735   0.134
 7465SOL     OW23293   3.732   1.478   2.918
 7465SOL    HW123294   3.735   1.549   2.848
 7465SOL    HW223295   3.726   1.388   2.875
 7466SOL     OW23296   6.391   0.285   0.431
 7466SOL    HW123297   6.425   0.248   0.345
 7466SOL    HW223298   6.377   0.383   0.423
 7467SOL     OW23299   4.566   2.218   0.703
 7467SOL    HW123300   4.594   2.280   0.630
 7467SOL    HW223301   4.599   2.126   0.682
 7468SOL     OW23302   5.594   4.295   4.523
 7468SOL    HW123303   5.689   4.320   4.507
 7468SOL    HW223304   5.559   4.344   4.603
 7469SOL     OW23305   5.360   1.943   1.867
 7469SOL    HW123306   5.454   1.911   1.877
 7469SOL    HW223307   5.315   1.890   1.795
 7470SOL     OW23308   0.064   3.308   3.416
 7470SOL    HW123309   0.024   3.298   3.325
 7470SOL    HW223310   0.124   3.230   3.434
 7471SOL     OW23311   6.582   4.616   5.357
 7471SOL    HW123312   6.658   4.553   5.369
 7471SOL    HW223313   6.584   4.653   5.264
 7472SOL     OW23314   4.206   5.269   2.970
 7472SOL    HW123315   4.212   5.175   3.004
 7472SOL    HW223316   4.128   5.278   2.908
 7473SOL     OW23317   1.631   2.496   6.577
 7473SOL    HW123318   1.712   2.506   6.519
 7473SOL    HW223319   1.607   2.585   6.616
 7474SOL     OW23320   2.535   1.477   2.137
 7474SOL    HW123321   2.549   1.537   2.216
 7474SOL    HW223322   2.623   1.439   2.108
 7475SOL     OW23323   5.349   0.456   5.855
 7475SOL    HW123324   5.298   0.528   5.809
 7475SOL    HW223325   5.300   0.369   5.846
 7476SOL     OW23326   1.964   6.813   4.797
 7476SOL    HW123327   1.924   6.891   4.847
 7476SOL    HW223328   1.922   6.728   4.830
 7477SOL     OW23329   4.947   4.307   4.368
 7477SOL    HW123330   4.892   4.363   4.306
 7477SOL    HW223331   4.989   4.232   4.316
 7478SOL     OW23332   0.414   4.757   1.576
 7478SOL    HW123333   0.451   4.711   1.656
 7478SOL    HW223334   0.475   4.832   1.550
 7479SOL     OW23335   3.557   0.559   5.105
 7479SOL    HW123336   3.582   0.617   5.028
 7479SOL    HW223337   3.506   0.613   5.172
 7480SOL     OW23338   5.839   5.260   0.103
 7480SOL    HW123339   5.807   5.181   0.050
 7480SOL    HW223340   5.929   5.240   0.142
 7481SOL     OW23341   6.378   6.246   0.195
 7481SOL    HW123342   6.312   6.181   0.159
 7481SOL    HW223343   6.446   6.268   0.125
 7482SOL     OW23344   4.790   0.052   4.775
 7482SOL    HW123345   4.697   0.071   4.807
 7482SOL    HW223346   4.791   0.049   4.675
 7483SOL     OW23347   3.497   7.001   6.839
 7483SOL    HW123348   3.488   6.986   6.740
 7483SOL    HW223349   3.548   0.063   6.856
 7484SOL     OW23350   3.439   6.730   1.039
 7484SOL    HW123351   3.360   6.777   1.000
 7484SOL    HW223352   3.505   6.798   1.072
 7485SOL     OW23353   0.447   6.477   5.276
 7485SOL    HW123354   0.412   6.543   5.209
 7485SOL    HW223355   0.538   6.446   5.248
 7486SOL     OW23356   1.369   1.886   5.390
 7486SOL    HW123357   1.433   1.947   5.437
 7486SOL    HW223358   1.420   1.812   5.346
 7487SOL     OW23359   3.393   5.164   2.753
 7487SOL    HW123360   3.427   5.070   2.743
 7487SOL    HW223361   3.423   5.201   2.841
 7488SOL     OW23362   4.427   1.279   5.026
 7488SOL    HW123363   4.348   1.308   4.971
 7488SOL    HW223364   4.481   1.359   5.051
 7489SOL     OW23365   0.370   3.295   3.275
 7489SOL    HW123366   0.339   3.238   3.351
 7489SOL    HW223367   0.334   3.260   3.189
 7490SOL     OW23368   5.484   6.712   2.849
 7490SOL    HW123369   5.517   6.784   2.910
 7490SOL    HW223370   5.560   6.651   2.826
 7491SOL     OW23371   0.357   0.459   0.950
 7491SOL    HW123372   0.385   0.431   1.042
 7491SOL    HW223373   0.301   0.386   0.909
 7492SOL     OW23374   2.200   1.720   3.203
 7492SOL    HW123375   2.220   1.647   3.268
 7492SOL    HW223376   2.255   1.707   3.120
 7493SOL     OW23377   5.243   4.333   6.363
 7493SOL    HW123378   5.229   4.409   6.300
 7493SOL    HW223379   5.340   4.328   6.389
 7494SOL     OW23380   5.261   1.726   1.393
 7494SOL    HW123381   5.241   1.793   1.464
 7494SOL    HW223382   5.237   1.635   1.425
 7495SOL     OW23383   1.347   1.725   3.314
 7495SOL    HW123384   1.269   1.762   3.364
 7495SOL    HW223385   1.363   1.778   3.231
 7496SOL     OW23386   0.856   4.817   5.891
 7496SOL    HW123387   0.799   4.849   5.815
 7496SOL    HW223388   0.938   4.873   5.898
 7497SOL     OW23389   1.275   4.752   2.941
 7497SOL    HW123390   1.245   4.848   2.937
 7497SOL    HW223391   1.344   4.735   2.871
 7498SOL     OW23392   5.315   1.799   4.189
 7498SOL    HW123393   5.306   1.894   4.161
 7498SOL    HW223394   5.402   1.763   4.157
 7499SOL     OW23395   3.768   5.366   3.551
 7499SOL    HW123396   3.740   5.298   3.484
 7499SOL    HW223397   3.740   5.336   3.643
 7500SOL     OW23398   4.670   3.863   1.694
 7500SOL    HW123399   4.594   3.924   1.671
 7500SOL    HW223400   4.726   3.848   1.613
 7501SOL     OW23401   0.646   4.228   4.009
 7501SOL    HW123402   0.700   4.312   3.998
 7501SOL    HW223403   0.549   4.249   3.998
 7502SOL     OW23404   1.496   2.222   4.065
 7502SOL    HW123405   1.430   2.232   4.139
 7502SOL    HW223406   1.586   2.253   4.096
 7503SOL     OW23407   2.535   2.088   6.582
 7503SOL    HW123408   2.568   2.139   6.662
 7503SOL    HW223409   2.480   2.149   6.525
 7504SOL     OW23410   4.549   5.805   4.643
 7504SOL    HW123411   4.593   5.733   4.589
 7504SOL    HW223412   4.542   5.777   4.738
 7505SOL     OW23413   1.935   1.563   3.880
 7505SOL    HW123414   1.968   1.499   3.810
 7505SOL    HW223415   1.994   1.644   3.882
 7506SOL     OW23416   3.788   0.884   3.154
 7506SOL    HW123417   3.843   0.809   3.118
 7506SOL    HW223418   3.809   0.969   3.105
 7507SOL     OW23419   1.730   6.860   5.373
 7507SOL    HW123420   1.752   6.802   5.294
 7507SOL    HW223421   1.813   6.908   5.402
 7508SOL     OW23422   5.502   6.030   3.033
 7508SOL    HW123423   5.437   6.026   2.957
 7508SOL    HW223424   5.582   5.973   3.011
 7509SOL     OW23425   3.715   4.120   6.093
 7509SOL    HW123426   3.684   4.179   6.167
 7509SOL    HW223427   3.681   4.156   6.006
 7510SOL     OW23428   3.653   3.506   4.716
 7510SOL    HW123429   3.594   3.559   4.655
 7510SOL    HW223430   3.736   3.480   4.668
 7511SOL     OW23431   1.201   1.295   2.719
 7511SOL    HW123432   1.101   1.292   2.731
 7511SOL    HW223433   1.225   1.247   2.635
 7512SOL     OW23434   2.136   3.096   2.505
 7512SOL    HW123435   2.112   3.126   2.413
 7512SOL    HW223436   2.054   3.092   2.561
 7513SOL     OW23437   2.173   3.536   6.832
 7513SOL    HW123438   2.202   3.501   6.921
 7513SOL    HW223439   2.073   3.531   6.826
 7514SOL     OW23440   3.003   5.568   3.588
 7514SOL    HW123441   2.982   5.596   3.682
 7514SOL    HW223442   3.020   5.650   3.532
 7515SOL     OW23443   0.224   4.768   3.138
 7515SOL    HW123444   0.278   4.694   3.179
 7515SOL    HW223445   0.199   4.743   3.045
 7516SOL     OW23446   1.993   3.047   1.541
 7516SOL    HW123447   1.984   3.107   1.621
 7516SOL    HW223448   1.905   3.039   1.495
 7517SOL     OW23449   1.237   4.815   2.343
 7517SOL    HW123450   1.250   4.902   2.391
 7517SOL    HW223451   1.165   4.762   2.387
 7518SOL     OW23452   4.764   4.040   2.879
 7518SOL    HW123453   4.858   4.070   2.896
 7518SOL    HW223454   4.721   4.102   2.813
 7519SOL     OW23455   2.094   6.934   4.566
 7519SOL    HW123456   2.053   6.917   4.656
 7519SOL    HW223457   2.035   6.897   4.495
 7520SOL     OW23458   2.208   0.090   4.132
 7520SOL    HW123459   2.159   0.176   4.141
 7520SOL    HW223460   2.201   0.057   4.037
 7521SOL     OW23461   4.434   3.092   5.731
 7521SOL    HW123462   4.465   3.090   5.635
 7521SOL    HW223463   4.358   3.028   5.743
 7522SOL     OW23464   1.812   6.698   2.360
 7522SOL    HW123465   1.752   6.766   2.403
 7522SOL    HW223466   1.896   6.689   2.412
 7523SOL     OW23467   0.164   6.715   6.685
 7523SOL    HW123468   0.197   6.681   6.597
 7523SOL    HW223469   0.125   6.806   6.673
 7524SOL     OW23470   6.585   1.279   5.093
 7524SOL    HW123471   6.613   1.251   5.184
 7524SOL    HW223472   6.642   1.355   5.063
 7525SOL     OW23473   0.710   0.858   0.879
 7525SOL    HW123474   0.703   0.796   0.801
 7525SOL    HW223475   0.702   0.953   0.847
 7526SOL     OW23476   3.732   3.442   5.814
 7526SOL    HW123477   3.728   3.472   5.909
 7526SOL    HW223478   3.826   3.415   5.791
 7527SOL     OW23479   3.695   6.487   1.724
 7527SOL    HW123480   3.702   6.550   1.801
 7527SOL    HW223481   3.627   6.417   1.744
 7528SOL     OW23482   6.101   3.279   6.433
 7528SOL    HW123483   6.103   3.185   6.399
 7528SOL    HW223484   6.028   3.330   6.387
 7529SOL     OW23485   1.917   6.821   4.349
 7529SOL    HW123486   1.888   6.771   4.267
 7529SOL    HW223487   1.848   6.812   4.421
 7530SOL     OW23488   6.909   2.905   2.636
 7530SOL    HW123489   6.965   2.986   2.658
 7530SOL    HW223490   6.867   2.870   2.719
 7531SOL     OW23491   2.376   1.926   4.220
 7531SOL    HW123492   2.371   2.024   4.197
 7531SOL    HW223493   2.287   1.884   4.201
 7532SOL     OW23494   4.879   4.398   2.294
 7532SOL    HW123495   4.849   4.459   2.367
 7532SOL    HW223496   4.962   4.435   2.253
 7533SOL     OW23497   3.384   0.796   5.217
 7533SOL    HW123498   3.312   0.745   5.170
 7533SOL    HW223499   3.402   0.881   5.167
 7534SOL     OW23500   4.101   6.778   3.682
 7534SOL    HW123501   4.028   6.773   3.614
 7534SOL    HW223502   4.066   6.823   3.764
 7535SOL     OW23503   3.095   5.160   0.259
 7535SOL    HW123504   3.147   5.175   0.343
 7535SOL    HW223505   3.083   5.247   0.211
 7536SOL     OW23506   4.656   5.581   6.065
 7536SOL    HW123507   4.565   5.545   6.082
 7536SOL    HW223508   4.675   5.656   6.130
 7537SOL     OW23509   2.185   4.796   5.248
 7537SOL    HW123510   2.129   4.770   5.169
 7537SOL    HW223511   2.281   4.803   5.220
 7538SOL     OW23512   3.409   3.893   5.162
 7538SOL    HW123513   3.371   3.954   5.232
 7538SOL    HW223514   3.379   3.799   5.180
 7539SOL     OW23515   0.834   2.125   5.094
 7539SOL    HW123516   0.855   2.067   5.172
 7539SOL    HW223517   0.734   2.131   5.083
 7540SOL     OW23518   2.612   1.091   0.439
 7540SOL    HW123519   2.543   1.139   0.385
 7540SOL    HW223520   2.696   1.082   0.386
 7541SOL     OW23521   6.800   2.309   5.580
 7541SOL    HW123522   6.863   2.237   5.551
 7541SOL    HW223523   6.756   2.282   5.666
 7542SOL     OW23524   1.500   0.373   5.021
 7542SOL    HW123525   1.559   0.296   5.045
 7542SOL    HW223526   1.555   0.445   4.980
 7543SOL     OW23527   2.410   2.684   1.474
 7543SOL    HW123528   2.312   2.694   1.492
 7543SOL    HW223529   2.454   2.774   1.479
 7544SOL     OW23530   1.283   1.995   2.450
 7544SOL    HW123531   1.237   2.011   2.362
 7544SOL    HW223532   1.375   2.035   2.447
 7545SOL     OW23533   4.014   0.765   3.034
 7545SOL    HW123534   4.094   0.705   3.034
 7545SOL    HW223535   4.044   0.860   3.026
 7546SOL     OW23536   5.306   0.314   5.398
 7546SOL    HW123537   5.323   0.233   5.454
 7546SOL    HW223538   5.209   0.336   5.399
 7547SOL     OW23539   2.810   0.423   0.204
 7547SOL    HW123540   2.803   0.440   0.302
 7547SOL    HW223541   2.905   0.400   0.181
 7548SOL     OW23542   2.084   3.502   1.334
 7548SOL    HW123543   2.139   3.461   1.406
 7548SOL    HW223544   2.065   3.434   1.264
 7549SOL     OW23545   5.722   0.601   2.221
 7549SOL    HW123546   5.661   0.675   2.249
 7549SOL    HW223547   5.809   0.640   2.190
 7550SOL     OW23548   1.096   5.398   1.021
 7550SOL    HW123549   1.054   5.308   1.011
 7550SOL    HW223550   1.196   5.389   1.019
 7551SOL     OW23551   5.170   3.467   6.009
 7551SOL    HW123552   5.114   3.431   5.935
 7551SOL    HW223553   5.111   3.514   6.075
 7552SOL     OW23554   3.698   6.021   3.978
 7552SOL    HW123555   3.712   6.032   4.076
 7552SOL    HW223556   3.603   6.040   3.955
 7553SOL     OW23557   4.309   4.182   5.948
 7553SOL    HW123558   4.315   4.083   5.937
 7553SOL    HW223559   4.226   4.204   6.000
 7554SOL     OW23560   0.171   1.413   1.109
 7554SOL    HW123561   0.148   1.336   1.050
 7554SOL    HW223562   0.194   1.492   1.052
 7555SOL     OW23563   1.737   6.290   6.145
 7555SOL    HW123564   1.716   6.295   6.243
 7555SOL    HW223565   1.805   6.218   6.129
 7556SOL     OW23566   6.664   3.842   2.852
 7556SOL    HW123567   6.655   3.940   2.836
 7556SOL    HW223568   6.752   3.810   2.818
 7557SOL     OW23569   4.019   4.261   0.499
 7557SOL    HW123570   4.095   4.258   0.563
 7557SOL    HW223571   4.014   4.175   0.449
 7558SOL     OW23572   1.569   3.141   3.666
 7558SOL    HW123573   1.637   3.110   3.600
 7558SOL    HW223574   1.497   3.191   3.618
 7559SOL     OW23575   0.805   4.262   6.984
 7559SOL    HW123576   0.852   4.307   0.039
 7559SOL    HW223577   0.735   4.324   6.948
 7560SOL     OW23578   4.412   0.431   5.564
 7560SOL    HW123579   4.328   0.416   5.513
 7560SOL    HW223580   4.466   0.503   5.520
 7561SOL     OW23581   0.684   3.770   0.312
 7561SOL    HW123582   0.754   3.830   0.272
 7561SOL    HW223583   0.602   3.822   0.331
 7562SOL     OW23584   4.323   6.193   4.778
 7562SOL    HW123585   4.330   6.151   4.869
 7562SOL    HW223586   4.254   6.144   4.724
 7563SOL     OW23587   2.224   0.974   3.806
 7563SOL    HW123588   2.267   1.034   3.873
 7563SOL    HW223589   2.264   0.883   3.813
 7564SOL     OW23590   5.826   5.604   3.951
 7564SOL    HW123591   5.868   5.677   3.897
 7564SOL    HW223592   5.791   5.534   3.889
 7565SOL     OW23593   4.760   5.362   6.534
 7565SOL    HW123594   4.843   5.385   6.586
 7565SOL    HW223595   4.783   5.351   6.438
 7566SOL     OW23596   1.819   5.649   4.094
 7566SOL    HW123597   1.799   5.581   4.164
 7566SOL    HW223598   1.789   5.739   4.125
 7567SOL     OW23599   2.455   3.289   0.141
 7567SOL    HW123600   2.548   3.303   0.105
 7567SOL    HW223601   2.461   3.268   0.239
 7568SOL     OW23602   4.162   4.715   3.076
 7568SOL    HW123603   4.102   4.720   3.155
 7568SOL    HW223604   4.122   4.767   3.000
 7569SOL     OW23605   3.409   0.068   2.295
 7569SOL    HW123606   3.454   7.001   2.283
 7569SOL    HW223607   3.475   0.142   2.285
 7570SOL     OW23608   5.669   5.012   5.040
 7570SOL    HW123609   5.612   4.996   4.959
 7570SOL    HW223610   5.754   4.962   5.032
 7571SOL     OW23611   6.289   4.106   0.306
 7571SOL    HW123612   6.339   4.054   0.376
 7571SOL    HW223613   6.191   4.094   0.319
 7572SOL     OW23614   6.523   1.831   3.146
 7572SOL    HW123615   6.590   1.900   3.119
 7572SOL    HW223616   6.533   1.811   3.244
 7573SOL     OW23617   3.540   5.408   4.293
 7573SOL    HW123618   3.540   5.354   4.210
 7573SOL    HW223619   3.457   5.463   4.297
 7574SOL     OW23620   4.486   5.751   1.784
 7574SOL    HW123621   4.412   5.741   1.851
 7574SOL    HW223622   4.509   5.847   1.773
 7575SOL     OW23623   4.930   3.069   4.931
 7575SOL    HW123624   4.946   3.010   4.851
 7575SOL    HW223625   4.929   3.164   4.902
 7576SOL     OW23626   6.941   3.848   1.864
 7576SOL    HW123627   6.877   3.924   1.853
 7576SOL    HW223628   6.893   3.762   1.848
 7577SOL     OW23629   4.011   1.444   4.506
 7577SOL    HW123630   3.990   1.510   4.434
 7577SOL    HW223631   3.925   1.405   4.541
 7578SOL     OW23632   2.295   5.734   4.737
 7578SOL    HW123633   2.302   5.698   4.830
 7578SOL    HW223634   2.199   5.741   4.711
 7579SOL     OW23635   4.236   2.186   4.565
 7579SOL    HW123636   4.297   2.184   4.644
 7579SOL    HW223637   4.142   2.171   4.595
 7580SOL     OW23638   2.058   3.330   2.118
 7580SOL    HW123639   2.115   3.411   2.104
 7580SOL    HW223640   2.086   3.258   2.054
 7581SOL     OW23641   5.657   0.881   0.739
 7581SOL    HW123642   5.583   0.879   0.671
 7581SOL    HW223643   5.663   0.972   0.779
 7582SOL     OW23644   3.847   2.883   1.487
 7582SOL    HW123645   3.750   2.861   1.471
 7582SOL    HW223646   3.874   2.958   1.427
 7583SOL     OW23647   6.586   4.444   3.083
 7583SOL    HW123648   6.623   4.507   3.014
 7583SOL    HW223649   6.574   4.353   3.042
 7584SOL     OW23650   2.444   2.042   2.087
 7584SOL    HW123651   2.511   2.092   2.032
 7584SOL    HW223652   2.483   2.021   2.176
 7585SOL     OW23653   2.338   4.546   0.384
 7585SOL    HW123654   2.375   4.487   0.456
 7585SOL    HW223655   2.411   4.568   0.318
 7586SOL     OW23656   1.818   2.216   3.686
 7586SOL    HW123657   1.776   2.150   3.624
 7586SOL    HW223658   1.748   2.275   3.725
 7587SOL     OW23659   2.203   1.136   5.459
 7587SOL    HW123660   2.285   1.081   5.441
 7587SOL    HW223661   2.231   1.229   5.484
 7588SOL     OW23662   0.399   4.556   1.768
 7588SOL    HW123663   0.368   4.469   1.728
 7588SOL    HW223664   0.325   4.596   1.822
 7589SOL     OW23665   4.922   5.533   5.996
 7589SOL    HW123666   4.971   5.452   6.029
 7589SOL    HW223667   4.842   5.549   6.054
 7590SOL     OW23668   1.765   0.807   5.386
 7590SOL    HW123669   1.762   0.873   5.461
 7590SOL    HW223670   1.778   0.715   5.423
 7591SOL     OW23671   6.428   6.211   6.627
 7591SOL    HW123672   6.355   6.234   6.691
 7591SOL    HW223673   6.505   6.272   6.641
 7592SOL     OW23674   3.983   4.886   6.202
 7592SOL    HW123675   3.896   4.930   6.183
 7592SOL    HW223676   4.024   4.926   6.284
 7593SOL     OW23677   6.116   4.329   0.499
 7593SOL    HW123678   6.085   4.323   0.594
 7593SOL    HW223679   6.212   4.354   0.496
 7594SOL     OW23680   1.056   6.825   3.853
 7594SOL    HW123681   1.048   6.771   3.937
 7594SOL    HW223682   1.105   6.909   3.872
 7595SOL     OW23683   6.665   3.064   6.434
 7595SOL    HW123684   6.591   3.115   6.478
 7595SOL    HW223685   6.700   2.995   6.497
 7596SOL     OW23686   5.186   5.955   2.279
 7596SOL    HW123687   5.216   5.863   2.300
 7596SOL    HW223688   5.232   5.987   2.196
 7597SOL     OW23689   2.499   5.320   1.777
 7597SOL    HW123690   2.401   5.331   1.757
 7597SOL    HW223691   2.544   5.410   1.771
 7598SOL     OW23692   6.169   1.011   2.709
 7598SOL    HW123693   6.199   1.106   2.703
 7598SOL    HW223694   6.248   0.950   2.700
 7599SOL     OW23695   5.412   3.293   2.495
 7599SOL    HW123696   5.405   3.197   2.523
 7599SOL    HW223697   5.420   3.298   2.396
 7600SOL     OW23698   2.169   2.628   2.882
 7600SOL    HW123699   2.216   2.629   2.794
 7600SOL    HW223700   2.235   2.643   2.955
 7601SOL     OW23701   1.829   0.401   5.138
 7601SOL    HW123702   1.878   0.379   5.054
 7601SOL    HW223703   1.858   0.338   5.211
 7602SOL     OW23704   2.128   3.080   5.177
 7602SOL    HW123705   2.154   3.050   5.269
 7602SOL    HW223706   2.196   3.049   5.111
 7603SOL     OW23707   6.559   1.560   2.175
 7603SOL    HW123708   6.598   1.599   2.258
 7603SOL    HW223709   6.608   1.477   2.150
 7604SOL     OW23710   5.187   5.341   6.336
 7604SOL    HW123711   5.149   5.249   6.346
 7604SOL    HW223712   5.272   5.336   6.284
 7605SOL     OW23713   5.919   3.443   6.273
 7605SOL    HW123714   5.869   3.527   6.249
 7605SOL    HW223715   5.886   3.368   6.216
 7606SOL     OW23716   5.447   1.355   3.618
 7606SOL    HW123717   5.516   1.360   3.691
 7606SOL    HW223718   5.373   1.294   3.646
 7607SOL     OW23719   5.306   6.717   5.659
 7607SOL    HW123720   5.208   6.694   5.655
 7607SOL    HW223721   5.317   6.813   5.683
 7608SOL     OW23722   3.609   3.735   4.990
 7608SOL    HW123723   3.580   3.782   4.907
 7608SOL    HW223724   3.594   3.794   5.069
 7609SOL     OW23725   1.134   2.767   3.458
 7609SOL    HW123726   1.223   2.807   3.480
 7609SOL    HW223727   1.063   2.837   3.463
 7610SOL     OW23728   5.390   0.361   2.242
 7610SOL    HW123729   5.469   0.374   2.182
 7610SOL    HW223730   5.341   0.448   2.251
 7611SOL     OW23731   2.255   1.387   1.292
 7611SOL    HW123732   2.186   1.437   1.344
 7611SOL    HW223733   2.346   1.421   1.313
 7612SOL     OW23734   4.602   2.180   2.812
 7612SOL    HW123735   4.564   2.259   2.859
 7612SOL    HW223736   4.529   2.112   2.799
 7613SOL     OW23737   6.000   0.416   2.362
 7613SOL    HW123738   5.905   0.390   2.343
 7613SOL    HW223739   6.062   0.345   2.329
 7614SOL     OW23740   4.710   1.043   0.610
 7614SOL    HW123741   4.743   1.089   0.692
 7614SOL    HW223742   4.735   0.946   0.613
 7615SOL     OW23743   3.666   4.877   5.561
 7615SOL    HW123744   3.675   4.807   5.632
 7615SOL    HW223745   3.570   4.908   5.557
 7616SOL     OW23746   0.233   5.511   3.017
 7616SOL    HW123747   0.283   5.427   3.039
 7616SOL    HW223748   0.290   5.568   2.957
 7617SOL     OW23749   3.813   5.645   3.598
 7617SOL    HW123750   3.742   5.649   3.668
 7617SOL    HW223751   3.789   5.574   3.531
 7618SOL     OW23752   3.033   2.068   0.076
 7618SOL    HW123753   3.067   1.978   0.049
 7618SOL    HW223754   2.989   2.062   0.166
 7619SOL     OW23755   5.621   3.004   6.152
 7619SOL    HW123756   5.530   3.040   6.131
 7619SOL    HW223757   5.666   2.976   6.067
 7620SOL     OW23758   3.358   5.719   1.493
 7620SOL    HW123759   3.329   5.666   1.572
 7620SOL    HW223760   3.425   5.788   1.521
 7621SOL     OW23761   2.397   2.415   0.708
 7621SOL    HW123762   2.372   2.375   0.796
 7621SOL    HW223763   2.315   2.424   0.651
 7622SOL     OW23764   5.084   2.476   1.078
 7622SOL    HW123765   5.030   2.408   1.128
 7622SOL    HW223766   5.175   2.439   1.058
 7623SOL     OW23767   6.579   6.539   5.243
 7623SOL    HW123768   6.500   6.520   5.301
 7623SOL    HW223769   6.644   6.464   5.249
 7624SOL     OW23770   0.038   0.420   4.796
 7624SOL    HW123771   0.106   0.419   4.723
 7624SOL    HW223772   0.044   0.334   4.847
 7625SOL     OW23773   2.931   5.343   1.031
 7625SOL    HW123774   3.017   5.384   1.062
 7625SOL    HW223775   2.918   5.364   0.934
 7626SOL     OW23776   2.637   4.280   5.313
 7626SOL    HW123777   2.630   4.367   5.263
 7626SOL    HW223778   2.698   4.292   5.391
 7627SOL     OW23779   6.950   0.958   0.314
 7627SOL    HW123780   6.947   1.058   0.304
 7627SOL    HW223781   6.965   0.916   0.225
 7628SOL     OW23782   4.874   2.028   1.552
 7628SOL    HW123783   4.910   1.940   1.583
 7628SOL    HW223784   4.823   2.071   1.626
 7629SOL     OW23785   6.250   5.855   3.511
 7629SOL    HW123786   6.324   5.819   3.455
 7629SOL    HW223787   6.252   5.955   3.510
 7630SOL     OW23788   6.623   1.787   1.982
 7630SOL    HW123789   6.667   1.871   2.014
 7630SOL    HW223790   6.632   1.717   2.052
 7631SOL     OW23791   1.199   0.861   3.435
 7631SOL    HW123792   1.182   0.935   3.370
 7631SOL    HW223793   1.270   0.889   3.500
 7632SOL     OW23794   4.381   0.526   4.897
 7632SOL    HW123795   4.302   0.539   4.957
 7632SOL    HW223796   4.461   0.568   4.938
 7633SOL     OW23797   6.427   4.041   6.377
 7633SOL    HW123798   6.412   3.984   6.457
 7633SOL    HW223799   6.489   3.995   6.313
 7634SOL     OW23800   1.445   2.472   2.543
 7634SOL    HW123801   1.497   2.554   2.517
 7634SOL    HW223802   1.484   2.392   2.499
 7635SOL     OW23803   2.432   4.716   5.932
 7635SOL    HW123804   2.460   4.649   6.000
 7635SOL    HW223805   2.501   4.789   5.926
 7636SOL     OW23806   0.729   0.625   3.302
 7636SOL    HW123807   0.777   0.711   3.289
 7636SOL    HW223808   0.645   0.626   3.247
 7637SOL     OW23809   2.782   6.600   4.015
 7637SOL    HW123810   2.790   6.555   4.104
 7637SOL    HW223811   2.709   6.556   3.962
 7638SOL     OW23812   4.399   4.362   1.587
 7638SOL    HW123813   4.310   4.349   1.543
 7638SOL    HW223814   4.412   4.291   1.657
 7639SOL     OW23815   0.607   1.843   4.366
 7639SOL    HW123816   0.515   1.827   4.333
 7639SOL    HW223817   0.617   1.939   4.392
 7640SOL     OW23818   2.653   3.212   5.913
 7640SOL    HW123819   2.591   3.257   5.848
 7640SOL    HW223820   2.609   3.207   6.002
 7641SOL     OW23821   5.813   3.209   2.745
 7641SOL    HW123822   5.888   3.152   2.779
 7641SOL    HW223823   5.755   3.236   2.822
 7642SOL     OW23824   1.575   2.112   2.841
 7642SOL    HW123825   1.597   2.030   2.895
 7642SOL    HW223826   1.660   2.155   2.811
 7643SOL     OW23827   5.172   3.709   3.571
 7643SOL    HW123828   5.124   3.780   3.520
 7643SOL    HW223829   5.114   3.628   3.579
 7644SOL     OW23830   6.347   3.121   4.070
 7644SOL    HW123831   6.285   3.045   4.053
 7644SOL    HW223832   6.367   3.127   4.168
 7645SOL     OW23833   3.629   3.092   0.466
 7645SOL    HW123834   3.571   3.040   0.528
 7645SOL    HW223835   3.650   3.035   0.386
 7646SOL     OW23836   0.751   0.110   2.027
 7646SOL    HW123837   0.689   0.054   1.971
 7646SOL    HW223838   0.702   0.191   2.060
 7647SOL     OW23839   1.983   4.833   0.113
 7647SOL    HW123840   2.043   4.912   0.121
 7647SOL    HW223841   2.025   4.754   0.157
 7648SOL     OW23842   2.956   0.995   3.722
 7648SOL    HW123843   2.943   1.093   3.738
 7648SOL    HW223844   2.969   0.979   3.624
 7649SOL     OW23845   3.186   1.617   0.934
 7649SOL    HW123846   3.138   1.560   1.001
 7649SOL    HW223847   3.158   1.591   0.842
 7650SOL     OW23848   6.504   4.955   0.540
 7650SOL    HW123849   6.553   4.924   0.622
 7650SOL    HW223850   6.560   5.024   0.492
 7651SOL     OW23851   5.352   1.907   6.231
 7651SOL    HW123852   5.342   1.990   6.286
 7651SOL    HW223853   5.433   1.857   6.261
 7652SOL     OW23854   1.179   3.306   3.146
 7652SOL    HW123855   1.268   3.340   3.116
 7652SOL    HW223856   1.177   3.206   3.138
 7653SOL     OW23857   5.035   2.517   2.167
 7653SOL    HW123858   4.944   2.477   2.157
 7653SOL    HW223859   5.030   2.599   2.224
 7654SOL     OW23860   5.521   3.769   4.770
 7654SOL    HW123861   5.581   3.843   4.800
 7654SOL    HW223862   5.443   3.762   4.833
 7655SOL     OW23863   4.567   5.050   5.974
 7655SOL    HW123864   4.533   5.035   6.066
 7655SOL    HW223865   4.509   5.001   5.908
 7656SOL     OW23866   0.740   0.251   5.248
 7656SOL    HW123867   0.793   0.280   5.168
 7656SOL    HW223868   0.727   0.152   5.245
 7657SOL     OW23869   4.284   1.696   3.608
 7657SOL    HW123870   4.331   1.784   3.605
 7657SOL    HW223871   4.205   1.702   3.669
 7658SOL     OW23872   4.075   0.384   6.102
 7658SOL    HW123873   4.039   0.352   6.189
 7658SOL    HW223874   4.106   0.479   6.111
 7659SOL     OW23875   5.056   6.125   6.296
 7659SOL    HW123876   4.972   6.150   6.248
 7659SOL    HW223877   5.033   6.066   6.373
 7660SOL     OW23878   5.338   5.485   3.891
 7660SOL    HW123879   5.264   5.435   3.846
 7660SOL    HW223880   5.340   5.579   3.857
 7661SOL     OW23881   6.157   3.920   3.795
 7661SOL    HW123882   6.107   3.852   3.849
 7661SOL    HW223883   6.206   3.982   3.856
 7662SOL     OW23884   6.647   5.470   3.677
 7662SOL    HW123885   6.568   5.516   3.636
 7662SOL    HW223886   6.617   5.420   3.759
 7663SOL     OW23887   0.622   6.567   0.612
 7663SOL    HW123888   0.537   6.518   0.595
 7663SOL    HW223889   0.688   6.548   0.540
 7664SOL     OW23890   3.597   5.599   4.927
 7664SOL    HW123891   3.606   5.515   4.874
 7664SOL    HW223892   3.637   5.586   5.017
 7665SOL     OW23893   2.031   5.651   3.901
 7665SOL    HW123894   1.952   5.630   3.958
 7665SOL    HW223895   2.096   5.705   3.955
 7666SOL     OW23896   2.141   0.316   2.518
 7666SOL    HW123897   2.125   0.244   2.451
 7666SOL    HW223898   2.063   0.379   2.518
 7667SOL     OW23899   5.917   6.821   5.193
 7667SOL    HW123900   5.845   6.803   5.127
 7667SOL    HW223901   5.876   6.842   5.282
 7668SOL     OW23902   3.056   3.612   1.864
 7668SOL    HW123903   3.089   3.524   1.830
 7668SOL    HW223904   3.018   3.665   1.788
 7669SOL     OW23905   4.601   6.570   4.915
 7669SOL    HW123906   4.584   6.535   4.823
 7669SOL    HW223907   4.685   6.623   4.916
 7670SOL     OW23908   1.716   5.790   0.871
 7670SOL    HW123909   1.783   5.815   0.801
 7670SOL    HW223910   1.754   5.716   0.928
 7671SOL     OW23911   4.899   2.283   4.276
 7671SOL    HW123912   4.861   2.373   4.254
 7671SOL    HW223913   4.843   2.240   4.347
 7672SOL     OW23914   6.592   0.172   2.070
 7672SOL    HW123915   6.621   0.126   1.986
 7672SOL    HW223916   6.531   0.248   2.047
 7673SOL     OW23917   1.175   3.405   0.540
 7673SOL    HW123918   1.176   3.505   0.536
 7673SOL    HW223919   1.082   3.374   0.560
 7674SOL     OW23920   6.007   0.879   5.221
 7674SOL    HW123921   6.097   0.891   5.262
 7674SOL    HW223922   5.975   0.967   5.184
 7675SOL     OW23923   4.988   0.527   3.254
 7675SOL    HW123924   5.039   0.554   3.172
 7675SOL    HW223925   5.034   0.448   3.296
 7676SOL     OW23926   1.524   0.104   1.147
 7676SOL    HW123927   1.427   0.128   1.143
 7676SOL    HW223928   1.544   0.058   1.233
 7677SOL     OW23929   1.885   3.045   2.626
 7677SOL    HW123930   1.852   3.132   2.662
 7677SOL    HW223931   1.821   3.011   2.557
 7678SOL     OW23932   5.187   6.881   6.058
 7678SOL    HW123933   5.121   6.938   6.007
 7678SOL    HW223934   5.170   6.891   6.156
 7679SOL     OW23935   1.567   5.294   4.281
 7679SOL    HW123936   1.578   5.389   4.252
 7679SOL    HW223937   1.655   5.247   4.276
 7680SOL     OW23938   5.113   0.511   0.596
 7680SOL    HW123939   5.115   0.586   0.530
 7680SOL    HW223940   5.031   0.520   0.653
 7681SOL     OW23941   4.008   2.164   6.015
 7681SOL    HW123942   4.010   2.067   6.039
 7681SOL    HW223943   3.925   2.183   5.963
 7682SOL     OW23944   3.056   0.342   0.475
 7682SOL    HW123945   3.141   0.394   0.462
 7682SOL    HW223946   3.078   0.247   0.497
 7683SOL     OW23947   6.788   3.275   3.571
 7683SOL    HW123948   6.827   3.328   3.646
 7683SOL    HW223949   6.848   3.199   3.548
 7684SOL     OW23950   3.790   1.880   5.667
 7684SOL    HW123951   3.819   1.975   5.676
 7684SOL    HW223952   3.694   1.872   5.692
 7685SOL     OW23953   3.910   3.879   1.363
 7685SOL    HW123954   3.875   3.795   1.405
 7685SOL    HW223955   3.858   3.957   1.397
 7686SOL     OW23956   2.537   1.051   2.478
 7686SOL    HW123957   2.439   1.029   2.484
 7686SOL    HW223958   2.548   1.149   2.467
 7687SOL     OW23959   4.538   4.163   5.744
 7687SOL    HW123960   4.625   4.207   5.770
 7687SOL    HW223961   4.466   4.232   5.739
 7688SOL     OW23962   6.506   0.751   3.395
 7688SOL    HW123963   6.461   0.813   3.459
 7688SOL    HW223964   6.586   0.797   3.355
 7689SOL     OW23965   3.388   6.951   4.948
 7689SOL    HW123966   3.431   7.021   4.891
 7689SOL    HW223967   3.309   6.913   4.900
 7690SOL     OW23968   0.966   5.283   2.666
 7690SOL    HW123969   0.992   5.363   2.611
 7690SOL    HW223970   1.027   5.278   2.746
 7691SOL     OW23971   6.408   3.799   5.797
 7691SOL    HW123972   6.388   3.837   5.887
 7691SOL    HW223973   6.469   3.861   5.748
 7692SOL     OW23974   1.331   6.272   1.306
 7692SOL    HW123975   1.428   6.255   1.320
 7692SOL    HW223976   1.284   6.273   1.395
 7693SOL     OW23977   5.208   1.403   0.658
 7693SOL    HW123978   5.295   1.398   0.706
 7693SOL    HW223979   5.224   1.418   0.560
 7694SOL     OW23980   5.764   5.009   3.570
 7694SOL    HW123981   5.694   4.939   3.583
 7694SOL    HW223982   5.840   4.992   3.633
 7695SOL     OW23983   4.668   0.420   6.588
 7695SOL    HW123984   4.663   0.341   6.528
 7695SOL    HW223985   4.725   0.491   6.545
 7696SOL     OW23986   1.186   3.877   5.467
 7696SOL    HW123987   1.204   3.829   5.553
 7696SOL    HW223988   1.263   3.864   5.405
 7697SOL     OW23989   4.684   1.418   2.183
 7697SOL    HW123990   4.768   1.404   2.130
 7697SOL    HW223991   4.639   1.330   2.198
 7698SOL     OW23992   6.991   2.408   5.901
 7698SOL    HW123993   0.030   2.465   5.956
 7698SOL    HW223994   0.003   2.402   5.807
 7699SOL     OW23995   3.090   3.596   0.685
 7699SOL    HW123996   3.161   3.662   0.659
 7699SOL    HW223997   3.009   3.609   0.627
 7700SOL     OW23998   5.592   6.851   4.824
 7700SOL    HW123999   5.632   6.908   4.753
 7700SOL    HW224000   5.525   6.789   4.783
 7701SOL     OW24001   6.419   2.359   5.625
 7701SOL    HW124002   6.501   2.374   5.570
 7701SOL    HW224003   6.395   2.262   5.621
 7702SOL     OW24004   1.583   6.516   6.953
 7702SOL    HW124005   1.501   6.508   6.895
 7702SOL    HW224006   1.568   6.586   0.001
 7703SOL     OW24007   0.816   2.118   6.254
 7703SOL    HW124008   0.879   2.104   6.178
 7703SOL    HW224009   0.850   2.192   6.312
 7704SOL     OW24010   2.596   3.630   1.263
 7704SOL    HW124011   2.543   3.639   1.179
 7704SOL    HW224012   2.534   3.628   1.341
 7705SOL     OW24013   4.117   3.453   4.303
 7705SOL    HW124014   4.094   3.548   4.324
 7705SOL    HW224015   4.180   3.450   4.225
 7706SOL     OW24016   6.563   0.713   5.524
 7706SOL    HW124017   6.508   0.634   5.552
 7706SOL    HW224018   6.503   0.793   5.514
 7707SOL     OW24019   6.875   5.713   6.544
 7707SOL    HW124020   6.807   5.684   6.476
 7707SOL    HW224021   6.860   5.663   6.630
 7708SOL     OW24022   5.314   1.388   5.105
 7708SOL    HW124023   5.230   1.442   5.118
 7708SOL    HW224024   5.293   1.306   5.054
 7709SOL     OW24025   3.945   2.285   1.735
 7709SOL    HW124026   3.859   2.288   1.785
 7709SOL    HW224027   3.968   2.377   1.703
 7710SOL     OW24028   3.401   1.901   6.877
 7710SOL    HW124029   3.462   1.909   6.955
 7710SOL    HW224030   3.365   1.991   6.853
 7711SOL     OW24031   4.099   5.971   4.802
 7711SOL    HW124032   4.079   5.916   4.721
 7711SOL    HW224033   4.085   5.916   4.884
 7712SOL     OW24034   5.715   3.912   6.306
 7712SOL    HW124035   5.663   3.860   6.375
 7712SOL    HW224036   5.754   3.848   6.240
 7713SOL     OW24037   0.472   5.743   6.387
 7713SOL    HW124038   0.480   5.842   6.376
 7713SOL    HW224039   0.378   5.715   6.366
 7714SOL     OW24040   5.283   4.061   4.792
 7714SOL    HW124041   5.334   4.049   4.707
 7714SOL    HW224042   5.204   4.121   4.775
 7715SOL     OW24043   3.926   2.148   2.072
 7715SOL    HW124044   3.912   2.221   2.006
 7715SOL    HW224045   3.961   2.066   2.025
 7716SOL     OW24046   4.177   2.293   4.313
 7716SOL    HW124047   4.216   2.248   4.394
 7716SOL    HW224048   4.238   2.282   4.235
 7717SOL     OW24049   3.182   0.089   6.585
 7717SOL    HW124050   3.184   0.020   6.513
 7717SOL    HW224051   3.191   0.180   6.546
 7718SOL     OW24052   2.321   6.372   3.545
 7718SOL    HW124053   2.348   6.443   3.610
 7718SOL    HW224054   2.364   6.389   3.456
 7719SOL     OW24055   5.761   2.720   5.062
 7719SOL    HW124056   5.849   2.703   5.106
 7719SOL    HW224057   5.745   2.654   4.989
 7720SOL     OW24058   5.192   6.086   1.137
 7720SOL    HW124059   5.128   6.115   1.065
 7720SOL    HW224060   5.232   6.167   1.180
 7721SOL     OW24061   0.698   4.547   2.943
 7721SOL    HW124062   0.724   4.458   2.981
 7721SOL    HW224063   0.766   4.576   2.876
 7722SOL     OW24064   0.660   6.072   3.789
 7722SOL    HW124065   0.711   6.154   3.762
 7722SOL    HW224066   0.568   6.098   3.818
 7723SOL     OW24067   6.716   1.936   0.463
 7723SOL    HW124068   6.765   1.874   0.524
 7723SOL    HW224069   6.746   2.030   0.480
 7724SOL     OW24070   2.417   6.427   6.905
 7724SOL    HW124071   2.415   6.341   6.853
 7724SOL    HW224072   2.457   6.499   6.849
 7725SOL     OW24073   5.129   3.611   4.297
 7725SOL    HW124074   5.055   3.569   4.245
 7725SOL    HW224075   5.203   3.545   4.310
 7726SOL     OW24076   5.362   5.356   2.831
 7726SOL    HW124077   5.402   5.303   2.906
 7726SOL    HW224078   5.434   5.412   2.788
 7727SOL     OW24079   5.801   3.174   2.137
 7727SOL    HW124080   5.770   3.107   2.205
 7727SOL    HW224081   5.749   3.258   2.147
 7728SOL     OW24082   2.176   3.035   3.238
 7728SOL    HW124083   2.211   3.004   3.149
 7728SOL    HW224084   2.221   2.984   3.311
 7729SOL     OW24085   5.094   1.783   6.395
 7729SOL    HW124086   5.119   1.700   6.345
 7729SOL    HW224087   5.145   1.861   6.357
 7730SOL     OW24088   4.435   6.844   2.517
 7730SOL    HW124089   4.429   6.802   2.608
 7730SOL    HW224090   4.423   6.773   2.448
 7731SOL     OW24091   6.808   1.580   3.905
 7731SOL    HW124092   6.843   1.636   3.981
 7731SOL    HW224093   6.875   1.510   3.881
 7732SOL     OW24094   4.447   4.929   0.704
 7732SOL    HW124095   4.488   5.007   0.751
 7732SOL    HW224096   4.481   4.844   0.744
 7733SOL     OW24097   2.970   5.990   0.747
 7733SOL    HW124098   2.934   6.017   0.658
 7733SOL    HW224099   3.063   5.954   0.736
 7734SOL     OW24100   1.347   2.883   2.386
 7734SOL    HW124101   1.261   2.888   2.436
 7734SOL    HW224102   1.350   2.798   2.333
 7735SOL     OW24103   5.279   4.355   0.885
 7735SOL    HW124104   5.260   4.371   0.982
 7735SOL    HW224105   5.258   4.438   0.833
 7736SOL     OW24106   5.831   4.348   6.817
 7736SOL    HW124107   5.907   4.289   6.845
 7736SOL    HW224108   5.868   4.430   6.773
 7737SOL     OW24109   4.911   2.892   0.209
 7737SOL    HW124110   4.815   2.890   0.239
 7737SOL    HW224111   4.931   2.811   0.155
 7738SOL     OW24112   1.931   4.876   6.840
 7738SOL    HW124113   1.970   4.916   6.923
 7738SOL    HW224114   1.843   4.834   6.862
 7739SOL     OW24115   5.409   3.852   2.334
 7739SOL    HW124116   5.411   3.949   2.310
 7739SOL    HW224117   5.322   3.813   2.304
 7740SOL     OW24118   6.924   6.444   3.864
 7740SOL    HW124119   6.940   6.439   3.766
 7740SOL    HW224120   6.829   6.470   3.881
 7741SOL     OW24121   2.651   5.244   3.918
 7741SOL    HW124122   2.646   5.330   3.969
 7741SOL    HW224123   2.616   5.259   3.825
 7742SOL     OW24124   6.857   0.374   4.526
 7742SOL    HW124125   6.826   0.451   4.582
 7742SOL    HW224126   6.911   0.408   4.449
 7743SOL     OW24127   4.866   3.052   2.259
 7743SOL    HW124128   4.931   3.127   2.260
 7743SOL    HW224129   4.806   3.059   2.179
 7744SOL     OW24130   0.212   6.409   4.906
 7744SOL    HW124131   0.303   6.451   4.906
 7744SOL    HW224132   0.144   6.478   4.928
 7745SOL     OW24133   5.301   3.153   5.906
 7745SOL    HW124134   5.346   3.228   5.859
 7745SOL    HW224135   5.275   3.082   5.839
 7746SOL     OW24136   2.279   0.617   6.369
 7746SOL    HW124137   2.273   0.565   6.454
 7746SOL    HW224138   2.341   0.695   6.382
 7747SOL     OW24139   4.850   4.971   0.374
 7747SOL    HW124140   4.920   4.901   0.358
 7747SOL    HW224141   4.895   5.058   0.393
 7748SOL     OW24142   2.205   3.897   6.808
 7748SOL    HW124143   2.138   3.826   6.830
 7748SOL    HW224144   2.297   3.861   6.825
 7749SOL     OW24145   5.877   3.125   6.212
 7749SOL    HW124146   5.778   3.133   6.223
 7749SOL    HW224147   5.903   3.149   6.118
 7750SOL     OW24148   4.523   5.216   3.179
 7750SOL    HW124149   4.496   5.131   3.133
 7750SOL    HW224150   4.473   5.224   3.265
 7751SOL     OW24151   0.551   2.553   1.073
 7751SOL    HW124152   0.468   2.564   1.128
 7751SOL    HW224153   0.527   2.556   0.976
 7752SOL     OW24154   3.785   1.287   3.139
 7752SOL    HW124155   3.822   1.223   3.071
 7752SOL    HW224156   3.769   1.376   3.095
 7753SOL     OW24157   4.038   0.813   5.465
 7753SOL    HW124158   4.088   0.858   5.539
 7753SOL    HW224159   4.048   0.866   5.381
 7754SOL     OW24160   4.834   5.030   1.454
 7754SOL    HW124161   4.778   4.976   1.516
 7754SOL    HW224162   4.779   5.057   1.375
 7755SOL     OW24163   0.313   4.754   6.081
 7755SOL    HW124164   0.316   4.825   6.011
 7755SOL    HW224165   0.331   4.794   6.171
 7756SOL     OW24166   2.176   3.953   2.338
 7756SOL    HW124167   2.179   3.990   2.431
 7756SOL    HW224168   2.200   3.856   2.339
 7757SOL     OW24169   0.712   4.467   0.195
 7757SOL    HW124170   0.811   4.463   0.181
 7757SOL    HW224171   0.665   4.453   0.109
 7758SOL     OW24172   0.475   0.981   5.673
 7758SOL    HW124173   0.449   1.076   5.691
 7758SOL    HW224174   0.402   0.935   5.624
 7759SOL     OW24175   3.602   1.102   2.506
 7759SOL    HW124176   3.661   1.119   2.585
 7759SOL    HW224177   3.523   1.049   2.535
 7760SOL     OW24178   4.622   2.896   0.298
 7760SOL    HW124179   4.563   2.911   0.377
 7760SOL    HW224180   4.570   2.908   0.214
 7761SOL     OW24181   5.695   5.391   3.198
 7761SOL    HW124182   5.595   5.398   3.199
 7761SOL    HW224183   5.723   5.319   3.260
 7762SOL     OW24184   4.766   2.110   1.324
 7762SOL    HW124185   4.807   2.064   1.403
 7762SOL    HW224186   4.672   2.079   1.313
 7763SOL     OW24187   1.577   0.435   3.259
 7763SOL    HW124188   1.497   0.462   3.207
 7763SOL    HW224189   1.614   0.514   3.308
 7764SOL     OW24190   3.758   5.375   5.408
 7764SOL    HW124191   3.719   5.428   5.483
 7764SOL    HW224192   3.702   5.294   5.393
 7765SOL     OW24193   5.903   4.058   4.695
 7765SOL    HW124194   5.843   4.108   4.758
 7765SOL    HW224195   5.905   3.961   4.721
 7766SOL     OW24196   6.741   2.212   6.624
 7766SOL    HW124197   6.797   2.163   6.558
 7766SOL    HW224198   6.731   2.308   6.596
 7767SOL     OW24199   4.189   0.010   4.336
 7767SOL    HW124200   4.132   0.079   4.380
 7767SOL    HW224201   4.206   0.037   4.241
 7768SOL     OW24202   3.412   5.621   3.747
 7768SOL    HW124203   3.503   5.651   3.777
 7768SOL    HW224204   3.418   5.528   3.711
 7769SOL     OW24205   3.604   2.604   6.756
 7769SOL    HW124206   3.565   2.515   6.777
 7769SOL    HW224207   3.564   2.638   6.670
 7770SOL     OW24208   0.757   3.656   3.919
 7770SOL    HW124209   0.841   3.699   3.952
 7770SOL    HW224210   0.718   3.710   3.845
 7771SOL     OW24211   0.933   3.666   4.979
 7771SOL    HW124212   0.867   3.696   5.048
 7771SOL    HW224213   0.891   3.596   4.921
 7772SOL     OW24214   5.260   5.670   1.577
 7772SOL    HW124215   5.204   5.714   1.507
 7772SOL    HW224216   5.210   5.590   1.613
 7773SOL     OW24217   2.600   6.811   6.869
 7773SOL    HW124218   2.591   6.728   6.924
 7773SOL    HW224219   2.555   6.887   6.916
 7774SOL     OW24220   5.356   1.439   3.054
 7774SOL    HW124221   5.424   1.473   3.118
 7774SOL    HW224222   5.400   1.414   2.968
 7775SOL     OW24223   3.367   1.530   0.670
 7775SOL    HW124224   3.421   1.512   0.588
 7775SOL    HW224225   3.320   1.618   0.659
 7776SOL     OW24226   3.219   1.212   3.616
 7776SOL    HW124227   3.237   1.303   3.653
 7776SOL    HW224228   3.134   1.213   3.565
 7777SOL     OW24229   5.083   5.180   3.014
 7777SOL    HW124230   5.009   5.113   3.021
 7777SOL    HW224231   5.142   5.174   3.095
 7778SOL     OW24232   1.476   3.709   2.199
 7778SOL    HW124233   1.412   3.642   2.160
 7778SOL    HW224234   1.493   3.781   2.132
 7779SOL     OW24235   2.907   0.521   2.825
 7779SOL    HW124236   2.878   0.575   2.745
 7779SOL    HW224237   3.006   0.513   2.825
 7780SOL     OW24238   6.289   5.679   4.164
 7780SOL    HW124239   6.389   5.672   4.167
 7780SOL    HW224240   6.256   5.646   4.075
 7781SOL     OW24241   2.818   2.623   0.902
 7781SOL    HW124242   2.908   2.639   0.861
 7781SOL    HW224243   2.790   2.529   0.885
 7782SOL     OW24244   5.656   3.952   4.057
 7782SOL    HW124245   5.674   3.881   3.989
 7782SOL    HW224246   5.736   4.011   4.066
 7783SOL     OW24247   1.109   6.237   3.649
 7783SOL    HW124248   1.009   6.240   3.644
 7783SOL    HW224249   1.137   6.186   3.730
 7784SOL     OW24250   1.687   2.631   2.836
 7784SOL    HW124251   1.758   2.632   2.765
 7784SOL    HW224252   1.679   2.722   2.877
 7785SOL     OW24253   6.349   6.690   2.778
 7785SOL    HW124254   6.351   6.790   2.767
 7785SOL    HW224255   6.302   6.649   2.699
 7786SOL     OW24256   5.241   1.019   6.543
 7786SOL    HW124257   5.239   1.114   6.513
 7786SOL    HW224258   5.330   1.001   6.587
 7787SOL     OW24259   1.017   2.667   1.199
 7787SOL    HW124260   1.048   2.758   1.225
 7787SOL    HW224261   0.988   2.617   1.280
 7788SOL     OW24262   1.158   3.999   2.185
 7788SOL    HW124263   1.119   3.951   2.264
 7788SOL    HW224264   1.233   4.058   2.216
 7789SOL     OW24265   3.288   0.119   6.120
 7789SOL    HW124266   3.309   0.022   6.109
 7789SOL    HW224267   3.248   0.133   6.211
 7790SOL     OW24268   4.401   5.203   4.465
 7790SOL    HW124269   4.420   5.113   4.505
 7790SOL    HW224270   4.316   5.199   4.412
 7791SOL     OW24271   2.619   6.310   1.726
 7791SOL    HW124272   2.634   6.408   1.722
 7791SOL    HW224273   2.551   6.283   1.658
 7792SOL     OW24274   1.142   1.214   1.924
 7792SOL    HW124275   1.216   1.219   1.856
 7792SOL    HW224276   1.080   1.139   1.900
 7793SOL     OW24277   4.889   1.795   0.506
 7793SOL    HW124278   4.891   1.895   0.509
 7793SOL    HW224279   4.982   1.760   0.500
 7794SOL     OW24280   1.347   0.764   2.692
 7794SOL    HW124281   1.369   0.677   2.736
 7794SOL    HW224282   1.402   0.837   2.733
 7795SOL     OW24283   4.037   3.744   1.107
 7795SOL    HW124284   4.081   3.655   1.120
 7795SOL    HW224285   4.005   3.779   1.195
 7796SOL     OW24286   4.340   1.635   0.801
 7796SOL    HW124287   4.300   1.551   0.764
 7796SOL    HW224288   4.439   1.625   0.807
 7797SOL     OW24289   1.396   6.401   2.923
 7797SOL    HW124290   1.332   6.352   2.864
 7797SOL    HW224291   1.475   6.431   2.870
 7798SOL     OW24292   1.469   3.246   1.301
 7798SOL    HW124293   1.435   3.185   1.373
 7798SOL    HW224294   1.551   3.206   1.259
 7799SOL     OW24295   2.092   6.455   3.823
 7799SOL    HW124296   2.034   6.374   3.830
 7799SOL    HW224297   2.078   6.512   3.904
 7800SOL     OW24298   1.089   1.000   2.327
 7800SOL    HW124299   1.074   0.999   2.228
 7800SOL    HW224300   1.157   0.931   2.351
 7801SOL     OW24301   1.878   2.321   0.640
 7801SOL    HW124302   1.868   2.237   0.587
 7801SOL    HW224303   1.791   2.344   0.683
 7802SOL     OW24304   6.355   5.381   4.245
 7802SOL    HW124305   6.440   5.388   4.194
 7802SOL    HW224306   6.294   5.456   4.217
 7803SOL     OW24307   3.266   1.701   6.334
 7803SOL    HW124308   3.313   1.786   6.359
 7803SOL    HW224309   3.199   1.678   6.405
 7804SOL     OW24310   2.993   1.290   5.357
 7804SOL    HW124311   2.953   1.372   5.316
 7804SOL    HW224312   2.943   1.267   5.441
 7805SOL     OW24313   6.254   2.507   0.038
 7805SOL    HW124314   6.258   2.594   7.012
 7805SOL    HW224315   6.158   2.478   0.046
 7806SOL     OW24316   5.999   2.408   5.078
 7806SOL    HW124317   5.952   2.379   4.995
 7806SOL    HW224318   5.946   2.377   5.158
 7807SOL     OW24319   1.716   5.280   5.693
 7807SOL    HW124320   1.643   5.281   5.762
 7807SOL    HW224321   1.802   5.307   5.736
 7808SOL     OW24322   0.650   2.876   4.359
 7808SOL    HW124323   0.587   2.807   4.322
 7808SOL    HW224324   0.729   2.829   4.400
 7809SOL     OW24325   3.933   0.002   2.742
 7809SOL    HW124326   4.013   0.061   2.731
 7809SOL    HW224327   3.959   6.929   2.725
 7810SOL     OW24328   2.219   6.523   6.064
 7810SOL    HW124329   2.248   6.470   5.984
 7810SOL    HW224330   2.149   6.472   6.114
 7811SOL     OW24331   1.523   5.570   3.219
 7811SOL    HW124332   1.598   5.537   3.161
 7811SOL    HW224333   1.558   5.640   3.281
 7812SOL     OW24334   3.159   0.838   5.728
 7812SOL    HW124335   3.238   0.814   5.785
 7812SOL    HW224336   3.085   0.773   5.746
 7813SOL     OW24337   5.682   1.441   0.527
 7813SOL    HW124338   5.770   1.433   0.574
 7813SOL    HW224339   5.628   1.360   0.545
 7814SOL     OW24340   0.272   2.535   2.050
 7814SOL    HW124341   0.346   2.586   2.093
 7814SOL    HW224342   0.207   2.505   2.120
 7815SOL     OW24343   4.817   5.666   3.106
 7815SOL    HW124344   4.753   5.595   3.076
 7815SOL    HW224345   4.808   5.746   3.047
 7816SOL     OW24346   1.184   1.466   5.657
 7816SOL    HW124347   1.230   1.499   5.575
 7816SOL    HW224348   1.086   1.458   5.640
 7817SOL     OW24349   4.289   1.088   6.187
 7817SOL    HW124350   4.304   1.147   6.107
 7817SOL    HW224351   4.324   1.132   6.269
 7818SOL     OW24352   5.498   1.340   2.850
 7818SOL    HW124353   5.595   1.339   2.871
 7818SOL    HW224354   5.481   1.282   2.770
 7819SOL     OW24355   2.452   2.657   4.571
 7819SOL    HW124356   2.412   2.726   4.631
 7819SOL    HW224357   2.438   2.683   4.476
 7820SOL     OW24358   1.519   1.119   5.905
 7820SOL    HW124359   1.600   1.177   5.909
 7820SOL    HW224360   1.448   1.165   5.851
 7821SOL     OW24361   3.842   5.583   6.598
 7821SOL    HW124362   3.779   5.599   6.522
 7821SOL    HW224363   3.793   5.545   6.675
 7822SOL     OW24364   0.833   1.682   4.789
 7822SOL    HW124365   0.897   1.741   4.838
 7822SOL    HW224366   0.866   1.666   4.696
 7823SOL     OW24367   2.661   3.106   5.606
 7823SOL    HW124368   2.676   3.051   5.524
 7823SOL    HW224369   2.698   3.060   5.686
 7824SOL     OW24370   6.085   4.092   2.580
 7824SOL    HW124371   6.152   4.152   2.624
 7824SOL    HW224372   6.025   4.052   2.649
 7825SOL     OW24373   3.305   2.895   3.197
 7825SOL    HW124374   3.244   2.818   3.217
 7825SOL    HW224375   3.324   2.899   3.099
 7826SOL     OW24376   6.491   0.082   0.936
 7826SOL    HW124377   6.411   0.075   0.876
 7826SOL    HW224378   6.484   0.014   1.009
 7827SOL     OW24379   5.151   4.053   0.349
 7827SOL    HW124380   5.184   3.965   0.313
 7827SOL    HW224381   5.092   4.096   0.281
 7828SOL     OW24382   1.230   6.457   0.680
 7828SOL    HW124383   1.327   6.441   0.661
 7828SOL    HW224384   1.176   6.430   0.601
 7829SOL     OW24385   3.613   3.790   2.841
 7829SOL    HW124386   3.517   3.802   2.818
 7829SOL    HW224387   3.660   3.878   2.836
 7830SOL     OW24388   6.624   4.440   0.281
 7830SOL    HW124389   6.568   4.483   0.210
 7830SOL    HW224390   6.696   4.504   0.309
 7831SOL     OW24391   2.756   2.605   0.055
 7831SOL    HW124392   2.809   2.670   0.001
 7831SOL    HW224393   2.810   2.521   0.068
 7832SOL     OW24394   3.662   2.792   5.698
 7832SOL    HW124395   3.631   2.858   5.766
 7832SOL    HW224396   3.653   2.699   5.735
 7833SOL     OW24397   6.530   0.000   1.844
 7833SOL    HW124398   6.437   0.029   1.822
 7833SOL    HW224399   6.533   6.923   1.854
 7834SOL     OW24400   5.481   1.230   1.604
 7834SOL    HW124401   5.457   1.160   1.671
 7834SOL    HW224402   5.559   1.283   1.637
 7835SOL     OW24403   2.578   1.943   4.416
 7835SOL    HW124404   2.631   2.026   4.400
 7835SOL    HW224405   2.511   1.931   4.342
 7836SOL     OW24406   2.558   0.993   6.538
 7836SOL    HW124407   2.634   1.021   6.479
 7836SOL    HW224408   2.575   1.023   6.631
 7837SOL     OW24409   5.659   6.099   1.872
 7837SOL    HW124410   5.755   6.071   1.865
 7837SOL    HW224411   5.620   6.109   1.781
 7838SOL     OW24412   3.657   5.718   3.837
 7838SOL    HW124413   3.663   5.691   3.933
 7838SOL    HW224414   3.712   5.801   3.824
 7839SOL     OW24415   6.958   5.310   3.943
 7839SOL    HW124416   7.001   5.249   3.876
 7839SOL    HW224417   7.001   5.401   3.937
 7840SOL     OW24418   4.212   3.074   6.165
 7840SOL    HW124419   4.211   3.036   6.257
 7840SOL    HW224420   4.305   3.074   6.130
 7841SOL     OW24421   1.354   2.283   5.629
 7841SOL    HW124422   1.278   2.286   5.564
 7841SOL    HW224423   1.318   2.287   5.722
 7842SOL     OW24424   1.832   0.857   2.766
 7842SOL    HW124425   1.775   0.800   2.707
 7842SOL    HW224426   1.886   0.920   2.709
 7843SOL     OW24427   0.205   2.051   2.128
 7843SOL    HW124428   0.139   2.061   2.203
 7843SOL    HW224429   0.283   2.112   2.142
 7844SOL     OW24430   3.583   2.037   3.388
 7844SOL    HW124431   3.570   2.093   3.306
 7844SOL    HW224432   3.600   1.943   3.362
 7845SOL     OW24433   0.405   0.630   4.376
 7845SOL    HW124434   0.350   0.697   4.426
 7845SOL    HW224435   0.495   0.622   4.418
 7846SOL     OW24436   4.562   0.558   2.277
 7846SOL    HW124437   4.581   0.534   2.182
 7846SOL    HW224438   4.637   0.613   2.313
 7847SOL     OW24439   0.444   0.098   6.918
 7847SOL    HW124440   0.385   0.155   6.975
 7847SOL    HW224441   0.425   0.001   6.937
 7848SOL     OW24442   3.987   3.624   1.730
 7848SOL    HW124443   4.043   3.635   1.648
 7848SOL    HW224444   4.040   3.576   1.800
 7849SOL     OW24445   4.999   4.164   4.770
 7849SOL    HW124446   4.912   4.175   4.818
 7849SOL    HW224447   4.996   4.081   4.715
 7850SOL     OW24448   1.522   2.844   5.119
 7850SOL    HW124449   1.435   2.881   5.088
 7850SOL    HW224450   1.560   2.902   5.191
 7851SOL     OW24451   3.996   6.946   0.633
 7851SOL    HW124452   3.952   6.857   0.647
 7851SOL    HW224453   3.954   6.992   0.554
 7852SOL     OW24454   2.909   7.020   0.620
 7852SOL    HW124455   2.876   0.061   0.690
 7852SOL    HW224456   2.832   6.965   0.586
 7853SOL     OW24457   2.233   1.625   0.594
 7853SOL    HW124458   2.266   1.624   0.499
 7853SOL    HW224459   2.224   1.532   0.627
 7854SOL     OW24460   4.055   3.208   4.112
 7854SOL    HW124461   4.063   3.186   4.209
 7854SOL    HW224462   4.134   3.172   4.063
 7855SOL     OW24463   2.978   0.428   4.881
 7855SOL    HW124464   2.935   0.355   4.933
 7855SOL    HW224465   2.911   0.499   4.860
 7856SOL     OW24466   3.265   2.750   6.740
 7856SOL    HW124467   3.182   2.794   6.706
 7856SOL    HW224468   3.327   2.819   6.777
 7857SOL     OW24469   0.583   3.002   5.300
 7857SOL    HW124470   0.674   2.968   5.276
 7857SOL    HW224471   0.539   2.938   5.362
 7858SOL     OW24472   5.270   3.264   3.453
 7858SOL    HW124473   5.329   3.343   3.471
 7858SOL    HW224474   5.178   3.283   3.487
 7859SOL     OW24475   0.307   0.254   0.544
 7859SOL    HW124476   0.402   0.225   0.557
 7859SOL    HW224477   0.303   0.354   0.540
 7860SOL     OW24478   4.924   6.313   1.190
 7860SOL    HW124479   4.979   6.320   1.107
 7860SOL    HW224480   4.960   6.377   1.259
 7861SOL     OW24481   6.364   3.471   0.159
 7861SOL    HW124482   6.378   3.383   0.205
 7861SOL    HW224483   6.453   3.512   0.138
 7862SOL     OW24484   2.746   4.730   1.721
 7862SOL    HW124485   2.763   4.700   1.815
 7862SOL    HW224486   2.753   4.652   1.659
 7863SOL     OW24487   4.244   5.929   2.413
 7863SOL    HW124488   4.248   5.861   2.486
 7863SOL    HW224489   4.188   6.006   2.442
 7864SOL     OW24490   1.355   6.056   5.362
 7864SOL    HW124491   1.313   6.004   5.287
 7864SOL    HW224492   1.307   6.143   5.373
 7865SOL     OW24493   4.507   0.765   3.120
 7865SOL    HW124494   4.579   0.778   3.051
 7865SOL    HW224495   4.438   0.837   3.109
 7866SOL     OW24496   2.765   1.244   5.702
 7866SOL    HW124497   2.747   1.265   5.798
 7866SOL    HW224498   2.678   1.237   5.653
 7867SOL     OW24499   6.398   3.506   1.276
 7867SOL    HW124500   6.423   3.564   1.198
 7867SOL    HW224501   6.306   3.469   1.261
 7868SOL     OW24502   4.498   6.814   0.682
 7868SOL    HW124503   4.455   6.760   0.754
 7868SOL    HW224504   4.583   6.854   0.716
 7869SOL     OW24505   6.151   1.897   4.198
 7869SOL    HW124506   6.111   1.811   4.165
 7869SOL    HW224507   6.250   1.888   4.204
 7870SOL     OW24508   6.791   0.359   3.313
 7870SOL    HW124509   6.794   0.431   3.382
 7870SOL    HW224510   6.856   0.287   3.337
 7871SOL     OW24511   5.331   2.791   4.286
 7871SOL    HW124512   5.394   2.725   4.325
 7871SOL    HW224513   5.382   2.862   4.238
 7872SOL     OW24514   6.896   4.255   4.352
 7872SOL    HW124515   6.848   4.167   4.358
 7872SOL    HW224516   6.892   4.288   4.258
 7873SOL     OW24517   6.977   5.579   4.335
 7873SOL    HW124518   0.051   5.604   4.349
 7873SOL    HW224519   6.944   5.622   4.251
 7874SOL     OW24520   6.075   6.902   6.892
 7874SOL    HW124521   5.980   6.929   6.905
 7874SOL    HW224522   6.082   6.802   6.897
 7875SOL     OW24523   4.950   3.333   0.176
 7875SOL    HW124524   5.032   3.371   0.218
 7875SOL    HW224525   4.966   3.238   0.150
 7876SOL     OW24526   0.432   1.844   4.673
 7876SOL    HW124527   0.487   1.917   4.632
 7876SOL    HW224528   0.412   1.774   4.605
 7877SOL     OW24529   5.757   3.915   2.174
 7877SOL    HW124530   5.747   3.816   2.188
 7877SOL    HW224531   5.828   3.950   2.235
 7878SOL     OW24532   3.802   3.666   1.493
 7878SOL    HW124533   3.831   3.641   1.585
 7878SOL    HW224534   3.773   3.584   1.443
 7879SOL     OW24535   0.007   1.331   5.109
 7879SOL    HW124536   0.060   1.265   5.057
 7879SOL    HW224537   6.962   1.375   5.049
 7880SOL     OW24538   1.813   6.121   6.553
 7880SOL    HW124539   1.803   6.065   6.471
 7880SOL    HW224540   1.911   6.135   6.572
 7881SOL     OW24541   0.958   5.312   4.573
 7881SOL    HW124542   0.974   5.407   4.547
 7881SOL    HW224543   1.025   5.286   4.644
 7882SOL     OW24544   1.920   4.690   1.556
 7882SOL    HW124545   1.822   4.682   1.540
 7882SOL    HW224546   1.940   4.673   1.652
 7883SOL     OW24547   3.303   2.035   2.200
 7883SOL    HW124548   3.231   2.101   2.224
 7883SOL    HW224549   3.300   2.015   2.102
 7884SOL     OW24550   1.187   2.675   5.831
 7884SOL    HW124551   1.092   2.668   5.801
 7884SOL    HW224552   1.192   2.655   5.929
 7885SOL     OW24553   6.001   5.399   2.170
 7885SOL    HW124554   6.012   5.498   2.170
 7885SOL    HW224555   5.934   5.373   2.100
 7886SOL     OW24556   4.279   4.615   2.725
 7886SOL    HW124557   4.331   4.699   2.709
 7886SOL    HW224558   4.184   4.637   2.745
 7887SOL     OW24559   0.987   3.255   0.805
 7887SOL    HW124560   0.907   3.258   0.745
 7887SOL    HW224561   0.974   3.186   0.876
 7888SOL     OW24562   6.836   1.866   5.277
 7888SOL    HW124563   6.911   1.842   5.338
 7888SOL    HW224564   6.870   1.923   5.203
 7889SOL     OW24565   5.267   4.996   0.033
 7889SOL    HW124566   5.251   4.910   0.081
 7889SOL    HW224567   5.196   5.062   0.059
 7890SOL     OW24568   2.083   2.934   2.208
 7890SOL    HW124569   2.044   3.001   2.272
 7890SOL    HW224570   2.013   2.866   2.185
 7891SOL     OW24571   6.053   1.279   4.298
 7891SOL    HW124572   6.041   1.189   4.341
 7891SOL    HW224573   6.118   1.272   4.223
 7892SOL     OW24574   1.127   2.008   4.460
 7892SOL    HW124575   1.145   1.970   4.551
 7892SOL    HW224576   1.091   2.101   4.470
 7893SOL     OW24577   5.527   6.124   1.231
 7893SOL    HW124578   5.555   6.188   1.302
 7893SOL    HW224579   5.493   6.175   1.152
 7894SOL     OW24580   3.335   0.427   6.643
 7894SOL    HW124581   3.338   0.527   6.646
 7894SOL    HW224582   3.310   0.392   6.734
 7895SOL     OW24583   5.670   6.588   3.255
 7895SOL    HW124584   5.648   6.512   3.315
 7895SOL    HW224585   5.652   6.562   3.160
 7896SOL     OW24586   2.751   1.846   0.496
 7896SOL    HW124587   2.676   1.802   0.545
 7896SOL    HW224588   2.739   1.946   0.498
 7897SOL     OW24589   4.438   1.428   1.689
 7897SOL    HW124590   4.385   1.510   1.709
 7897SOL    HW224591   4.438   1.367   1.769
 7898SOL     OW24592   4.552   6.158   2.919
 7898SOL    HW124593   4.480   6.122   2.859
 7898SOL    HW224594   4.522   6.152   3.014
 7899SOL     OW24595   6.115   4.884   2.867
 7899SOL    HW124596   6.057   4.809   2.899
 7899SOL    HW224597   6.098   4.965   2.922
 7900SOL     OW24598   0.267   3.257   0.810
 7900SOL    HW124599   0.345   3.197   0.820
 7900SOL    HW224600   0.294   3.340   0.760
 7901SOL     OW24601   0.401   2.461   0.121
 7901SOL    HW124602   0.324   2.414   0.078
 7901SOL    HW224603   0.448   2.518   0.054
 7902SOL     OW24604   1.725   0.318   1.044
 7902SOL    HW124605   1.799   0.257   1.016
 7902SOL    HW224606   1.656   0.266   1.094
 7903SOL     OW24607   3.124   1.931   5.672
 7903SOL    HW124608   3.068   1.851   5.650
 7903SOL    HW224609   3.113   1.953   5.769
 7904SOL     OW24610   5.133   3.310   2.808
 7904SOL    HW124611   5.151   3.250   2.887
 7904SOL    HW224612   5.060   3.375   2.832
 7905SOL     OW24613   6.430   1.774   1.788
 7905SOL    HW124614   6.433   1.859   1.735
 7905SOL    HW224615   6.498   1.778   1.861
 7906SOL     OW24616   0.469   6.008   6.276
 7906SOL    HW124617   0.534   6.084   6.274
 7906SOL    HW224618   0.376   6.044   6.272
 7907SOL     OW24619   5.925   6.179   3.820
 7907SOL    HW124620   5.951   6.258   3.874
 7907SOL    HW224621   5.880   6.112   3.878
 7908SOL     OW24622   1.860   0.294   5.592
 7908SOL    HW124623   1.825   0.220   5.534
 7908SOL    HW224624   1.803   0.301   5.674
 7909SOL     OW24625   6.605   3.121   1.652
 7909SOL    HW124626   6.697   3.120   1.616
 7909SOL    HW224627   6.546   3.062   1.597
 7910SOL     OW24628   1.598   4.485   5.244
 7910SOL    HW124629   1.504   4.452   5.251
 7910SOL    HW224630   1.598   4.581   5.219
 7911SOL     OW24631   6.243   4.170   5.518
 7911SOL    HW124632   6.173   4.159   5.588
 7911SOL    HW224633   6.288   4.258   5.529
 7912SOL     OW24634   5.703   5.917   1.056
 7912SOL    HW124635   5.685   5.829   1.101
 7912SOL    HW224636   5.701   5.990   1.124
 7913SOL     OW24637   1.271   5.147   6.144
 7913SOL    HW124638   1.211   5.226   6.156
 7913SOL    HW224639   1.243   5.075   6.209
 7914SOL     OW24640   1.146   0.157   4.861
 7914SOL    HW124641   1.164   0.245   4.905
 7914SOL    HW224642   1.161   0.165   4.762
 7915SOL     OW24643   2.943   5.375   2.115
 7915SOL    HW124644   3.027   5.358   2.168
 7915SOL    HW224645   2.900   5.287   2.094
 7916SOL     OW24646   1.117   0.678   3.886
 7916SOL    HW124647   1.082   0.753   3.942
 7916SOL    HW224648   1.130   0.597   3.942
 7917SOL     OW24649   5.174   2.290   2.950
 7917SOL    HW124650   5.214   2.320   2.863
 7917SOL    HW224651   5.084   2.250   2.933
 7918SOL     OW24652   1.642   2.634   2.418
 7918SOL    HW124653   1.665   2.732   2.418
 7918SOL    HW224654   1.717   2.582   2.459
 7919SOL     OW24655   0.800   6.751   5.075
 7919SOL    HW124656   0.889   6.790   5.099
 7919SOL    HW224657   0.730   6.784   5.139
 7920SOL     OW24658   5.272   6.603   0.765
 7920SOL    HW124659   5.319   6.691   0.757
 7920SOL    HW224660   5.220   6.585   0.682
 7921SOL     OW24661   5.065   3.440   0.566
 7921SOL    HW124662   5.073   3.521   0.624
 7921SOL    HW224663   5.040   3.361   0.622
 7922SOL     OW24664   2.111   6.970   3.190
 7922SOL    HW124665   2.036   6.989   3.252
 7922SOL    HW224666   2.175   6.906   3.233
 7923SOL     OW24667   4.973   0.094   0.933
 7923SOL    HW124668   5.050   0.142   0.977
 7923SOL    HW224669   4.997   0.073   0.838
 7924SOL     OW24670   5.689   5.767   0.120
 7924SOL    HW124671   5.748   5.729   0.192
 7924SOL    HW224672   5.714   5.862   0.103
 7925SOL     OW24673   1.741   4.492   6.000
 7925SOL    HW124674   1.828   4.527   6.033
 7925SOL    HW224675   1.726   4.400   6.037
 7926SOL     OW24676   4.716   5.866   5.571
 7926SOL    HW124677   4.713   5.964   5.552
 7926SOL    HW224678   4.692   5.849   5.666
 7927SOL     OW24679   4.423   0.377   3.503
 7927SOL    HW124680   4.445   0.394   3.407
 7927SOL    HW224681   4.499   0.407   3.560
 7928SOL     OW24682   5.551   1.697   4.079
 7928SOL    HW124683   5.560   1.658   3.987
 7928SOL    HW224684   5.613   1.649   4.141
 7929SOL     OW24685   4.852   4.077   5.965
 7929SOL    HW124686   4.875   4.084   5.868
 7929SOL    HW224687   4.890   4.156   6.014
 7930SOL     OW24688   4.263   5.610   0.356
 7930SOL    HW124689   4.332   5.601   0.284
 7930SOL    HW224690   4.203   5.530   0.354
 7931SOL     OW24691   5.126   1.027   0.469
 7931SOL    HW124692   5.063   1.077   0.408
 7931SOL    HW224693   5.204   1.086   0.491
 7932SOL     OW24694   1.083   3.376   1.199
 7932SOL    HW124695   0.983   3.374   1.209
 7932SOL    HW224696   1.125   3.371   1.290
 7933SOL     OW24697   1.429   1.856   0.575
 7933SOL    HW124698   1.488   1.792   0.625
 7933SOL    HW224699   1.461   1.949   0.590
 7934SOL     OW24700   6.946   5.166   1.004
 7934SOL    HW124701   6.992   5.255   1.006
 7934SOL    HW224702   6.853   5.176   1.038
 7935SOL     OW24703   6.354   3.129   3.015
 7935SOL    HW124704   6.446   3.106   2.982
 7935SOL    HW224705   6.291   3.130   2.937
 7936SOL     OW24706   2.123   6.006   3.305
 7936SOL    HW124707   2.075   6.035   3.222
 7936SOL    HW224708   2.221   5.998   3.286
 7937SOL     OW24709   4.262   1.347   0.783
 7937SOL    HW124710   4.265   1.310   0.690
 7937SOL    HW224711   4.175   1.324   0.826
 7938SOL     OW24712   2.418   6.934   3.446
 7938SOL    HW124713   2.478   6.868   3.489
 7938SOL    HW224714   2.348   6.886   3.392
 7939SOL     OW24715   1.588   0.345   2.399
 7939SOL    HW124716   1.517   0.361   2.331
 7939SOL    HW224717   1.589   0.248   2.425
 7940SOL     OW24718   6.362   1.930   5.207
 7940SOL    HW124719   6.303   2.011   5.215
 7940SOL    HW224720   6.327   1.857   5.265
 7941SOL     OW24721   3.289   6.854   0.456
 7941SOL    HW124722   3.279   6.918   0.380
 7941SOL    HW224723   3.353   6.781   0.430
 7942SOL     OW24724   1.064   4.064   1.148
 7942SOL    HW124725   1.006   4.071   1.229
 7942SOL    HW224726   1.143   4.007   1.168
 7943SOL     OW24727   1.666   5.602   6.778
 7943SOL    HW124728   1.648   5.507   6.804
 7943SOL    HW224729   1.619   5.663   6.841
 7944SOL     OW24730   1.174   2.055   0.973
 7944SOL    HW124731   1.192   2.153   0.981
 7944SOL    HW224732   1.257   2.004   0.995
 7945SOL     OW24733   6.010   3.603   3.235
 7945SOL    HW124734   6.043   3.539   3.305
 7945SOL    HW224735   6.042   3.695   3.257
 7946SOL     OW24736   4.352   1.285   6.005
 7946SOL    HW124737   4.435   1.308   5.955
 7946SOL    HW224738   4.339   1.350   6.080
 7947SOL     OW24739   0.326   3.511   6.533
 7947SOL    HW124740   0.319   3.527   6.632
 7947SOL    HW224741   0.363   3.420   6.516
 7948SOL     OW24742   1.294   5.771   0.957
 7948SOL    HW124743   1.210   5.718   0.944
 7948SOL    HW224744   1.290   5.852   0.899
 7949SOL     OW24745   2.853   5.632   5.524
 7949SOL    HW124746   2.801   5.578   5.590
 7949SOL    HW224747   2.890   5.571   5.453
 7950SOL     OW24748   6.360   3.388   5.586
 7950SOL    HW124749   6.276   3.365   5.535
 7950SOL    HW224750   6.372   3.487   5.587
 7951SOL     OW24751   3.776   0.188   2.886
 7951SOL    HW124752   3.817   0.270   2.846
 7951SOL    HW224753   3.817   0.106   2.845
 7952SOL     OW24754   6.725   2.861   5.329
 7952SOL    HW124755   6.775   2.908   5.402
 7952SOL    HW224756   6.655   2.922   5.292
 7953SOL     OW24757   1.979   0.025   0.585
 7953SOL    HW124758   1.888   0.043   0.549
 7953SOL    HW224759   2.040   0.102   0.564
 7954SOL     OW24760   3.443   2.941   6.837
 7954SOL    HW124761   3.535   2.923   6.803
 7954SOL    HW224762   3.426   3.039   6.837
 7955SOL     OW24763   0.060   0.955   6.853
 7955SOL    HW124764   0.018   0.975   6.765
 7955SOL    HW224765   0.152   0.916   6.838
 7956SOL     OW24766   0.092   0.222   0.394
 7956SOL    HW124767   0.084   0.131   0.354
 7956SOL    HW224768   0.168   0.224   0.458
 7957SOL     OW24769   5.699   1.247   5.627
 7957SOL    HW124770   5.691   1.260   5.529
 7957SOL    HW224771   5.661   1.158   5.652
 7958SOL     OW24772   4.639   2.243   6.961
 7958SOL    HW124773   4.608   2.329   7.003
 7958SOL    HW224774   4.616   2.244   6.863
 7959SOL     OW24775   4.605   3.215   7.002
 7959SOL    HW124776   4.689   3.161   7.005
 7959SOL    HW224777   4.620   3.296   6.946
 7960SOL     OW24778   0.807   1.622   5.170
 7960SOL    HW124779   0.728   1.575   5.132
 7960SOL    HW224780   0.777   1.702   5.221
 7961SOL     OW24781   6.023   0.799   6.704
 7961SOL    HW124782   5.963   0.726   6.671
 7961SOL    HW224783   6.051   0.779   6.798
 7962SOL     OW24784   5.755   6.724   4.612
 7962SOL    HW124785   5.821   6.781   4.660
 7962SOL    HW224786   5.689   6.781   4.565
 7963SOL     OW24787   5.842   6.260   2.789
 7963SOL    HW124788   5.818   6.169   2.755
 7963SOL    HW224789   5.897   6.251   2.872
 7964SOL     OW24790   6.532   3.785   1.758
 7964SOL    HW124791   6.461   3.839   1.713
 7964SOL    HW224792   6.580   3.730   1.690
 7965SOL     OW24793   4.801   1.518   6.353
 7965SOL    HW124794   4.739   1.538   6.429
 7965SOL    HW224795   4.841   1.604   6.319
 7966SOL     OW24796   5.845   3.426   4.987
 7966SOL    HW124797   5.788   3.507   4.974
 7966SOL    HW224798   5.797   3.360   5.045
 7967SOL     OW24799   1.942   4.292   1.293
 7967SOL    HW124800   1.935   4.349   1.211
 7967SOL    HW224801   1.851   4.262   1.321
 7968SOL     OW24802   2.368   2.836   4.009
 7968SOL    HW124803   2.378   2.857   4.106
 7968SOL    HW224804   2.278   2.867   3.977
 7969SOL     OW24805   3.420   4.530   6.585
 7969SOL    HW124806   3.344   4.544   6.650
 7969SOL    HW224807   3.474   4.451   6.613
 7970SOL     OW24808   6.149   2.827   3.520
 7970SOL    HW124809   6.215   2.898   3.544
 7970SOL    HW224810   6.190   2.766   3.452
 7971SOL     OW24811   3.553   0.740   6.907
 7971SOL    HW124812   3.456   0.758   6.927
 7971SOL    HW224813   3.582   0.657   6.954
 7972SOL     OW24814   3.908   3.435   4.672
 7972SOL    HW124815   3.951   3.524   4.686
 7972SOL    HW224816   3.943   3.394   4.588
 7973SOL     OW24817   0.456   4.931   1.992
 7973SOL    HW124818   0.470   4.906   1.896
 7973SOL    HW224819   0.362   4.907   2.019
 7974SOL     OW24820   0.639   3.169   4.888
 7974SOL    HW124821   0.588   3.104   4.944
 7974SOL    HW224822   0.593   3.182   4.801
 7975SOL     OW24823   3.827   6.924   6.836
 7975SOL    HW124824   3.748   6.863   6.829
 7975SOL    HW224825   3.900   6.878   6.885
 7976SOL     OW24826   0.835   0.733   0.292
 7976SOL    HW124827   0.828   0.670   0.370
 7976SOL    HW224828   0.780   0.697   0.216
 7977SOL     OW24829   4.578   5.217   2.674
 7977SOL    HW124830   4.668   5.216   2.718
 7977SOL    HW224831   4.536   5.126   2.683
 7978SOL     OW24832   0.148   3.909   1.225
 7978SOL    HW124833   0.052   3.922   1.199
 7978SOL    HW224834   0.189   3.998   1.244
 7979SOL     OW24835   2.783   2.093   5.782
 7979SOL    HW124836   2.793   2.182   5.737
 7979SOL    HW224837   2.699   2.048   5.751
 7980SOL     OW24838   3.670   5.761   2.323
 7980SOL    HW124839   3.726   5.737   2.402
 7980SOL    HW224840   3.667   5.684   2.259
 7981SOL     OW24841   1.425   3.563   4.631
 7981SOL    HW124842   1.494   3.514   4.685
 7981SOL    HW224843   1.460   3.654   4.608
 7982SOL     OW24844   6.653   0.550   0.330
 7982SOL    HW124845   6.693   0.617   0.393
 7982SOL    HW224846   6.576   0.592   0.281
 7983SOL     OW24847   3.502   1.064   1.696
 7983SOL    HW124848   3.488   1.148   1.645
 7983SOL    HW224849   3.421   1.043   1.751
 7984SOL     OW24850   6.093   2.731   2.987
 7984SOL    HW124851   6.163   2.795   3.021
 7984SOL    HW224852   6.009   2.743   3.039
 7985SOL     OW24853   3.457   3.606   5.757
 7985SOL    HW124854   3.507   3.615   5.843
 7985SOL    HW224855   3.454   3.510   5.730
 7986SOL     OW24856   3.400   0.717   3.805
 7986SOL    HW124857   3.348   0.778   3.865
 7986SOL    HW224858   3.344   0.694   3.725
 7987SOL     OW24859   1.490   2.856   6.152
 7987SOL    HW124860   1.535   2.939   6.185
 7987SOL    HW224861   1.558   2.783   6.141
 7988SOL     OW24862   6.487   0.633   1.330
 7988SOL    HW124863   6.507   0.539   1.302
 7988SOL    HW224864   6.469   0.689   1.249
 7989SOL     OW24865   0.230   4.564   1.497
 7989SOL    HW124866   0.244   4.614   1.412
 7989SOL    HW224867   0.282   4.607   1.571
 7990SOL     OW24868   3.911   5.250   4.999
 7990SOL    HW124869   3.811   5.255   5.011
 7990SOL    HW224870   3.949   5.342   5.001
 7991SOL     OW24871   5.238   0.758   4.475
 7991SOL    HW124872   5.205   0.682   4.419
 7991SOL    HW224873   5.242   0.841   4.420
 7992SOL     OW24874   2.076   0.771   0.059
 7992SOL    HW124875   2.020   0.833   0.113
 7992SOL    HW224876   2.018   0.702   0.016
 7993SOL     OW24877   6.339   6.414   0.747
 7993SOL    HW124878   6.335   6.466   0.662
 7993SOL    HW224879   6.433   6.412   0.780
 7994SOL     OW24880   0.406   1.376   4.679
 7994SOL    HW124881   0.450   1.288   4.659
 7994SOL    HW224882   0.438   1.445   4.614
 7995SOL     OW24883   0.809   6.058   1.382
 7995SOL    HW124884   0.820   6.152   1.415
 7995SOL    HW224885   0.754   6.007   1.448
 7996SOL     OW24886   2.094   6.675   3.634
 7996SOL    HW124887   2.184   6.683   3.675
 7996SOL    HW224888   2.035   6.619   3.693
 7997SOL     OW24889   2.447   1.230   5.702
 7997SOL    HW124890   2.434   1.227   5.801
 7997SOL    HW224891   2.404   1.313   5.665
 7998SOL     OW24892   1.721   1.181   1.152
 7998SOL    HW124893   1.766   1.092   1.145
 7998SOL    HW224894   1.631   1.177   1.108
 7999SOL     OW24895   0.148   1.017   2.774
 7999SOL    HW124896   0.213   1.008   2.698
 7999SOL    HW224897   0.198   1.008   2.861
 8000SOL     OW24898   4.561   5.570   0.638
 8000SOL    HW124899   4.574   5.522   0.552
 8000SOL    HW224900   4.637   5.550   0.699
 8001SOL     OW24901   5.412   4.466   2.466
 8001SOL    HW124902   5.463   4.391   2.508
 8001SOL    HW224903   5.317   4.440   2.455
 8002SOL     OW24904   1.025   0.645   4.738
 8002SOL    HW124905   1.045   0.743   4.743
 8002SOL    HW224906   1.040   0.604   4.828
 8003SOL     OW24907   2.542   5.796   3.058
 8003SOL    HW124908   2.608   5.780   3.131
 8003SOL    HW224909   2.557   5.888   3.019
 8004SOL     OW24910   2.183   3.775   3.941
 8004SOL    HW124911   2.236   3.758   3.859
 8004SOL    HW224912   2.115   3.847   3.922
 8005SOL     OW24913   3.026   0.188   4.520
 8005SOL    HW124914   3.059   0.094   4.525
 8005SOL    HW224915   2.958   0.196   4.447
 8006SOL     OW24916   4.475   5.379   6.201
 8006SOL    HW124917   4.443   5.362   6.108
 8006SOL    HW224918   4.510   5.294   6.240
 8007SOL     OW24919   0.137   0.599   1.247
 8007SOL    HW124920   0.082   0.529   1.293
 8007SOL    HW224921   0.077   0.659   1.194
 8008SOL     OW24922   5.476   4.946   0.504
 8008SOL    HW124923   5.501   5.015   0.573
 8008SOL    HW224924   5.464   4.991   0.416
 8009SOL     OW24925   6.641   1.013   1.648
 8009SOL    HW124926   6.663   0.915   1.655
 8009SOL    HW224927   6.725   1.065   1.634
 8010SOL     OW24928   2.642   0.197   6.035
 8010SOL    HW124929   2.542   0.187   6.031
 8010SOL    HW224930   2.665   0.273   6.095
 8011SOL     OW24931   3.824   1.997   2.634
 8011SOL    HW124932   3.876   2.071   2.677
 8011SOL    HW224933   3.842   1.997   2.536
 8012SOL     OW24934   6.471   0.489   5.073
 8012SOL    HW124935   6.490   0.571   5.129
 8012SOL    HW224936   6.373   0.479   5.062
 8013SOL     OW24937   3.633   0.482   2.974
 8013SOL    HW124938   3.657   0.437   2.888
 8013SOL    HW224939   3.711   0.480   3.036
 8014SOL     OW24940   2.341   2.806   3.705
 8014SOL    HW124941   2.343   2.845   3.797
 8014SOL    HW224942   2.389   2.866   3.642
 8015SOL     OW24943   3.517   6.456   4.692
 8015SOL    HW124944   3.477   6.394   4.759
 8015SOL    HW224945   3.470   6.445   4.604
 8016SOL     OW24946   3.110   2.854   5.256
 8016SOL    HW124947   3.136   2.851   5.159
 8016SOL    HW224948   3.170   2.794   5.309
 8017SOL     OW24949   5.740   6.387   1.684
 8017SOL    HW124950   5.762   6.479   1.716
 8017SOL    HW224951   5.654   6.357   1.726
 8018SOL     OW24952   2.721   3.394   0.853
 8018SOL    HW124953   2.724   3.414   0.755
 8018SOL    HW224954   2.774   3.463   0.903
 8019SOL     OW24955   2.564   3.720   0.810
 8019SOL    HW124956   2.658   3.738   0.837
 8019SOL    HW224957   2.520   3.662   0.879
 8020SOL     OW24958   0.439   0.390   0.169
 8020SOL    HW124959   0.443   0.416   0.072
 8020SOL    HW224960   0.482   0.300   0.181
 8021SOL     OW24961   1.132   3.027   0.685
 8021SOL    HW124962   1.093   2.941   0.716
 8021SOL    HW224963   1.065   3.101   0.699
 8022SOL     OW24964   4.460   0.279   2.283
 8022SOL    HW124965   4.525   0.354   2.298
 8022SOL    HW224966   4.485   0.202   2.341
 8023SOL     OW24967   3.963   5.092   2.280
 8023SOL    HW124968   4.009   5.003   2.282
 8023SOL    HW224969   3.869   5.081   2.313
 8024SOL     OW24970   2.297   0.646   6.100
 8024SOL    HW124971   2.277   0.657   6.197
 8024SOL    HW224972   2.393   0.668   6.083
 8025SOL     OW24973   1.062   6.740   1.551
 8025SOL    HW124974   1.155   6.713   1.525
 8025SOL    HW224975   0.997   6.707   1.483
 8026SOL     OW24976   0.547   7.005   6.011
 8026SOL    HW124977   0.574   6.966   6.099
 8026SOL    HW224978   0.514   6.931   5.952
 8027SOL     OW24979   4.639   0.213   6.390
 8027SOL    HW124980   4.674   0.128   6.351
 8027SOL    HW224981   4.543   0.201   6.415
 8028SOL     OW24982   3.984   5.913   6.408
 8028SOL    HW124983   3.993   5.880   6.502
 8028SOL    HW224984   4.052   5.867   6.351
 8029SOL     OW24985   0.803   0.214   1.669
 8029SOL    HW124986   0.868   0.289   1.687
 8029SOL    HW224987   0.820   0.140   1.734
 8030SOL     OW24988   0.565   3.910   0.986
 8030SOL    HW124989   0.531   3.838   1.047
 8030SOL    HW224990   0.501   3.986   0.985
 8031SOL     OW24991   6.789   0.791   3.322
 8031SOL    HW124992   6.871   0.796   3.380
 8031SOL    HW224993   6.752   0.699   3.323
 8032SOL     OW24994   0.372   2.941   1.111
 8032SOL    HW124995   0.331   2.850   1.116
 8032SOL    HW224996   0.388   2.964   1.015
 8033SOL     OW24997   3.675   5.097   1.005
 8033SOL    HW124998   3.736   5.052   1.072
 8033SOL    HW224999   3.728   5.160   0.949
 8034SOL     OW25000   0.895   1.453   5.567
 8034SOL    HW125001   0.837   1.414   5.638
 8034SOL    HW225002   0.872   1.412   5.479
 8035SOL     OW25003   5.654   0.383   4.534
 8035SOL    HW125004   5.721   0.321   4.492
 8035SOL    HW225005   5.701   0.463   4.572
 8036SOL     OW25006   4.965   4.363   3.917
 8036SOL    HW125007   5.053   4.316   3.925
 8036SOL    HW225008   4.897   4.315   3.973
 8037SOL     OW25009   2.777   1.505   6.515
 8037SOL    HW125010   2.735   1.418   6.488
 8037SOL    HW225011   2.705   1.575   6.523
 8038SOL     OW25012   0.008   5.709   1.828
 8038SOL    HW125013   6.973   5.666   1.758
 8038SOL    HW225014   0.084   5.647   1.852
 8039SOL     OW25015   1.874   2.699   5.367
 8039SOL    HW125016   1.968   2.665   5.368
 8039SOL    HW225017   1.818   2.644   5.429
 8040SOL     OW25018   0.701   6.654   6.067
 8040SOL    HW125019   0.635   6.725   6.089
 8040SOL    HW225020   0.727   6.606   6.151
 8041SOL     OW25021   3.187   1.860   2.841
 8041SOL    HW125022   3.221   1.930   2.905
 8041SOL    HW225023   3.208   1.888   2.747
 8042SOL     OW25024   4.077   4.196   6.136
 8042SOL    HW125025   4.006   4.250   6.182
 8042SOL    HW225026   4.055   4.099   6.144
 8043SOL     OW25027   5.282   5.217   6.832
 8043SOL    HW125028   5.240   5.133   6.868
 8043SOL    HW225029   5.323   5.197   6.743
 8044SOL     OW25030   0.893   2.923   1.574
 8044SOL    HW125031   0.844   2.870   1.505
 8044SOL    HW225032   0.827   2.969   1.634
 8045SOL     OW25033   6.107   3.487   4.974
 8045SOL    HW125034   6.007   3.491   4.979
 8045SOL    HW225035   6.143   3.452   5.061
 8046SOL     OW25036   0.382   4.379   0.810
 8046SOL    HW125037   0.430   4.435   0.878
 8046SOL    HW225038   0.442   4.307   0.777
 8047SOL     OW25039   3.166   6.455   6.759
 8047SOL    HW125040   3.180   6.399   6.841
 8047SOL    HW225041   3.089   6.517   6.772
 8048SOL     OW25042   4.511   1.731   6.745
 8048SOL    HW125043   4.462   1.815   6.770
 8048SOL    HW225044   4.581   1.712   6.813
 8049SOL     OW25045   1.888   1.365   1.026
 8049SOL    HW125046   1.824   1.335   1.097
 8049SOL    HW225047   1.980   1.333   1.047
 8050SOL     OW25048   0.118   5.465   6.031
 8050SOL    HW125049   0.166   5.552   6.023
 8050SOL    HW225050   0.031   5.470   5.983
 8051SOL     OW25051   4.295   6.533   2.690
 8051SOL    HW125052   4.303   6.435   2.673
 8051SOL    HW225053   4.200   6.555   2.716
 8052SOL     OW25054   2.793   1.562   3.184
 8052SOL    HW125055   2.868   1.584   3.121
 8052SOL    HW225056   2.721   1.631   3.174
 8053SOL     OW25057   1.190   2.303   6.468
 8053SOL    HW125058   1.227   2.240   6.536
 8053SOL    HW225059   1.243   2.388   6.469
 8054SOL     OW25060   5.028   3.758   5.220
 8054SOL    HW125061   5.097   3.709   5.274
 8054SOL    HW225062   5.074   3.823   5.160
 8055SOL     OW25063   6.758   0.078   6.629
 8055SOL    HW125064   6.836   0.016   6.627
 8055SOL    HW225065   6.748   0.123   6.541
 8056SOL     OW25066   2.485   2.584   3.529
 8056SOL    HW125067   2.429   2.596   3.611
 8056SOL    HW225068   2.580   2.567   3.556
 8057SOL     OW25069   3.255   2.022   1.916
 8057SOL    HW125070   3.168   2.069   1.928
 8057SOL    HW225071   3.316   2.077   1.859
 8058SOL     OW25072   4.070   6.353   1.450
 8058SOL    HW125073   4.028   6.372   1.538
 8058SOL    HW225074   4.080   6.254   1.438
 8059SOL     OW25075   4.049   3.076   5.702
 8059SOL    HW125076   4.133   3.033   5.736
 8059SOL    HW225077   4.038   3.054   5.605
 8060SOL     OW25078   0.323   1.227   5.652
 8060SOL    HW125079   0.243   1.287   5.658
 8060SOL    HW225080   0.377   1.250   5.571
 8061SOL     OW25081   6.850   0.813   1.439
 8061SOL    HW125082   6.853   0.721   1.401
 8061SOL    HW225083   6.936   0.833   1.486
 8062SOL     OW25084   3.608   4.795   6.286
 8062SOL    HW125085   3.549   4.723   6.323
 8062SOL    HW225086   3.623   4.779   6.189
 8063SOL     OW25087   2.379   4.812   3.152
 8063SOL    HW125088   2.468   4.768   3.148
 8063SOL    HW225089   2.360   4.859   3.066
 8064SOL     OW25090   6.965   2.981   0.783
 8064SOL    HW125091   6.985   3.079   0.790
 8064SOL    HW225092   0.021   2.929   0.819
 8065SOL     OW25093   4.713   0.287   6.857
 8065SOL    HW125094   4.678   0.275   6.764
 8065SOL    HW225095   4.701   0.383   6.885
 8066SOL     OW25096   6.684   0.900   6.015
 8066SOL    HW125097   6.774   0.939   6.029
 8066SOL    HW225098   6.659   0.907   5.918
 8067SOL     OW25099   4.940   0.952   4.281
 8067SOL    HW125100   4.957   0.941   4.183
 8067SOL    HW225101   4.873   1.025   4.295
 8068SOL     OW25102   6.689   4.683   1.558
 8068SOL    HW125103   6.608   4.738   1.535
 8068SOL    HW225104   6.660   4.590   1.582
 8069SOL     OW25105   1.357   2.356   2.248
 8069SOL    HW125106   1.268   2.340   2.290
 8069SOL    HW225107   1.428   2.313   2.304
 8070SOL     OW25108   5.158   3.764   1.692
 8070SOL    HW125109   5.253   3.783   1.716
 8070SOL    HW225110   5.153   3.724   1.600
 8071SOL     OW25111   2.506   0.450   5.847
 8071SOL    HW125112   2.543   0.372   5.796
 8071SOL    HW225113   2.424   0.423   5.897
 8072SOL     OW25114   2.239   2.231   5.666
 8072SOL    HW125115   2.252   2.318   5.713
 8072SOL    HW225116   2.221   2.159   5.734
 8073SOL     OW25117   5.560   0.222   6.570
 8073SOL    HW125118   5.553   0.200   6.667
 8073SOL    HW225119   5.615   0.152   6.524
 8074SOL     OW25120   6.642   0.980   0.620
 8074SOL    HW125121   6.547   0.967   0.650
 8074SOL    HW225122   6.701   0.990   0.700
 8075SOL     OW25123   0.400   0.700   1.225
 8075SOL    HW125124   0.329   0.632   1.241
 8075SOL    HW225125   0.490   0.656   1.231
 8076SOL     OW25126   6.538   6.046   0.554
 8076SOL    HW125127   6.566   6.008   0.642
 8076SOL    HW225128   6.587   5.998   0.481
 8077SOL     OW25129   5.886   4.097   1.085
 8077SOL    HW125130   5.905   4.002   1.061
 8077SOL    HW225131   5.939   4.122   1.166
 8078SOL     OW25132   6.296   1.483   2.062
 8078SOL    HW125133   6.240   1.552   2.107
 8078SOL    HW225134   6.391   1.494   2.089
 8079SOL     OW25135   0.339   0.851   6.795
 8079SOL    HW125136   0.406   0.837   6.868
 8079SOL    HW225137   0.386   0.850   6.707
 8080SOL     OW25138   0.548   3.962   3.807
 8080SOL    HW125139   0.539   4.009   3.895
 8080SOL    HW225140   0.563   4.030   3.735
 8081SOL     OW25141   6.057   0.974   5.703
 8081SOL    HW125142   6.104   1.057   5.674
 8081SOL    HW225143   6.007   0.934   5.625
 8082SOL     OW25144   5.049   2.645   4.796
 8082SOL    HW125145   5.031   2.655   4.894
 8082SOL    HW225146   5.147   2.650   4.780
 8083SOL     OW25147   6.598   3.246   4.316
 8083SOL    HW125148   6.508   3.223   4.354
 8083SOL    HW225149   6.607   3.206   4.225
 8084SOL     OW25150   5.276   1.921   0.197
 8084SOL    HW125151   5.234   1.875   0.119
 8084SOL    HW225152   5.359   1.872   0.225
 8085SOL     OW25153   1.452   6.185   4.278
 8085SOL    HW125154   1.369   6.140   4.310
 8085SOL    HW225155   1.529   6.158   4.336
 8086SOL     OW25156   0.477   2.568   2.571
 8086SOL    HW125157   0.532   2.636   2.522
 8086SOL    HW225158   0.415   2.614   2.634
 8087SOL     OW25159   6.617   0.648   6.629
 8087SOL    HW125160   6.607   0.732   6.575
 8087SOL    HW225161   6.684   0.661   6.701
 8088SOL     OW25162   0.169   6.800   5.279
 8088SOL    HW125163   0.110   6.814   5.199
 8088SOL    HW225164   0.223   6.883   5.295
 8089SOL     OW25165   6.343   1.628   0.151
 8089SOL    HW125166   6.315   1.552   0.093
 8089SOL    HW225167   6.357   1.709   0.095
 8090SOL     OW25168   4.743   2.335   4.850
 8090SOL    HW125169   4.750   2.396   4.771
 8090SOL    HW225170   4.779   2.382   4.931
 8091SOL     OW25171   0.604   3.651   4.778
 8091SOL    HW125172   0.671   3.610   4.716
 8091SOL    HW225173   0.610   3.751   4.771
 8092SOL     OW25174   4.629   0.387   5.968
 8092SOL    HW125175   4.641   0.398   6.067
 8092SOL    HW225176   4.536   0.415   5.943
 8093SOL     OW25177   2.973   6.856   3.182
 8093SOL    HW125178   3.054   6.877   3.238
 8093SOL    HW225179   2.911   6.798   3.235
 8094SOL     OW25180   1.937   3.876   3.860
 8094SOL    HW125181   1.871   3.813   3.821
 8094SOL    HW225182   1.890   3.957   3.896
 8095SOL     OW25183   1.429   5.750   4.693
 8095SOL    HW125184   1.472   5.690   4.760
 8095SOL    HW225185   1.417   5.702   4.607
 8096SOL     OW25186   0.844   4.740   1.176
 8096SOL    HW125187   0.883   4.831   1.188
 8096SOL    HW225188   0.764   4.729   1.236
 8097SOL     OW25189   5.137   6.504   6.853
 8097SOL    HW125190   5.204   6.486   6.924
 8097SOL    HW225191   5.045   6.489   6.889
 8098SOL     OW25192   2.862   6.106   4.665
 8098SOL    HW125193   2.868   6.175   4.593
 8098SOL    HW225194   2.915   6.026   4.639
 8099SOL     OW25195   2.153   3.795   2.704
 8099SOL    HW125196   2.211   3.866   2.663
 8099SOL    HW225197   2.097   3.753   2.632
 8100SOL     OW25198   6.881   6.814   0.368
 8100SOL    HW125199   6.887   6.723   0.410
 8100SOL    HW225200   6.790   6.826   0.330
 8101SOL     OW25201   2.120   5.109   0.195
 8101SOL    HW125202   2.210   5.150   0.214
 8101SOL    HW225203   2.082   5.149   0.113
 8102SOL     OW25204   1.099   4.569   3.868
 8102SOL    HW125205   1.169   4.622   3.821
 8102SOL    HW225206   1.124   4.560   3.965
 8103SOL     OW25207   4.091   0.637   1.372
 8103SOL    HW125208   4.131   0.628   1.463
 8103SOL    HW225209   4.000   0.676   1.379
 8104SOL     OW25210   0.826   5.728   6.797
 8104SOL    HW125211   0.777   5.678   6.725
 8104SOL    HW225212   0.885   5.665   6.847
 8105SOL     OW25213   6.714   0.116   2.962
 8105SOL    HW125214   6.638   0.117   2.897
 8105SOL    HW225215   6.713   0.028   3.011
 8106SOL     OW25216   2.926   6.268   6.509
 8106SOL    HW125217   2.929   6.236   6.414
 8106SOL    HW225218   2.831   6.273   6.539
 8107SOL     OW25219   1.159   6.844   0.114
 8107SOL    HW125220   1.179   6.750   0.086
 8107SOL    HW225221   1.063   6.866   0.094
 8108SOL     OW25222   1.774   1.165   0.529
 8108SOL    HW125223   1.858   1.142   0.478
 8108SOL    HW225224   1.796   1.175   0.626
 8109SOL     OW25225   0.290   3.803   2.084
 8109SOL    HW125226   0.255   3.715   2.116
 8109SOL    HW225227   0.296   3.802   1.984
 8110SOL     OW25228   4.606   4.279   0.417
 8110SOL    HW125229   4.542   4.207   0.446
 8110SOL    HW225230   4.699   4.241   0.415
 8111SOL     OW25231   5.828   2.017   2.298
 8111SOL    HW125232   5.830   2.116   2.285
 8111SOL    HW225233   5.778   1.996   2.382
 8112SOL     OW25234   2.319   4.852   6.292
 8112SOL    HW125235   2.321   4.950   6.309
 8112SOL    HW225236   2.227   4.816   6.308
 8113SOL     OW25237   5.183   5.006   6.354
 8113SOL    HW125238   5.110   4.995   6.421
 8113SOL    HW225239   5.271   4.988   6.398
 8114SOL     OW25240   2.005   3.296   2.768
 8114SOL    HW125241   2.071   3.224   2.790
 8114SOL    HW225242   2.032   3.380   2.816
 8115SOL     OW25243   2.482   1.362   6.246
 8115SOL    HW125244   2.568   1.310   6.247
 8115SOL    HW225245   2.419   1.323   6.313
 8116SOL     OW25246   4.119   3.269   2.224
 8116SOL    HW125247   4.187   3.332   2.261
 8116SOL    HW225248   4.135   3.257   2.126
 8117SOL     OW25249   1.163   0.452   4.067
 8117SOL    HW125250   1.109   0.473   4.149
 8117SOL    HW225251   1.260   0.465   4.086
 8118SOL     OW25252   6.511   2.336   0.057
 8118SOL    HW125253   6.444   2.330   0.131
 8118SOL    HW225254   6.465   2.349   6.992
 8119SOL     OW25255   5.129   4.962   6.089
 8119SOL    HW125256   5.210   5.003   6.046
 8119SOL    HW225257   5.136   4.970   6.188
 8120SOL     OW25258   2.351   6.777   2.589
 8120SOL    HW125259   2.387   6.862   2.553
 8120SOL    HW225260   2.427   6.717   2.616
 8121SOL     OW25261   2.340   2.523   2.659
 8121SOL    HW125262   2.359   2.427   2.637
 8121SOL    HW225263   2.301   2.569   2.579
 8122SOL     OW25264   1.036   4.786   1.583
 8122SOL    HW125265   1.066   4.878   1.559
 8122SOL    HW225266   0.946   4.768   1.543
 8123SOL     OW25267   6.943   1.626   6.607
 8123SOL    HW125268   6.948   1.627   6.707
 8123SOL    HW225269   7.016   1.682   6.569
 8124SOL     OW25270   6.504   5.955   5.323
 8124SOL    HW125271   6.571   5.884   5.302
 8124SOL    HW225272   6.517   5.987   5.417
 8125SOL     OW25273   1.180   6.094   1.985
 8125SOL    HW125274   1.271   6.067   1.953
 8125SOL    HW225275   1.110   6.059   1.922
 8126SOL     OW25276   3.639   5.792   4.524
 8126SOL    HW125277   3.704   5.723   4.494
 8126SOL    HW225278   3.625   5.859   4.450
 8127SOL     OW25279   4.110   1.584   6.272
 8127SOL    HW125280   4.018   1.623   6.267
 8127SOL    HW225281   4.162   1.630   6.344
 8128SOL     OW25282   3.274   3.291   1.234
 8128SOL    HW125283   3.254   3.270   1.330
 8128SOL    HW225284   3.348   3.233   1.202
 8129SOL     OW25285   0.112   2.334   3.984
 8129SOL    HW125286   0.159   2.296   3.904
 8129SOL    HW225287   0.165   2.312   4.066
 8130SOL     OW25288   6.761   6.479   6.873
 8130SOL    HW125289   6.855   6.480   6.837
 8130SOL    HW225290   6.735   6.572   6.899
 8131SOL     OW25291   1.969   2.381   1.133
 8131SOL    HW125292   1.953   2.429   1.047
 8131SOL    HW225293   2.057   2.408   1.172
 8132SOL     OW25294   6.431   1.532   4.629
 8132SOL    HW125295   6.365   1.458   4.618
 8132SOL    HW225296   6.383   1.617   4.653
 8133SOL     OW25297   3.619   5.275   1.453
 8133SOL    HW125298   3.716   5.281   1.477
 8133SOL    HW225299   3.586   5.363   1.419
 8134SOL     OW25300   5.697   2.265   6.383
 8134SOL    HW125301   5.767   2.315   6.334
 8134SOL    HW225302   5.651   2.201   6.321
 8135SOL     OW25303   2.618   6.216   2.011
 8135SOL    HW125304   2.652   6.282   1.944
 8135SOL    HW225305   2.530   6.180   1.980
 8136SOL     OW25306   4.732   4.955   2.571
 8136SOL    HW125307   4.726   5.028   2.503
 8136SOL    HW225308   4.662   4.886   2.552
 8137SOL     OW25309   4.537   0.919   5.908
 8137SOL    HW125310   4.495   0.996   5.955
 8137SOL    HW225311   4.467   0.870   5.855
 8138SOL     OW25312   5.681   1.073   2.171
 8138SOL    HW125313   5.595   1.083   2.221
 8138SOL    HW225314   5.698   1.155   2.116
 8139SOL     OW25315   0.405   0.985   4.472
 8139SOL    HW125316   0.339   0.910   4.470
 8139SOL    HW225317   0.379   1.055   4.406
 8140SOL     OW25318   5.073   2.578   3.135
 8140SOL    HW125319   5.091   2.594   3.038
 8140SOL    HW225320   4.984   2.536   3.147
 8141SOL     OW25321   5.952   3.987   3.640
 8141SOL    HW125322   5.912   3.900   3.612
 8141SOL    HW225323   6.038   3.970   3.688
 8142SOL     OW25324   6.821   6.499   0.207
 8142SOL    HW125325   6.871   6.504   0.293
 8142SOL    HW225326   6.871   6.550   0.136
 8143SOL     OW25327   6.425   2.877   5.518
 8143SOL    HW125328   6.483   2.796   5.519
 8143SOL    HW225329   6.480   2.957   5.494
 8144SOL     OW25330   5.139   5.910   6.718
 8144SOL    HW125331   5.097   5.993   6.754
 8144SOL    HW225332   5.151   5.844   6.793
 8145SOL     OW25333   4.584   6.255   3.412
 8145SOL    HW125334   4.508   6.318   3.402
 8145SOL    HW225335   4.605   6.243   3.509
 8146SOL     OW25336   3.462   1.737   3.989
 8146SOL    HW125337   3.555   1.772   3.999
 8146SOL    HW225338   3.418   1.736   4.079
 8147SOL     OW25339   4.984   1.189   3.321
 8147SOL    HW125340   4.981   1.246   3.239
 8147SOL    HW225341   4.933   1.233   3.395
 8148SOL     OW25342   6.778   3.806   3.090
 8148SOL    HW125343   6.738   3.827   3.002
 8148SOL    HW225344   6.729   3.730   3.132
 8149SOL     OW25345   3.940   5.359   3.883
 8149SOL    HW125346   3.937   5.267   3.844
 8149SOL    HW225347   3.886   5.361   3.968
 8150SOL     OW25348   1.111   6.481   1.274
 8150SOL    HW125349   1.059   6.453   1.354
 8150SOL    HW225350   1.151   6.401   1.231
 8151SOL     OW25351   0.567   1.703   4.878
 8151SOL    HW125352   0.511   1.766   4.825
 8151SOL    HW225353   0.651   1.682   4.828
 8152SOL     OW25354   0.722   0.685   3.584
 8152SOL    HW125355   0.803   0.729   3.623
 8152SOL    HW225356   0.746   0.643   3.496
 8153SOL     OW25357   2.247   6.474   0.262
 8153SOL    HW125358   2.232   6.388   0.310
 8153SOL    HW225359   2.282   6.543   0.327
 8154SOL     OW25360   2.055   6.605   3.295
 8154SOL    HW125361   2.011   6.518   3.317
 8154SOL    HW225362   2.045   6.623   3.197
 8155SOL     OW25363   3.090   3.856   4.731
 8155SOL    HW125364   3.150   3.913   4.786
 8155SOL    HW225365   3.098   3.882   4.634
 8156SOL     OW25366   0.292   0.028   5.214
 8156SOL    HW125367   0.275   0.099   5.283
 8156SOL    HW225368   0.362   0.060   5.150
 8157SOL     OW25369   5.342   2.404   6.534
 8157SOL    HW125370   5.272   2.418   6.604
 8157SOL    HW225371   5.396   2.488   6.525
 8158SOL     OW25372   1.281   5.329   2.597
 8158SOL    HW125373   1.352   5.272   2.556
 8158SOL    HW225374   1.290   5.423   2.562
 8159SOL     OW25375   0.473   5.882   0.484
 8159SOL    HW125376   0.516   5.794   0.463
 8159SOL    HW225377   0.378   5.866   0.511
 8160SOL     OW25378   4.658   1.799   1.810
 8160SOL    HW125379   4.726   1.746   1.861
 8160SOL    HW225380   4.673   1.896   1.826
 8161SOL     OW25381   4.030   3.230   1.518
 8161SOL    HW125382   4.079   3.306   1.561
 8161SOL    HW225383   4.039   3.149   1.575
 8162SOL     OW25384   6.096   0.772   2.399
 8162SOL    HW125385   6.063   0.861   2.432
 8162SOL    HW225386   6.058   0.699   2.455
 8163SOL     OW25387   2.340   2.685   5.646
 8163SOL    HW125388   2.266   2.752   5.650
 8163SOL    HW225389   2.421   2.726   5.604
 8164SOL     OW25390   4.819   3.696   1.904
 8164SOL    HW125391   4.805   3.748   1.819
 8164SOL    HW225392   4.800   3.599   1.887
 8165SOL     OW25393   1.772   4.385   1.863
 8165SOL    HW125394   1.809   4.294   1.884
 8165SOL    HW225395   1.814   4.453   1.924
 8166SOL     OW25396   3.335   0.209   1.297
 8166SOL    HW125397   3.431   0.203   1.270
 8166SOL    HW225398   3.328   0.246   1.389
 8167SOL     OW25399   5.530   2.603   4.405
 8167SOL    HW125400   5.611   2.605   4.464
 8167SOL    HW225401   5.477   2.521   4.424
 8168SOL     OW25402   2.598   2.183   3.241
 8168SOL    HW125403   2.650   2.120   3.299
 8168SOL    HW225404   2.638   2.275   3.247
 8169SOL     OW25405   5.149   3.927   5.002
 8169SOL    HW125406   5.110   3.842   4.967
 8169SOL    HW225407   5.203   3.971   4.930
 8170SOL     OW25408   1.566   5.406   4.004
 8170SOL    HW125409   1.480   5.361   4.029
 8170SOL    HW225410   1.586   5.387   3.908
 8171SOL     OW25411   1.982   1.073   6.923
 8171SOL    HW125412   2.030   1.011   6.861
 8171SOL    HW225413   1.905   1.026   6.965
 8172SOL     OW25414   0.586   6.406   1.675
 8172SOL    HW125415   0.614   6.387   1.580
 8172SOL    HW225416   0.532   6.330   1.709
 8173SOL     OW25417   6.774   3.091   0.424
 8173SOL    HW125418   6.821   3.175   0.396
 8173SOL    HW225419   6.784   3.078   0.523
 8174SOL     OW25420   5.007   6.581   2.503
 8174SOL    HW125421   4.972   6.642   2.575
 8174SOL    HW225422   5.010   6.630   2.416
 8175SOL     OW25423   1.644   3.299   3.885
 8175SOL    HW125424   1.744   3.295   3.885
 8175SOL    HW225425   1.609   3.245   3.809
 8176SOL     OW25426   4.028   5.704   3.426
 8176SOL    HW125427   4.060   5.610   3.415
 8176SOL    HW225428   3.951   5.706   3.490
 8177SOL     OW25429   1.672   6.319   6.403
 8177SOL    HW125430   1.574   6.337   6.408
 8177SOL    HW225431   1.700   6.264   6.482
 8178SOL     OW25432   2.367   6.293   6.239
 8178SOL    HW125433   2.285   6.337   6.202
 8178SOL    HW225434   2.366   6.301   6.339
 8179SOL     OW25435   4.105   0.505   0.121
 8179SOL    HW125436   4.190   0.540   0.159
 8179SOL    HW225437   4.028   0.544   0.171
 8180SOL     OW25438   5.280   4.762   4.942
 8180SOL    HW125439   5.299   4.819   5.023
 8180SOL    HW225440   5.234   4.817   4.873
 8181SOL     OW25441   2.637   2.083   2.268
 8181SOL    HW125442   2.643   2.128   2.179
 8181SOL    HW225443   2.689   2.136   2.336
 8182SOL     OW25444   5.265   2.941   5.722
 8182SOL    HW125445   5.340   2.875   5.710
 8182SOL    HW225446   5.189   2.915   5.663
 8183SOL     OW25447   2.107   3.443   3.317
 8183SOL    HW125448   2.193   3.443   3.266
 8183SOL    HW225449   2.031   3.427   3.254
 8184SOL     OW25450   6.135   5.814   4.357
 8184SOL    HW125451   6.118   5.913   4.356
 8184SOL    HW225452   6.196   5.790   4.282
 8185SOL     OW25453   1.007   2.285   3.304
 8185SOL    HW125454   1.058   2.199   3.307
 8185SOL    HW225455   1.053   2.349   3.243
 8186SOL     OW25456   4.490   3.864   6.929
 8186SOL    HW125457   4.583   3.827   6.932
 8186SOL    HW225458   4.464   3.878   6.834
 8187SOL     OW25459   2.217   1.327   5.923
 8187SOL    HW125460   2.169   1.290   6.002
 8187SOL    HW225461   2.310   1.353   5.950
 8188SOL     OW25462   4.855   3.098   2.578
 8188SOL    HW125463   4.817   3.083   2.487
 8188SOL    HW225464   4.846   3.194   2.603
 8189SOL     OW25465   6.790   5.384   3.457
 8189SOL    HW125466   6.750   5.418   3.542
 8189SOL    HW225467   6.831   5.461   3.407
 8190SOL     OW25468   6.069   3.511   2.631
 8190SOL    HW125469   6.090   3.603   2.666
 8190SOL    HW225470   6.018   3.519   2.546
 8191SOL     OW25471   5.842   5.233   1.601
 8191SOL    HW125472   5.743   5.239   1.589
 8191SOL    HW225473   5.862   5.174   1.679
 8192SOL     OW25474   1.415   2.571   1.004
 8192SOL    HW125475   1.497   2.562   1.061
 8192SOL    HW225476   1.435   2.536   0.912
 8193SOL     OW25477   4.352   6.571   5.600
 8193SOL    HW125478   4.369   6.669   5.611
 8193SOL    HW225479   4.313   6.534   5.684
 8194SOL     OW25480   1.768   0.772   2.313
 8194SOL    HW125481   1.803   0.693   2.263
 8194SOL    HW225482   1.741   0.744   2.405
 8195SOL     OW25483   5.766   1.229   1.977
 8195SOL    HW125484   5.859   1.260   1.997
 8195SOL    HW225485   5.761   1.200   1.881
 8196SOL     OW25486   1.742   0.997   0.853
 8196SOL    HW125487   1.655   0.950   0.869
 8196SOL    HW225488   1.776   1.036   0.938
 8197SOL     OW25489   0.624   0.185   1.106
 8197SOL    HW125490   0.712   0.145   1.130
 8197SOL    HW225491   0.613   0.185   1.007
 8198SOL     OW25492   3.141   1.195   2.667
 8198SOL    HW125493   3.048   1.179   2.700
 8198SOL    HW225494   3.206   1.144   2.723
 8199SOL     OW25495   5.718   4.549   1.452
 8199SOL    HW125496   5.715   4.606   1.370
 8199SOL    HW225497   5.802   4.496   1.453
 8200SOL     OW25498   4.232   3.932   1.585
 8200SOL    HW125499   4.220   3.834   1.603
 8200SOL    HW225500   4.198   3.953   1.493
 8201SOL     OW25501   0.592   1.221   5.041
 8201SOL    HW125502   0.663   1.190   5.104
 8201SOL    HW225503   0.577   1.151   4.971
 8202SOL     OW25504   1.890   3.765   4.154
 8202SOL    HW125505   1.900   3.790   4.058
 8202SOL    HW225506   1.976   3.780   4.202
 8203SOL     OW25507   6.542   4.524   6.433
 8203SOL    HW125508   6.446   4.504   6.455
 8203SOL    HW225509   6.575   4.460   6.364
 8204SOL     OW25510   3.420   0.250   0.690
 8204SOL    HW125511   3.370   0.189   0.751
 8204SOL    HW225512   3.502   0.284   0.736
 8205SOL     OW25513   3.916   6.724   3.434
 8205SOL    HW125514   3.895   6.799   3.371
 8205SOL    HW225515   4.004   6.685   3.410
 8206SOL     OW25516   3.531   2.095   4.610
 8206SOL    HW125517   3.529   2.104   4.709
 8206SOL    HW225518   3.562   2.002   4.586
 8207SOL     OW25519   2.938   5.839   7.009
 8207SOL    HW125520   3.012   5.906   7.015
 8207SOL    HW225521   2.896   5.844   6.919
 8208SOL     OW25522   1.461   5.509   0.717
 8208SOL    HW125523   1.494   5.566   0.792
 8208SOL    HW225524   1.415   5.428   0.754
 8209SOL     OW25525   0.996   5.707   5.255
 8209SOL    HW125526   0.924   5.746   5.313
 8209SOL    HW225527   0.964   5.704   5.161
 8210SOL     OW25528   2.293   0.874   0.774
 8210SOL    HW125529   2.330   0.810   0.707
 8210SOL    HW225530   2.196   0.889   0.757
 8211SOL     OW25531   3.718   4.042   3.982
 8211SOL    HW125532   3.803   4.019   4.029
 8211SOL    HW225533   3.695   4.138   3.997
 8212SOL     OW25534   4.318   4.423   6.715
 8212SOL    HW125535   4.297   4.425   6.618
 8212SOL    HW225536   4.389   4.490   6.736
 8213SOL     OW25537   4.749   4.406   1.844
 8213SOL    HW125538   4.660   4.379   1.880
 8213SOL    HW225539   4.771   4.350   1.764
 8214SOL     OW25540   4.163   5.490   3.546
 8214SOL    HW125541   4.262   5.508   3.542
 8214SOL    HW225542   4.127   5.523   3.633
 8215SOL     OW25543   2.880   6.329   6.181
 8215SOL    HW125544   2.892   6.230   6.180
 8215SOL    HW225545   2.945   6.371   6.118
 8216SOL     OW25546   5.536   5.138   0.661
 8216SOL    HW125547   5.475   5.119   0.738
 8216SOL    HW225548   5.524   5.233   0.632
 8217SOL     OW25549   3.016   6.550   3.423
 8217SOL    HW125550   3.018   6.469   3.481
 8217SOL    HW225551   3.084   6.616   3.456
 8218SOL     OW25552   1.797   6.733   4.118
 8218SOL    HW125553   1.828   6.652   4.069
 8218SOL    HW225554   1.699   6.746   4.103
 8219SOL     OW25555   3.919   3.222   3.418
 8219SOL    HW125556   4.007   3.263   3.395
 8219SOL    HW225557   3.853   3.295   3.436
 8220SOL     OW25558   4.369   4.414   5.786
 8220SOL    HW125559   4.347   4.331   5.839
 8220SOL    HW225560   4.304   4.486   5.810
 8221SOL     OW25561   6.755   3.889   3.473
 8221SOL    HW125562   6.793   3.824   3.538
 8221SOL    HW225563   6.807   3.975   3.477
 8222SOL     OW25564   5.357   2.166   5.702
 8222SOL    HW125565   5.334   2.242   5.763
 8222SOL    HW225566   5.288   2.159   5.630
 8223SOL     OW25567   1.174   6.359   5.307
 8223SOL    HW125568   1.244   6.378   5.376
 8223SOL    HW225569   1.162   6.438   5.247
 8224SOL     OW25570   6.004   0.495   5.915
 8224SOL    HW125571   5.936   0.521   5.846
 8224SOL    HW225572   6.060   0.574   5.938
 8225SOL     OW25573   6.116   2.920   0.370
 8225SOL    HW125574   6.129   2.914   0.469
 8225SOL    HW225575   6.174   2.853   0.324
 8226SOL     OW25576   4.266   0.993   6.747
 8226SOL    HW125577   4.200   1.068   6.745
 8226SOL    HW225578   4.240   0.927   6.817
 8227SOL     OW25579   5.311   4.130   2.236
 8227SOL    HW125580   5.252   4.146   2.158
 8227SOL    HW225581   5.380   4.202   2.242
 8228SOL     OW25582   2.756   1.310   4.482
 8228SOL    HW125583   2.680   1.348   4.429
 8228SOL    HW225584   2.735   1.216   4.508
 8229SOL     OW25585   3.854   4.502   0.617
 8229SOL    HW125586   3.932   4.441   0.604
 8229SOL    HW225587   3.783   4.454   0.669
 8230SOL     OW25588   6.345   0.908   6.611
 8230SOL    HW125589   6.392   0.820   6.614
 8230SOL    HW225590   6.247   0.893   6.624
 8231SOL     OW25591   3.350   1.606   2.153
 8231SOL    HW125592   3.342   1.652   2.065
 8231SOL    HW225593   3.272   1.628   2.211
 8232SOL     OW25594   3.772   6.569   3.595
 8232SOL    HW125595   3.808   6.641   3.536
 8232SOL    HW225596   3.708   6.512   3.542
 8233SOL     OW25597   3.095   0.864   6.137
 8233SOL    HW125598   3.010   0.879   6.088
 8233SOL    HW225599   3.162   0.933   6.110
 8234SOL     OW25600   1.077   3.154   0.315
 8234SOL    HW125601   0.999   3.094   0.331
 8234SOL    HW225602   1.073   3.189   0.221
 8235SOL     OW25603   0.363   6.597   0.826
 8235SOL    HW125604   0.293   6.653   0.868
 8235SOL    HW225605   0.429   6.655   0.778
 8236SOL     OW25606   1.246   0.099   0.872
 8236SOL    HW125607   1.218   0.161   0.798
 8236SOL    HW225608   1.181   0.023   0.877
 8237SOL     OW25609   4.001   5.322   5.541
 8237SOL    HW125610   3.982   5.296   5.636
 8237SOL    HW225611   3.915   5.345   5.495
 8238SOL     OW25612   6.536   5.297   0.317
 8238SOL    HW125613   6.467   5.339   0.377
 8238SOL    HW225614   6.490   5.254   0.240
 8239SOL     OW25615   4.398   1.808   4.036
 8239SOL    HW125616   4.323   1.761   3.989
 8239SOL    HW225617   4.485   1.784   3.992
 8240SOL     OW25618   3.892   3.586   5.014
 8240SOL    HW125619   3.898   3.675   5.060
 8240SOL    HW225620   3.982   3.560   4.979
 8241SOL     OW25621   0.770   3.128   5.790
 8241SOL    HW125622   0.754   3.104   5.886
 8241SOL    HW225623   0.852   3.185   5.783
 8242SOL     OW25624   0.200   2.941   3.797
 8242SOL    HW125625   0.156   2.876   3.734
 8242SOL    HW225626   0.267   2.893   3.854
 8243SOL     OW25627   1.366   6.142   3.591
 8243SOL    HW125628   1.428   6.158   3.668
 8243SOL    HW225629   1.280   6.192   3.607
 8244SOL     OW25630   5.104   0.644   4.000
 8244SOL    HW125631   5.056   0.634   4.086
 8244SOL    HW225632   5.121   0.554   3.960
 8245SOL     OW25633   5.636   4.301   2.315
 8245SOL    HW125634   5.645   4.224   2.378
 8245SOL    HW225635   5.570   4.366   2.352
 8246SOL     OW25636   2.095   4.170   6.698
 8246SOL    HW125637   2.077   4.256   6.745
 8246SOL    HW225638   2.163   4.118   6.750
 8247SOL     OW25639   2.085   4.514   3.122
 8247SOL    HW125640   1.994   4.474   3.125
 8247SOL    HW225641   2.143   4.460   3.061
 8248SOL     OW25642   6.591   6.571   2.720
 8248SOL    HW125643   6.506   6.598   2.765
 8248SOL    HW225644   6.660   6.549   2.789
 8249SOL     OW25645   3.362   0.492   6.196
 8249SOL    HW125646   3.290   0.561   6.204
 8249SOL    HW225647   3.356   0.448   6.106
 8250SOL     OW25648   1.242   1.680   0.517
 8250SOL    HW125649   1.308   1.750   0.546
 8250SOL    HW225650   1.291   1.598   0.487
 8251SOL     OW25651   1.355   2.073   6.737
 8251SOL    HW125652   1.377   1.976   6.736
 8251SOL    HW225653   1.434   2.126   6.705
 8252SOL     OW25654   0.739   1.609   6.556
 8252SOL    HW125655   0.716   1.664   6.636
 8252SOL    HW225656   0.709   1.515   6.570
 8253SOL     OW25657   6.542   4.575   5.742
 8253SOL    HW125658   6.480   4.508   5.701
 8253SOL    HW225659   6.532   4.572   5.841
 8254SOL     OW25660   5.340   4.525   6.709
 8254SOL    HW125661   5.347   4.622   6.730
 8254SOL    HW225662   5.414   4.476   6.756
 8255SOL     OW25663   1.452   6.725   5.477
 8255SOL    HW125664   1.471   6.822   5.469
 8255SOL    HW225665   1.449   6.684   5.386
 8256SOL     OW25666   1.586   6.056   2.876
 8256SOL    HW125667   1.664   5.998   2.901
 8256SOL    HW225668   1.546   6.094   2.960
 8257SOL     OW25669   4.636   4.580   3.758
 8257SOL    HW125670   4.661   4.513   3.688
 8257SOL    HW225671   4.660   4.543   3.848
 8258SOL     OW25672   0.666   3.256   4.596
 8258SOL    HW125673   0.621   3.343   4.576
 8258SOL    HW225674   0.760   3.258   4.561
 8259SOL     OW25675   5.654   2.771   4.214
 8259SOL    HW125676   5.598   2.772   4.131
 8259SOL    HW225677   5.625   2.695   4.273
 8260SOL     OW25678   4.726   2.076   6.332
 8260SOL    HW125679   4.753   2.033   6.418
 8260SOL    HW225680   4.791   2.148   6.309
 8261SOL     OW25681   5.705   2.647   2.921
 8261SOL    HW125682   5.766   2.569   2.906
 8261SOL    HW225683   5.612   2.614   2.936
 8262SOL     OW25684   5.085   4.109   2.029
 8262SOL    HW125685   5.084   4.204   1.998
 8262SOL    HW225686   4.991   4.074   2.035
 8263SOL     OW25687   6.339   1.781   6.598
 8263SOL    HW125688   6.353   1.713   6.670
 8263SOL    HW225689   6.408   1.852   6.606
 8264SOL     OW25690   3.062   0.978   1.592
 8264SOL    HW125691   3.031   0.977   1.687
 8264SOL    HW225692   3.161   0.984   1.589
 8265SOL     OW25693   4.663   5.430   0.426
 8265SOL    HW125694   4.755   5.469   0.424
 8265SOL    HW225695   4.617   5.450   0.339
 8266SOL     OW25696   4.823   2.453   3.191
 8266SOL    HW125697   4.725   2.435   3.176
 8266SOL    HW225698   4.861   2.383   3.252
 8267SOL     OW25699   1.962   3.138   3.397
 8267SOL    HW125700   2.027   3.105   3.329
 8267SOL    HW225701   1.999   3.219   3.442
 8268SOL     OW25702   2.706   5.540   1.677
 8268SOL    HW125703   2.805   5.554   1.688
 8268SOL    HW225704   2.656   5.597   1.742
 8269SOL     OW25705   6.743   1.272   3.940
 8269SOL    HW125706   6.697   1.305   3.858
 8269SOL    HW225707   6.840   1.295   3.936
 8270SOL     OW25708   4.300   4.552   0.617
 8270SOL    HW125709   4.341   4.471   0.576
 8270SOL    HW225710   4.242   4.598   0.550
 8271SOL     OW25711   2.997   6.735   5.356
 8271SOL    HW125712   2.956   6.690   5.276
 8271SOL    HW225713   2.926   6.785   5.406
 8272SOL     OW25714   0.789   0.888   1.975
 8272SOL    HW125715   0.758   0.936   2.056
 8272SOL    HW225716   0.725   0.814   1.953
 8273SOL     OW25717   5.340   6.965   5.793
 8273SOL    HW125718   5.275   6.972   5.867
 8273SOL    HW225719   5.431   6.994   5.825
 8274SOL     OW25720   5.225   0.191   4.248
 8274SOL    HW125721   5.159   0.266   4.249
 8274SOL    HW225722   5.178   0.105   4.231
 8275SOL     OW25723   4.441   0.806   4.362
 8275SOL    HW125724   4.367   0.866   4.394
 8275SOL    HW225725   4.498   0.855   4.296
 8276SOL     OW25726   6.082   2.903   0.881
 8276SOL    HW125727   6.119   2.920   0.789
 8276SOL    HW225728   6.119   2.970   0.945
 8277SOL     OW25729   1.533   6.709   1.867
 8277SOL    HW125730   1.572   6.801   1.874
 8277SOL    HW225731   1.547   6.674   1.774
 8278SOL     OW25732   1.330   0.473   1.142
 8278SOL    HW125733   1.321   0.374   1.151
 8278SOL    HW225734   1.305   0.516   1.229
 8279SOL     OW25735   6.304   4.779   5.887
 8279SOL    HW125736   6.324   4.681   5.878
 8279SOL    HW225737   6.259   4.795   5.975
 8280SOL     OW25738   6.906   4.260   6.904
 8280SOL    HW125739   6.843   4.277   6.980
 8280SOL    HW225740   7.000   4.273   6.935
 8281SOL     OW25741   3.260   4.633   6.829
 8281SOL    HW125742   3.171   4.640   6.784
 8281SOL    HW225743   3.251   4.581   6.914
 8282SOL     OW25744   4.154   2.622   0.732
 8282SOL    HW125745   4.190   2.699   0.785
 8282SOL    HW225746   4.222   2.549   0.728
 8283SOL     OW25747   0.479   1.022   3.396
 8283SOL    HW125748   0.570   1.040   3.433
 8283SOL    HW225749   0.470   1.065   3.306
 8284SOL     OW25750   5.046   2.451   1.350
 8284SOL    HW125751   4.988   2.429   1.428
 8284SOL    HW225752   5.101   2.371   1.326
 8285SOL     OW25753   0.632   4.949   0.072
 8285SOL    HW125754   0.701   4.897   0.122
 8285SOL    HW225755   0.580   5.005   0.137
 8286SOL     OW25756   6.417   1.588   6.408
 8286SOL    HW125757   6.358   1.640   6.469
 8286SOL    HW225758   6.372   1.503   6.382
 8287SOL     OW25759   0.090   1.116   3.196
 8287SOL    HW125760   0.093   1.194   3.135
 8287SOL    HW225761   0.071   1.033   3.144
 8288SOL     OW25762   2.853   6.747   2.146
 8288SOL    HW125763   2.753   6.738   2.143
 8288SOL    HW225764   2.891   6.671   2.200
 8289SOL     OW25765   6.267   6.846   0.241
 8289SOL    HW125766   6.327   6.857   0.320
 8289SOL    HW225767   6.217   6.931   0.224
 8290SOL     OW25768   4.661   2.644   1.906
 8290SOL    HW125769   4.748   2.693   1.913
 8290SOL    HW225770   4.585   2.710   1.906
 8291SOL     OW25771   5.315   5.742   5.624
 8291SOL    HW125772   5.298   5.651   5.585
 8291SOL    HW225773   5.257   5.754   5.705
 8292SOL     OW25774   6.778   3.708   5.403
 8292SOL    HW125775   6.693   3.750   5.371
 8292SOL    HW225776   6.757   3.626   5.456
 8293SOL     OW25777   2.617   5.734   4.192
 8293SOL    HW125778   2.536   5.758   4.246
 8293SOL    HW225779   2.695   5.718   4.253
 8294SOL     OW25780   6.881   3.755   5.983
 8294SOL    HW125781   6.895   3.667   6.030
 8294SOL    HW225782   6.886   3.740   5.884
 8295SOL     OW25783   4.047   4.778   1.542
 8295SOL    HW125784   4.081   4.793   1.449
 8295SOL    HW225785   4.107   4.824   1.607
 8296SOL     OW25786   3.342   0.339   2.074
 8296SOL    HW125787   3.266   0.363   2.015
 8296SOL    HW225788   3.343   0.240   2.089
 8297SOL     OW25789   5.850   4.167   1.881
 8297SOL    HW125790   5.774   4.212   1.834
 8297SOL    HW225791   5.849   4.193   1.978
 8298SOL     OW25792   6.901   6.958   0.688
 8298SOL    HW125793   6.874   7.016   0.765
 8298SOL    HW225794   6.877   7.003   0.603
 8299SOL     OW25795   1.051   2.358   6.955
 8299SOL    HW125796   1.016   2.450   6.935
 8299SOL    HW225797   1.132   2.340   6.899
 8300SOL     OW25798   5.120   6.048   3.596
 8300SOL    HW125799   5.106   5.992   3.678
 8300SOL    HW225800   5.066   6.131   3.602
 8301SOL     OW25801   6.359   5.427   0.525
 8301SOL    HW125802   6.273   5.462   0.488
 8301SOL    HW225803   6.388   5.483   0.602
 8302SOL     OW25804   3.353   6.519   5.510
 8302SOL    HW125805   3.339   6.444   5.446
 8302SOL    HW225806   3.284   6.514   5.583
 8303SOL     OW25807   0.963   4.939   3.612
 8303SOL    HW125808   0.882   4.924   3.667
 8303SOL    HW225809   1.026   4.862   3.623
 8304SOL     OW25810   5.493   2.654   3.639
 8304SOL    HW125811   5.551   2.721   3.685
 8304SOL    HW225812   5.421   2.702   3.589
 8305SOL     OW25813   4.701   6.221   4.898
 8305SOL    HW125814   4.773   6.288   4.919
 8305SOL    HW225815   4.646   6.254   4.821
 8306SOL     OW25816   4.743   1.182   4.276
 8306SOL    HW125817   4.671   1.196   4.343
 8306SOL    HW225818   4.794   1.267   4.263
 8307SOL     OW25819   6.948   5.011   4.159
 8307SOL    HW125820   0.014   5.059   4.154
 8307SOL    HW225821   6.887   5.060   4.221
 8308SOL     OW25822   1.893   5.465   0.523
 8308SOL    HW125823   1.931   5.405   0.452
 8308SOL    HW225824   1.850   5.410   0.594
 8309SOL     OW25825   5.913   5.211   2.345
 8309SOL    HW125826   5.997   5.172   2.384
 8309SOL    HW225827   5.937   5.280   2.277
 8310SOL     OW25828   1.545   6.244   3.084
 8310SOL    HW125829   1.557   6.275   3.178
 8310SOL    HW225830   1.466   6.289   3.044
 8311SOL     OW25831   4.473   6.387   1.813
 8311SOL    HW125832   4.438   6.328   1.741
 8311SOL    HW225833   4.545   6.446   1.776
 8312SOL     OW25834   6.253   0.863   0.289
 8312SOL    HW125835   6.310   0.837   0.367
 8312SOL    HW225836   6.187   0.933   0.318
 8313SOL     OW25837   4.967   2.309   5.857
 8313SOL    HW125838   5.013   2.387   5.815
 8313SOL    HW225839   5.012   2.285   5.943
 8314SOL     OW25840   4.870   5.637   4.386
 8314SOL    HW125841   4.906   5.724   4.352
 8314SOL    HW225842   4.945   5.575   4.405
 8315SOL     OW25843   3.336   1.570   0.318
 8315SOL    HW125844   3.309   1.476   0.297
 8315SOL    HW225845   3.268   1.633   0.281
 8316SOL     OW25846   1.783   1.524   4.937
 8316SOL    HW125847   1.693   1.488   4.964
 8316SOL    HW225848   1.770   1.604   4.879
 8317SOL     OW25849   2.003   1.764   6.296
 8317SOL    HW125850   1.952   1.743   6.212
 8317SOL    HW225851   1.943   1.752   6.375
 8318SOL     OW25852   4.460   6.289   5.361
 8318SOL    HW125853   4.520   6.266   5.438
 8318SOL    HW225854   4.365   6.292   5.393
 8319SOL     OW25855   2.864   5.849   6.467
 8319SOL    HW125856   2.857   5.836   6.368
 8319SOL    HW225857   2.890   5.763   6.510
 8320SOL     OW25858   3.954   4.912   5.496
 8320SOL    HW125859   3.864   4.892   5.532
 8320SOL    HW225860   4.013   4.947   5.569
 8321SOL     OW25861   0.326   0.689   0.814
 8321SOL    HW125862   0.323   0.600   0.861
 8321SOL    HW225863   0.391   0.748   0.862
 8322SOL     OW25864   2.314   0.375   1.345
 8322SOL    HW125865   2.408   0.352   1.367
 8322SOL    HW225866   2.280   0.314   1.273
 8323SOL     OW25867   5.927   5.036   6.697
 8323SOL    HW125868   5.934   5.118   6.640
 8323SOL    HW225869   5.990   5.045   6.775
 8324SOL     OW25870   5.775   6.481   6.137
 8324SOL    HW125871   5.775   6.409   6.206
 8324SOL    HW225872   5.684   6.487   6.095
 8325SOL     OW25873   1.627   6.292   4.579
 8325SOL    HW125874   1.660   6.294   4.673
 8325SOL    HW225875   1.683   6.227   4.526
 8326SOL     OW25876   2.069   1.561   6.946
 8326SOL    HW125877   2.117   1.649   6.942
 8326SOL    HW225878   2.085   1.511   6.861
 8327SOL     OW25879   0.366   5.682   5.257
 8327SOL    HW125880   0.355   5.782   5.259
 8327SOL    HW225881   0.281   5.640   5.223
 8328SOL     OW25882   1.185   0.546   0.255
 8328SOL    HW125883   1.136   0.465   0.222
 8328SOL    HW225884   1.157   0.626   0.201
 8329SOL     OW25885   1.668   2.415   5.178
 8329SOL    HW125886   1.692   2.495   5.123
 8329SOL    HW225887   1.585   2.435   5.230
 8330SOL     OW25888   3.032   6.913   0.225
 8330SOL    HW125889   3.079   6.866   0.299
 8330SOL    HW225890   3.049   6.865   0.139
 8331SOL     OW25891   2.210   2.172   6.093
 8331SOL    HW125892   2.289   2.113   6.108
 8331SOL    HW225893   2.150   2.167   6.173
 8332SOL     OW25894   5.473   3.812   0.817
 8332SOL    HW125895   5.398   3.850   0.871
 8332SOL    HW225896   5.538   3.767   0.877
 8333SOL     OW25897   2.723   4.829   6.320
 8333SOL    HW125898   2.767   4.890   6.254
 8333SOL    HW225899   2.776   4.745   6.328
 8334SOL     OW25900   3.325   2.601   5.311
 8334SOL    HW125901   3.296   2.526   5.252
 8334SOL    HW225902   3.310   2.577   5.407
 8335SOL     OW25903   5.594   3.313   6.172
 8335SOL    HW125904   5.507   3.286   6.214
 8335SOL    HW225905   5.583   3.399   6.123
 8336SOL     OW25906   1.321   4.708   3.804
 8336SOL    HW125907   1.417   4.703   3.777
 8336SOL    HW225908   1.301   4.800   3.838
 8337SOL     OW25909   6.274   0.391   4.155
 8337SOL    HW125910   6.250   0.355   4.065
 8337SOL    HW225911   6.284   0.490   4.150
 8338SOL     OW25912   2.589   5.750   1.494
 8338SOL    HW125913   2.503   5.761   1.545
 8338SOL    HW225914   2.568   5.724   1.400
 8339SOL     OW25915   6.674   0.523   1.966
 8339SOL    HW125916   6.580   0.517   1.997
 8339SOL    HW225917   6.735   0.481   2.034
 8340SOL     OW25918   6.004   2.544   6.354
 8340SOL    HW125919   6.037   2.499   6.437
 8340SOL    HW225920   5.952   2.626   6.379
 8341SOL     OW25921   3.368   0.074   0.919
 8341SOL    HW125922   3.339   0.157   0.968
 8341SOL    HW225923   3.464   0.056   0.938
 8342SOL     OW25924   4.323   1.118   0.895
 8342SOL    HW125925   4.389   1.116   0.970
 8342SOL    HW225926   4.301   1.212   0.873
 8343SOL     OW25927   4.719   5.894   2.943
 8343SOL    HW125928   4.646   5.962   2.951
 8343SOL    HW225929   4.719   5.857   2.850
 8344SOL     OW25930   2.110   4.298   5.884
 8344SOL    HW125931   2.187   4.335   5.832
 8344SOL    HW225932   2.039   4.368   5.894
 8345SOL     OW25933   6.382   0.294   4.399
 8345SOL    HW125934   6.469   0.266   4.358
 8345SOL    HW225935   6.321   0.327   4.327
 8346SOL     OW25936   6.152   4.137   3.291
 8346SOL    HW125937   6.161   4.039   3.312
 8346SOL    HW225938   6.072   4.174   3.338
 8347SOL     OW25939   1.145   1.597   6.370
 8347SOL    HW125940   1.217   1.537   6.337
 8347SOL    HW225941   1.181   1.656   6.442
 8348SOL     OW25942   3.408   5.770   0.983
 8348SOL    HW125943   3.470   5.809   0.915
 8348SOL    HW225944   3.356   5.843   1.027
 8349SOL     OW25945   4.424   5.299   1.528
 8349SOL    HW125946   4.435   5.383   1.474
 8349SOL    HW225947   4.387   5.322   1.618
 8350SOL     OW25948   2.295   0.739   6.689
 8350SOL    HW125949   2.229   0.670   6.658
 8350SOL    HW225950   2.387   0.700   6.689
 8351SOL     OW25951   6.709   2.938   3.150
 8351SOL    HW125952   6.699   3.036   3.135
 8351SOL    HW225953   6.783   2.921   3.215
 8352SOL     OW25954   2.716   6.552   6.272
 8352SOL    HW125955   2.782   6.478   6.257
 8352SOL    HW225956   2.763   6.640   6.264
 8353SOL     OW25957   0.409   5.657   2.679
 8353SOL    HW125958   0.466   5.668   2.597
 8353SOL    HW225959   0.332   5.598   2.658
 8354SOL     OW25960   4.685   2.292   3.750
 8354SOL    HW125961   4.766   2.349   3.764
 8354SOL    HW225962   4.713   2.197   3.738
 8355SOL     OW25963   3.175   4.879   6.176
 8355SOL    HW125964   3.140   4.898   6.268
 8355SOL    HW225965   3.143   4.789   6.147
 8356SOL     OW25966   3.075   3.498   1.582
 8356SOL    HW125967   2.996   3.438   1.570
 8356SOL    HW225968   3.062   3.583   1.531
 8357SOL     OW25969   2.935   6.858   4.727
 8357SOL    HW125970   3.003   6.792   4.760
 8357SOL    HW225971   2.950   6.876   4.630
 8358SOL     OW25972   6.977   0.111   4.475
 8358SOL    HW125973   6.941   0.196   4.512
 8358SOL    HW225974   6.903   0.046   4.461
 8359SOL     OW25975   5.027   1.885   5.245
 8359SOL    HW125976   5.121   1.876   5.213
 8359SOL    HW225977   5.025   1.885   5.345
 8360SOL     OW25978   2.858   0.383   2.062
 8360SOL    HW125979   2.932   0.351   2.121
 8360SOL    HW225980   2.878   0.359   1.967
 8361SOL     OW25981   4.780   0.874   0.298
 8361SOL    HW125982   4.742   0.966   0.284
 8361SOL    HW225983   4.811   0.865   0.393
 8362SOL     OW25984   0.827   4.201   1.574
 8362SOL    HW125985   0.847   4.299   1.579
 8362SOL    HW225986   0.871   4.153   1.651
 8363SOL     OW25987   2.289   2.050   1.140
 8363SOL    HW125988   2.328   2.048   1.232
 8363SOL    HW225989   2.190   2.064   1.146
 8364SOL     OW25990   0.287   1.356   3.550
 8364SOL    HW125991   0.343   1.335   3.630
 8364SOL    HW225992   0.190   1.341   3.572
 8365SOL     OW25993   2.033   3.129   0.910
 8365SOL    HW125994   2.109   3.066   0.896
 8365SOL    HW225995   2.051   3.186   0.990
 8366SOL     OW25996   5.203   5.827   1.788
 8366SOL    HW125997   5.258   5.759   1.739
 8366SOL    HW225998   5.111   5.792   1.801
 8367SOL     OW25999   1.896   4.385   3.593
 8367SOL    HW126000   1.897   4.452   3.518
 8367SOL    HW226001   1.983   4.388   3.641
 8368SOL     OW26002   0.578   3.605   6.382
 8368SOL    HW126003   0.480   3.587   6.393
 8368SOL    HW226004   0.616   3.637   6.469
 8369SOL     OW26005   0.957   0.128   0.285
 8369SOL    HW126006   1.017   0.110   0.363
 8369SOL    HW226007   0.913   0.043   0.256
 8370SOL     OW26008   3.155   2.764   0.567
 8370SOL    HW126009   3.203   2.685   0.606
 8370SOL    HW226010   3.085   2.731   0.504
 8371SOL     OW26011   2.872   4.250   5.463
 8371SOL    HW126012   2.885   4.322   5.530
 8371SOL    HW226013   2.959   4.233   5.416
 8372SOL     OW26014   1.609   6.859   2.500
 8372SOL    HW126015   1.618   6.820   2.592
 8372SOL    HW226016   1.514   6.849   2.469
 8373SOL     OW26017   5.359   0.721   4.024
 8373SOL    HW126018   5.262   0.696   4.036
 8373SOL    HW226019   5.414   0.638   4.025
 8374SOL     OW26020   0.963   1.831   3.253
 8374SOL    HW126021   1.013   1.768   3.195
 8374SOL    HW226022   1.021   1.860   3.329
 8375SOL     OW26023   1.750   2.850   5.627
 8375SOL    HW126024   1.708   2.820   5.712
 8375SOL    HW226025   1.748   2.776   5.560
 8376SOL     OW26026   0.583   1.466   3.944
 8376SOL    HW126027   0.663   1.497   3.995
 8376SOL    HW226028   0.500   1.508   3.982
 8377SOL     OW26029   3.186   5.142   1.249
 8377SOL    HW126030   3.272   5.191   1.258
 8377SOL    HW226031   3.174   5.113   1.154
 8378SOL     OW26032   4.103   5.465   4.747
 8378SOL    HW126033   4.188   5.420   4.776
 8378SOL    HW226034   4.042   5.475   4.826
 8379SOL     OW26035   5.553   2.794   2.125
 8379SOL    HW126036   5.622   2.865   2.113
 8379SOL    HW226037   5.462   2.831   2.106
 8380SOL     OW26038   1.585   5.456   2.776
 8380SOL    HW126039   1.559   5.363   2.750
 8380SOL    HW226040   1.510   5.499   2.827
 8381SOL     OW26041   1.357   2.229   2.699
 8381SOL    HW126042   1.374   2.316   2.653
 8381SOL    HW226043   1.441   2.199   2.746
 8382SOL     OW26044   0.951   6.945   1.676
 8382SOL    HW126045   0.862   6.902   1.686
 8382SOL    HW226046   1.017   6.879   1.641
 8383SOL     OW26047   2.368   0.149   4.916
 8383SOL    HW126048   2.403   0.241   4.904
 8383SOL    HW226049   2.445   0.085   4.922
 8384SOL     OW26050   0.096   3.332   3.679
 8384SOL    HW126051   0.077   3.314   3.582
 8384SOL    HW226052   0.133   3.424   3.690
 8385SOL     OW26053   4.328   2.376   2.226
 8385SOL    HW126054   4.281   2.288   2.215
 8385SOL    HW226055   4.302   2.417   2.313
 8386SOL     OW26056   0.212   5.210   1.837
 8386SOL    HW126057   0.311   5.203   1.845
 8386SOL    HW226058   0.185   5.192   1.743
 8387SOL     OW26059   0.517   2.029   3.368
 8387SOL    HW126060   0.614   2.029   3.346
 8387SOL    HW226061   0.491   2.118   3.406
 8388SOL     OW26062   3.876   5.833   1.555
 8388SOL    HW126063   3.905   5.791   1.641
 8388SOL    HW226064   3.844   5.926   1.573
 8389SOL     OW26065   1.763   2.554   4.561
 8389SOL    HW126066   1.695   2.588   4.496
 8389SOL    HW226067   1.786   2.626   4.626
 8390SOL     OW26068   2.429   0.341   6.262
 8390SOL    HW126069   2.393   0.263   6.210
 8390SOL    HW226070   2.353   0.399   6.291
 8391SOL     OW26071   4.701   6.043   0.676
 8391SOL    HW126072   4.763   6.122   0.677
 8391SOL    HW226073   4.629   6.056   0.745
 8392SOL     OW26074   3.956   5.234   0.110
 8392SOL    HW126075   3.899   5.201   0.184
 8392SOL    HW226076   4.041   5.271   0.147
 8393SOL     OW26077   1.427   6.030   1.880
 8393SOL    HW126078   1.454   6.088   1.803
 8393SOL    HW226079   1.507   6.007   1.935
 8394SOL     OW26080   1.711   1.433   3.807
 8394SOL    HW126081   1.715   1.533   3.805
 8394SOL    HW226082   1.702   1.402   3.902
 8395SOL     OW26083   2.435   5.764   6.429
 8395SOL    HW126084   2.391   5.696   6.488
 8395SOL    HW226085   2.371   5.792   6.358
 8396SOL     OW26086   4.471   2.421   0.979
 8396SOL    HW126087   4.398   2.433   0.912
 8396SOL    HW226088   4.559   2.427   0.933
 8397SOL     OW26089   1.194   4.573   3.225
 8397SOL    HW126090   1.201   4.474   3.216
 8397SOL    HW226091   1.279   4.616   3.196
 8398SOL     OW26092   5.260   1.519   0.001
 8398SOL    HW126093   5.263   1.421   0.023
 8398SOL    HW226094   5.166   1.546   7.002
 8399SOL     OW26095   5.683   6.416   5.364
 8399SOL    HW126096   5.699   6.514   5.369
 8399SOL    HW226097   5.593   6.399   5.324
 8400SOL     OW26098   6.190   6.375   3.702
 8400SOL    HW126099   6.272   6.424   3.734
 8400SOL    HW226100   6.117   6.441   3.684
 8401SOL     OW26101   2.921   3.750   4.958
 8401SOL    HW126102   2.944   3.659   4.992
 8401SOL    HW226103   2.988   3.779   4.890
 8402SOL     OW26104   4.947   0.946   5.526
 8402SOL    HW126105   4.884   0.886   5.478
 8402SOL    HW226106   5.040   0.931   5.491
 8403SOL     OW26107   0.914   2.449   6.062
 8403SOL    HW126108   0.881   2.540   6.086
 8403SOL    HW226109   0.905   2.388   6.141
 8404SOL     OW26110   4.645   5.174   5.692
 8404SOL    HW126111   4.721   5.238   5.706
 8404SOL    HW226112   4.607   5.146   5.780
 8405SOL     OW26113   1.322   2.838   5.645
 8405SOL    HW126114   1.365   2.844   5.735
 8405SOL    HW226115   1.229   2.803   5.654
 8406SOL     OW26116   5.753   3.437   1.619
 8406SOL    HW126117   5.776   3.534   1.624
 8406SOL    HW226118   5.657   3.427   1.594
 8407SOL     OW26119   4.921   3.693   2.647
 8407SOL    HW126120   4.889   3.760   2.580
 8407SOL    HW226121   4.875   3.710   2.735
 8408SOL     OW26122   4.791   4.184   4.020
 8408SOL    HW126123   4.815   4.087   4.025
 8408SOL    HW226124   4.722   4.205   4.090
 8409SOL     OW26125   1.823   1.947   4.086
 8409SOL    HW126126   1.736   1.950   4.036
 8409SOL    HW226127   1.877   2.028   4.065
 8410SOL     OW26128   2.250   5.410   2.432
 8410SOL    HW126129   2.265   5.411   2.531
 8410SOL    HW226130   2.297   5.331   2.392
 8411SOL     OW26131   1.652   3.128   3.253
 8411SOL    HW126132   1.671   3.191   3.328
 8411SOL    HW226133   1.562   3.086   3.267
 8412SOL     OW26134   6.067   2.629   2.111
 8412SOL    HW126135   6.024   2.719   2.117
 8412SOL    HW226136   6.054   2.592   2.018
 8413SOL     OW26137   2.067   5.281   1.245
 8413SOL    HW126138   2.137   5.313   1.181
 8413SOL    HW226139   2.024   5.199   1.208
 8414SOL     OW26140   5.472   0.455   3.885
 8414SOL    HW126141   5.556   0.488   3.843
 8414SOL    HW226142   5.493   0.408   3.971
 8415SOL     OW26143   0.242   4.952   0.927
 8415SOL    HW126144   0.224   5.048   0.950
 8415SOL    HW226145   0.339   4.932   0.939
 8416SOL     OW26146   4.704   4.639   2.920
 8416SOL    HW126147   4.622   4.639   2.978
 8416SOL    HW226148   4.785   4.638   2.978
 8417SOL     OW26149   1.054   5.326   0.183
 8417SOL    HW126150   1.008   5.382   0.251
 8417SOL    HW226151   1.102   5.385   0.118
 8418SOL     OW26152   5.480   5.450   2.539
 8418SOL    HW126153   5.477   5.549   2.522
 8418SOL    HW226154   5.509   5.403   2.456
 8419SOL     OW26155   3.899   0.848   3.593
 8419SOL    HW126156   3.893   0.940   3.631
 8419SOL    HW226157   3.878   0.781   3.664
 8420SOL     OW26158   4.565   1.914   5.310
 8420SOL    HW126159   4.559   1.986   5.378
 8420SOL    HW226160   4.656   1.873   5.312
 8421SOL     OW26161   0.775   1.293   0.664
 8421SOL    HW126162   0.779   1.368   0.597
 8421SOL    HW226163   0.853   1.301   0.726
 8422SOL     OW26164   2.478   0.411   1.865
 8422SOL    HW126165   2.516   0.325   1.898
 8422SOL    HW226166   2.383   0.396   1.838
 8423SOL     OW26167   2.266   4.579   0.816
 8423SOL    HW126168   2.341   4.520   0.784
 8423SOL    HW226169   2.197   4.524   0.863
 8424SOL     OW26170   3.083   2.631   1.766
 8424SOL    HW126171   3.028   2.553   1.796
 8424SOL    HW226172   3.180   2.608   1.772
 8425SOL     OW26173   0.588   4.342   6.021
 8425SOL    HW126174   0.657   4.278   5.990
 8425SOL    HW226175   0.540   4.304   6.101
 8426SOL     OW26176   3.555   3.322   2.538
 8426SOL    HW126177   3.571   3.419   2.519
 8426SOL    HW226178   3.569   3.269   2.454
 8427SOL     OW26179   2.476   1.794   6.984
 8427SOL    HW126180   2.566   1.794   6.941
 8427SOL    HW226181   2.471   1.869   0.028
 8428SOL     OW26182   6.425   3.983   0.496
 8428SOL    HW126183   6.408   4.014   0.589
 8428SOL    HW226184   6.518   3.948   0.489
 8429SOL     OW26185   1.337   6.839   2.909
 8429SOL    HW126186   1.272   6.860   2.836
 8429SOL    HW226187   1.360   6.923   2.959
 8430SOL     OW26188   4.038   5.620   2.720
 8430SOL    HW126189   4.091   5.691   2.766
 8430SOL    HW226190   4.100   5.560   2.669
 8431SOL     OW26191   2.902   3.550   2.451
 8431SOL    HW126192   2.860   3.460   2.467
 8431SOL    HW226193   2.876   3.612   2.524
 8432SOL     OW26194   4.880   6.351   6.908
 8432SOL    HW126195   4.813   6.373   6.837
 8432SOL    HW226196   4.852   6.392   6.995
 8433SOL     OW26197   6.746   1.006   3.983
 8433SOL    HW126198   6.747   1.101   3.954
 8433SOL    HW226199   6.657   0.985   4.023
 8434SOL     OW26200   5.643   6.995   6.495
 8434SOL    HW126201   5.668   6.912   6.544
 8434SOL    HW226202   5.700   7.005   6.414
 8435SOL     OW26203   4.643   2.831   1.111
 8435SOL    HW126204   4.568   2.767   1.129
 8435SOL    HW226205   4.723   2.805   1.165
 8436SOL     OW26206   3.040   4.273   1.666
 8436SOL    HW126207   3.027   4.345   1.735
 8436SOL    HW226208   3.009   4.306   1.577
 8437SOL     OW26209   6.970   2.598   1.349
 8437SOL    HW126210   7.007   2.526   1.408
 8437SOL    HW226211   6.872   2.585   1.338
 8438SOL     OW26212   2.191   5.711   1.107
 8438SOL    HW126213   2.258   5.738   1.176
 8438SOL    HW226214   2.121   5.654   1.150
 8439SOL     OW26215   5.539   0.276   1.785
 8439SOL    HW126216   5.529   0.282   1.686
 8439SOL    HW226217   5.452   0.298   1.829
 8440SOL     OW26218   1.306   3.233   4.173
 8440SOL    HW126219   1.352   3.320   4.190
 8440SOL    HW226220   1.250   3.210   4.252
 8441SOL     OW26221   4.262   5.943   1.073
 8441SOL    HW126222   4.330   6.011   1.099
 8441SOL    HW226223   4.175   5.964   1.118
 8442SOL     OW26224   2.357   2.306   0.960
 8442SOL    HW126225   2.282   2.371   0.954
 8442SOL    HW226226   2.321   2.214   0.974
 8443SOL     OW26227   0.100   2.065   1.389
 8443SOL    HW126228   0.177   2.004   1.373
 8443SOL    HW226229   0.089   2.126   1.310
 8444SOL     OW26230   5.141   1.848   3.303
 8444SOL    HW126231   5.217   1.784   3.287
 8444SOL    HW226232   5.143   1.919   3.232
 8445SOL     OW26233   4.951   5.606   2.104
 8445SOL    HW126234   4.917   5.657   2.183
 8445SOL    HW226235   5.019   5.661   2.055
 8446SOL     OW26236   6.499   3.683   2.973
 8446SOL    HW126237   6.554   3.735   2.908
 8446SOL    HW226238   6.556   3.655   3.050
 8447SOL     OW26239   4.814   4.367   1.470
 8447SOL    HW126240   4.850   4.450   1.511
 8447SOL    HW226241   4.795   4.300   1.542
 8448SOL     OW26242   1.997   4.203   5.605
 8448SOL    HW126243   2.030   4.195   5.699
 8448SOL    HW226244   1.988   4.112   5.565
 8449SOL     OW26245   1.068   0.457   5.259
 8449SOL    HW126246   1.071   0.375   5.202
 8449SOL    HW226247   1.039   0.433   5.351
 8450SOL     OW26248   1.821   5.316   0.730
 8450SOL    HW126249   1.844   5.220   0.741
 8450SOL    HW226250   1.760   5.345   0.805
 8451SOL     OW26251   2.996   4.150   0.701
 8451SOL    HW126252   3.021   4.063   0.743
 8451SOL    HW226253   3.069   4.178   0.638
 8452SOL     OW26254   0.190   5.968   1.848
 8452SOL    HW126255   0.092   5.949   1.846
 8452SOL    HW226256   0.235   5.904   1.910
 8453SOL     OW26257   6.934   4.871   5.134
 8453SOL    HW126258   7.006   4.812   5.171
 8453SOL    HW226259   6.920   4.850   5.037
 8454SOL     OW26260   2.088   0.129   4.840
 8454SOL    HW126261   2.175   0.109   4.885
 8454SOL    HW226262   2.104   0.145   4.743
 8455SOL     OW26263   6.443   3.145   0.657
 8455SOL    HW126264   6.536   3.110   0.651
 8455SOL    HW226265   6.432   3.195   0.743
 8456SOL     OW26266   5.543   5.249   3.655
 8456SOL    HW126267   5.580   5.175   3.600
 8456SOL    HW226268   5.564   5.233   3.751
 8457SOL     OW26269   6.118   6.137   6.117
 8457SOL    HW126270   6.116   6.197   6.037
 8457SOL    HW226271   6.162   6.186   6.193
 8458SOL     OW26272   1.415   1.907   0.996
 8458SOL    HW126273   1.388   1.881   1.089
 8458SOL    HW226274   1.498   1.857   0.970
 8459SOL     OW26275   2.580   5.115   3.287
 8459SOL    HW126276   2.633   5.032   3.269
 8459SOL    HW226277   2.642   5.193   3.298
 8460SOL     OW26278   3.562   1.424   1.735
 8460SOL    HW126279   3.643   1.453   1.684
 8460SOL    HW226280   3.590   1.367   1.812
 8461SOL     OW26281   5.271   4.143   3.347
 8461SOL    HW126282   5.302   4.146   3.252
 8461SOL    HW226283   5.348   4.168   3.407
 8462SOL     OW26284   1.806   3.648   0.708
 8462SOL    HW126285   1.883   3.651   0.772
 8462SOL    HW226286   1.763   3.557   0.711
 8463SOL     OW26287   0.315   6.865   1.318
 8463SOL    HW126288   0.336   6.833   1.410
 8463SOL    HW226289   0.397   6.855   1.260
 8464SOL     OW26290   0.230   3.072   6.396
 8464SOL    HW126291   0.206   3.065   6.299
 8464SOL    HW226292   0.154   3.113   6.446
 8465SOL     OW26293   5.346   4.781   1.019
 8465SOL    HW126294   5.257   4.827   1.015
 8465SOL    HW226295   5.369   4.746   0.928
 8466SOL     OW26296   0.308   1.418   5.143
 8466SOL    HW126297   0.276   1.404   5.049
 8466SOL    HW226298   0.404   1.446   5.142
 8467SOL     OW26299   3.231   1.236   0.455
 8467SOL    HW126300   3.168   1.302   0.414
 8467SOL    HW226301   3.260   1.270   0.545
 8468SOL     OW26302   5.786   4.131   0.518
 8468SOL    HW126303   5.709   4.068   0.509
 8468SOL    HW226304   5.864   4.084   0.558
 8469SOL     OW26305   3.733   2.845   5.161
 8469SOL    HW126306   3.782   2.897   5.091
 8469SOL    HW226307   3.640   2.828   5.130
 8470SOL     OW26308   1.768   5.452   1.320
 8470SOL    HW126309   1.740   5.381   1.254
 8470SOL    HW226310   1.803   5.408   1.402
 8471SOL     OW26311   4.182   1.331   3.652
 8471SOL    HW126312   4.088   1.312   3.624
 8471SOL    HW226313   4.245   1.289   3.587
 8472SOL     OW26314   5.631   1.863   6.572
 8472SOL    HW126315   5.583   1.948   6.550
 8472SOL    HW226316   5.566   1.796   6.607
 8473SOL     OW26317   5.002   4.756   5.799
 8473SOL    HW126318   4.917   4.790   5.838
 8473SOL    HW226319   4.988   4.734   5.702
 8474SOL     OW26320   3.487   3.318   5.756
 8474SOL    HW126321   3.451   3.306   5.849
 8474SOL    HW226322   3.583   3.346   5.762
 8475SOL     OW26323   0.767   2.342   2.731
 8475SOL    HW126324   0.830   2.401   2.783
 8475SOL    HW226325   0.799   2.247   2.737
 8476SOL     OW26326   6.452   0.884   2.475
 8476SOL    HW126327   6.538   0.908   2.430
 8476SOL    HW226328   6.376   0.930   2.430
 8477SOL     OW26329   5.447   0.063   1.217
 8477SOL    HW126330   5.538   0.092   1.187
 8477SOL    HW226331   5.394   0.032   1.138
 8478SOL     OW26332   1.429   6.958   6.632
 8478SOL    HW126333   1.428   6.897   6.553
 8478SOL    HW226334   1.341   6.955   6.679
 8479SOL     OW26335   1.032   2.806   0.196
 8479SOL    HW126336   1.052   2.711   0.218
 8479SOL    HW226337   0.981   2.811   0.110
 8480SOL     OW26338   2.999   4.318   1.392
 8480SOL    HW126339   3.075   4.321   1.327
 8480SOL    HW226340   2.933   4.249   1.364
 8481SOL     OW26341   4.875   3.407   2.636
 8481SOL    HW126342   4.862   3.506   2.629
 8481SOL    HW226343   4.966   3.384   2.601
 8482SOL     OW26344   4.938   0.414   5.932
 8482SOL    HW126345   4.948   0.493   5.994
 8482SOL    HW226346   4.841   0.397   5.915
 8483SOL     OW26347   4.201   5.034   3.063
 8483SOL    HW126348   4.286   4.992   3.096
 8483SOL    HW226349   4.125   5.003   3.120
 8484SOL     OW26350   6.672   6.783   5.146
 8484SOL    HW126351   6.673   6.780   5.046
 8484SOL    HW226352   6.635   6.697   5.181
 8485SOL     OW26353   4.060   0.548   5.835
 8485SOL    HW126354   3.972   0.593   5.854
 8485SOL    HW226355   4.057   0.454   5.868
 8486SOL     OW26356   4.669   2.381   4.081
 8486SOL    HW126357   4.612   2.374   4.163
 8486SOL    HW226358   4.615   2.354   4.001
 8487SOL     OW26359   6.864   2.074   6.415
 8487SOL    HW126360   6.848   1.979   6.442
 8487SOL    HW226361   6.803   2.098   6.340
 8488SOL     OW26362   4.078   4.870   2.853
 8488SOL    HW126363   4.044   4.849   2.762
 8488SOL    HW226364   4.145   4.945   2.847
 8489SOL     OW26365   6.562   1.997   2.196
 8489SOL    HW126366   6.626   2.016   2.122
 8489SOL    HW226367   6.522   2.083   2.228
 8490SOL     OW26368   3.410   6.623   0.485
 8490SOL    HW126369   3.485   6.582   0.536
 8490SOL    HW226370   3.349   6.552   0.452
 8491SOL     OW26371   3.398   5.849   2.460
 8491SOL    HW126372   3.307   5.816   2.437
 8491SOL    HW226373   3.463   5.821   2.389
 8492SOL     OW26374   5.612   6.413   4.075
 8492SOL    HW126375   5.667   6.476   4.021
 8492SOL    HW226376   5.671   6.358   4.134
 8493SOL     OW26377   5.292   0.569   5.290
 8493SOL    HW126378   5.320   0.584   5.195
 8493SOL    HW226379   5.303   0.472   5.312
 8494SOL     OW26380   0.258   3.304   2.342
 8494SOL    HW126381   0.330   3.245   2.306
 8494SOL    HW226382   0.169   3.263   2.324
 8495SOL     OW26383   5.406   6.111   5.445
 8495SOL    HW126384   5.425   6.195   5.396
 8495SOL    HW226385   5.483   6.089   5.506
 8496SOL     OW26386   4.227   1.842   2.739
 8496SOL    HW126387   4.246   1.750   2.774
 8496SOL    HW226388   4.309   1.898   2.749
 8497SOL     OW26389   6.117   0.702   3.021
 8497SOL    HW126390   6.137   0.664   2.930
 8497SOL    HW226391   6.199   0.698   3.077
 8498SOL     OW26392   4.672   6.360   3.965
 8498SOL    HW126393   4.716   6.421   4.030
 8498SOL    HW226394   4.741   6.301   3.923
 8499SOL     OW26395   6.146   6.944   5.297
 8499SOL    HW126396   6.236   6.908   5.275
 8499SOL    HW226397   6.077   6.904   5.237
 8500SOL     OW26398   1.224   0.399   6.440
 8500SOL    HW126399   1.322   0.400   6.464
 8500SOL    HW226400   1.203   0.481   6.386
 8501SOL     OW26401   3.628   1.044   5.339
 8501SOL    HW126402   3.668   0.991   5.265
 8501SOL    HW226403   3.531   1.023   5.347
 8502SOL     OW26404   6.823   2.899   0.054
 8502SOL    HW126405   6.750   2.922   0.119
 8502SOL    HW226406   6.884   2.977   0.044
 8503SOL     OW26407   4.637   1.931   5.614
 8503SOL    HW126408   4.539   1.935   5.634
 8503SOL    HW226409   4.686   1.992   5.676
 8504SOL     OW26410   1.154   0.327   3.377
 8504SOL    HW126411   1.066   0.292   3.410
 8504SOL    HW226412   1.157   0.426   3.390
 8505SOL     OW26413   5.821   2.287   2.223
 8505SOL    HW126414   5.763   2.352   2.173
 8505SOL    HW226415   5.873   2.336   2.293
 8506SOL     OW26416   1.907   0.662   5.141
 8506SOL    HW126417   1.855   0.685   5.224
 8506SOL    HW226418   1.928   0.564   5.141
 8507SOL     OW26419   4.364   4.742   6.095
 8507SOL    HW126420   4.434   4.780   6.035
 8507SOL    HW226421   4.350   4.802   6.173
 8508SOL     OW26422   3.741   0.388   6.655
 8508SOL    HW126423   3.814   0.445   6.618
 8508SOL    HW226424   3.675   0.367   6.582
 8509SOL     OW26425   4.525   2.097   2.528
 8509SOL    HW126426   4.592   2.155   2.482
 8509SOL    HW226427   4.435   2.140   2.524
 8510SOL     OW26428   1.017   1.977   4.917
 8510SOL    HW126429   1.052   1.895   4.962
 8510SOL    HW226430   0.938   2.012   4.968
 8511SOL     OW26431   5.520   2.104   4.199
 8511SOL    HW126432   5.426   2.072   4.207
 8511SOL    HW226433   5.520   2.200   4.170
 8512SOL     OW26434   1.931   6.517   5.800
 8512SOL    HW126435   1.888   6.588   5.856
 8512SOL    HW226436   1.860   6.468   5.750
 8513SOL     OW26437   4.449   5.150   6.860
 8513SOL    HW126438   4.356   5.186   6.853
 8513SOL    HW226439   4.477   5.147   6.957
 8514SOL     OW26440   3.731   6.050   4.887
 8514SOL    HW126441   3.749   5.966   4.836
 8514SOL    HW226442   3.768   6.128   4.837
 8515SOL     OW26443   5.341   3.050   1.399
 8515SOL    HW126444   5.382   3.118   1.460
 8515SOL    HW226445   5.414   3.001   1.351
 8516SOL     OW26446   6.942   1.421   1.337
 8516SOL    HW126447   0.019   1.414   1.324
 8516SOL    HW226448   6.923   1.464   1.425
 8517SOL     OW26449   1.301   3.967   4.262
 8517SOL    HW126450   1.275   4.056   4.299
 8517SOL    HW226451   1.218   3.917   4.235
 8518SOL     OW26452   3.181   5.972   1.051
 8518SOL    HW126453   3.181   6.072   1.054
 8518SOL    HW226454   3.226   5.936   1.132
 8519SOL     OW26455   2.743   5.566   3.407
 8519SOL    HW126456   2.748   5.573   3.506
 8519SOL    HW226457   2.777   5.476   3.378
 8520SOL     OW26458   3.770   6.048   6.499
 8520SOL    HW126459   3.746   5.990   6.577
 8520SOL    HW226460   3.846   6.007   6.449
 8521SOL     OW26461   1.319   0.841   2.421
 8521SOL    HW126462   1.395   0.905   2.431
 8521SOL    HW226463   1.293   0.806   2.510
 8522SOL     OW26464   1.974   6.325   4.406
 8522SOL    HW126465   1.897   6.382   4.378
 8522SOL    HW226466   2.059   6.370   4.381
 8523SOL     OW26467   1.769   6.017   7.013
 8523SOL    HW126468   1.829   6.097   7.009
 8523SOL    HW226469   1.719   6.008   6.927
 8524SOL     OW26470   1.712   1.338   0.132
 8524SOL    HW126471   1.708   1.238   0.137
 8524SOL    HW226472   1.786   1.366   0.071
 8525SOL     OW26473   5.526   4.406   4.072
 8525SOL    HW126474   5.612   4.395   4.120
 8525SOL    HW226475   5.529   4.491   4.018
 8526SOL     OW26476   0.939   3.692   2.151
 8526SOL    HW126477   0.912   3.634   2.075
 8526SOL    HW226478   0.858   3.722   2.202
 8527SOL     OW26479   4.748   0.514   4.627
 8527SOL    HW126480   4.712   0.517   4.720
 8527SOL    HW226481   4.673   0.505   4.562
 8528SOL     OW26482   5.381   0.669   0.577
 8528SOL    HW126483   5.288   0.687   0.610
 8528SOL    HW226484   5.376   0.608   0.498
 8529SOL     OW26485   6.951   6.995   4.753
 8529SOL    HW126486   6.942   6.999   4.852
 8529SOL    HW226487   6.905   0.051   4.712
 8530SOL     OW26488   2.005   4.340   6.306
 8530SOL    HW126489   2.097   4.361   6.339
 8530SOL    HW226490   1.998   4.365   6.210
 8531SOL     OW26491   3.893   5.531   2.167
 8531SOL    HW126492   3.810   5.497   2.210
 8531SOL    HW226493   3.877   5.545   2.069
 8532SOL     OW26494   1.487   4.171   6.915
 8532SOL    HW126495   1.519   4.110   6.987
 8532SOL    HW226496   1.446   4.118   6.841
 8533SOL     OW26497   3.041   6.620   5.602
 8533SOL    HW126498   3.062   6.675   5.683
 8533SOL    HW226499   3.039   6.678   5.521
 8534SOL     OW26500   2.277   2.059   0.688
 8534SOL    HW126501   2.367   2.064   0.731
 8534SOL    HW226502   2.229   1.977   0.720
 8535SOL     OW26503   0.368   3.336   6.077
 8535SOL    HW126504   0.418   3.362   5.994
 8535SOL    HW226505   0.288   3.395   6.088
 8536SOL     OW26506   6.369   0.398   5.926
 8536SOL    HW126507   6.445   0.354   5.879
 8536SOL    HW226508   6.295   0.417   5.861
 8537SOL     OW26509   3.938   6.349   3.062
 8537SOL    HW126510   3.887   6.346   3.148
 8537SOL    HW226511   3.883   6.309   2.989
 8538SOL     OW26512   4.499   0.569   5.322
 8538SOL    HW126513   4.570   0.540   5.258
 8538SOL    HW226514   4.410   0.565   5.276
 8539SOL     OW26515   0.502   3.158   3.607
 8539SOL    HW126516   0.476   3.151   3.703
 8539SOL    HW226517   0.550   3.244   3.591
 8540SOL     OW26518   4.837   6.232   6.195
 8540SOL    HW126519   4.786   6.154   6.159
 8540SOL    HW226520   4.899   6.268   6.125
 8541SOL     OW26521   2.881   6.088   5.637
 8541SOL    HW126522   2.837   6.020   5.695
 8541SOL    HW226523   2.977   6.063   5.623
 8542SOL     OW26524   2.006   4.566   6.049
 8542SOL    HW126525   2.025   4.607   6.138
 8542SOL    HW226526   2.062   4.612   5.979
 8543SOL     OW26527   3.521   1.847   5.710
 8543SOL    HW126528   3.467   1.802   5.639
 8543SOL    HW226529   3.487   1.940   5.725
 8544SOL     OW26530   5.423   3.429   5.351
 8544SOL    HW126531   5.398   3.349   5.405
 8544SOL    HW226532   5.436   3.402   5.256
 8545SOL     OW26533   2.175   0.492   5.907
 8545SOL    HW126534   2.219   0.532   5.987
 8545SOL    HW226535   2.155   0.564   5.840
 8546SOL     OW26536   2.986   1.228   3.472
 8546SOL    HW126537   2.904   1.279   3.444
 8546SOL    HW226538   3.062   1.252   3.411
 8547SOL     OW26539   5.565   5.761   5.738
 8547SOL    HW126540   5.622   5.683   5.709
 8547SOL    HW226541   5.510   5.792   5.660
 8548SOL     OW26542   1.389   4.285   3.807
 8548SOL    HW126543   1.352   4.193   3.818
 8548SOL    HW226544   1.469   4.282   3.747
 8549SOL     OW26545   3.238   0.685   3.594
 8549SOL    HW126546   3.227   0.609   3.530
 8549SOL    HW226547   3.232   0.772   3.544
 8550SOL     OW26548   0.550   3.652   5.048
 8550SOL    HW126549   0.568   3.658   4.950
 8550SOL    HW226550   0.576   3.737   5.093
 8551SOL     OW26551   3.826   1.661   3.763
 8551SOL    HW126552   3.804   1.564   3.773
 8551SOL    HW226553   3.772   1.714   3.829
 8552SOL     OW26554   4.152   1.662   2.036
 8552SOL    HW126555   4.052   1.672   2.044
 8552SOL    HW226556   4.174   1.618   1.949
 8553SOL     OW26557   5.244   3.827   0.211
 8553SOL    HW126558   5.327   3.780   0.242
 8553SOL    HW226559   5.224   3.801   0.117
 8554SOL     OW26560   1.035   1.530   6.672
 8554SOL    HW126561   1.104   1.602   6.685
 8554SOL    HW226562   0.979   1.551   6.592
 8555SOL     OW26563   3.535   1.579   3.633
 8555SOL    HW126564   3.584   1.647   3.688
 8555SOL    HW226565   3.571   1.488   3.652
 8556SOL     OW26566   0.290   4.339   5.276
 8556SOL    HW126567   0.226   4.410   5.245
 8556SOL    HW226568   0.252   4.292   5.356
 8557SOL     OW26569   6.386   0.953   0.752
 8557SOL    HW126570   6.321   0.999   0.692
 8557SOL    HW226571   6.343   0.872   0.792
 8558SOL     OW26572   2.730   6.381   3.375
 8558SOL    HW126573   2.751   6.406   3.469
 8558SOL    HW226574   2.811   6.340   3.332
 8559SOL     OW26575   0.966   3.146   3.429
 8559SOL    HW126576   0.994   3.116   3.521
 8559SOL    HW226577   0.997   3.240   3.415
 8560SOL     OW26578   3.350   4.189   1.384
 8560SOL    HW126579   3.343   4.093   1.357
 8560SOL    HW226580   3.332   4.198   1.482
 8561SOL     OW26581   4.222   0.959   2.215
 8561SOL    HW126582   4.264   0.977   2.304
 8561SOL    HW226583   4.289   0.912   2.157
 8562SOL     OW26584   5.260   2.650   6.764
 8562SOL    HW126585   5.229   2.721   6.827
 8562SOL    HW226586   5.358   2.659   6.748
 8563SOL     OW26587   0.902   4.597   2.749
 8563SOL    HW126588   0.918   4.681   2.801
 8563SOL    HW226589   0.989   4.554   2.726
 8564SOL     OW26590   4.179   6.102   0.086
 8564SOL    HW126591   4.102   6.086   0.024
 8564SOL    HW226592   4.250   6.034   0.071
 8565SOL     OW26593   1.550   4.952   1.593
 8565SOL    HW126594   1.506   5.016   1.530
 8565SOL    HW226595   1.481   4.910   1.652
 8566SOL     OW26596   2.781   1.383   3.389
 8566SOL    HW126597   2.793   1.469   3.338
 8566SOL    HW226598   2.686   1.354   3.384
 8567SOL     OW26599   1.729   3.069   0.975
 8567SOL    HW126600   1.679   3.107   0.898
 8567SOL    HW226601   1.811   3.022   0.942
 8568SOL     OW26602   5.575   6.397   5.674
 8568SOL    HW126603   5.669   6.430   5.666
 8568SOL    HW226604   5.521   6.433   5.598
 8569SOL     OW26605   5.024   1.363   6.373
 8569SOL    HW126606   4.952   1.432   6.370
 8569SOL    HW226607   5.011   1.300   6.296
 8570SOL     OW26608   1.913   2.186   3.977
 8570SOL    HW126609   1.865   2.162   3.893
 8570SOL    HW226610   1.999   2.233   3.954
 8571SOL     OW26611   1.070   1.206   3.716
 8571SOL    HW126612   1.009   1.127   3.711
 8571SOL    HW226613   1.159   1.177   3.749
 8572SOL     OW26614   2.820   3.596   5.695
 8572SOL    HW126615   2.753   3.559   5.630
 8572SOL    HW226616   2.889   3.649   5.646
 8573SOL     OW26617   1.742   5.944   6.361
 8573SOL    HW126618   1.752   5.857   6.409
 8573SOL    HW226619   1.735   5.927   6.263
 8574SOL     OW26620   5.784   1.957   5.461
 8574SOL    HW126621   5.825   1.926   5.546
 8574SOL    HW226622   5.851   2.011   5.410
 8575SOL     OW26623   2.664   6.318   4.448
 8575SOL    HW126624   2.686   6.415   4.435
 8575SOL    HW226625   2.606   6.308   4.529
 8576SOL     OW26626   1.496   3.816   4.932
 8576SOL    HW126627   1.410   3.854   4.965
 8576SOL    HW226628   1.529   3.871   4.855
 8577SOL     OW26629   1.618   0.933   0.557
 8577SOL    HW126630   1.682   1.009   0.548
 8577SOL    HW226631   1.650   0.870   0.627
 8578SOL     OW26632   1.294   0.164   5.851
 8578SOL    HW126633   1.291   0.206   5.761
 8578SOL    HW226634   1.271   0.067   5.844
 8579SOL     OW26635   3.610   6.648   1.943
 8579SOL    HW126636   3.633   6.741   1.973
 8579SOL    HW226637   3.512   6.643   1.922
 8580SOL     OW26638   1.676   0.786   1.862
 8580SOL    HW126639   1.642   0.707   1.913
 8580SOL    HW226640   1.690   0.863   1.925
 8581SOL     OW26641   3.903   3.522   3.298
 8581SOL    HW126642   3.947   3.559   3.215
 8581SOL    HW226643   3.973   3.506   3.368
 8582SOL     OW26644   4.462   5.489   5.705
 8582SOL    HW126645   4.366   5.511   5.689
 8582SOL    HW226646   4.511   5.486   5.618
 8583SOL     OW26647   3.540   0.060   2.936
 8583SOL    HW126648   3.622   0.117   2.936
 8583SOL    HW226649   3.528   0.018   3.026
 8584SOL     OW26650   5.781   2.351   5.273
 8584SOL    HW126651   5.739   2.426   5.324
 8584SOL    HW226652   5.718   2.321   5.201
 8585SOL     OW26653   4.869   2.255   2.771
 8585SOL    HW126654   4.775   2.224   2.784
 8585SOL    HW226655   4.872   2.329   2.705
 8586SOL     OW26656   6.903   6.503   5.366
 8586SOL    HW126657   6.873   6.596   5.388
 8586SOL    HW226658   7.002   6.497   5.375
 8587SOL     OW26659   6.648   0.740   0.910
 8587SOL    HW126660   6.738   0.774   0.883
 8587SOL    HW226661   6.604   0.808   0.970
 8588SOL     OW26662   1.184   1.183   5.649
 8588SOL    HW126663   1.179   1.283   5.649
 8588SOL    HW226664   1.147   1.147   5.563
 8589SOL     OW26665   5.781   3.144   6.590
 8589SOL    HW126666   5.731   3.071   6.636
 8589SOL    HW226667   5.719   3.191   6.527
 8590SOL     OW26668   1.027   0.788   3.178
 8590SOL    HW126669   0.941   0.807   3.224
 8590SOL    HW226670   1.083   0.871   3.178
 8591SOL     OW26671   1.125   4.135   5.419
 8591SOL    HW126672   1.138   4.183   5.506
 8591SOL    HW226673   1.147   4.038   5.431
 8592SOL     OW26674   0.343   2.587   5.150
 8592SOL    HW126675   0.335   2.544   5.060
 8592SOL    HW226676   0.400   2.669   5.142
 8593SOL     OW26677   6.440   1.202   0.218
 8593SOL    HW126678   6.535   1.218   0.189
 8593SOL    HW226679   6.402   1.126   0.165
 8594SOL     OW26680   5.921   4.001   6.441
 8594SOL    HW126681   5.890   4.032   6.531
 8594SOL    HW226682   5.847   4.012   6.375
 8595SOL     OW26683   5.582   6.451   2.562
 8595SOL    HW126684   5.545   6.536   2.524
 8595SOL    HW226685   5.612   6.467   2.656
 8596SOL     OW26686   0.310   2.255   5.878
 8596SOL    HW126687   0.274   2.168   5.844
 8596SOL    HW226688   0.342   2.243   5.972
 8597SOL     OW26689   6.108   2.392   5.683
 8597SOL    HW126690   6.069   2.304   5.656
 8597SOL    HW226691   6.104   2.455   5.606
 8598SOL     OW26692   7.013   0.779   6.063
 8598SOL    HW126693   0.022   0.776   5.968
 8598SOL    HW226694   6.977   0.870   6.084
 8599SOL     OW26695   5.498   4.134   4.945
 8599SOL    HW126696   5.452   4.096   4.865
 8599SOL    HW226697   5.494   4.234   4.941
 8600SOL     OW26698   4.143   3.024   1.665
 8600SOL    HW126699   4.228   3.077   1.663
 8600SOL    HW226700   4.153   2.943   1.608
 8601SOL     OW26701   4.575   5.462   2.191
 8601SOL    HW126702   4.640   5.414   2.131
 8601SOL    HW226703   4.612   5.553   2.213
 8602SOL     OW26704   2.106   6.147   4.895
 8602SOL    HW126705   2.024   6.175   4.944
 8602SOL    HW226706   2.091   6.153   4.796
 8603SOL     OW26707   0.913   1.374   6.871
 8603SOL    HW126708   0.937   1.437   6.798
 8603SOL    HW226709   0.993   1.320   6.898
 8604SOL     OW26710   1.555   5.458   6.361
 8604SOL    HW126711   1.469   5.428   6.404
 8604SOL    HW226712   1.567   5.556   6.375
 8605SOL     OW26713   6.669   4.685   4.064
 8605SOL    HW126714   6.643   4.590   4.082
 8605SOL    HW226715   6.595   4.745   4.094
 8606SOL     OW26716   1.165   0.140   6.370
 8606SOL    HW126717   1.258   0.108   6.349
 8606SOL    HW226718   1.170   0.231   6.411
 8607SOL     OW26719   2.782   3.134   1.540
 8607SOL    HW126720   2.820   3.049   1.505
 8607SOL    HW226721   2.801   3.208   1.475
 8608SOL     OW26722   2.263   5.784   1.657
 8608SOL    HW126723   2.317   5.863   1.628
 8608SOL    HW226724   2.311   5.700   1.634
 8609SOL     OW26725   5.049   2.190   4.638
 8609SOL    HW126726   4.964   2.243   4.643
 8609SOL    HW226727   5.061   2.155   4.545
 8610SOL     OW26728   6.733   5.435   2.414
 8610SOL    HW126729   6.725   5.507   2.344
 8610SOL    HW226730   6.663   5.365   2.398
 8611SOL     OW26731   1.818   1.539   5.459
 8611SOL    HW126732   1.813   1.611   5.527
 8611SOL    HW226733   1.911   1.535   5.421
 8612SOL     OW26734   3.341   3.239   5.534
 8612SOL    HW126735   3.288   3.317   5.502
 8612SOL    HW226736   3.394   3.265   5.614
 8613SOL     OW26737   2.924   3.263   3.173
 8613SOL    HW126738   2.998   3.197   3.164
 8613SOL    HW226739   2.932   3.332   3.101
 8614SOL     OW26740   0.589   2.519   3.991
 8614SOL    HW126741   0.648   2.438   3.998
 8614SOL    HW226742   0.559   2.545   4.083
 8615SOL     OW26743   3.785   0.788   5.620
 8615SOL    HW126744   3.729   0.773   5.539
 8615SOL    HW226745   3.882   0.781   5.596
 8616SOL     OW26746   6.120   4.080   5.301
 8616SOL    HW126747   6.022   4.093   5.315
 8616SOL    HW226748   6.169   4.102   5.385
 8617SOL     OW26749   0.875   0.027   3.217
 8617SOL    HW126750   0.929   0.029   3.133
 8617SOL    HW226751   0.788   0.075   3.202
 8618SOL     OW26752   6.293   4.870   0.810
 8618SOL    HW126753   6.350   4.802   0.764
 8618SOL    HW226754   6.276   4.947   0.749
 8619SOL     OW26755   5.345   5.716   6.319
 8619SOL    HW126756   5.330   5.655   6.241
 8619SOL    HW226757   5.263   5.773   6.333
 8620SOL     OW26758   1.528   6.800   4.102
 8620SOL    HW126759   1.520   6.860   4.182
 8620SOL    HW226760   1.438   6.762   4.081
 8621SOL     OW26761   6.587   3.357   1.386
 8621SOL    HW126762   6.511   3.408   1.347
 8621SOL    HW226763   6.552   3.287   1.449
 8622SOL     OW26764   1.171   5.443   1.607
 8622SOL    HW126765   1.136   5.537   1.602
 8622SOL    HW226766   1.180   5.406   1.514
 8623SOL     OW26767   2.201   2.018   3.200
 8623SOL    HW126768   2.106   2.036   3.225
 8623SOL    HW226769   2.220   1.920   3.208
 8624SOL     OW26770   3.500   3.683   5.497
 8624SOL    HW126771   3.419   3.693   5.440
 8624SOL    HW226772   3.474   3.683   5.593
 8625SOL     OW26773   4.427   3.318   6.176
 8625SOL    HW126774   4.520   3.354   6.168
 8625SOL    HW226775   4.374   3.345   6.095
 8626SOL     OW26776   5.310   2.149   1.164
 8626SOL    HW126777   5.227   2.154   1.220
 8626SOL    HW226778   5.327   2.054   1.139
 8627SOL     OW26779   0.290   6.882   2.684
 8627SOL    HW126780   0.263   6.822   2.608
 8627SOL    HW226781   0.220   6.953   2.697
 8628SOL     OW26782   1.415   6.865   0.709
 8628SOL    HW126783   1.428   6.949   0.762
 8628SOL    HW226784   1.417   6.786   0.771
 8629SOL     OW26785   0.108   0.574   4.421
 8629SOL    HW126786   0.075   0.512   4.349
 8629SOL    HW226787   0.156   0.521   4.490
 8630SOL     OW26788   4.959   3.211   1.367
 8630SOL    HW126789   4.900   3.249   1.296
 8630SOL    HW226790   4.939   3.114   1.378
 8631SOL     OW26791   1.594   6.144   6.758
 8631SOL    HW126792   1.672   6.125   6.699
 8631SOL    HW226793   1.550   6.229   6.729
 8632SOL     OW26794   6.199   6.060   4.103
 8632SOL    HW126795   6.162   6.083   4.193
 8632SOL    HW226796   6.240   6.142   4.062
 8633SOL     OW26797   6.772   3.299   5.204
 8633SOL    HW126798   6.703   3.263   5.266
 8633SOL    HW226799   6.781   3.398   5.217
 8634SOL     OW26800   5.082   4.700   6.317
 8634SOL    HW126801   5.042   4.684   6.408
 8634SOL    HW226802   5.010   4.726   6.253
 8635SOL     OW26803   5.264   1.836   5.683
 8635SOL    HW126804   5.312   1.767   5.628
 8635SOL    HW226805   5.304   1.840   5.774
 8636SOL     OW26806   3.857   5.888   0.812
 8636SOL    HW126807   3.953   5.890   0.838
 8636SOL    HW226808   3.843   5.947   0.732
 8637SOL     OW26809   2.807   2.347   0.843
 8637SOL    HW126810   2.758   2.329   0.928
 8637SOL    HW226811   2.872   2.273   0.826
 8638SOL     OW26812   5.333   2.634   4.772
 8638SOL    HW126813   5.321   2.663   4.867
 8638SOL    HW226814   5.336   2.534   4.768
 8639SOL     OW26815   3.499   4.157   0.310
 8639SOL    HW126816   3.545   4.204   0.386
 8639SOL    HW226817   3.539   4.066   0.299
 8640SOL     OW26818   3.250   2.137   6.857
 8640SOL    HW126819   3.206   2.094   6.935
 8640SOL    HW226820   3.183   2.190   6.806
 8641SOL     OW26821   3.397   5.090   3.451
 8641SOL    HW126822   3.397   5.014   3.386
 8641SOL    HW226823   3.484   5.139   3.445
 8642SOL     OW26824   2.407   6.203   3.151
 8642SOL    HW126825   2.415   6.119   3.205
 8642SOL    HW226826   2.421   6.283   3.210
 8643SOL     OW26827   3.823   6.267   1.194
 8643SOL    HW126828   3.884   6.332   1.149
 8643SOL    HW226829   3.777   6.211   1.125
 8644SOL     OW26830   5.580   2.509   6.233
 8644SOL    HW126831   5.620   2.442   6.295
 8644SOL    HW226832   5.630   2.596   6.241
 8645SOL     OW26833   4.825   5.207   2.814
 8645SOL    HW126834   4.846   5.292   2.863
 8645SOL    HW226835   4.908   5.153   2.804
 8646SOL     OW26836   0.007   1.853   4.567
 8646SOL    HW126837   6.931   1.861   4.586
 8646SOL    HW226838   0.027   1.896   4.479
 8647SOL     OW26839   1.995   4.711   1.838
 8647SOL    HW126840   1.951   4.655   1.907
 8647SOL    HW226841   2.067   4.766   1.880
 8648SOL     OW26842   5.450   5.324   6.209
 8648SOL    HW126843   5.437   5.325   6.110
 8648SOL    HW226844   5.534   5.374   6.232
 8649SOL     OW26845   5.450   2.193   1.970
 8649SOL    HW126846   5.380   2.257   1.938
 8649SOL    HW226847   5.434   2.103   1.928
 8650SOL     OW26848   1.379   0.722   4.976
 8650SOL    HW126849   1.352   0.791   4.909
 8650SOL    HW226850   1.434   0.764   5.048
 8651SOL     OW26851   4.505   2.156   1.931
 8651SOL    HW126852   4.542   2.185   2.020
 8651SOL    HW226853   4.407   2.140   1.939
 8652SOL     OW26854   6.501   2.633   4.338
 8652SOL    HW126855   6.457   2.544   4.344
 8652SOL    HW226856   6.501   2.664   4.243
 8653SOL     OW26857   5.545   0.620   0.848
 8653SOL    HW126858   5.551   0.699   0.908
 8653SOL    HW226859   5.525   0.650   0.755
 8654SOL     OW26860   0.130   4.544   2.612
 8654SOL    HW126861   0.113   4.467   2.551
 8654SOL    HW226862   0.218   4.532   2.658
 8655SOL     OW26863   1.174   6.887   4.878
 8655SOL    HW126864   1.121   6.966   4.847
 8655SOL    HW226865   1.271   6.901   4.854
 8656SOL     OW26866   4.131   5.842   0.855
 8656SOL    HW126867   4.163   5.871   0.946
 8656SOL    HW226868   4.210   5.812   0.801
 8657SOL     OW26869   3.340   1.984   2.630
 8657SOL    HW126870   3.429   2.022   2.607
 8657SOL    HW226871   3.306   1.930   2.553
 8658SOL     OW26872   6.416   4.055   0.761
 8658SOL    HW126873   6.420   4.031   0.858
 8658SOL    HW226874   6.420   4.154   0.751
 8659SOL     OW26875   3.373   0.368   3.180
 8659SOL    HW126876   3.328   0.446   3.225
 8659SOL    HW226877   3.472   0.376   3.192
 8660SOL     OW26878   0.047   3.976   1.552
 8660SOL    HW126879   0.072   4.044   1.483
 8660SOL    HW226880   0.080   4.006   1.642
 8661SOL     OW26881   6.110   3.333   2.246
 8661SOL    HW126882   6.053   3.301   2.170
 8661SOL    HW226883   6.203   3.349   2.214
 8662SOL     OW26884   1.832   2.424   2.991
 8662SOL    HW126885   1.931   2.424   3.004
 8662SOL    HW226886   1.810   2.474   2.907
 8663SOL     OW26887   3.243   4.882   2.749
 8663SOL    HW126888   3.198   4.924   2.669
 8663SOL    HW226889   3.174   4.855   2.815
 8664SOL     OW26890   3.287   5.897   4.133
 8664SOL    HW126891   3.281   5.947   4.046
 8664SOL    HW226892   3.244   5.807   4.123
 8665SOL     OW26893   0.220   3.702   6.365
 8665SOL    HW126894   0.254   3.627   6.422
 8665SOL    HW226895   0.261   3.788   6.394
 8666SOL     OW26896   4.770   0.255   2.746
 8666SOL    HW126897   4.839   0.242   2.818
 8666SOL    HW226898   4.722   0.169   2.730
 8667SOL     OW26899   5.260   2.450   2.004
 8667SOL    HW126900   5.181   2.492   2.048
 8667SOL    HW226901   5.229   2.382   1.937
 8668SOL     OW26902   3.812   2.160   3.423
 8668SOL    HW126903   3.786   2.254   3.404
 8668SOL    HW226904   3.735   2.099   3.406
 8669SOL     OW26905   0.493   6.088   5.851
 8669SOL    HW126906   0.536   5.998   5.839
 8669SOL    HW226907   0.407   6.077   5.901
 8670SOL     OW26908   0.455   5.538   5.036
 8670SOL    HW126909   0.509   5.577   4.962
 8670SOL    HW226910   0.424   5.612   5.096
 8671SOL     OW26911   0.099   3.384   4.065
 8671SOL    HW126912   0.098   3.475   4.023
 8671SOL    HW226913   0.097   3.314   3.994
 8672SOL     OW26914   6.339   1.219   2.704
 8672SOL    HW126915   6.391   1.241   2.621
 8672SOL    HW226916   6.400   1.176   2.771
 8673SOL     OW26917   0.627   1.348   1.286
 8673SOL    HW126918   0.558   1.285   1.321
 8673SOL    HW226919   0.685   1.378   1.362
 8674SOL     OW26920   0.047   3.602   3.896
 8674SOL    HW126921   0.023   3.695   3.925
 8674SOL    HW226922   0.143   3.599   3.871
 8675SOL     OW26923   4.960   2.678   5.052
 8675SOL    HW126924   4.918   2.589   5.064
 8675SOL    HW226925   4.889   2.748   5.046
 8676SOL     OW26926   4.542   2.550   0.687
 8676SOL    HW126927   4.512   2.639   0.722
 8676SOL    HW226928   4.638   2.536   0.709
 8677SOL     OW26929   3.283   0.732   6.927
 8677SOL    HW126930   3.320   0.781   7.006
 8677SOL    HW226931   3.215   0.665   6.957
 8678SOL     OW26932   3.122   1.648   0.168
 8678SOL    HW126933   3.055   1.680   0.235
 8678SOL    HW226934   3.133   1.718   0.097
 8679SOL     OW26935   1.760   2.301   6.905
 8679SOL    HW126936   1.847   2.260   6.878
 8679SOL    HW226937   1.765   2.400   6.891
 8680SOL     OW26938   0.019   0.247   1.247
 8680SOL    HW126939   7.006   0.281   1.159
 8680SOL    HW226940   6.965   0.206   1.298
 8681SOL     OW26941   5.515   5.555   0.853
 8681SOL    HW126942   5.454   5.532   0.777
 8681SOL    HW226943   5.499   5.650   0.880
 8682SOL     OW26944   1.816   1.386   2.686
 8682SOL    HW126945   1.826   1.379   2.786
 8682SOL    HW226946   1.751   1.459   2.664
 8683SOL     OW26947   2.541   4.518   3.973
 8683SOL    HW126948   2.609   4.590   3.981
 8683SOL    HW226949   2.450   4.558   3.970
 8684SOL     OW26950   2.282   4.206   3.462
 8684SOL    HW126951   2.332   4.282   3.421
 8684SOL    HW226952   2.347   4.138   3.496
 8685SOL     OW26953   5.065   3.183   5.434
 8685SOL    HW126954   5.097   3.233   5.515
 8685SOL    HW226955   5.131   3.195   5.360
 8686SOL     OW26956   1.462   4.734   2.744
 8686SOL    HW126957   1.476   4.828   2.712
 8686SOL    HW226958   1.517   4.672   2.689
 8687SOL     OW26959   5.894   4.343   5.534
 8687SOL    HW126960   5.881   4.257   5.484
 8687SOL    HW226961   5.881   4.328   5.632
 8688SOL     OW26962   0.582   3.973   5.115
 8688SOL    HW126963   0.513   3.999   5.183
 8688SOL    HW226964   0.663   3.938   5.162
 8689SOL     OW26965   4.959   3.393   1.026
 8689SOL    HW126966   4.994   3.383   0.933
 8689SOL    HW226967   4.965   3.489   1.054
 8690SOL     OW26968   1.840   2.226   2.758
 8690SOL    HW126969   1.907   2.169   2.711
 8690SOL    HW226970   1.877   2.254   2.847
 8691SOL     OW26971   3.288   1.093   6.922
 8691SOL    HW126972   3.357   1.026   6.895
 8691SOL    HW226973   3.319   1.143   7.003
 8692SOL     OW26974   5.147   2.074   4.422
 8692SOL    HW126975   5.245   2.057   4.407
 8692SOL    HW226976   5.108   2.115   4.340
 8693SOL     OW26977   0.691   0.219   5.641
 8693SOL    HW126978   0.631   0.180   5.711
 8693SOL    HW226979   0.686   0.319   5.644
 8694SOL     OW26980   4.295   4.046   5.482
 8694SOL    HW126981   4.386   4.022   5.449
 8694SOL    HW226982   4.276   3.995   5.566
 8695SOL     OW26983   4.117   4.613   1.214
 8695SOL    HW126984   4.076   4.574   1.297
 8695SOL    HW226985   4.105   4.712   1.214
 8696SOL     OW26986   2.879   5.932   6.738
 8696SOL    HW126987   2.858   5.895   6.647
 8696SOL    HW226988   2.947   6.005   6.729
 8697SOL     OW26989   1.558   3.371   4.734
 8697SOL    HW126990   1.555   3.333   4.642
 8697SOL    HW226991   1.542   3.298   4.801
 8698SOL     OW26992   5.842   4.103   6.681
 8698SOL    HW126993   5.805   4.193   6.705
 8698SOL    HW226994   5.848   4.047   6.764
 8699SOL     OW26995   2.859   2.528   1.448
 8699SOL    HW126996   2.924   2.553   1.376
 8699SOL    HW226997   2.771   2.504   1.407
 8700SOL     OW26998   0.080   1.677   4.302
 8700SOL    HW126999   0.070   1.578   4.293
 8700SOL    HW227000   0.000   1.715   4.349
 8701SOL     OW27001   2.360   2.936   6.876
 8701SOL    HW127002   2.333   3.019   6.827
 8701SOL    HW227003   2.348   2.950   6.975
 8702SOL     OW27004   5.309   3.903   1.004
 8702SOL    HW127005   5.218   3.885   1.042
 8702SOL    HW227006   5.349   3.981   1.051
 8703SOL     OW27007   2.237   5.118   2.083
 8703SOL    HW127008   2.209   5.213   2.089
 8703SOL    HW227009   2.157   5.060   2.069
 8704SOL     OW27010   6.053   0.904   3.805
 8704SOL    HW127011   6.033   0.989   3.854
 8704SOL    HW227012   6.031   0.915   3.708
 8705SOL     OW27013   3.789   2.131   0.136
 8705SOL    HW127014   3.736   2.183   0.203
 8705SOL    HW227015   3.873   2.097   0.178
 8706SOL     OW27016   4.791   3.122   5.508
 8706SOL    HW127017   4.770   3.033   5.467
 8706SOL    HW227018   4.859   3.169   5.452
 8707SOL     OW27019   0.803   1.046   4.047
 8707SOL    HW127020   0.734   1.030   4.118
 8707SOL    HW227021   0.874   1.106   4.083
 8708SOL     OW27022   5.935   2.563   0.844
 8708SOL    HW127023   5.891   2.508   0.915
 8708SOL    HW227024   5.871   2.576   0.768
 8709SOL     OW27025   6.535   6.355   4.114
 8709SOL    HW127026   6.599   6.315   4.180
 8709SOL    HW227027   6.585   6.415   4.052
 8710SOL     OW27028   2.096   2.866   3.997
 8710SOL    HW127029   2.053   2.905   3.915
 8710SOL    HW227030   2.086   2.929   4.074
 8711SOL     OW27031   1.005   1.785   2.057
 8711SOL    HW127032   0.996   1.837   1.972
 8711SOL    HW227033   0.914   1.768   2.095
 8712SOL     OW27034   1.278   3.625   3.975
 8712SOL    HW127035   1.288   3.530   3.947
 8712SOL    HW227036   1.222   3.673   3.907
 8713SOL     OW27037   0.060   4.607   3.426
 8713SOL    HW127038   6.999   4.662   3.432
 8713SOL    HW227039   0.136   4.663   3.392
 8714SOL     OW27040   0.297   4.411   6.451
 8714SOL    HW127041   0.245   4.491   6.420
 8714SOL    HW227042   0.343   4.434   6.537
 8715SOL     OW27043   2.350   5.068   1.428
 8715SOL    HW127044   2.351   5.053   1.329
 8715SOL    HW227045   2.443   5.088   1.459
 8716SOL     OW27046   5.677   0.350   2.672
 8716SOL    HW127047   5.616   0.429   2.669
 8716SOL    HW227048   5.724   0.341   2.584
 8717SOL     OW27049   3.484   2.369   6.847
 8717SOL    HW127050   3.391   2.336   6.861
 8717SOL    HW227051   3.548   2.292   6.853
 8718SOL     OW27052   2.672   5.365   5.873
 8718SOL    HW127053   2.720   5.421   5.941
 8718SOL    HW227054   2.731   5.290   5.844
 8719SOL     OW27055   2.997   2.192   4.433
 8719SOL    HW127056   3.080   2.227   4.476
 8719SOL    HW227057   2.918   2.210   4.492
 8720SOL     OW27058   0.469   6.558   4.858
 8720SOL    HW127059   0.451   6.628   4.927
 8720SOL    HW227060   0.462   6.599   4.767
 8721SOL     OW27061   1.227   0.645   1.396
 8721SOL    HW127062   1.242   0.668   1.492
 8721SOL    HW227063   1.287   0.701   1.339
 8722SOL     OW27064   4.175   1.538   0.325
 8722SOL    HW127065   4.156   1.455   0.273
 8722SOL    HW227066   4.274   1.548   0.338
 8723SOL     OW27067   4.017   6.534   2.748
 8723SOL    HW127068   4.000   6.438   2.727
 8723SOL    HW227069   3.932   6.586   2.736
 8724SOL     OW27070   3.705   0.122   5.136
 8724SOL    HW127071   3.751   0.068   5.065
 8724SOL    HW227072   3.651   0.194   5.092
 8725SOL     OW27073   6.365   0.837   2.724
 8725SOL    HW127074   6.439   0.810   2.785
 8725SOL    HW227075   6.403   0.859   2.633
 8726SOL     OW27076   6.825   1.457   0.479
 8726SOL    HW127077   6.760   1.386   0.505
 8726SOL    HW227078   6.866   1.496   0.562
 8727SOL     OW27079   5.045   5.607   6.406
 8727SOL    HW127080   5.003   5.519   6.383
 8727SOL    HW227081   5.145   5.597   6.408
 8728SOL     OW27082   5.802   6.559   4.351
 8728SOL    HW127083   5.795   6.584   4.448
 8728SOL    HW227084   5.712   6.567   4.308
 8729SOL     OW27085   5.833   6.144   5.762
 8729SOL    HW127086   5.830   6.044   5.771
 8729SOL    HW227087   5.865   6.184   5.848
 8730SOL     OW27088   4.092   4.689   1.938
 8730SOL    HW127089   4.124   4.606   1.892
 8730SOL    HW227090   4.154   4.710   2.015
 8731SOL     OW27091   0.045   1.988   4.288
 8731SOL    HW127092   0.043   1.911   4.224
 8731SOL    HW227093   6.975   2.000   4.328
 8732SOL     OW27094   5.066   6.269   5.371
 8732SOL    HW127095   5.083   6.187   5.425
 8732SOL    HW227096   4.984   6.257   5.316
 8733SOL     OW27097   5.599   4.649   1.913
 8733SOL    HW127098   5.639   4.688   1.996
 8733SOL    HW227099   5.667   4.646   1.840
 8734SOL     OW27100   1.008   5.577   1.292
 8734SOL    HW127101   0.910   5.593   1.290
 8734SOL    HW227102   1.041   5.553   1.200
 8735SOL     OW27103   1.367   2.546   6.464
 8735SOL    HW127104   1.452   2.495   6.461
 8735SOL    HW227105   1.360   2.603   6.382
 8736SOL     OW27106   1.446   6.071   4.037
 8736SOL    HW127107   1.347   6.061   4.033
 8736SOL    HW227108   1.472   6.120   4.120
 8737SOL     OW27109   0.403   5.207   6.931
 8737SOL    HW127110   0.432   5.134   6.869
 8737SOL    HW227111   0.335   5.171   6.995
 8738SOL     OW27112   2.581   2.470   2.412
 8738SOL    HW127113   2.507   2.537   2.402
 8738SOL    HW227114   2.557   2.405   2.484
 8739SOL     OW27115   4.313   4.611   3.457
 8739SOL    HW127116   4.281   4.659   3.375
 8739SOL    HW227117   4.352   4.522   3.430
 8740SOL     OW27118   2.594   1.132   3.723
 8740SOL    HW127119   2.644   1.055   3.684
 8740SOL    HW227120   2.611   1.137   3.822
 8741SOL     OW27121   2.298   2.356   2.887
 8741SOL    HW127122   2.290   2.436   2.827
 8741SOL    HW227123   2.391   2.351   2.923
 8742SOL     OW27124   1.343   3.621   1.514
 8742SOL    HW127125   1.395   3.663   1.439
 8742SOL    HW227126   1.386   3.535   1.540
 8743SOL     OW27127   1.576   3.374   0.150
 8743SOL    HW127128   1.518   3.333   0.080
 8743SOL    HW227129   1.545   3.342   0.240
 8744SOL     OW27130   2.554   4.166   5.932
 8744SOL    HW127131   2.587   4.099   5.866
 8744SOL    HW227132   2.454   4.162   5.937
 8745SOL     OW27133   5.501   1.666   6.693
 8745SOL    HW127134   5.465   1.581   6.731
 8745SOL    HW227135   5.492   1.739   6.760
 8746SOL     OW27136   4.880   4.621   4.606
 8746SOL    HW127137   4.891   4.597   4.702
 8746SOL    HW227138   4.808   4.565   4.565
 8747SOL     OW27139   0.471   7.015   1.651
 8747SOL    HW127140   0.548   6.999   1.713
 8747SOL    HW227141   0.493   0.069   1.591
 8748SOL     OW27142   6.048   1.217   4.580
 8748SOL    HW127143   6.081   1.311   4.586
 8748SOL    HW227144   6.068   1.169   4.665
 8749SOL     OW27145   2.975   1.739   3.604
 8749SOL    HW127146   3.003   1.766   3.696
 8749SOL    HW227147   2.896   1.678   3.608
 8750SOL     OW27148   3.903   3.296   1.841
 8750SOL    HW127149   3.915   3.392   1.815
 8750SOL    HW227150   3.863   3.290   1.932
 8751SOL     OW27151   2.217   6.923   0.161
 8751SOL    HW127152   2.271   6.954   0.239
 8751SOL    HW227153   2.262   6.845   0.118
 8752SOL     OW27154   0.502   3.307   6.711
 8752SOL    HW127155   0.506   3.406   6.701
 8752SOL    HW227156   0.559   3.279   6.789
 8753SOL     OW27157   2.187   1.694   1.027
 8753SOL    HW127158   2.247   1.652   1.095
 8753SOL    HW227159   2.108   1.736   1.072
 8754SOL     OW27160   1.674   5.923   6.074
 8754SOL    HW127161   1.575   5.930   6.087
 8754SOL    HW227162   1.700   5.826   6.070
 8755SOL     OW27163   0.563   2.166   1.657
 8755SOL    HW127164   0.487   2.174   1.721
 8755SOL    HW227165   0.530   2.126   1.571
 8756SOL     OW27166   1.726   1.617   2.542
 8756SOL    HW127167   1.639   1.603   2.495
 8756SOL    HW227168   1.720   1.697   2.601
 8757SOL     OW27169   5.235   5.766   4.503
 8757SOL    HW127170   5.171   5.776   4.580
 8757SOL    HW227171   5.253   5.856   4.463
 8758SOL     OW27172   3.608   5.244   6.485
 8758SOL    HW127173   3.690   5.264   6.431
 8758SOL    HW227174   3.579   5.150   6.469
 8759SOL     OW27175   6.801   1.424   1.647
 8759SOL    HW127176   6.811   1.343   1.705
 8759SOL    HW227177   6.705   1.452   1.646
 8760SOL     OW27178   1.502   2.910   4.547
 8760SOL    HW127179   1.471   3.005   4.542
 8760SOL    HW227180   1.587   2.904   4.598
 8761SOL     OW27181   5.085   2.738   3.354
 8761SOL    HW127182   4.994   2.722   3.392
 8761SOL    HW227183   5.096   2.687   3.268
 8762SOL     OW27184   4.081   6.148   2.485
 8762SOL    HW127185   4.005   6.190   2.436
 8762SOL    HW227186   4.069   6.161   2.583
 8763SOL     OW27187   0.005   1.801   5.541
 8763SOL    HW127188   0.023   1.776   5.636
 8763SOL    HW227189   7.010   1.718   5.488
 8764SOL     OW27190   3.040   5.441   6.111
 8764SOL    HW127191   3.049   5.476   6.204
 8764SOL    HW227192   3.037   5.341   6.113
 8765SOL     OW27193   4.170   6.970   3.455
 8765SOL    HW127194   4.241   6.947   3.388
 8765SOL    HW227195   4.204   6.952   3.547
 8766SOL     OW27196   6.253   0.011   4.565
 8766SOL    HW127197   6.214   6.998   4.650
 8766SOL    HW227198   6.301   0.097   4.583
 8767SOL     OW27199   1.858   1.177   4.182
 8767SOL    HW127200   1.893   1.239   4.252
 8767SOL    HW227201   1.934   1.128   4.140
 8768SOL     OW27202   6.922   1.890   1.288
 8768SOL    HW127203   6.959   1.967   1.340
 8768SOL    HW227204   6.858   1.839   1.346
 8769SOL     OW27205   6.520   6.971   6.555
 8769SOL    HW127206   6.606   0.001   6.561
 8769SOL    HW227207   6.454   7.007   6.621
 8770SOL     OW27208   4.874   1.599   0.900
 8770SOL    HW127209   4.885   1.693   0.933
 8770SOL    HW227210   4.963   1.553   0.903
 8771SOL     OW27211   0.794   3.041   6.367
 8771SOL    HW127212   0.767   3.019   6.274
 8771SOL    HW227213   0.781   3.139   6.384
 8772SOL     OW27214   0.982   6.573   3.244
 8772SOL    HW127215   1.003   6.505   3.314
 8772SOL    HW227216   0.991   6.664   3.282
 8773SOL     OW27217   6.554   1.293   4.197
 8773SOL    HW127218   6.480   1.359   4.183
 8773SOL    HW227219   6.605   1.281   4.113
 8774SOL     OW27220   1.431   2.520   6.981
 8774SOL    HW127221   1.465   2.613   6.979
 8774SOL    HW227222   1.464   2.473   0.041
 8775SOL     OW27223   5.339   2.223   2.508
 8775SOL    HW127224   5.278   2.241   2.431
 8775SOL    HW227225   5.316   2.136   2.550
 8776SOL     OW27226   5.333   3.448   1.550
 8776SOL    HW127227   5.264   3.377   1.566
 8776SOL    HW227228   5.409   3.409   1.498
 8777SOL     OW27229   6.430   2.308   3.931
 8777SOL    HW127230   6.415   2.210   3.937
 8777SOL    HW227231   6.487   2.328   3.851
 8778SOL     OW27232   1.482   4.101   6.524
 8778SOL    HW127233   1.517   4.104   6.431
 8778SOL    HW227234   1.559   4.089   6.588
 8779SOL     OW27235   4.081   6.228   2.749
 8779SOL    HW127236   4.025   6.216   2.831
 8779SOL    HW227237   4.145   6.152   2.739
 8780SOL     OW27238   0.884   3.581   4.259
 8780SOL    HW127239   0.939   3.568   4.342
 8780SOL    HW227240   0.879   3.495   4.209
 8781SOL     OW27241   3.889   1.693   2.075
 8781SOL    HW127242   3.840   1.780   2.066
 8781SOL    HW227243   3.844   1.624   2.017
 8782SOL     OW27244   6.532   2.717   0.321
 8782SOL    HW127245   6.579   2.669   0.247
 8782SOL    HW227246   6.542   2.816   0.308
 8783SOL     OW27247   4.079   4.156   5.749
 8783SOL    HW127248   4.038   4.155   5.840
 8783SOL    HW227249   4.007   4.164   5.680
 8784SOL     OW27250   4.478   1.375   5.771
 8784SOL    HW127251   4.521   1.332   5.692
 8784SOL    HW227252   4.379   1.380   5.758
 8785SOL     OW27253   0.196   5.970   6.471
 8785SOL    HW127254   0.177   5.873   6.484
 8785SOL    HW227255   0.112   6.023   6.485
 8786SOL     OW27256   5.757   2.235   3.115
 8786SOL    HW127257   5.717   2.258   3.204
 8786SOL    HW227258   5.815   2.311   3.085
 8787SOL     OW27259   3.462   4.885   2.507
 8787SOL    HW127260   3.525   4.873   2.583
 8787SOL    HW227261   3.370   4.859   2.536
 8788SOL     OW27262   0.517   6.538   3.607
 8788SOL    HW127263   0.542   6.541   3.704
 8788SOL    HW227264   0.420   6.559   3.597
 8789SOL     OW27265   2.029   3.254   0.198
 8789SOL    HW127266   1.984   3.164   0.198
 8789SOL    HW227267   1.960   3.326   0.191
 8790SOL     OW27268   5.223   3.174   5.208
 8790SOL    HW127269   5.213   3.228   5.125
 8790SOL    HW227270   5.214   3.077   5.186
 8791SOL     OW27271   4.181   6.411   4.913
 8791SOL    HW127272   4.221   6.349   4.845
 8791SOL    HW227273   4.244   6.424   4.989
 8792SOL     OW27274   5.708   4.767   0.682
 8792SOL    HW127275   5.808   4.769   0.675
 8792SOL    HW227276   5.669   4.834   0.619
 8793SOL     OW27277   6.489   0.077   6.007
 8793SOL    HW127278   6.483   0.006   6.076
 8793SOL    HW227279   6.577   0.125   6.016
 8794SOL     OW27280   0.079   2.796   3.594
 8794SOL    HW127281   0.152   2.732   3.569
 8794SOL    HW227282   7.012   2.752   3.580
 8795SOL     OW27283   1.182   0.543   6.719
 8795SOL    HW127284   1.259   0.593   6.760
 8795SOL    HW227285   1.211   0.450   6.697
 8796SOL     OW27286   5.370   4.936   4.375
 8796SOL    HW127287   5.390   4.856   4.319
 8796SOL    HW227288   5.435   4.940   4.452
 8797SOL     OW27289   5.978   5.993   5.068
 8797SOL    HW127290   6.049   5.928   5.094
 8797SOL    HW227291   5.888   5.950   5.077
 8798SOL     OW27292   1.927   5.617   6.677
 8798SOL    HW127293   1.959   5.529   6.643
 8798SOL    HW227294   1.844   5.603   6.732
 8799SOL     OW27295   1.731   6.142   1.823
 8799SOL    HW127296   1.783   6.227   1.818
 8799SOL    HW227297   1.719   6.104   1.731
 8800SOL     OW27298   6.720   6.244   4.290
 8800SOL    HW127299   6.679   6.154   4.270
 8800SOL    HW227300   6.809   6.231   4.333
 8801SOL     OW27301   4.703   3.221   5.758
 8801SOL    HW127302   4.606   3.209   5.782
 8801SOL    HW227303   4.721   3.178   5.670
 8802SOL     OW27304   1.202   6.659   6.799
 8802SOL    HW127305   1.239   6.746   6.832
 8802SOL    HW227306   1.203   6.658   6.699
 8803SOL     OW27307   4.874   4.861   5.301
 8803SOL    HW127308   4.802   4.884   5.366
 8803SOL    HW227309   4.942   4.935   5.299
 8804SOL     OW27310   2.185   6.288   1.625
 8804SOL    HW127311   2.127   6.368   1.641
 8804SOL    HW227312   2.194   6.236   1.710
 8805SOL     OW27313   4.492   5.038   1.592
 8805SOL    HW127314   4.488   5.042   1.692
 8805SOL    HW227315   4.473   5.128   1.555
 8806SOL     OW27316   1.674   1.502   1.953
 8806SOL    HW127317   1.631   1.565   2.018
 8806SOL    HW227318   1.613   1.488   1.875
 8807SOL     OW27319   6.112   2.055   2.034
 8807SOL    HW127320   6.039   1.988   2.020
 8807SOL    HW227321   6.200   2.009   2.034
 8808SOL     OW27322   1.578   1.632   0.618
 8808SOL    HW127323   1.516   1.561   0.584
 8808SOL    HW227324   1.658   1.589   0.659
 8809SOL     OW27325   0.903   3.299   3.121
 8809SOL    HW127326   0.938   3.209   3.149
 8809SOL    HW227327   0.980   3.360   3.101
 8810SOL     OW27328   6.212   2.379   4.098
 8810SOL    HW127329   6.148   2.302   4.103
 8810SOL    HW227330   6.277   2.363   4.024
 8811SOL     OW27331   3.907   5.345   2.464
 8811SOL    HW127332   3.895   5.328   2.366
 8811SOL    HW227333   3.845   5.287   2.516
 8812SOL     OW27334   5.670   0.587   0.363
 8812SOL    HW127335   5.692   0.657   0.431
 8812SOL    HW227336   5.613   0.626   0.291
 8813SOL     OW27337   1.650   2.890   1.964
 8813SOL    HW127338   1.564   2.938   1.948
 8813SOL    HW227339   1.632   2.804   2.012
 8814SOL     OW27340   5.755   6.715   5.012
 8814SOL    HW127341   5.735   6.781   4.939
 8814SOL    HW227342   5.706   6.630   4.994
 8815SOL     OW27343   5.191   0.637   1.011
 8815SOL    HW127344   5.257   0.697   0.966
 8815SOL    HW227345   5.205   0.543   0.981
 8816SOL     OW27346   0.013   0.841   3.113
 8816SOL    HW127347   6.994   0.780   3.045
 8816SOL    HW227348   0.087   0.793   3.161
 8817SOL     OW27349   0.945   2.365   4.239
 8817SOL    HW127350   1.034   2.387   4.280
 8817SOL    HW227351   0.892   2.449   4.229
 8818SOL     OW27352   1.262   5.873   6.568
 8818SOL    HW127353   1.338   5.938   6.573
 8818SOL    HW227354   1.185   5.908   6.621
 8819SOL     OW27355   5.136   6.089   5.978
 8819SOL    HW127356   5.216   6.071   5.921
 8819SOL    HW227357   5.153   6.054   6.071
 8820SOL     OW27358   3.600   6.642   5.591
 8820SOL    HW127359   3.686   6.607   5.555
 8820SOL    HW227360   3.523   6.596   5.546
 8821SOL     OW27361   1.186   5.652   5.503
 8821SOL    HW127362   1.118   5.660   5.431
 8821SOL    HW227363   1.235   5.738   5.512
 8822SOL     OW27364   6.706   0.407   4.946
 8822SOL    HW127365   6.612   0.418   4.978
 8822SOL    HW227366   6.740   0.494   4.911
 8823SOL     OW27367   4.306   2.103   3.309
 8823SOL    HW127368   4.339   2.023   3.260
 8823SOL    HW227369   4.254   2.075   3.389
 8824SOL     OW27370   1.682   0.429   4.226
 8824SOL    HW127371   1.582   0.438   4.219
 8824SOL    HW227372   1.714   0.360   4.161
 8825SOL     OW27373   1.565   6.942   0.456
 8825SOL    HW127374   1.509   6.907   0.531
 8825SOL    HW227375   1.623   7.017   0.490
 8826SOL     OW27376   0.483   3.926   0.404
 8826SOL    HW127377   0.386   3.952   0.396
 8826SOL    HW227378   0.524   3.977   0.480
 8827SOL     OW27379   5.066   5.876   3.801
 8827SOL    HW127380   4.994   5.815   3.767
 8827SOL    HW227381   5.050   5.894   3.898
 8828SOL     OW27382   5.351   2.533   5.594
 8828SOL    HW127383   5.388   2.454   5.545
 8828SOL    HW227384   5.312   2.597   5.528
 8829SOL     OW27385   6.557   1.094   2.840
 8829SOL    HW127386   6.551   0.994   2.833
 8829SOL    HW227387   6.570   1.119   2.936
 8830SOL     OW27388   2.945   0.819   2.679
 8830SOL    HW127389   3.009   0.794   2.752
 8830SOL    HW227390   2.995   0.827   2.592
 8831SOL     OW27391   0.675   2.645   2.856
 8831SOL    HW127392   0.729   2.585   2.916
 8831SOL    HW227393   0.586   2.603   2.839
 8832SOL     OW27394   6.050   0.010   4.364
 8832SOL    HW127395   6.128   0.016   4.427
 8832SOL    HW227396   5.994   6.952   4.389
 8833SOL     OW27397   4.530   3.081   1.073
 8833SOL    HW127398   4.552   2.987   1.099
 8833SOL    HW227399   4.545   3.093   0.975
 8834SOL     OW27400   6.195   4.446   5.883
 8834SOL    HW127401   6.118   4.504   5.855
 8834SOL    HW227402   6.168   4.350   5.877
 8835SOL     OW27403   6.498   1.466   5.379
 8835SOL    HW127404   6.441   1.460   5.297
 8835SOL    HW227405   6.486   1.555   5.422
 8836SOL     OW27406   4.405   1.669   1.078
 8836SOL    HW127407   4.380   1.664   0.982
 8836SOL    HW227408   4.388   1.762   1.113
 8837SOL     OW27409   5.532   4.986   6.977
 8837SOL    HW127410   5.560   5.080   6.955
 8837SOL    HW227411   5.433   4.983   6.987
 8838SOL     OW27412   1.846   3.549   2.555
 8838SOL    HW127413   1.932   3.505   2.531
 8838SOL    HW227414   1.781   3.538   2.480
 8839SOL     OW27415   4.568   4.436   1.362
 8839SOL    HW127416   4.509   4.395   1.432
 8839SOL    HW227417   4.660   4.448   1.400
 8840SOL     OW27418   0.137   0.544   1.639
 8840SOL    HW127419   0.111   0.634   1.605
 8840SOL    HW227420   0.211   0.507   1.583
 8841SOL     OW27421   4.571   2.055   0.366
 8841SOL    HW127422   4.546   1.988   0.436
 8841SOL    HW227423   4.625   2.128   0.408
 8842SOL     OW27424   3.266   3.024   3.586
 8842SOL    HW127425   3.294   3.080   3.663
 8842SOL    HW227426   3.341   2.964   3.559
 8843SOL     OW27427   2.433   6.068   5.165
 8843SOL    HW127428   2.442   6.049   5.262
 8843SOL    HW227429   2.513   6.035   5.116
 8844SOL     OW27430   4.081   2.824   5.357
 8844SOL    HW127431   4.066   2.745   5.297
 8844SOL    HW227432   4.060   2.799   5.451
 8845SOL     OW27433   0.247   3.751   2.504
 8845SOL    HW127434   0.247   3.741   2.604
 8845SOL    HW227435   0.234   3.661   2.462
 8846SOL     OW27436   5.676   5.439   4.602
 8846SOL    HW127437   5.579   5.452   4.624
 8846SOL    HW227438   5.692   5.461   4.506
 8847SOL     OW27439   1.087   2.535   3.981
 8847SOL    HW127440   1.104   2.585   3.895
 8847SOL    HW227441   0.994   2.554   4.012
 8848SOL     OW27442   5.840   2.366   1.039
 8848SOL    HW127443   5.747   2.332   1.026
 8848SOL    HW227444   5.870   2.347   1.133
 8849SOL     OW27445   3.499   5.199   4.500
 8849SOL    HW127446   3.526   5.255   4.422
 8849SOL    HW227447   3.427   5.245   4.551
 8850SOL     OW27448   3.846   2.255   1.219
 8850SOL    HW127449   3.915   2.300   1.276
 8850SOL    HW227450   3.783   2.324   1.182
 8851SOL     OW27451   6.987   5.628   3.081
 8851SOL    HW127452   0.044   5.568   3.072
 8851SOL    HW227453   6.959   5.660   2.990
 8852SOL     OW27454   5.352   3.644   4.598
 8852SOL    HW127455   5.423   3.690   4.651
 8852SOL    HW227456   5.368   3.659   4.501
 8853SOL     OW27457   4.782   1.955   4.274
 8853SOL    HW127458   4.798   2.032   4.336
 8853SOL    HW227459   4.731   1.883   4.323
 8854SOL     OW27460   3.344   0.335   5.959
 8854SOL    HW127461   3.409   0.335   5.883
 8854SOL    HW227462   3.345   0.247   6.006
 8855SOL     OW27463   6.326   4.728   6.348
 8855SOL    HW127464   6.311   4.787   6.427
 8855SOL    HW227465   6.323   4.632   6.376
 8856SOL     OW27466   5.179   1.625   5.468
 8856SOL    HW127467   5.278   1.637   5.472
 8856SOL    HW227468   5.158   1.527   5.460
 8857SOL     OW27469   2.131   3.774   4.492
 8857SOL    HW127470   2.092   3.865   4.508
 8857SOL    HW227471   2.107   3.714   4.568
 8858SOL     OW27472   0.545   3.564   5.554
 8858SOL    HW127473   0.480   3.527   5.620
 8858SOL    HW227474   0.634   3.579   5.598
 8859SOL     OW27475   2.403   6.625   5.468
 8859SOL    HW127476   2.449   6.637   5.556
 8859SOL    HW227477   2.307   6.603   5.483
 8860SOL     OW27478   2.047   1.644   1.743
 8860SOL    HW127479   2.104   1.650   1.660
 8860SOL    HW227480   2.103   1.668   1.823
 8861SOL     OW27481   2.102   1.879   0.303
 8861SOL    HW127482   2.154   1.800   0.334
 8861SOL    HW227483   2.068   1.862   0.210
 8862SOL     OW27484   0.132   2.753   4.182
 8862SOL    HW127485   0.146   2.705   4.095
 8862SOL    HW227486   0.046   2.722   4.223
 8863SOL     OW27487   2.104   5.783   5.340
 8863SOL    HW127488   2.076   5.764   5.434
 8863SOL    HW227489   2.199   5.757   5.327
 8864SOL     OW27490   1.863   4.585   5.767
 8864SOL    HW127491   1.807   4.559   5.846
 8864SOL    HW227492   1.959   4.585   5.793
 8865SOL     OW27493   2.641   1.784   5.759
 8865SOL    HW127494   2.554   1.778   5.710
 8865SOL    HW227495   2.632   1.850   5.834
 8866SOL     OW27496   4.952   0.265   5.659
 8866SOL    HW127497   4.876   0.231   5.714
 8866SOL    HW227498   4.964   0.363   5.676
 8867SOL     OW27499   5.862   0.659   3.485
 8867SOL    HW127500   5.943   0.656   3.543
 8867SOL    HW227501   5.866   0.586   3.417
 8868SOL     OW27502   5.660   3.226   0.551
 8868SOL    HW127503   5.670   3.219   0.650
 8868SOL    HW227504   5.705   3.310   0.519
 8869SOL     OW27505   2.978   1.947   3.212
 8869SOL    HW127506   3.025   1.865   3.246
 8869SOL    HW227507   3.044   2.021   3.200
 8870SOL     OW27508   4.863   0.188   1.795
 8870SOL    HW127509   4.898   0.141   1.877
 8870SOL    HW227510   4.918   0.162   1.716
 8871SOL     OW27511   1.185   2.358   4.370
 8871SOL    HW127512   1.281   2.334   4.387
 8871SOL    HW227513   1.130   2.336   4.451
 8872SOL     OW27514   1.074   1.592   2.503
 8872SOL    HW127515   1.157   1.639   2.532
 8872SOL    HW227516   1.063   1.509   2.558
 8873SOL     OW27517   0.130   5.611   5.131
 8873SOL    HW127518   0.109   5.516   5.155
 8873SOL    HW227519   0.087   5.634   5.044
 8874SOL     OW27520   1.314   1.372   6.332
 8874SOL    HW127521   1.271   1.317   6.261
 8874SOL    HW227522   1.258   1.369   6.415
 8875SOL     OW27523   1.269   1.123   3.871
 8875SOL    HW127524   1.335   1.049   3.886
 8875SOL    HW227525   1.297   1.204   3.923
 8876SOL     OW27526   2.422   1.156   4.839
 8876SOL    HW127527   2.490   1.193   4.903
 8876SOL    HW227528   2.375   1.231   4.793
 8877SOL     OW27529   3.454   6.858   4.472
 8877SOL    HW127530   3.432   6.803   4.553
 8877SOL    HW227531   3.369   6.887   4.428
 8878SOL     OW27532   6.128   4.849   5.170
 8878SOL    HW127533   6.118   4.924   5.234
 8878SOL    HW227534   6.181   4.879   5.091
 8879SOL     OW27535   5.159   5.466   4.748
 8879SOL    HW127536   5.259   5.465   4.742
 8879SOL    HW227537   5.120   5.481   4.658
 8880SOL     OW27538   1.082   6.857   5.134
 8880SOL    HW127539   1.154   6.867   5.202
 8880SOL    HW227540   1.123   6.846   5.043
 8881SOL     OW27541   0.212   2.154   2.588
 8881SOL    HW127542   0.305   2.190   2.587
 8881SOL    HW227543   0.193   2.107   2.501
 8882SOL     OW27544   5.667   2.786   0.478
 8882SOL    HW127545   5.741   2.813   0.417
 8882SOL    HW227546   5.671   2.841   0.562
 8883SOL     OW27547   5.652   1.490   5.719
 8883SOL    HW127548   5.731   1.540   5.752
 8883SOL    HW227549   5.681   1.403   5.680
 8884SOL     OW27550   0.210   1.216   6.378
 8884SOL    HW127551   0.163   1.258   6.456
 8884SOL    HW227552   0.309   1.224   6.392
 8885SOL     OW27553   5.774   3.674   1.152
 8885SOL    HW127554   5.848   3.733   1.118
 8885SOL    HW227555   5.750   3.700   1.245
 8886SOL     OW27556   2.855   5.558   5.967
 8886SOL    HW127557   2.831   5.651   5.995
 8886SOL    HW227558   2.938   5.529   6.014
 8887SOL     OW27559   1.578   1.263   0.790
 8887SOL    HW127560   1.548   1.195   0.857
 8887SOL    HW227561   1.524   1.254   0.707
 8888SOL     OW27562   2.551   2.514   2.829
 8888SOL    HW127563   2.583   2.419   2.822
 8888SOL    HW227564   2.476   2.528   2.764
 8889SOL     OW27565   3.497   1.327   4.748
 8889SOL    HW127566   3.453   1.405   4.793
 8889SOL    HW227567   3.428   1.268   4.707
 8890SOL     OW27568   6.344   4.821   3.352
 8890SOL    HW127569   6.273   4.751   3.343
 8890SOL    HW227570   6.348   4.852   3.447
 8891SOL     OW27571   3.821   1.329   6.446
 8891SOL    HW127572   3.887   1.303   6.375
 8891SOL    HW227573   3.739   1.366   6.403
 8892SOL     OW27574   1.057   0.105   2.993
 8892SOL    HW127575   1.060   0.180   3.059
 8892SOL    HW227576   1.150   0.070   2.977
 8893SOL     OW27577   0.275   1.344   0.488
 8893SOL    HW127578   0.253   1.311   0.397
 8893SOL    HW227579   0.327   1.274   0.538
 8894SOL     OW27580   4.614   2.137   5.825
 8894SOL    HW127581   4.591   2.154   5.920
 8894SOL    HW227582   4.713   2.126   5.816
 8895SOL     OW27583   1.271   1.125   2.959
 8895SOL    HW127584   1.268   1.185   3.039
 8895SOL    HW227585   1.199   1.151   2.895
 8896SOL     OW27586   1.417   4.234   5.313
 8896SOL    HW127587   1.362   4.184   5.380
 8896SOL    HW227588   1.511   4.199   5.316
 8897SOL     OW27589   1.038   2.340   2.306
 8897SOL    HW127590   0.979   2.417   2.328
 8897SOL    HW227591   0.993   2.255   2.334
 8898SOL     OW27592   6.963   2.728   5.208
 8898SOL    HW127593   6.969   2.756   5.112
 8898SOL    HW227594   6.895   2.785   5.255
 8899SOL     OW27595   3.443   5.647   1.798
 8899SOL    HW127596   3.513   5.576   1.786
 8899SOL    HW227597   3.354   5.612   1.769
 8900SOL     OW27598   6.754   1.903   3.609
 8900SOL    HW127599   6.824   1.846   3.651
 8900SOL    HW227600   6.697   1.944   3.680
 8901SOL     OW27601   2.035   0.039   1.955
 8901SOL    HW127602   1.994   0.128   1.933
 8901SOL    HW227603   2.103   0.015   1.886
 8902SOL     OW27604   3.883   6.614   5.488
 8902SOL    HW127605   3.893   6.568   5.576
 8902SOL    HW227606   3.873   6.547   5.416
 8903SOL     OW27607   6.591   1.181   3.108
 8903SOL    HW127608   6.505   1.222   3.140
 8903SOL    HW227609   6.635   1.244   3.044
 8904SOL     OW27610   1.216   4.000   3.879
 8904SOL    HW127611   1.143   4.045   3.931
 8904SOL    HW227612   1.195   3.903   3.871
 8905SOL     OW27613   1.828   4.139   4.869
 8905SOL    HW127614   1.875   4.085   4.799
 8905SOL    HW227615   1.824   4.088   4.955
 8906SOL     OW27616   2.631   5.352   4.849
 8906SOL    HW127617   2.701   5.395   4.907
 8906SOL    HW227618   2.547   5.340   4.902
 8907SOL     OW27619   3.503   2.247   6.370
 8907SOL    HW127620   3.542   2.209   6.287
 8907SOL    HW227621   3.500   2.347   6.364
 8908SOL     OW27622   0.624   3.370   3.088
 8908SOL    HW127623   0.582   3.344   3.175
 8908SOL    HW227624   0.721   3.346   3.090
 8909SOL     OW27625   3.656   6.920   5.634
 8909SOL    HW127626   3.631   6.823   5.627
 8909SOL    HW227627   3.587   6.967   5.690
 8910SOL     OW27628   4.310   2.919   0.032
 8910SOL    HW127629   4.290   3.017   0.041
 8910SOL    HW227630   4.261   2.883   6.975
 8911SOL     OW27631   5.220   2.634   3.908
 8911SOL    HW127632   5.231   2.647   3.809
 8911SOL    HW227633   5.126   2.656   3.934
 8912SOL     OW27634   4.523   1.096   6.874
 8912SOL    HW127635   4.576   1.012   6.862
 8912SOL    HW227636   4.428   1.079   6.845
 8913SOL     OW27637   4.268   4.221   0.631
 8913SOL    HW127638   4.339   4.198   0.565
 8913SOL    HW227639   4.306   4.218   0.724
 8914SOL     OW27640   4.910   2.428   3.732
 8914SOL    HW127641   4.931   2.369   3.810
 8914SOL    HW227642   4.994   2.467   3.697
 8915SOL     OW27643   0.704   5.261   2.309
 8915SOL    HW127644   0.722   5.288   2.404
 8915SOL    HW227645   0.771   5.302   2.249
 8916SOL     OW27646   5.985   3.077   1.894
 8916SOL    HW127647   6.053   3.048   1.961
 8916SOL    HW227648   5.969   3.175   1.903
 8917SOL     OW27649   5.139   4.281   5.581
 8917SOL    HW127650   5.203   4.236   5.644
 8917SOL    HW227651   5.190   4.317   5.503
 8918SOL     OW27652   5.009   3.849   6.039
 8918SOL    HW127653   4.995   3.931   5.983
 8918SOL    HW227654   4.932   3.787   6.024
 8919SOL     OW27655   1.881   3.473   1.802
 8919SOL    HW127656   1.848   3.502   1.712
 8919SOL    HW227657   1.880   3.373   1.807
 8920SOL     OW27658   6.291   5.622   6.028
 8920SOL    HW127659   6.194   5.608   6.050
 8920SOL    HW227660   6.300   5.645   5.931
 8921SOL     OW27661   1.037   5.802   3.865
 8921SOL    HW127662   1.056   5.775   3.771
 8921SOL    HW227663   1.105   5.762   3.926
 8922SOL     OW27664   0.545   3.147   6.967
 8922SOL    HW127665   0.564   3.241   6.995
 8922SOL    HW227666   0.630   3.095   6.963
 8923SOL     OW27667   2.380   5.039   4.298
 8923SOL    HW127668   2.443   5.056   4.221
 8923SOL    HW227669   2.364   4.941   4.307
 8924SOL     OW27670   2.246   6.694   4.464
 8924SOL    HW127671   2.252   6.639   4.548
 8924SOL    HW227672   2.219   6.787   4.487
 8925SOL     OW27673   4.308   5.342   0.852
 8925SOL    HW127674   4.292   5.350   0.753
 8925SOL    HW227675   4.235   5.388   0.902
 8926SOL     OW27676   5.825   0.024   6.793
 8926SOL    HW127677   5.769   6.998   6.861
 8926SOL    HW227678   5.826   6.992   6.709
 8927SOL     OW27679   2.891   1.960   4.818
 8927SOL    HW127680   2.983   1.925   4.835
 8927SOL    HW227681   2.892   2.060   4.822
 8928SOL     OW27682   1.017   0.548   5.539
 8928SOL    HW127683   1.093   0.510   5.592
 8928SOL    HW227684   0.947   0.479   5.527
 8929SOL     OW27685   5.016   4.498   2.847
 8929SOL    HW127686   5.107   4.493   2.887
 8929SOL    HW227687   5.011   4.436   2.768
 8930SOL     OW27688   0.356   5.384   5.409
 8930SOL    HW127689   0.433   5.322   5.426
 8930SOL    HW227690   0.386   5.459   5.350
 8931SOL     OW27691   4.452   0.964   1.716
 8931SOL    HW127692   4.371   1.021   1.712
 8931SOL    HW227693   4.525   1.012   1.764
 8932SOL     OW27694   4.893   0.585   0.294
 8932SOL    HW127695   4.888   0.676   0.253
 8932SOL    HW227696   4.815   0.531   0.265
 8933SOL     OW27697   1.422   6.645   5.230
 8933SOL    HW127698   1.486   6.606   5.163
 8933SOL    HW227699   1.330   6.613   5.211
 8934SOL     OW27700   3.693   6.897   4.097
 8934SOL    HW127701   3.769   6.960   4.116
 8934SOL    HW227702   3.728   6.803   4.096
 8935SOL     OW27703   5.770   2.012   2.571
 8935SOL    HW127704   5.842   2.038   2.637
 8935SOL    HW227705   5.716   2.093   2.547
 8936SOL     OW27706   1.510   4.096   1.958
 8936SOL    HW127707   1.595   4.101   2.010
 8936SOL    HW227708   1.483   4.000   1.948
 8937SOL     OW27709   3.122   6.818   4.964
 8937SOL    HW127710   3.082   6.909   4.956
 8937SOL    HW227711   3.143   6.799   5.060
 8938SOL     OW27712   5.090   6.593   1.927
 8938SOL    HW127713   5.150   6.515   1.948
 8938SOL    HW227714   5.126   6.676   1.969
 8939SOL     OW27715   6.834   2.823   4.162
 8939SOL    HW127716   6.884   2.823   4.076
 8939SOL    HW227717   6.736   2.830   4.144
 8940SOL     OW27718   6.236   3.331   2.523
 8940SOL    HW127719   6.185   3.267   2.466
 8940SOL    HW227720   6.171   3.385   2.578
 8941SOL     OW27721   5.603   2.289   3.331
 8941SOL    HW127722   5.592   2.192   3.353
 8941SOL    HW227723   5.520   2.338   3.356
 8942SOL     OW27724   4.965   5.747   4.033
 8942SOL    HW127725   5.050   5.698   4.017
 8942SOL    HW227726   4.887   5.686   4.014
 8943SOL     OW27727   4.024   3.678   0.545
 8943SOL    HW127728   4.047   3.592   0.591
 8943SOL    HW227729   4.050   3.755   0.602
 8944SOL     OW27730   4.549   5.994   4.959
 8944SOL    HW127731   4.621   6.063   4.964
 8944SOL    HW227732   4.461   6.035   4.983
 8945SOL     OW27733   6.475   5.020   1.747
 8945SOL    HW127734   6.412   5.096   1.730
 8945SOL    HW227735   6.422   4.939   1.773
 8946SOL     OW27736   2.989   1.920   4.330
 8946SOL    HW127737   3.006   2.003   4.383
 8946SOL    HW227738   2.967   1.844   4.392
 8947SOL     OW27739   2.737   5.209   0.481
 8947SOL    HW127740   2.671   5.235   0.552
 8947SOL    HW227741   2.689   5.162   0.407
 8948SOL     OW27742   5.477   0.555   2.603
 8948SOL    HW127743   5.397   0.503   2.633
 8948SOL    HW227744   5.448   0.623   2.535
 8949SOL     OW27745   4.176   6.575   0.606
 8949SOL    HW127746   4.217   6.631   0.535
 8949SOL    HW227747   4.077   6.590   0.609
 8950SOL     OW27748   3.309   4.142   3.972
 8950SOL    HW127749   3.379   4.097   3.917
 8950SOL    HW227750   3.350   4.183   4.053
 8951SOL     OW27751   0.730   0.628   3.911
 8951SOL    HW127752   0.642   0.613   3.956
 8951SOL    HW227753   0.758   0.723   3.923
 8952SOL     OW27754   1.543   3.813   4.557
 8952SOL    HW127755   1.499   3.859   4.480
 8952SOL    HW227756   1.551   3.877   4.634
 8953SOL     OW27757   0.602   5.300   0.684
 8953SOL    HW127758   0.672   5.322   0.752
 8953SOL    HW227759   0.532   5.373   0.683
 8954SOL     OW27760   2.389   4.608   5.602
 8954SOL    HW127761   2.294   4.638   5.593
 8954SOL    HW227762   2.433   4.606   5.513
 8955SOL     OW27763   5.862   3.172   5.924
 8955SOL    HW127764   5.785   3.108   5.929
 8955SOL    HW227765   5.917   3.153   5.843
 8956SOL     OW27766   0.980   6.338   1.025
 8956SOL    HW127767   1.068   6.328   0.978
 8956SOL    HW227768   0.963   6.435   1.043
 8957SOL     OW27769   0.810   0.081   3.746
 8957SOL    HW127770   0.782   7.008   3.764
 8957SOL    HW227771   0.754   0.119   3.672
 8958SOL     OW27772   0.026   3.263   4.934
 8958SOL    HW127773   0.110   3.237   4.888
 8958SOL    HW227774   0.044   3.339   4.997
 8959SOL     OW27775   4.725   1.264   3.944
 8959SOL    HW127776   4.657   1.221   4.004
 8959SOL    HW227777   4.806   1.207   3.938
 8960SOL     OW27778   4.575   5.735   2.310
 8960SOL    HW127779   4.509   5.677   2.357
 8960SOL    HW227780   4.536   5.825   2.295
 8961SOL     OW27781   2.388   1.781   5.583
 8961SOL    HW127782   2.369   1.765   5.679
 8961SOL    HW227783   2.427   1.873   5.571
 8962SOL     OW27784   6.987   6.065   1.412
 8962SOL    HW127785   6.967   6.155   1.373
 8962SOL    HW227786   0.038   6.021   1.360
 8963SOL     OW27787   2.237   5.449   5.724
 8963SOL    HW127788   2.222   5.369   5.666
 8963SOL    HW227789   2.314   5.432   5.785
 8964SOL     OW27790   1.339   2.782   4.189
 8964SOL    HW127791   1.401   2.705   4.204
 8964SOL    HW227792   1.386   2.855   4.140
 8965SOL     OW27793   3.190   5.889   0.395
 8965SOL    HW127794   3.097   5.856   0.375
 8965SOL    HW227795   3.223   5.845   0.478
 8966SOL     OW27796   4.887   6.945   5.617
 8966SOL    HW127797   4.790   6.963   5.632
 8966SOL    HW227798   4.918   6.994   5.535
 8967SOL     OW27799   2.416   0.474   3.345
 8967SOL    HW127800   2.482   0.513   3.281
 8967SOL    HW227801   2.336   0.441   3.295
 8968SOL     OW27802   3.152   5.328   2.281
 8968SOL    HW127803   3.228   5.268   2.309
 8968SOL    HW227804   3.143   5.403   2.346
 8969SOL     OW27805   6.934   1.060   2.636
 8969SOL    HW127806   0.000   1.022   2.666
 8969SOL    HW227807   6.946   1.157   2.615
 8970SOL     OW27808   2.142   1.745   4.640
 8970SOL    HW127809   2.145   1.833   4.688
 8970SOL    HW227810   2.212   1.744   4.569
 8971SOL     OW27811   3.305   4.947   1.422
 8971SOL    HW127812   3.265   5.037   1.409
 8971SOL    HW227813   3.272   4.885   1.351
 8972SOL     OW27814   6.225   3.868   6.026
 8972SOL    HW127815   6.246   3.832   6.117
 8972SOL    HW227816   6.144   3.823   5.990
 8973SOL     OW27817   2.490   1.679   3.569
 8973SOL    HW127818   2.583   1.642   3.578
 8973SOL    HW227819   2.473   1.743   3.643
 8974SOL     OW27820   1.885   4.508   5.126
 8974SOL    HW127821   1.944   4.496   5.206
 8974SOL    HW227822   1.790   4.522   5.156
 8975SOL     OW27823   0.788   3.575   6.207
 8975SOL    HW127824   0.763   3.522   6.126
 8975SOL    HW227825   0.705   3.597   6.259
 8976SOL     OW27826   6.006   0.481   1.562
 8976SOL    HW127827   6.034   0.387   1.584
 8976SOL    HW227828   6.079   0.527   1.511
 8977SOL     OW27829   0.435   4.908   5.834
 8977SOL    HW127830   0.395   4.990   5.794
 8977SOL    HW227831   0.404   4.828   5.783
 8978SOL     OW27832   6.579   5.290   5.279
 8978SOL    HW127833   6.570   5.225   5.355
 8978SOL    HW227834   6.615   5.243   5.199
 8979SOL     OW27835   1.658   4.314   3.685
 8979SOL    HW127836   1.653   4.388   3.751
 8979SOL    HW227837   1.747   4.316   3.639
 8980SOL     OW27838   4.854   0.789   0.571
 8980SOL    HW127839   4.942   0.782   0.524
 8980SOL    HW227840   4.852   0.724   0.648
 8981SOL     OW27841   3.966   2.488   6.910
 8981SOL    HW127842   3.896   2.442   6.964
 8981SOL    HW227843   4.044   2.509   6.968
 8982SOL     OW27844   0.358   0.730   2.561
 8982SOL    HW127845   0.444   0.679   2.558
 8982SOL    HW227846   0.295   0.686   2.626
 8983SOL     OW27847   1.366   6.576   2.640
 8983SOL    HW127848   1.433   6.629   2.692
 8983SOL    HW227849   1.276   6.619   2.647
 8984SOL     OW27850   6.020   1.205   3.911
 8984SOL    HW127851   5.973   1.267   3.848
 8984SOL    HW227852   5.953   1.164   3.973
 8985SOL     OW27853   5.311   0.070   1.926
 8985SOL    HW127854   5.352   0.048   1.838
 8985SOL    HW227855   5.294   0.169   1.931
 8986SOL     OW27856   0.823   6.726   6.668
 8986SOL    HW127857   0.837   6.638   6.713
 8986SOL    HW227858   0.830   6.714   6.569
 8987SOL     OW27859   3.127   6.469   2.070
 8987SOL    HW127860   3.086   6.379   2.083
 8987SOL    HW227861   3.198   6.464   2.000
 8988SOL     OW27862   2.409   7.018   0.893
 8988SOL    HW127863   2.402   7.014   0.793
 8988SOL    HW227864   2.502   6.994   0.921
 8989SOL     OW27865   6.304   0.975   2.228
 8989SOL    HW127866   6.283   1.067   2.198
 8989SOL    HW227867   6.220   0.922   2.236
 8990SOL     OW27868   3.878   1.062   2.999
 8990SOL    HW127869   3.821   1.021   2.927
 8990SOL    HW227870   3.972   1.069   2.967
 8991SOL     OW27871   1.242   2.312   1.048
 8991SOL    HW127872   1.284   2.396   1.014
 8991SOL    HW227873   1.157   2.334   1.096
 8992SOL     OW27874   0.989   5.336   5.110
 8992SOL    HW127875   0.965   5.308   5.202
 8992SOL    HW227876   1.082   5.306   5.088
 8993SOL     OW27877   5.467   4.167   3.961
 8993SOL    HW127878   5.530   4.096   3.994
 8993SOL    HW227879   5.483   4.252   4.011
 8994SOL     OW27880   1.641   5.756   1.835
 8994SOL    HW127881   1.604   5.799   1.917
 8994SOL    HW227882   1.703   5.681   1.862
 8995SOL     OW27883   2.077   4.059   3.654
 8995SOL    HW127884   2.073   4.078   3.752
 8995SOL    HW227885   2.111   4.139   3.606
 8996SOL     OW27886   2.815   3.537   1.123
 8996SOL    HW127887   2.843   3.610   1.061
 8996SOL    HW227888   2.750   3.574   1.190
 8997SOL     OW27889   4.609   1.802   4.723
 8997SOL    HW127890   4.642   1.896   4.737
 8997SOL    HW227891   4.638   1.745   4.800
 8998SOL     OW27892   0.969   1.612   0.095
 8998SOL    HW127893   0.958   1.551   0.174
 8998SOL    HW227894   0.964   1.558   0.011
 8999SOL     OW27895   5.692   2.928   5.653
 8999SOL    HW127896   5.634   2.846   5.653
 8999SOL    HW227897   5.696   2.965   5.560
 9000SOL     OW27898   4.710   4.708   1.281
 9000SOL    HW127899   4.622   4.685   1.240
 9000SOL    HW227900   4.695   4.755   1.368
 9001SOL     OW27901   1.082   3.226   4.010
 9001SOL    HW127902   1.162   3.218   4.069
 9001SOL    HW227903   1.105   3.283   3.930
 9002SOL     OW27904   4.961   2.499   5.583
 9002SOL    HW127905   5.021   2.532   5.656
 9002SOL    HW227906   4.896   2.571   5.559
 9003SOL     OW27907   0.034   3.127   6.576
 9003SOL    HW127908   0.029   3.045   6.633
 9003SOL    HW227909   6.970   3.138   6.526
 9004SOL     OW27910   4.712   5.523   0.139
 9004SOL    HW127911   4.687   5.486   0.050
 9004SOL    HW227912   4.792   5.583   0.129
 9005SOL     OW27913   5.012   3.621   4.019
 9005SOL    HW127914   5.043   3.535   3.977
 9005SOL    HW227915   5.092   3.673   4.051
 9006SOL     OW27916   3.172   6.425   1.638
 9006SOL    HW127917   3.207   6.508   1.681
 9006SOL    HW227918   3.241   6.389   1.575
 9007SOL     OW27919   1.710   6.385   5.681
 9007SOL    HW127920   1.644   6.401   5.754
 9007SOL    HW227921   1.670   6.324   5.612
 9008SOL     OW27922   0.043   4.426   2.170
 9008SOL    HW127923   0.119   4.393   2.226
 9008SOL    HW227924   0.055   4.395   2.075
 9009SOL     OW27925   3.951   6.469   0.080
 9009SOL    HW127926   3.994   6.465   0.170
 9009SOL    HW227927   3.940   6.377   0.044
 9010SOL     OW27928   6.932   5.845   4.565
 9010SOL    HW127929   7.012   5.809   4.517
 9010SOL    HW227930   6.961   5.896   4.646
 9011SOL     OW27931   4.345   2.627   1.738
 9011SOL    HW127932   4.324   2.554   1.803
 9011SOL    HW227933   4.435   2.611   1.698
 9012SOL     OW27934   4.430   4.830   2.694
 9012SOL    HW127935   4.457   4.887   2.617
 9012SOL    HW227936   4.467   4.868   2.779
 9013SOL     OW27937   4.012   5.923   1.912
 9013SOL    HW127938   4.059   5.900   1.997
 9013SOL    HW227939   4.002   5.841   1.856
 9014SOL     OW27940   2.311   0.914   1.784
 9014SOL    HW127941   2.392   0.906   1.841
 9014SOL    HW227942   2.333   0.885   1.691
 9015SOL     OW27943   6.518   2.236   4.570
 9015SOL    HW127944   6.490   2.273   4.481
 9015SOL    HW227945   6.491   2.300   4.642
 9016SOL     OW27946   0.108   5.655   6.830
 9016SOL    HW127947   0.168   5.593   6.881
 9016SOL    HW227948   0.023   5.607   6.808
 9017SOL     OW27949   6.312   3.014   2.773
 9017SOL    HW127950   6.219   3.049   2.769
 9017SOL    HW227951   6.349   3.007   2.680
 9018SOL     OW27952   4.995   1.552   6.973
 9018SOL    HW127953   4.914   1.549   0.009
 9018SOL    HW227954   4.982   1.494   6.893
 9019SOL     OW27955   1.974   5.199   6.988
 9019SOL    HW127956   1.891   5.163   6.946
 9019SOL    HW227957   1.955   5.287   0.009
 9020SOL     OW27958   1.186   5.033   4.548
 9020SOL    HW127959   1.152   4.940   4.555
 9020SOL    HW227960   1.175   5.080   4.636
 9021SOL     OW27961   6.141   5.403   5.611
 9021SOL    HW127962   6.098   5.351   5.685
 9021SOL    HW227963   6.110   5.367   5.523
 9022SOL     OW27964   1.960   6.894   5.985
 9022SOL    HW127965   1.950   6.985   6.026
 9022SOL    HW227966   2.036   6.846   6.030
 9023SOL     OW27967   3.358   4.077   4.255
 9023SOL    HW127968   3.349   4.112   4.348
 9023SOL    HW227969   3.270   4.045   4.222
 9024SOL     OW27970   1.144   0.200   6.843
 9024SOL    HW127971   1.226   0.195   6.785
 9024SOL    HW227972   1.171   0.199   6.939
 9025SOL     OW27973   0.521   3.210   0.381
 9025SOL    HW127974   0.548   3.228   0.476
 9025SOL    HW227975   0.590   3.245   0.319
 9026SOL     OW27976   3.124   3.424   5.485
 9026SOL    HW127977   3.103   3.522   5.485
 9026SOL    HW227978   3.040   3.372   5.505
 9027SOL     OW27979   1.726   3.312   2.377
 9027SOL    HW127980   1.738   3.403   2.339
 9027SOL    HW227981   1.790   3.249   2.333
 9028SOL     OW27982   2.197   4.525   4.975
 9028SOL    HW127983   2.182   4.605   4.917
 9028SOL    HW227984   2.132   4.454   4.950
 9029SOL     OW27985   5.474   5.230   3.047
 9029SOL    HW127986   5.499   5.137   3.074
 9029SOL    HW227987   5.436   5.278   3.126
 9030SOL     OW27988   4.702   2.585   2.976
 9030SOL    HW127989   4.785   2.529   2.965
 9030SOL    HW227990   4.662   2.567   3.066
 9031SOL     OW27991   2.339   1.057   2.135
 9031SOL    HW127992   2.358   1.017   2.045
 9031SOL    HW227993   2.263   1.008   2.177
 9032SOL     OW27994   0.203   3.444   2.566
 9032SOL    HW127995   0.236   3.388   2.490
 9032SOL    HW227996   0.106   3.465   2.552
 9033SOL     OW27997   1.122   3.731   2.620
 9033SOL    HW127998   1.069   3.651   2.594
 9033SOL    HW227999   1.095   3.762   2.711
 9034SOL     OW28000   1.893   6.739   6.743
 9034SOL    HW128001   1.837   6.807   6.790
 9034SOL    HW228002   1.989   6.766   6.749
 9035SOL     OW28003   6.257   0.891   4.185
 9035SOL    HW128004   6.306   0.958   4.241
 9035SOL    HW228005   6.159   0.909   4.189
 9036SOL     OW28006   0.477   1.804   5.126
 9036SOL    HW128007   0.524   1.774   5.043
 9036SOL    HW228008   0.382   1.825   5.104
 9037SOL     OW28009   2.328   4.370   5.735
 9037SOL    HW128010   2.359   4.283   5.697
 9037SOL    HW228011   2.355   4.445   5.674
 9038SOL     OW28012   4.216   5.531   5.608
 9038SOL    HW128013   4.140   5.520   5.673
 9038SOL    HW228014   4.183   5.574   5.525
 9039SOL     OW28015   2.850   4.776   0.143
 9039SOL    HW128016   2.878   4.848   0.206
 9039SOL    HW228017   2.762   4.801   0.101
 9040SOL     OW28018   3.196   1.016   2.458
 9040SOL    HW128019   3.161   1.102   2.496
 9040SOL    HW228020   3.121   0.950   2.452
 9041SOL     OW28021   2.297   2.454   5.776
 9041SOL    HW128022   2.316   2.543   5.734
 9041SOL    HW228023   2.261   2.468   5.868
 9042SOL     OW28024   1.865   5.588   2.466
 9042SOL    HW128025   1.860   5.688   2.477
 9042SOL    HW228026   1.916   5.566   2.383
 9043SOL     OW28027   0.465   1.802   6.883
 9043SOL    HW128028   0.488   1.869   6.954
 9043SOL    HW228029   0.391   1.743   6.915
 9044SOL     OW28030   0.847   4.277   0.601
 9044SOL    HW128031   0.822   4.361   0.649
 9044SOL    HW228032   0.925   4.295   0.542
 9045SOL     OW28033   2.381   4.863   4.808
 9045SOL    HW128034   2.458   4.916   4.773
 9045SOL    HW228035   2.405   4.824   4.897
 9046SOL     OW28036   3.274   4.278   6.024
 9046SOL    HW128037   3.207   4.265   5.952
 9046SOL    HW228038   3.236   4.251   6.112
 9047SOL     OW28039   0.863   3.993   4.456
 9047SOL    HW128040   0.840   4.022   4.363
 9047SOL    HW228041   0.788   4.016   4.518
 9048SOL     OW28042   1.734   2.703   5.108
 9048SOL    HW128043   1.651   2.757   5.095
 9048SOL    HW228044   1.759   2.702   5.204
 9049SOL     OW28045   4.552   6.374   5.860
 9049SOL    HW128046   4.601   6.300   5.814
 9049SOL    HW228047   4.588   6.463   5.829
 9050SOL     OW28048   0.017   4.185   5.858
 9050SOL    HW128049   0.024   4.096   5.812
 9050SOL    HW228050   0.100   4.238   5.840
 9051SOL     OW28051   6.614   6.434   6.297
 9051SOL    HW128052   6.620   6.375   6.216
 9051SOL    HW228053   6.629   6.379   6.379
 9052SOL     OW28054   2.805   5.068   4.582
 9052SOL    HW128055   2.812   4.969   4.569
 9052SOL    HW228056   2.721   5.089   4.632
 9053SOL     OW28057   2.004   1.018   2.610
 9053SOL    HW128058   2.044   1.109   2.605
 9053SOL    HW228059   1.992   0.981   2.518
 9054SOL     OW28060   1.500   0.001   1.603
 9054SOL    HW128061   1.406   0.035   1.609
 9054SOL    HW228062   1.540   7.019   1.695
 9055SOL     OW28063   1.337   2.258   5.123
 9055SOL    HW128064   1.354   2.343   5.073
 9055SOL    HW228065   1.419   2.232   5.174
 9056SOL     OW28066   5.525   2.176   1.621
 9056SOL    HW128067   5.506   2.154   1.525
 9056SOL    HW228068   5.601   2.119   1.653
 9057SOL     OW28069   3.619   6.720   6.791
 9057SOL    HW128070   3.547   6.781   6.823
 9057SOL    HW228071   3.593   6.681   6.702
 9058SOL     OW28072   2.098   2.601   4.020
 9058SOL    HW128073   2.118   2.698   4.004
 9058SOL    HW228074   2.067   2.588   4.114
 9059SOL     OW28075   7.016   0.659   2.482
 9059SOL    HW128076   0.073   0.641   2.424
 9059SOL    HW228077   6.932   0.652   2.428
 9060SOL     OW28078   6.839   5.003   0.238
 9060SOL    HW128079   6.875   4.953   0.160
 9060SOL    HW228080   6.910   5.062   0.276
 9061SOL     OW28081   4.513   4.514   2.462
 9061SOL    HW128082   4.519   4.503   2.363
 9061SOL    HW228083   4.424   4.481   2.494
 9062SOL     OW28084   0.111   5.864   3.107
 9062SOL    HW128085   0.031   5.805   3.112
 9062SOL    HW228086   0.168   5.838   3.029
 9063SOL     OW28087   5.589   6.829   1.170
 9063SOL    HW128088   5.625   6.779   1.091
 9063SOL    HW228089   5.525   6.899   1.138
 9064SOL     OW28090   1.373   5.548   2.934
 9064SOL    HW128091   1.303   5.614   2.907
 9064SOL    HW228092   1.424   5.584   3.012
 9065SOL     OW28093   3.291   4.306   6.833
 9065SOL    HW128094   3.391   4.302   6.827
 9065SOL    HW228095   3.265   4.352   6.918
 9066SOL     OW28096   4.935   4.663   3.648
 9066SOL    HW128097   4.970   4.727   3.579
 9066SOL    HW228098   4.984   4.678   3.735
 9067SOL     OW28099   2.077   6.638   4.041
 9067SOL    HW128100   2.135   6.719   4.045
 9067SOL    HW228101   2.104   6.574   4.113
 9068SOL     OW28102   5.157   0.218   5.844
 9068SOL    HW128103   5.091   0.276   5.892
 9068SOL    HW228104   5.141   0.223   5.746
 9069SOL     OW28105   4.779   2.453   2.047
 9069SOL    HW128106   4.706   2.405   2.096
 9069SOL    HW228107   4.742   2.536   2.005
 9070SOL     OW28108   1.484   0.745   6.458
 9070SOL    HW128109   1.422   0.823   6.449
 9070SOL    HW228110   1.467   0.680   6.383
 9071SOL     OW28111   4.935   2.663   7.017
 9071SOL    HW128112   4.984   2.578   0.017
 9071SOL    HW228113   4.980   2.709   6.941
 9072SOL     OW28114   6.632   0.830   2.032
 9072SOL    HW128115   6.674   0.756   1.979
 9072SOL    HW228116   6.663   0.918   1.996
 9073SOL     OW28117   4.704   2.514   5.924
 9073SOL    HW128118   4.736   2.608   5.934
 9073SOL    HW228119   4.769   2.462   5.868
 9074SOL     OW28120   2.024   1.242   3.579
 9074SOL    HW128121   2.107   1.276   3.625
 9074SOL    HW228122   1.964   1.200   3.646
 9075SOL     OW28123   5.218   5.409   0.489
 9075SOL    HW128124   5.245   5.462   0.569
 9075SOL    HW228125   5.189   5.317   0.517
 9076SOL     OW28126   1.471   6.030   2.329
 9076SOL    HW128127   1.554   6.026   2.384
 9076SOL    HW228128   1.442   6.125   2.319
 9077SOL     OW28129   6.190   1.460   6.289
 9077SOL    HW128130   6.129   1.530   6.251
 9077SOL    HW228131   6.168   1.445   6.385
 9078SOL     OW28132   5.152   6.840   6.638
 9078SOL    HW128133   5.097   6.871   6.716
 9078SOL    HW228134   5.215   6.913   6.611
 9079SOL     OW28135   1.443   1.414   6.676
 9079SOL    HW128136   1.440   1.420   6.776
 9079SOL    HW228137   1.356   1.377   6.643
 9080SOL     OW28138   6.195   4.189   1.076
 9080SOL    HW128139   6.202   4.156   1.170
 9080SOL    HW228140   6.119   4.255   1.070
 9081SOL     OW28141   5.299   1.533   0.422
 9081SOL    HW128142   5.330   1.542   0.328
 9081SOL    HW228143   5.248   1.615   0.448
 9082SOL     OW28144   3.331   4.871   6.653
 9082SOL    HW128145   3.293   4.784   6.684
 9082SOL    HW228146   3.431   4.867   6.658
 9083SOL     OW28147   4.145   0.765   0.918
 9083SOL    HW128148   4.198   0.737   0.998
 9083SOL    HW228149   4.196   0.835   0.867
 9084SOL     OW28150   6.886   4.592   4.471
 9084SOL    HW128151   6.850   4.510   4.515
 9084SOL    HW228152   6.890   4.578   4.372
 9085SOL     OW28153   3.180   4.787   1.227
 9085SOL    HW128154   3.112   4.787   1.301
 9085SOL    HW228155   3.144   4.735   1.149
 9086SOL     OW28156   6.703   2.521   0.760
 9086SOL    HW128157   6.769   2.450   0.734
 9086SOL    HW228158   6.729   2.608   0.718
 9087SOL     OW28159   4.827   1.145   1.554
 9087SOL    HW128160   4.778   1.196   1.483
 9087SOL    HW228161   4.763   1.117   1.625
 9088SOL     OW28162   5.605   6.337   6.442
 9088SOL    HW128163   5.544   6.363   6.368
 9088SOL    HW228164   5.586   6.394   6.523
 9089SOL     OW28165   4.992   5.588   2.677
 9089SOL    HW128166   5.011   5.506   2.623
 9089SOL    HW228167   5.010   5.569   2.774
 9090SOL     OW28168   6.083   5.826   5.553
 9090SOL    HW128169   6.137   5.809   5.471
 9090SOL    HW228170   5.990   5.852   5.527
 9091SOL     OW28171   2.721   2.189   1.688
 9091SOL    HW128172   2.674   2.252   1.749
 9091SOL    HW228173   2.820   2.193   1.704
 9092SOL     OW28174   2.824   2.007   5.103
 9092SOL    HW128175   2.739   2.059   5.108
 9092SOL    HW228176   2.831   1.963   5.013
 9093SOL     OW28177   2.070   3.429   0.799
 9093SOL    HW128178   2.107   3.351   0.750
 9093SOL    HW228179   1.979   3.406   0.834
 9094SOL     OW28180   6.373   2.749   0.577
 9094SOL    HW128181   6.450   2.742   0.513
 9094SOL    HW228182   6.396   2.701   0.662
 9095SOL     OW28183   2.029   2.784   0.068
 9095SOL    HW128184   1.931   2.764   0.080
 9095SOL    HW228185   2.082   2.725   0.129
 9096SOL     OW28186   6.592   5.029   2.921
 9096SOL    HW128187   6.537   5.003   3.000
 9096SOL    HW228188   6.557   4.983   2.839
 9097SOL     OW28189   6.444   5.780   6.222
 9097SOL    HW128190   6.402   5.717   6.157
 9097SOL    HW228191   6.375   5.810   6.288
 9098SOL     OW28192   4.064   3.287   4.918
 9098SOL    HW128193   4.033   3.319   4.828
 9098SOL    HW228194   4.138   3.220   4.906
 9099SOL     OW28195   1.834   2.562   6.880
 9099SOL    HW128196   1.840   2.589   6.784
 9099SOL    HW228197   1.832   2.644   6.938
 9100SOL     OW28198   1.399   2.503   0.750
 9100SOL    HW128199   1.384   2.588   0.701
 9100SOL    HW228200   1.348   2.429   0.706
 9101SOL     OW28201   1.990   2.186   0.037
 9101SOL    HW128202   2.043   2.269   0.026
 9101SOL    HW228203   1.921   2.199   0.108
 9102SOL     OW28204   4.444   6.445   2.058
 9102SOL    HW128205   4.435   6.544   2.050
 9102SOL    HW228206   4.471   6.406   1.970
 9103SOL     OW28207   1.016   4.265   6.174
 9103SOL    HW128208   1.028   4.354   6.219
 9103SOL    HW228209   0.970   4.202   6.237
 9104SOL     OW28210   4.821   0.256   3.156
 9104SOL    HW128211   4.886   0.210   3.096
 9104SOL    HW228212   4.814   0.352   3.129
 9105SOL     OW28213   2.953   2.062   6.212
 9105SOL    HW128214   3.040   2.067   6.260
 9105SOL    HW228215   2.878   2.070   6.278
 9106SOL     OW28216   6.428   5.659   1.854
 9106SOL    HW128217   6.498   5.699   1.913
 9106SOL    HW228218   6.389   5.730   1.795
 9107SOL     OW28219   5.019   6.373   6.439
 9107SOL    HW128220   4.935   6.327   6.411
 9107SOL    HW228221   5.094   6.344   6.380
 9108SOL     OW28222   3.451   6.003   0.355
 9108SOL    HW128223   3.466   6.082   0.414
 9108SOL    HW228224   3.353   5.988   0.343
 9109SOL     OW28225   3.116   1.460   4.064
 9109SOL    HW128226   3.094   1.538   4.123
 9109SOL    HW228227   3.210   1.469   4.031
 9110SOL     OW28228   0.914   3.679   3.366
 9110SOL    HW128229   0.929   3.704   3.270
 9110SOL    HW228230   0.820   3.646   3.378
 9111SOL     OW28231   4.163   3.980   1.342
 9111SOL    HW128232   4.216   4.001   1.260
 9111SOL    HW228233   4.071   3.950   1.315
 9112SOL     OW28234   1.004   5.754   2.371
 9112SOL    HW128235   0.911   5.764   2.334
 9112SOL    HW228236   1.070   5.758   2.296
 9113SOL     OW28237   2.593   5.523   6.923
 9113SOL    HW128238   2.556   5.501   6.833
 9113SOL    HW228239   2.536   5.592   6.967
 9114SOL     OW28240   2.667   3.761   1.703
 9114SOL    HW128241   2.601   3.826   1.742
 9114SOL    HW228242   2.644   3.668   1.733
 9115SOL     OW28243   1.921   4.114   4.500
 9115SOL    HW128244   1.890   4.053   4.572
 9115SOL    HW228245   2.013   4.147   4.522
 9116SOL     OW28246   2.677   1.919   6.008
 9116SOL    HW128247   2.737   1.999   5.999
 9116SOL    HW228248   2.707   1.863   6.085
 9117SOL     OW28249   0.904   3.296   0.528
 9117SOL    HW128250   0.811   3.322   0.553
 9117SOL    HW228251   0.908   3.269   0.432
 9118SOL     OW28252   0.918   6.305   1.776
 9118SOL    HW128253   0.925   6.401   1.802
 9118SOL    HW228254   0.821   6.281   1.766
 9119SOL     OW28255   6.207   0.238   0.945
 9119SOL    HW128256   6.232   0.161   0.887
 9119SOL    HW228257   6.226   0.217   1.040
 9120SOL     OW28258   6.241   0.493   6.802
 9120SOL    HW128259   6.172   0.563   6.784
 9120SOL    HW228260   6.240   0.426   6.728
 9121SOL     OW28261   1.470   1.798   6.753
 9121SOL    HW128262   1.483   1.727   6.823
 9121SOL    HW228263   1.543   1.792   6.686
 9122SOL     OW28264   0.707   2.775   1.427
 9122SOL    HW128265   0.663   2.815   1.346
 9122SOL    HW228266   0.638   2.750   1.494
 9123SOL     OW28267   2.152   6.597   6.684
 9123SOL    HW128268   2.195   6.523   6.632
 9123SOL    HW228269   2.145   6.570   6.780
 9124SOL     OW28270   6.835   4.533   5.587
 9124SOL    HW128271   6.848   4.628   5.613
 9124SOL    HW228272   6.789   4.484   5.661
 9125SOL     OW28273   4.568   5.803   1.003
 9125SOL    HW128274   4.554   5.844   1.094
 9125SOL    HW228275   4.609   5.713   1.013
 9126SOL     OW28276   5.729   0.123   3.291
 9126SOL    HW128277   5.692   0.215   3.303
 9126SOL    HW228278   5.663   0.056   3.325
 9127SOL     OW28279   5.542   5.532   5.937
 9127SOL    HW128280   5.632   5.495   5.914
 9127SOL    HW228281   5.552   5.626   5.968
 9128SOL     OW28282   4.756   2.651   5.509
 9128SOL    HW128283   4.745   2.604   5.421
 9128SOL    HW228284   4.674   2.638   5.565
 9129SOL     OW28285   2.418   1.568   6.763
 9129SOL    HW128286   2.430   1.633   6.688
 9129SOL    HW228287   2.456   1.607   6.847
 9130SOL     OW28288   5.978   5.785   0.878
 9130SOL    HW128289   5.975   5.878   0.915
 9130SOL    HW228290   5.979   5.719   0.954
 9131SOL     OW28291   1.667   4.529   3.916
 9131SOL    HW128292   1.606   4.476   3.975
 9131SOL    HW228293   1.709   4.602   3.968
 9132SOL     OW28294   1.667   3.052   4.192
 9132SOL    HW128295   1.764   3.077   4.186
 9132SOL    HW228296   1.614   3.133   4.218
 9133SOL     OW28297   1.918   5.011   1.499
 9133SOL    HW128298   1.890   4.993   1.404
 9133SOL    HW228299   1.905   4.928   1.553
 9134SOL     OW28300   2.641   4.904   5.957
 9134SOL    HW128301   2.684   4.902   6.047
 9134SOL    HW228302   2.680   4.979   5.903
 9135SOL     OW28303   1.117   6.448   4.095
 9135SOL    HW128304   1.202   6.440   4.148
 9135SOL    HW228305   1.064   6.525   4.128
 9136SOL     OW28306   3.417   5.402   5.110
 9136SOL    HW128307   3.339   5.415   5.048
 9136SOL    HW228308   3.441   5.490   5.152
 9137SOL     OW28309   4.038   0.526   1.752
 9137SOL    HW128310   4.038   0.586   1.832
 9137SOL    HW228311   4.100   0.562   1.683
 9138SOL     OW28312   3.071   4.212   0.962
 9138SOL    HW128313   3.064   4.129   1.018
 9138SOL    HW228314   3.007   4.206   0.885
 9139SOL     OW28315   3.534   0.628   5.726
 9139SOL    HW128316   3.499   0.535   5.711
 9139SOL    HW228317   3.633   0.626   5.732
 9140SOL     OW28318   6.471   2.543   3.592
 9140SOL    HW128319   6.458   2.632   3.635
 9140SOL    HW228320   6.468   2.553   3.492
 9141SOL     OW28321   5.742   0.331   5.723
 9141SOL    HW128322   5.714   0.285   5.807
 9141SOL    HW228323   5.688   0.414   5.711
 9142SOL     OW28324   1.071   4.258   6.880
 9142SOL    HW128325   0.999   4.266   6.948
 9142SOL    HW228326   1.076   4.164   6.847
 9143SOL     OW28327   5.533   4.321   0.825
 9143SOL    HW128328   5.576   4.377   0.896
 9143SOL    HW228329   5.434   4.318   0.840
 9144SOL     OW28330   1.480   5.425   4.635
 9144SOL    HW128331   1.515   5.334   4.613
 9144SOL    HW228332   1.488   5.441   4.734
 9145SOL     OW28333   0.583   4.063   6.299
 9145SOL    HW128334   0.590   4.005   6.217
 9145SOL    HW228335   0.521   4.139   6.280
 9146SOL     OW28336   0.714   1.860   1.155
 9146SOL    HW128337   0.788   1.925   1.141
 9146SOL    HW228338   0.649   1.866   1.079
 9147SOL     OW28339   4.457   5.749   5.824
 9147SOL    HW128340   4.515   5.827   5.802
 9147SOL    HW228341   4.473   5.676   5.758
 9148SOL     OW28342   3.470   5.136   3.041
 9148SOL    HW128343   3.404   5.211   3.038
 9148SOL    HW228344   3.563   5.172   3.033
 9149SOL     OW28345   6.493   2.943   4.895
 9149SOL    HW128346   6.538   2.926   4.808
 9149SOL    HW228347   6.521   2.874   4.961
 9150SOL     OW28348   4.266   1.547   2.789
 9150SOL    HW128349   4.286   1.480   2.717
 9150SOL    HW228350   4.228   1.500   2.869
 9151SOL     OW28351   0.567   3.286   2.033
 9151SOL    HW128352   0.530   3.347   1.963
 9151SOL    HW228353   0.496   3.223   2.065
 9152SOL     OW28354   2.074   4.996   3.287
 9152SOL    HW128355   2.084   4.982   3.188
 9152SOL    HW228356   2.164   4.993   3.330
 9153SOL     OW28357   1.740   2.787   0.076
 9153SOL    HW128358   1.710   2.708   0.131
 9153SOL    HW228359   1.672   2.806   0.006
 9154SOL     OW28360   1.121   5.310   0.659
 9154SOL    HW128361   1.155   5.246   0.589
 9154SOL    HW228362   1.022   5.319   0.651
 9155SOL     OW28363   1.787   4.567   6.902
 9155SOL    HW128364   1.788   4.566   7.002
 9155SOL    HW228365   1.711   4.624   6.870
 9156SOL     OW28366   5.159   2.660   1.722
 9156SOL    HW128367   5.230   2.608   1.676
 9156SOL    HW228368   5.069   2.628   1.692
 9157SOL     OW28369   5.215   3.609   5.421
 9157SOL    HW128370   5.292   3.556   5.387
 9157SOL    HW228371   5.248   3.697   5.456
 9158SOL     OW28372   0.649   3.863   3.516
 9158SOL    HW128373   0.741   3.854   3.555
 9158SOL    HW228374   0.612   3.954   3.538
 9159SOL     OW28375   6.892   4.742   2.415
 9159SOL    HW128376   6.855   4.755   2.323
 9159SOL    HW228377   6.838   4.674   2.464
 9160SOL     OW28378   0.196   0.264   0.820
 9160SOL    HW128379   0.099   0.249   0.837
 9160SOL    HW228380   0.217   0.241   0.725
 9161SOL     OW28381   5.179   4.098   2.468
 9161SOL    HW128382   5.213   4.084   2.375
 9161SOL    HW228383   5.156   4.195   2.481
 9162SOL     OW28384   5.204   2.600   2.622
 9162SOL    HW128385   5.269   2.604   2.547
 9162SOL    HW228386   5.111   2.604   2.586
 9163SOL     OW28387   3.406   1.097   5.131
 9163SOL    HW128388   3.476   1.142   5.075
 9163SOL    HW228389   3.429   1.109   5.228
 9164SOL     OW28390   3.010   0.252   0.998
 9164SOL    HW128391   3.000   0.198   1.082
 9164SOL    HW228392   3.091   0.310   1.006
 9165SOL     OW28393   4.726   5.910   0.390
 9165SOL    HW128394   4.657   5.977   0.414
 9165SOL    HW228395   4.746   5.852   0.470
 9166SOL     OW28396   2.893   5.709   1.431
 9166SOL    HW128397   2.962   5.646   1.467
 9166SOL    HW228398   2.803   5.680   1.462
 9167SOL     OW28399   0.189   3.820   4.637
 9167SOL    HW128400   0.102   3.804   4.591
 9167SOL    HW228401   0.244   3.736   4.634
 9168SOL     OW28402   3.423   0.554   0.153
 9168SOL    HW128403   3.475   0.546   0.238
 9168SOL    HW228404   3.399   0.649   0.137
 9169SOL     OW28405   0.720   6.867   3.529
 9169SOL    HW128406   0.770   6.797   3.579
 9169SOL    HW228407   0.623   6.843   3.525
 9170SOL     OW28408   6.261   6.060   6.991
 9170SOL    HW128409   6.314   6.048   6.906
 9170SOL    HW228410   6.281   5.984   0.031
 9171SOL     OW28411   3.084   5.755   5.331
 9171SOL    HW128412   3.033   5.733   5.248
 9171SOL    HW228413   3.034   5.722   5.411
 9172SOL     OW28414   2.324   2.358   4.351
 9172SOL    HW128415   2.415   2.346   4.312
 9172SOL    HW228416   2.327   2.345   4.450
 9173SOL     OW28417   0.735   5.092   5.057
 9173SOL    HW128418   0.742   5.192   5.061
 9173SOL    HW228419   0.704   5.064   4.966
 9174SOL     OW28420   0.461   5.926   6.788
 9174SOL    HW128421   0.361   5.932   6.783
 9174SOL    HW228422   0.500   6.017   6.772
 9175SOL     OW28423   1.828   6.637   5.528
 9175SOL    HW128424   1.809   6.603   5.620
 9175SOL    HW228425   1.779   6.723   5.513
 9176SOL     OW28426   1.477   1.963   5.789
 9176SOL    HW128427   1.562   1.997   5.827
 9176SOL    HW228428   1.469   1.864   5.806
 9177SOL     OW28429   1.006   4.799   3.044
 9177SOL    HW128430   0.966   4.844   3.123
 9177SOL    HW228431   1.102   4.779   3.062
 9178SOL     OW28432   2.164   4.298   0.581
 9178SOL    HW128433   2.191   4.202   0.568
 9178SOL    HW228434   2.102   4.304   0.660
 9179SOL     OW28435   2.475   4.921   5.136
 9179SOL    HW128436   2.531   5.004   5.132
 9179SOL    HW228437   2.527   4.844   5.100
 9180SOL     OW28438   5.618   2.356   2.853
 9180SOL    HW128439   5.545   2.382   2.789
 9180SOL    HW228440   5.589   2.376   2.947
 9181SOL     OW28441   3.892   1.244   2.350
 9181SOL    HW128442   3.851   1.161   2.387
 9181SOL    HW228443   3.921   1.227   2.255
 9182SOL     OW28444   2.540   6.815   2.199
 9182SOL    HW128445   2.479   6.875   2.147
 9182SOL    HW228446   2.486   6.742   2.241
 9183SOL     OW28447   5.050   5.297   6.079
 9183SOL    HW128448   5.134   5.244   6.072
 9183SOL    HW228449   4.972   5.239   6.053
 9184SOL     OW28450   4.733   6.674   6.876
 9184SOL    HW128451   4.809   6.731   6.845
 9184SOL    HW228452   4.743   6.657   6.974
 9185SOL     OW28453   4.421   1.427   4.640
 9185SOL    HW128454   4.474   1.440   4.724
 9185SOL    HW228455   4.343   1.490   4.641
 9186SOL     OW28456   5.013   0.199   6.529
 9186SOL    HW128457   5.032   0.250   6.444
 9186SOL    HW228458   5.071   0.233   6.602
 9187SOL     OW28459   2.589   6.614   2.591
 9187SOL    HW128460   2.677   6.659   2.582
 9187SOL    HW228461   2.600   6.530   2.644
 9188SOL     OW28462   2.172   6.094   0.856
 9188SOL    HW128463   2.127   6.046   0.932
 9188SOL    HW228464   2.201   6.027   0.787
 9189SOL     OW28465   5.018   5.419   1.871
 9189SOL    HW128466   4.950   5.456   1.935
 9189SOL    HW228467   5.076   5.354   1.919
 9190SOL     OW28468   0.958   5.826   0.431
 9190SOL    HW128469   0.927   5.779   0.348
 9190SOL    HW228470   1.018   5.764   0.483
 9191SOL     OW28471   6.678   0.394   5.811
 9191SOL    HW128472   6.645   0.364   5.722
 9191SOL    HW228473   6.715   0.487   5.803
 9192SOL     OW28474   1.236   3.641   4.843
 9192SOL    HW128475   1.306   3.639   4.772
 9192SOL    HW228476   1.191   3.552   4.849
 9193SOL     OW28477   2.731   3.845   0.310
 9193SOL    HW128478   2.686   3.758   0.289
 9193SOL    HW228479   2.812   3.827   0.366
 9194SOL     OW28480   3.019   0.588   4.462
 9194SOL    HW128481   3.063   0.572   4.373
 9194SOL    HW228482   3.083   0.635   4.523
 9195SOL     OW28483   1.617   0.910   4.131
 9195SOL    HW128484   1.551   0.889   4.203
 9195SOL    HW228485   1.671   0.991   4.157
 9196SOL     OW28486   4.980   1.528   5.779
 9196SOL    HW128487   4.951   1.521   5.874
 9196SOL    HW228488   4.905   1.567   5.725
 9197SOL     OW28489   2.709   4.207   0.654
 9197SOL    HW128490   2.671   4.232   0.565
 9197SOL    HW228491   2.807   4.189   0.645
 9198SOL     OW28492   1.023   4.848   4.131
 9198SOL    HW128493   0.966   4.926   4.156
 9198SOL    HW228494   0.966   4.770   4.108
 9199SOL     OW28495   5.723   3.916   5.190
 9199SOL    HW128496   5.802   3.908   5.252
 9199SOL    HW228497   5.645   3.953   5.240
 9200SOL     OW28498   3.130   0.433   0.180
 9200SOL    HW128499   3.144   0.334   0.182
 9200SOL    HW228500   3.213   0.478   0.149
 9201SOL     OW28501   1.942   4.360   0.746
 9201SOL    HW128502   1.898   4.273   0.767
 9201SOL    HW228503   1.878   4.435   0.763
 9202SOL     OW28504   2.414   0.796   4.089
 9202SOL    HW128505   2.499   0.758   4.051
 9202SOL    HW228506   2.337   0.772   4.030
 9203SOL     OW28507   6.612   6.703   0.746
 9203SOL    HW128508   6.668   6.623   0.730
 9203SOL    HW228509   6.670   6.783   0.760
 9204SOL     OW28510   6.078   0.185   4.872
 9204SOL    HW128511   6.032   0.197   4.960
 9204SOL    HW228512   6.177   0.190   4.887
 9205SOL     OW28513   0.116   5.432   1.958
 9205SOL    HW128514   0.018   5.412   1.972
 9205SOL    HW228515   0.163   5.347   1.932
 9206SOL     OW28516   3.638   6.819   0.144
 9206SOL    HW128517   3.702   6.823   0.067
 9206SOL    HW228518   3.546   6.840   0.112
 9207SOL     OW28519   5.498   5.790   6.086
 9207SOL    HW128520   5.432   5.789   6.161
 9207SOL    HW228521   5.576   5.849   6.111
 9208SOL     OW28522   1.064   3.951   2.466
 9208SOL    HW128523   1.059   3.861   2.508
 9208SOL    HW228524   1.109   4.015   2.529
 9209SOL     OW28525   2.283   6.834   6.775
 9209SOL    HW128526   2.287   6.824   6.875
 9209SOL    HW228527   2.295   6.744   6.733
 9210SOL     OW28528   6.325   0.679   3.674
 9210SOL    HW128529   6.380   0.760   3.696
 9210SOL    HW228530   6.386   0.600   3.661
 9211SOL     OW28531   0.565   1.791   2.692
 9211SOL    HW128532   0.552   1.862   2.623
 9211SOL    HW228533   0.486   1.731   2.693
 9212SOL     OW28534   3.752   5.582   4.399
 9212SOL    HW128535   3.818   5.602   4.327
 9212SOL    HW228536   3.668   5.545   4.360
 9213SOL     OW28537   6.348   4.199   6.754
 9213SOL    HW128538   6.259   4.154   6.756
 9213SOL    HW228539   6.419   4.131   6.733
 9214SOL     OW28540   0.318   5.314   0.685
 9214SOL    HW128541   0.325   5.414   0.681
 9214SOL    HW228542   0.339   5.275   0.595
 9215SOL     OW28543   1.178   1.660   0.954
 9215SOL    HW128544   1.158   1.703   1.042
 9215SOL    HW228545   1.260   1.703   0.915
 9216SOL     OW28546   2.169   0.383   3.638
 9216SOL    HW128547   2.234   0.312   3.611
 9216SOL    HW228548   2.207   0.473   3.618
 9217SOL     OW28549   0.603   2.742   0.699
 9217SOL    HW128550   0.541   2.696   0.763
 9217SOL    HW228551   0.569   2.731   0.606
 9218SOL     OW28552   2.216   0.982   0.444
 9218SOL    HW128553   2.225   0.897   0.391
 9218SOL    HW228554   2.163   0.964   0.527
 9219SOL     OW28555   6.367   1.835   0.714
 9219SOL    HW128556   6.341   1.822   0.810
 9219SOL    HW228557   6.426   1.759   0.685
 9220SOL     OW28558   3.525   6.243   0.917
 9220SOL    HW128559   3.539   6.341   0.904
 9220SOL    HW228560   3.438   6.217   0.876
 9221SOL     OW28561   2.771   4.769   4.825
 9221SOL    HW128562   2.851   4.726   4.865
 9221SOL    HW228563   2.697   4.702   4.817
 9222SOL     OW28564   2.784   2.121   6.432
 9222SOL    HW128565   2.702   2.096   6.483
 9222SOL    HW228566   2.801   2.219   6.442
 9223SOL     OW28567   2.802   3.173   5.227
 9223SOL    HW128568   2.759   3.160   5.138
 9223SOL    HW228569   2.794   3.268   5.255
 9224SOL     OW28570   2.144   4.719   5.516
 9224SOL    HW128571   2.105   4.787   5.578
 9224SOL    HW228572   2.146   4.756   5.423
 9225SOL     OW28573   1.694   6.375   0.180
 9225SOL    HW128574   1.712   6.360   0.082
 9225SOL    HW228575   1.656   6.292   0.220
 9226SOL     OW28576   4.756   6.533   0.680
 9226SOL    HW128577   4.831   6.553   0.743
 9226SOL    HW228578   4.739   6.614   0.623
 9227SOL     OW28579   1.383   6.715   2.106
 9227SOL    HW128580   1.427   6.722   2.017
 9227SOL    HW228581   1.446   6.746   2.177
 9228SOL     OW28582   0.823   6.837   6.931
 9228SOL    HW128583   0.811   6.771   6.856
 9228SOL    HW228584   0.906   6.891   6.914
 9229SOL     OW28585   0.670   5.542   5.551
 9229SOL    HW128586   0.578   5.565   5.583
 9229SOL    HW228587   0.664   5.479   5.474
 9230SOL     OW28588   4.904   1.098   3.594
 9230SOL    HW128589   4.947   1.105   3.683
 9230SOL    HW228590   4.866   1.187   3.568
 9231SOL     OW28591   2.131   3.497   3.590
 9231SOL    HW128592   2.159   3.584   3.630
 9231SOL    HW228593   2.119   3.507   3.491
 9232SOL     OW28594   4.007   5.014   1.026
 9232SOL    HW128595   4.067   5.068   1.085
 9232SOL    HW228596   4.058   4.981   0.947
 9233SOL     OW28597   5.375   4.711   0.415
 9233SOL    HW128598   5.402   4.805   0.434
 9233SOL    HW228599   5.454   4.650   0.429
 9234SOL     OW28600   1.510   6.258   3.810
 9234SOL    HW128601   1.511   6.305   3.898
 9234SOL    HW228602   1.532   6.161   3.824
 9235SOL     OW28603   0.943   2.477   3.716
 9235SOL    HW128604   0.949   2.577   3.714
 9235SOL    HW228605   0.983   2.443   3.802
 9236SOL     OW28606   4.135   2.577   5.879
 9236SOL    HW128607   4.061   2.548   5.940
 9236SOL    HW228608   4.176   2.496   5.836
 9237SOL     OW28609   1.503   3.876   3.205
 9237SOL    HW128610   1.424   3.863   3.265
 9237SOL    HW228611   1.587   3.859   3.256
 9238SOL     OW28612   4.365   3.497   6.620
 9238SOL    HW128613   4.327   3.492   6.713
 9238SOL    HW228614   4.461   3.472   6.622
 9239SOL     OW28615   1.402   3.553   6.522
 9239SOL    HW128616   1.478   3.607   6.559
 9239SOL    HW228617   1.316   3.591   6.554
 9240SOL     OW28618   4.754   1.047   2.069
 9240SOL    HW128619   4.677   1.105   2.095
 9240SOL    HW228620   4.839   1.086   2.107
 9241SOL     OW28621   0.719   5.354   6.342
 9241SOL    HW128622   0.653   5.411   6.293
 9241SOL    HW228623   0.803   5.346   6.288
 9242SOL     OW28624   5.929   6.108   1.400
 9242SOL    HW128625   5.910   6.170   1.325
 9242SOL    HW228626   5.918   6.156   1.487
 9243SOL     OW28627   5.547   6.616   4.282
 9243SOL    HW128628   5.523   6.573   4.195
 9243SOL    HW228629   5.543   6.716   4.272
 9244SOL     OW28630   3.668   5.611   0.672
 9244SOL    HW128631   3.766   5.598   0.655
 9244SOL    HW228632   3.623   5.522   0.676
 9245SOL     OW28633   0.350   6.794   1.576
 9245SOL    HW128634   0.342   6.735   1.656
 9245SOL    HW228635   0.371   6.887   1.606
 9246SOL     OW28636   6.854   5.012   3.816
 9246SOL    HW128637   6.784   5.052   3.757
 9246SOL    HW228638   6.824   5.017   3.911
 9247SOL     OW28639   1.621   0.075   3.578
 9247SOL    HW128640   1.630   0.077   3.478
 9247SOL    HW228641   1.540   0.127   3.605
 9248SOL     OW28642   4.014   1.896   6.072
 9248SOL    HW128643   4.112   1.882   6.088
 9248SOL    HW228644   3.962   1.827   6.121
 9249SOL     OW28645   4.091   6.337   3.431
 9249SOL    HW128646   3.994   6.312   3.435
 9249SOL    HW228647   4.103   6.415   3.371
 9250SOL     OW28648   5.064   3.962   3.363
 9250SOL    HW128649   4.986   4.001   3.411
 9250SOL    HW228650   5.142   4.024   3.370
 9251SOL     OW28651   3.843   2.167   2.960
 9251SOL    HW128652   3.876   2.236   2.895
 9251SOL    HW228653   3.756   2.130   2.927
 9252SOL     OW28654   1.451   6.957   4.330
 9252SOL    HW128655   1.498   6.987   4.413
 9252SOL    HW228656   1.443   0.012   4.267
 9253SOL     OW28657   1.749   6.709   5.897
 9253SOL    HW128658   1.666   6.728   5.844
 9253SOL    HW228659   1.785   6.795   5.933
 9254SOL     OW28660   5.441   2.482   1.227
 9254SOL    HW128661   5.540   2.470   1.234
 9254SOL    HW228662   5.412   2.458   1.134
 9255SOL     OW28663   6.987   5.458   0.720
 9255SOL    HW128664   6.912   5.392   0.717
 9255SOL    HW228665   0.034   5.435   0.650
 9256SOL     OW28666   3.653   5.423   2.232
 9256SOL    HW128667   3.560   5.427   2.197
 9256SOL    HW228668   3.652   5.437   2.331
 9257SOL     OW28669   0.772   3.532   0.916
 9257SOL    HW128670   0.764   3.608   0.851
 9257SOL    HW228671   0.867   3.526   0.948
 9258SOL     OW28672   3.019   3.117   3.503
 9258SOL    HW128673   3.098   3.064   3.533
 9258SOL    HW228674   3.017   3.119   3.403
 9259SOL     OW28675   1.316   2.566   0.369
 9259SOL    HW128676   1.404   2.586   0.325
 9259SOL    HW228677   1.243   2.568   0.301
 9260SOL     OW28678   6.456   3.927   6.984
 9260SOL    HW128679   6.543   3.884   7.011
 9260SOL    HW228680   6.380   3.868   7.011
 9261SOL     OW28681   3.618   6.921   6.089
 9261SOL    HW128682   3.581   6.835   6.053
 9261SOL    HW228683   3.626   6.988   6.016
 9262SOL     OW28684   5.567   0.541   5.714
 9262SOL    HW128685   5.495   0.490   5.762
 9262SOL    HW228686   5.613   0.602   5.778
 9263SOL     OW28687   5.963   4.055   1.642
 9263SOL    HW128688   6.007   4.009   1.719
 9263SOL    HW228689   5.906   4.130   1.677
 9264SOL     OW28690   6.050   2.371   6.814
 9264SOL    HW128691   5.968   2.334   6.770
 9264SOL    HW228692   6.095   2.299   6.866
 9265SOL     OW28693   1.501   1.392   5.704
 9265SOL    HW128694   1.592   1.365   5.736
 9265SOL    HW228695   1.502   1.488   5.677
 9266SOL     OW28696   2.820   6.197   2.188
 9266SOL    HW128697   2.916   6.192   2.158
 9266SOL    HW228698   2.762   6.217   2.110
 9267SOL     OW28699   2.548   5.285   5.401
 9267SOL    HW128700   2.525   5.210   5.339
 9267SOL    HW228701   2.588   5.360   5.349
 9268SOL     OW28702   0.997   1.544   3.138
 9268SOL    HW128703   1.096   1.539   3.129
 9268SOL    HW228704   0.964   1.467   3.192
 9269SOL     OW28705   4.319   1.883   5.215
 9269SOL    HW128706   4.251   1.927   5.274
 9269SOL    HW228707   4.410   1.894   5.256
 9270SOL     OW28708   1.551   0.232   5.983
 9270SOL    HW128709   1.491   0.195   5.913
 9270SOL    HW228710   1.593   0.317   5.951
 9271SOL     OW28711   0.687   4.681   6.042
 9271SOL    HW128712   0.676   4.611   5.971
 9271SOL    HW228713   0.757   4.746   6.013
 9272SOL     OW28714   2.106   4.983   6.657
 9272SOL    HW128715   2.179   4.915   6.665
 9272SOL    HW228716   2.045   4.975   6.736
 9273SOL     OW28717   3.855   5.671   5.696
 9273SOL    HW128718   3.886   5.758   5.658
 9273SOL    HW228719   3.914   5.645   5.773
 9274SOL     OW28720   5.703   2.468   1.724
 9274SOL    HW128721   5.660   2.534   1.662
 9274SOL    HW228722   5.644   2.453   1.803
 9275SOL     OW28723   0.329   0.363   6.051
 9275SOL    HW128724   0.310   0.458   6.074
 9275SOL    HW228725   0.264   0.332   5.981
 9276SOL     OW28726   4.645   6.674   3.819
 9276SOL    HW128727   4.604   6.728   3.746
 9276SOL    HW228728   4.582   6.668   3.896
 9277SOL     OW28729   3.626   2.694   0.561
 9277SOL    HW128730   3.626   2.793   0.573
 9277SOL    HW228731   3.616   2.649   0.649
 9278SOL     OW28732   1.498   2.557   1.370
 9278SOL    HW128733   1.524   2.477   1.316
 9278SOL    HW228734   1.471   2.528   1.462
 9279SOL     OW28735   1.936   6.370   0.858
 9279SOL    HW128736   1.889   6.457   0.868
 9279SOL    HW228737   1.992   6.372   0.775
 9280SOL     OW28738   1.544   0.562   2.924
 9280SOL    HW128739   1.641   0.542   2.930
 9280SOL    HW228740   1.513   0.604   3.009
 9281SOL     OW28741   2.598   2.618   0.491
 9281SOL    HW128742   2.675   2.675   0.517
 9281SOL    HW228743   2.567   2.564   0.570
 9282SOL     OW28744   4.590   1.088   6.461
 9282SOL    HW128745   4.546   1.020   6.520
 9282SOL    HW228746   4.522   1.157   6.434
 9283SOL     OW28747   5.424   2.710   2.750
 9283SOL    HW128748   5.340   2.680   2.705
 9283SOL    HW228749   5.422   2.809   2.762
 9284SOL     OW28750   3.627   3.859   1.784
 9284SOL    HW128751   3.580   3.937   1.826
 9284SOL    HW228752   3.720   3.885   1.760
 9285SOL     OW28753   6.391   2.341   6.833
 9285SOL    HW128754   6.421   2.324   6.739
 9285SOL    HW228755   6.345   2.430   6.838
 9286SOL     OW28756   5.513   5.533   5.109
 9286SOL    HW128757   5.423   5.559   5.074
 9286SOL    HW228758   5.578   5.528   5.033
 9287SOL     OW28759   2.375   0.033   2.020
 9287SOL    HW128760   2.456   0.086   2.045
 9287SOL    HW228761   2.314   0.026   2.099
 9288SOL     OW28762   4.888   1.909   6.036
 9288SOL    HW128763   4.929   1.876   5.951
 9288SOL    HW228764   4.942   1.986   6.071
 9289SOL     OW28765   5.898   4.007   2.759
 9289SOL    HW128766   5.871   4.007   2.855
 9289SOL    HW228767   5.818   3.990   2.701
 9290SOL     OW28768   4.395   1.853   4.324
 9290SOL    HW128769   4.377   1.833   4.227
 9290SOL    HW228770   4.478   1.805   4.352
 9291SOL     OW28771   1.025   1.729   5.025
 9291SOL    HW128772   0.941   1.686   5.060
 9291SOL    HW228773   1.099   1.717   5.091
 9292SOL     OW28774   0.192   3.978   0.362
 9292SOL    HW128775   0.164   3.924   0.283
 9292SOL    HW228776   0.137   3.952   0.441
 9293SOL     OW28777   6.556   3.826   6.250
 9293SOL    HW128778   6.466   3.785   6.245
 9293SOL    HW228779   6.604   3.814   6.163
 9294SOL     OW28780   5.555   6.066   6.366
 9294SOL    HW128781   5.504   5.993   6.410
 9294SOL    HW228782   5.559   6.146   6.426
 9295SOL     OW28783   4.722   2.186   3.422
 9295SOL    HW128784   4.677   2.276   3.428
 9295SOL    HW228785   4.695   2.130   3.500
 9296SOL     OW28786   6.855   6.978   5.057
 9296SOL    HW128787   6.815   0.048   5.064
 9296SOL    HW228788   6.794   6.911   5.098
 9297SOL     OW28789   0.651   0.644   1.510
 9297SOL    HW128790   0.608   0.662   1.598
 9297SOL    HW228791   0.720   0.714   1.491
 9298SOL     OW28792   0.540   6.090   4.876
 9298SOL    HW128793   0.522   6.165   4.813
 9298SOL    HW228794   0.459   6.075   4.933
 9299SOL     OW28795   1.905   3.292   3.775
 9299SOL    HW128796   1.977   3.278   3.843
 9299SOL    HW228797   1.926   3.239   3.693
 9300SOL     OW28798   5.677   4.635   3.709
 9300SOL    HW128799   5.758   4.582   3.735
 9300SOL    HW228800   5.661   4.707   3.777
 9301SOL     OW28801   6.596   4.388   1.644
 9301SOL    HW128802   6.571   4.369   1.549
 9301SOL    HW228803   6.656   4.315   1.677
 9302SOL     OW28804   1.993   2.025   2.629
 9302SOL    HW128805   2.083   2.023   2.673
 9302SOL    HW228806   1.999   2.076   2.544
 9303SOL     OW28807   4.925   4.410   0.655
 9303SOL    HW128808   4.980   4.361   0.723
 9303SOL    HW228809   4.981   4.481   0.613
 9304SOL     OW28810   4.476   3.622   0.260
 9304SOL    HW128811   4.573   3.624   0.236
 9304SOL    HW228812   4.437   3.535   0.232
 9305SOL     OW28813   4.864   3.930   2.064
 9305SOL    HW128814   4.810   3.863   2.013
 9305SOL    HW228815   4.819   4.019   2.059
 9306SOL     OW28816   6.156   5.358   4.508
 9306SOL    HW128817   6.082   5.407   4.555
 9306SOL    HW228818   6.144   5.260   4.521
 9307SOL     OW28819   2.213   0.901   5.963
 9307SOL    HW128820   2.302   0.887   5.920
 9307SOL    HW228821   2.189   0.820   6.016
 9308SOL     OW28822   6.841   2.175   0.504
 9308SOL    HW128823   6.796   2.240   0.444
 9308SOL    HW228824   6.859   2.218   0.592
 9309SOL     OW28825   5.008   2.672   6.599
 9309SOL    HW128826   5.102   2.646   6.623
 9309SOL    HW228827   5.011   2.738   6.524
 9310SOL     OW28828   4.438   6.476   0.991
 9310SOL    HW128829   4.491   6.473   1.075
 9310SOL    HW228830   4.481   6.418   0.922
 9311SOL     OW28831   6.789   3.339   1.854
 9311SOL    HW128832   6.743   3.297   1.776
 9311SOL    HW228833   6.802   3.437   1.836
 9312SOL     OW28834   1.962   4.374   4.879
 9312SOL    HW128835   1.958   4.420   4.968
 9312SOL    HW228836   1.937   4.278   4.890
 9313SOL     OW28837   6.181   6.565   2.289
 9313SOL    HW128838   6.119   6.532   2.218
 9313SOL    HW228839   6.220   6.653   2.261
 9314SOL     OW28840   6.055   3.911   0.130
 9314SOL    HW128841   6.115   3.860   0.192
 9314SOL    HW228842   6.055   4.008   0.156
 9315SOL     OW28843   0.565   6.786   6.662
 9315SOL    HW128844   0.659   6.753   6.668
 9315SOL    HW228845   0.561   6.883   6.684
 9316SOL     OW28846   3.714   5.815   4.772
 9316SOL    HW128847   3.681   5.738   4.826
 9316SOL    HW228848   3.680   5.806   4.678
 9317SOL     OW28849   4.597   4.029   5.482
 9317SOL    HW128850   4.695   4.025   5.462
 9317SOL    HW228851   4.583   4.075   5.571
 9318SOL     OW28852   0.017   6.703   5.893
 9318SOL    HW128853   6.983   6.641   5.950
 9318SOL    HW228854   6.994   6.715   5.805
 9319SOL     OW28855   6.437   2.886   4.302
 9319SOL    HW128856   6.469   2.881   4.208
 9319SOL    HW228857   6.478   2.811   4.355
 9320SOL     OW28858   3.987   2.503   6.421
 9320SOL    HW128859   3.983   2.600   6.398
 9320SOL    HW228860   4.020   2.492   6.515
 9321SOL     OW28861   5.632   5.883   3.914
 9321SOL    HW128862   5.580   5.864   3.997
 9321SOL    HW228863   5.703   5.814   3.901
 9322SOL     OW28864   0.975   6.694   0.577
 9322SOL    HW128865   1.062   6.741   0.564
 9322SOL    HW228866   0.929   6.731   0.658
 9323SOL     OW28867   0.684   1.346   6.568
 9323SOL    HW128868   0.753   1.306   6.507
 9323SOL    HW228869   0.656   1.277   6.634
 9324SOL     OW28870   1.687   5.004   6.640
 9324SOL    HW128871   1.686   5.071   6.566
 9324SOL    HW228872   1.652   5.047   6.724
 9325SOL     OW28873   0.293   2.806   0.653
 9325SOL    HW128874   0.221   2.818   0.585
 9325SOL    HW228875   0.372   2.763   0.610
 9326SOL     OW28876   2.372   5.557   1.566
 9326SOL    HW128877   2.288   5.524   1.524
 9326SOL    HW228878   2.451   5.520   1.518
 9327SOL     OW28879   3.477   1.108   3.519
 9327SOL    HW128880   3.379   1.124   3.505
 9327SOL    HW228881   3.528   1.150   3.444
 9328SOL     OW28882   2.774   0.638   2.097
 9328SOL    HW128883   2.689   0.621   2.047
 9328SOL    HW228884   2.828   0.553   2.101
 9329SOL     OW28885   1.025   4.283   1.942
 9329SOL    HW128886   1.122   4.289   1.920
 9329SOL    HW228887   1.010   4.309   2.038
 9330SOL     OW28888   5.416   6.847   6.367
 9330SOL    HW128889   5.326   6.836   6.409
 9330SOL    HW228890   5.475   6.899   6.429
 9331SOL     OW28891   0.593   2.071   0.090
 9331SOL    HW128892   0.647   2.148   0.124
 9331SOL    HW228893   0.648   1.988   0.091
 9332SOL     OW28894   3.684   3.764   5.270
 9332SOL    HW128895   3.622   3.689   5.245
 9332SOL    HW228896   3.666   3.790   5.365
 9333SOL     OW28897   5.254   5.531   0.723
 9333SOL    HW128898   5.206   5.468   0.784
 9333SOL    HW228899   5.209   5.621   0.725
 9334SOL     OW28900   2.787   0.105   4.762
 9334SOL    HW128901   2.762   0.187   4.711
 9334SOL    HW228902   2.854   0.052   4.709
 9335SOL     OW28903   0.980   1.358   2.214
 9335SOL    HW128904   1.074   1.345   2.246
 9335SOL    HW228905   0.976   1.344   2.115
 9336SOL     OW28906   3.371   0.168   5.330
 9336SOL    HW128907   3.377   0.073   5.298
 9336SOL    HW228908   3.328   0.224   5.260
 9337SOL     OW28909   4.633   7.003   2.797
 9337SOL    HW128910   4.681   6.920   2.825
 9337SOL    HW228911   4.534   6.989   2.807
 9338SOL     OW28912   3.297   6.720   1.706
 9338SOL    HW128913   3.322   6.742   1.611
 9338SOL    HW228914   3.305   6.802   1.762
 9339SOL     OW28915   3.457   5.474   1.368
 9339SOL    HW128916   3.376   5.513   1.411
 9339SOL    HW228917   3.468   5.513   1.277
 9340SOL     OW28918   6.417   3.573   0.978
 9340SOL    HW128919   6.371   3.651   0.936
 9340SOL    HW228920   6.515   3.590   0.982
 9341SOL     OW28921   6.869   4.046   5.628
 9341SOL    HW128922   6.950   3.988   5.643
 9341SOL    HW228923   6.874   4.126   5.687
 9342SOL     OW28924   1.531   0.146   6.456
 9342SOL    HW128925   1.626   0.122   6.437
 9342SOL    HW228926   1.497   0.092   6.533
 9343SOL     OW28927   5.813   6.211   4.140
 9343SOL    HW128928   5.870   6.278   4.092
 9343SOL    HW228929   5.831   6.120   4.105
 9344SOL     OW28930   5.217   6.529   1.042
 9344SOL    HW128931   5.232   6.557   0.947
 9344SOL    HW228932   5.260   6.596   1.103
 9345SOL     OW28933   0.702   3.186   0.856
 9345SOL    HW128934   0.735   3.093   0.843
 9345SOL    HW228935   0.663   3.196   0.947
 9346SOL     OW28936   6.000   0.823   0.552
 9346SOL    HW128937   5.933   0.849   0.482
 9346SOL    HW228938   6.066   0.897   0.564
 9347SOL     OW28939   2.430   6.437   2.053
 9347SOL    HW128940   2.527   6.427   2.028
 9347SOL    HW228941   2.394   6.521   2.013
 9348SOL     OW28942   2.888   4.992   0.328
 9348SOL    HW128943   2.843   5.024   0.411
 9348SOL    HW228944   2.941   5.066   0.288
 9349SOL     OW28945   1.698   6.086   2.488
 9349SOL    HW128946   1.774   6.125   2.436
 9349SOL    HW228947   1.655   6.157   2.543
 9350SOL     OW28948   0.295   2.924   5.975
 9350SOL    HW128949   0.336   2.877   5.897
 9350SOL    HW228950   0.359   2.925   6.051
 9351SOL     OW28951   2.978   0.747   6.567
 9351SOL    HW128952   3.030   0.706   6.492
 9351SOL    HW228953   2.880   0.738   6.548
 9352SOL     OW28954   2.400   5.110   6.115
 9352SOL    HW128955   2.409   5.190   6.055
 9352SOL    HW228956   2.391   5.028   6.058
 9353SOL     OW28957   5.800   0.896   1.109
 9353SOL    HW128958   5.773   0.820   1.050
 9353SOL    HW228959   5.889   0.932   1.079
 9354SOL     OW28960   0.863   1.235   6.419
 9354SOL    HW128961   0.813   1.218   6.334
 9354SOL    HW228962   0.945   1.178   6.422
 9355SOL     OW28963   0.567   1.499   5.079
 9355SOL    HW128964   0.589   1.401   5.075
 9355SOL    HW228965   0.555   1.534   4.986
 9356SOL     OW28966   4.305   7.001   3.746
 9356SOL    HW128967   4.287   6.915   3.794
 9356SOL    HW228968   4.237   0.047   3.774
 9357SOL     OW28969   1.475   2.100   0.385
 9357SOL    HW128970   1.477   2.112   0.484
 9357SOL    HW228971   1.546   2.035   0.358
 9358SOL     OW28972   1.193   2.282   1.338
 9358SOL    HW128973   1.148   2.369   1.360
 9358SOL    HW228974   1.150   2.208   1.390
 9359SOL     OW28975   0.926   0.299   5.457
 9359SOL    HW128976   0.866   0.262   5.386
 9359SOL    HW228977   0.977   0.225   5.500
 9360SOL     OW28978   0.283   0.635   6.115
 9360SOL    HW128979   0.189   0.648   6.149
 9360SOL    HW228980   0.347   0.668   6.184
 9361SOL     OW28981   2.351   5.498   4.405
 9361SOL    HW128982   2.289   5.437   4.355
 9361SOL    HW228983   2.335   5.592   4.375
 9362SOL     OW28984   1.883   0.550   2.224
 9362SOL    HW128985   1.847   0.457   2.209
 9362SOL    HW228986   1.938   0.577   2.146
 9363SOL     OW28987   1.791   2.980   2.202
 9363SOL    HW128988   1.731   3.010   2.128
 9363SOL    HW228989   1.815   2.884   2.187
 9364SOL     OW28990   0.009   2.284   0.169
 9364SOL    HW128991   0.062   2.229   0.233
 9364SOL    HW228992   6.934   2.283   0.195
 9365SOL     OW28993   2.266   0.778   5.328
 9365SOL    HW128994   2.170   0.807   5.335
 9365SOL    HW228995   2.296   0.786   5.233
 9366SOL     OW28996   3.811   6.588   2.349
 9366SOL    HW128997   3.909   6.608   2.346
 9366SOL    HW228998   3.786   6.534   2.269
 9367SOL     OW28999   6.861   0.580   1.334
 9367SOL    HW129000   6.860   0.525   1.250
 9367SOL    HW229001   6.827   0.524   1.410
 9368SOL     OW29002   2.240   0.665   2.501
 9368SOL    HW129003   2.192   0.619   2.576
 9368SOL    HW229004   2.213   0.761   2.498
 9369SOL     OW29005   3.560   4.979   0.791
 9369SOL    HW129006   3.590   5.027   0.874
 9369SOL    HW229007   3.583   5.034   0.711
 9370SOL     OW29008   4.454   2.437   5.038
 9370SOL    HW129009   4.498   2.509   5.093
 9370SOL    HW229010   4.367   2.411   5.081
 9371SOL     OW29011   4.088   4.539   0.812
 9371SOL    HW129012   4.145   4.550   0.730
 9371SOL    HW229013   4.014   4.606   0.810
 9372SOL     OW29014   4.192   6.361   1.038
 9372SOL    HW129015   4.204   6.269   1.075
 9372SOL    HW229016   4.279   6.409   1.038
 9373SOL     OW29017   0.282   2.421   1.787
 9373SOL    HW129018   0.192   2.380   1.804
 9373SOL    HW229019   0.325   2.444   1.874
 9374SOL     OW29020   6.987   5.343   6.217
 9374SOL    HW129021   0.026   5.272   6.251
 9374SOL    HW229022   0.014   5.401   6.152
 9375SOL     OW29023   1.162   1.092   0.155
 9375SOL    HW129024   1.195   1.162   0.218
 9375SOL    HW229025   1.144   1.007   0.205
 9376SOL     OW29026   2.728   3.452   0.590
 9376SOL    HW129027   2.810   3.461   0.533
 9376SOL    HW229028   2.648   3.442   0.531
 9377SOL     OW29029   0.826   0.893   3.337
 9377SOL    HW129030   0.768   0.934   3.266
 9377SOL    HW229031   0.820   0.948   3.420
 9378SOL     OW29032   3.593   1.214   4.966
 9378SOL    HW129033   3.576   1.270   4.885
 9378SOL    HW229034   3.655   1.139   4.942
 9379SOL     OW29035   4.141   0.673   4.462
 9379SOL    HW129036   4.179   0.755   4.420
 9379SOL    HW229037   4.200   0.641   4.536
 9380SOL     OW29038   4.799   5.515   0.754
 9380SOL    HW129039   4.863   5.538   0.827
 9380SOL    HW229040   4.811   5.420   0.726
 9381SOL     OW29041   5.598   0.764   4.893
 9381SOL    HW129042   5.655   0.756   4.811
 9381SOL    HW229043   5.646   0.816   4.963
 9382SOL     OW29044   3.345   5.729   6.075
 9382SOL    HW129045   3.352   5.630   6.062
 9382SOL    HW229046   3.429   5.773   6.045
 9383SOL     OW29047   5.919   3.671   1.710
 9383SOL    HW129048   5.934   3.610   1.788
 9383SOL    HW229049   5.860   3.746   1.738
 9384SOL     OW29050   4.105   0.161   0.986
 9384SOL    HW129051   4.109   0.061   0.978
 9384SOL    HW229052   4.195   0.199   0.966
 9385SOL     OW29053   4.048   2.233   3.987
 9385SOL    HW129054   4.141   2.261   4.011
 9385SOL    HW229055   3.984   2.269   4.054
 9386SOL     OW29056   5.800   6.875   1.341
 9386SOL    HW129057   5.865   6.935   1.293
 9386SOL    HW229058   5.715   6.870   1.288
 9387SOL     OW29059   2.241   1.929   6.389
 9387SOL    HW129060   2.147   1.962   6.376
 9387SOL    HW229061   2.249   1.837   6.351
 9388SOL     OW29062   2.816   0.131   4.334
 9388SOL    HW129063   2.795   0.203   4.267
 9388SOL    HW229064   2.731   0.088   4.363
 9389SOL     OW29065   2.206   4.057   2.071
 9389SOL    HW129066   2.157   4.122   2.129
 9389SOL    HW229067   2.274   4.008   2.126
 9390SOL     OW29068   5.650   4.872   3.882
 9390SOL    HW129069   5.559   4.908   3.863
 9390SOL    HW229070   5.705   4.942   3.926
 9391SOL     OW29071   1.654   4.256   4.524
 9391SOL    HW129072   1.745   4.270   4.486
 9391SOL    HW229073   1.655   4.276   4.622
 9392SOL     OW29074   4.604   4.768   2.416
 9392SOL    HW129075   4.547   4.689   2.439
 9392SOL    HW229076   4.661   4.747   2.337
 9393SOL     OW29077   1.896   4.930   6.374
 9393SOL    HW129078   1.867   5.023   6.397
 9393SOL    HW229079   1.898   4.874   6.457
 9394SOL     OW29080   4.757   0.095   0.416
 9394SOL    HW129081   4.677   0.136   0.459
 9394SOL    HW229082   4.818   0.166   0.382
 9395SOL     OW29083   1.163   1.565   1.476
 9395SOL    HW129084   1.166   1.502   1.398
 9395SOL    HW229085   1.071   1.603   1.485
 9396SOL     OW29086   0.903   0.597   6.144
 9396SOL    HW129087   0.860   0.678   6.185
 9396SOL    HW229088   0.891   0.600   6.045
 9397SOL     OW29089   2.928   1.242   4.738
 9397SOL    HW129090   2.837   1.275   4.764
 9397SOL    HW229091   2.973   1.203   4.818
 9398SOL     OW29092   6.887   1.603   0.072
 9398SOL    HW129093   6.923   1.685   0.117
 9398SOL    HW229094   6.802   1.575   0.117
 9399SOL     OW29095   1.459   2.001   4.839
 9399SOL    HW129096   1.459   1.979   4.936
 9399SOL    HW229097   1.538   2.059   4.818
 9400SOL     OW29098   5.598   1.613   1.463
 9400SOL    HW129099   5.654   1.585   1.385
 9400SOL    HW229100   5.631   1.568   1.546
 9401SOL     OW29101   0.280   2.239   3.766
 9401SOL    HW129102   0.207   2.269   3.704
 9401SOL    HW229103   0.350   2.310   3.772
 9402SOL     OW29104   3.465   6.274   5.339
 9402SOL    HW129105   3.485   6.183   5.303
 9402SOL    HW229106   3.498   6.343   5.274
 9403SOL     OW29107   5.861   2.052   1.233
 9403SOL    HW129108   5.844   2.017   1.325
 9403SOL    HW229109   5.783   2.030   1.175
 9404SOL     OW29110   2.182   2.796   1.039
 9404SOL    HW129111   2.233   2.850   1.105
 9404SOL    HW229112   2.231   2.794   0.952
 9405SOL     OW29113   6.244   5.857   5.322
 9405SOL    HW129114   6.245   5.817   5.231
 9405SOL    HW229115   6.336   5.887   5.347
 9406SOL     OW29116   1.628   1.746   0.940
 9406SOL    HW129117   1.603   1.697   0.856
 9406SOL    HW229118   1.701   1.812   0.920
 9407SOL     OW29119   1.615   4.301   4.831
 9407SOL    HW129120   1.709   4.273   4.852
 9407SOL    HW229121   1.561   4.304   4.915
 9408SOL     OW29122   5.770   4.357   4.171
 9408SOL    HW129123   5.758   4.356   4.072
 9408SOL    HW229124   5.798   4.266   4.202
 9409SOL     OW29125   5.661   5.750   1.280
 9409SOL    HW129126   5.681   5.655   1.303
 9409SOL    HW229127   5.576   5.778   1.327
 9410SOL     OW29128   4.510   0.132   1.158
 9410SOL    HW129129   4.496   0.144   1.257
 9410SOL    HW229130   4.607   0.122   1.139
 9411SOL     OW29131   3.136   4.013   3.701
 9411SOL    HW129132   3.130   3.916   3.723
 9411SOL    HW229133   3.159   4.065   3.783
 9412SOL     OW29134   4.250   0.156   1.491
 9412SOL    HW129135   4.213   0.165   1.399
 9412SOL    HW229136   4.194   0.092   1.543
 9413SOL     OW29137   3.657   4.896   3.281
 9413SOL    HW129138   3.690   4.882   3.188
 9413SOL    HW229139   3.557   4.892   3.283
 9414SOL     OW29140   1.955   1.642   2.391
 9414SOL    HW129141   1.868   1.628   2.439
 9414SOL    HW229142   2.005   1.556   2.388
 9415SOL     OW29143   5.176   0.239   1.301
 9415SOL    HW129144   5.182   0.320   1.359
 9415SOL    HW229145   5.233   0.166   1.339
 9416SOL     OW29146   6.101   4.982   5.415
 9416SOL    HW129147   6.191   4.986   5.457
 9416SOL    HW229148   6.037   4.934   5.475
 9417SOL     OW29149   3.627   6.141   2.520
 9417SOL    HW129150   3.658   6.062   2.572
 9417SOL    HW229151   3.555   6.188   2.570
 9418SOL     OW29152   3.051   2.217   4.786
 9418SOL    HW129153   3.067   2.243   4.881
 9418SOL    HW229154   3.138   2.194   4.742
 9419SOL     OW29155   2.211   2.448   6.040
 9419SOL    HW129156   2.285   2.514   6.044
 9419SOL    HW229157   2.231   2.372   6.102
 9420SOL     OW29158   5.629   3.576   5.776
 9420SOL    HW129159   5.720   3.602   5.807
 9420SOL    HW229160   5.624   3.586   5.677
 9421SOL     OW29161   3.942   6.730   7.004
 9421SOL    HW129162   3.972   6.778   0.064
 9421SOL    HW229163   3.944   6.631   7.021
 9422SOL     OW29164   2.265   6.713   5.867
 9422SOL    HW129165   2.257   6.636   5.931
 9422SOL    HW229166   2.329   6.689   5.794
 9423SOL     OW29167   4.297   5.063   1.306
 9423SOL    HW129168   4.341   5.130   1.246
 9423SOL    HW229169   4.346   5.057   1.392
 9424SOL     OW29170   6.507   0.214   4.041
 9424SOL    HW129171   6.507   0.312   4.057
 9424SOL    HW229172   6.413   0.181   4.034
 9425SOL     OW29173   0.246   5.233   0.927
 9425SOL    HW129174   0.274   5.248   0.832
 9425SOL    HW229175   0.169   5.293   0.949
 9426SOL     OW29176   4.294   2.430   6.391
 9426SOL    HW129177   4.227   2.443   6.317
 9426SOL    HW229178   4.312   2.517   6.436
 9427SOL     OW29179   3.689   5.507   1.719
 9427SOL    HW129180   3.730   5.477   1.633
 9427SOL    HW229181   3.760   5.511   1.790
 9428SOL     OW29182   0.640   6.276   5.311
 9428SOL    HW129183   0.551   6.260   5.354
 9428SOL    HW229184   0.712   6.234   5.366
 9429SOL     OW29185   2.892   2.267   3.855
 9429SOL    HW129186   2.880   2.239   3.951
 9429SOL    HW229187   2.988   2.256   3.830
 9430SOL     OW29188   1.109   0.156   4.364
 9430SOL    HW129189   1.155   0.198   4.286
 9430SOL    HW229190   1.029   0.211   4.390
 9431SOL     OW29191   1.379   5.027   4.850
 9431SOL    HW129192   1.427   5.080   4.781
 9431SOL    HW229193   1.371   5.081   4.934
 9432SOL     OW29194   6.674   1.127   3.504
 9432SOL    HW129195   6.685   1.177   3.419
 9432SOL    HW229196   6.761   1.087   3.531
 9433SOL     OW29197   4.387   5.372   1.791
 9433SOL    HW129198   4.303   5.414   1.823
 9433SOL    HW229199   4.402   5.287   1.842
 9434SOL     OW29200   4.327   6.129   5.047
 9434SOL    HW129201   4.372   6.214   5.075
 9434SOL    HW229202   4.252   6.109   5.110
 9435SOL     OW29203   6.269   4.109   0.026
 9435SOL    HW129204   6.333   4.039   7.015
 9435SOL    HW229205   6.283   4.124   0.124
 9436SOL     OW29206   2.887   1.151   2.822
 9436SOL    HW129207   2.933   1.111   2.901
 9436SOL    HW229208   2.801   1.193   2.851
 9437SOL     OW29209   5.272   1.003   4.381
 9437SOL    HW129210   5.193   1.058   4.409
 9437SOL    HW229211   5.354   1.060   4.383
 9438SOL     OW29212   5.155   0.346   2.473
 9438SOL    HW129213   5.116   0.259   2.503
 9438SOL    HW229214   5.100   0.383   2.398
 9439SOL     OW29215   2.147   4.768   0.690
 9439SOL    HW129216   2.096   4.701   0.635
 9439SOL    HW229217   2.214   4.721   0.746
 9440SOL     OW29218   1.981   5.543   5.566
 9440SOL    HW129219   1.927   5.486   5.505
 9440SOL    HW229220   2.068   5.498   5.585
 9441SOL     OW29221   0.153   6.022   4.218
 9441SOL    HW129222   0.240   6.069   4.239
 9441SOL    HW229223   0.085   6.089   4.189
 9442SOL     OW29224   6.429   2.778   0.990
 9442SOL    HW129225   6.481   2.864   0.994
 9442SOL    HW229226   6.438   2.730   1.078
 9443SOL     OW29227   2.556   4.649   1.437
 9443SOL    HW129228   2.606   4.585   1.378
 9443SOL    HW229229   2.603   4.738   1.437
 9444SOL     OW29230   1.960   5.223   6.417
 9444SOL    HW129231   2.033   5.268   6.468
 9444SOL    HW229232   1.966   5.250   6.320
 9445SOL     OW29233   0.521   0.658   4.111
 9445SOL    HW129234   0.432   0.627   4.078
 9445SOL    HW229235   0.517   0.671   4.210
 9446SOL     OW29236   5.775   5.073   4.288
 9446SOL    HW129237   5.698   5.136   4.277
 9446SOL    HW229238   5.850   5.119   4.336
 9447SOL     OW29239   5.625   5.177   2.100
 9447SOL    HW129240   5.643   5.261   2.153
 9447SOL    HW229241   5.673   5.100   2.142
 9448SOL     OW29242   4.895   2.110   6.809
 9448SOL    HW129243   4.800   2.135   6.824
 9448SOL    HW229244   4.949   2.134   6.890
 9449SOL     OW29245   4.779   6.264   2.885
 9449SOL    HW129246   4.692   6.218   2.900
 9449SOL    HW229247   4.783   6.347   2.942
 9450SOL     OW29248   0.958   0.465   2.141
 9450SOL    HW129249   0.949   0.527   2.063
 9450SOL    HW229250   0.989   0.517   2.221
 9451SOL     OW29251   4.161   5.147   0.492
 9451SOL    HW129252   4.122   5.189   0.573
 9451SOL    HW229253   4.097   5.080   0.455
 9452SOL     OW29254   6.178   3.512   6.214
 9452SOL    HW129255   6.089   3.478   6.243
 9452SOL    HW229256   6.218   3.448   6.148
 9453SOL     OW29257   6.879   5.047   2.232
 9453SOL    HW129258   6.914   5.068   2.141
 9453SOL    HW229259   6.954   5.050   2.298
 9454SOL     OW29260   5.396   5.466   0.282
 9454SOL    HW129261   5.344   5.447   0.366
 9454SOL    HW229262   5.481   5.412   0.283
 9455SOL     OW29263   4.565   0.559   1.464
 9455SOL    HW129264   4.561   0.658   1.469
 9455SOL    HW229265   4.630   0.531   1.394
 9456SOL     OW29266   6.887   2.534   2.462
 9456SOL    HW129267   6.966   2.553   2.405
 9456SOL    HW229268   6.810   2.504   2.405
 9457SOL     OW29269   6.612   6.534   4.367
 9457SOL    HW129270   6.630   6.442   4.332
 9457SOL    HW229271   6.681   6.597   4.331
 9458SOL     OW29272   6.730   3.837   0.083
 9458SOL    HW129273   6.807   3.784   0.119
 9458SOL    HW229274   6.756   3.934   0.079
 9459SOL     OW29275   5.481   4.395   5.145
 9459SOL    HW129276   5.423   4.356   5.217
 9459SOL    HW229277   5.423   4.430   5.071
 9460SOL     OW29278   1.999   2.629   3.148
 9460SOL    HW129279   2.058   2.548   3.144
 9460SOL    HW229280   1.990   2.668   3.056
 9461SOL     OW29281   2.742   1.751   1.814
 9461SOL    HW129282   2.779   1.773   1.724
 9461SOL    HW229283   2.692   1.665   1.810
 9462SOL     OW29284   0.111   1.431   5.601
 9462SOL    HW129285   0.072   1.438   5.692
 9462SOL    HW229286   0.041   1.401   5.536
 9463SOL     OW29287   6.706   4.855   0.752
 9463SOL    HW129288   6.649   4.894   0.824
 9463SOL    HW229289   6.801   4.882   0.767
 9464SOL     OW29290   1.355   0.208   1.901
 9464SOL    HW129291   1.367   0.259   1.816
 9464SOL    HW229292   1.279   0.246   1.953
 9465SOL     OW29293   6.682   5.875   0.410
 9465SOL    HW129294   6.771   5.919   0.399
 9465SOL    HW229295   6.637   5.867   0.321
 9466SOL     OW29296   4.250   3.959   5.728
 9466SOL    HW129297   4.294   3.940   5.816
 9466SOL    HW229298   4.204   4.047   5.732
 9467SOL     OW29299   1.330   3.866   1.005
 9467SOL    HW129300   1.413   3.814   1.024
 9467SOL    HW229301   1.252   3.820   1.046
 9468SOL     OW29302   6.091   1.386   1.294
 9468SOL    HW129303   6.003   1.432   1.310
 9468SOL    HW229304   6.153   1.406   1.371
 9469SOL     OW29305   6.624   6.929   2.130
 9469SOL    HW129306   6.718   6.912   2.102
 9469SOL    HW229307   6.610   0.006   2.142
 9470SOL     OW29308   3.258   2.900   1.043
 9470SOL    HW129309   3.271   2.801   1.045
 9470SOL    HW229310   3.188   2.926   1.109
 9471SOL     OW29311   6.361   3.144   4.391
 9471SOL    HW129312   6.402   3.054   4.377
 9471SOL    HW229313   6.301   3.141   4.471
 9472SOL     OW29314   2.335   3.339   6.526
 9472SOL    HW129315   2.367   3.372   6.437
 9472SOL    HW229316   2.337   3.414   6.592
 9473SOL     OW29317   2.852   3.405   1.434
 9473SOL    HW129318   2.865   3.368   1.342
 9473SOL    HW229319   2.797   3.488   1.429
 9474SOL     OW29320   5.718   4.377   0.648
 9474SOL    HW129321   5.645   4.352   0.711
 9474SOL    HW229322   5.758   4.294   0.609
 9475SOL     OW29323   6.308   3.579   6.554
 9475SOL    HW129324   6.325   3.516   6.630
 9475SOL    HW229325   6.335   3.535   6.468
 9476SOL     OW29326   3.710   4.038   1.017
 9476SOL    HW129327   3.746   3.945   1.029
 9476SOL    HW229328   3.772   4.104   1.059
 9477SOL     OW29329   1.535   4.929   0.262
 9477SOL    HW129330   1.451   4.881   0.287
 9477SOL    HW229331   1.589   4.872   0.200
 9478SOL     OW29332   6.866   2.941   5.540
 9478SOL    HW129333   6.954   2.986   5.528
 9478SOL    HW229334   6.877   2.861   5.599
 9479SOL     OW29335   4.339   0.676   2.156
 9479SOL    HW129336   4.392   0.636   2.231
 9479SOL    HW229337   4.400   0.710   2.086
 9480SOL     OW29338   5.796   0.088   0.902
 9480SOL    HW129339   5.702   0.055   0.903
 9480SOL    HW229340   5.820   0.114   0.808
 9481SOL     OW29341   4.563   0.085   3.641
 9481SOL    HW129342   4.531   0.161   3.584
 9481SOL    HW229343   4.485   0.047   3.690
 9482SOL     OW29344   6.010   4.625   5.311
 9482SOL    HW129345   6.039   4.719   5.291
 9482SOL    HW229346   6.087   4.575   5.352
 9483SOL     OW29347   6.179   4.800   6.809
 9483SOL    HW129348   6.181   4.733   6.883
 9483SOL    HW229349   6.141   4.886   6.844
 9484SOL     OW29350   1.805   6.459   3.987
 9484SOL    HW129351   1.731   6.418   4.040
 9484SOL    HW229352   1.883   6.397   3.985
 9485SOL     OW29353   0.182   1.160   4.925
 9485SOL    HW129354   0.247   1.104   4.875
 9485SOL    HW229355   0.200   1.257   4.905
 9486SOL     OW29356   6.665   5.593   0.182
 9486SOL    HW129357   6.582   5.537   0.173
 9486SOL    HW229358   6.643   5.689   0.163
 9487SOL     OW29359   3.205   3.430   3.596
 9487SOL    HW129360   3.257   3.372   3.534
 9487SOL    HW229361   3.113   3.392   3.609
 9488SOL     OW29362   1.456   0.977   2.012
 9488SOL    HW129363   1.460   1.038   1.933
 9488SOL    HW229364   1.371   0.926   2.011
 9489SOL     OW29365   6.708   4.498   6.849
 9489SOL    HW129366   6.719   4.520   6.752
 9489SOL    HW229367   6.728   4.401   6.863
 9490SOL     OW29368   5.822   3.632   4.548
 9490SOL    HW129369   5.773   3.696   4.608
 9490SOL    HW229370   5.776   3.629   4.459
 9491SOL     OW29371   5.418   0.216   2.502
 9491SOL    HW129372   5.478   0.255   2.572
 9491SOL    HW229373   5.406   0.282   2.428
 9492SOL     OW29374   4.719   2.840   4.254
 9492SOL    HW129375   4.786   2.809   4.187
 9492SOL    HW229376   4.754   2.921   4.301
 9493SOL     OW29377   2.840   5.981   2.375
 9493SOL    HW129378   2.809   6.062   2.327
 9493SOL    HW229379   2.774   5.956   2.446
 9494SOL     OW29380   4.790   2.857   2.678
 9494SOL    HW129381   4.787   2.937   2.619
 9494SOL    HW229382   4.836   2.880   2.764
 9495SOL     OW29383   5.211   3.278   1.166
 9495SOL    HW129384   5.138   3.235   1.113
 9495SOL    HW229385   5.209   3.244   1.260
 9496SOL     OW29386   5.903   3.114   1.321
 9496SOL    HW129387   5.865   3.026   1.349
 9496SOL    HW229388   5.865   3.140   1.232
 9497SOL     OW29389   4.971   4.478   5.260
 9497SOL    HW129390   4.945   4.559   5.209
 9497SOL    HW229391   5.060   4.491   5.302
 9498SOL     OW29392   0.805   5.666   6.062
 9498SOL    HW129393   0.743   5.744   6.065
 9498SOL    HW229394   0.842   5.656   5.970
 9499SOL     OW29395   5.350   6.472   4.056
 9499SOL    HW129396   5.294   6.392   4.076
 9499SOL    HW229397   5.444   6.443   4.039
 9500SOL     OW29398   3.040   1.479   0.729
 9500SOL    HW129399   3.065   1.392   0.772
 9500SOL    HW229400   3.054   1.472   0.630
 9501SOL     OW29401   1.590   3.516   5.239
 9501SOL    HW129402   1.658   3.459   5.193
 9501SOL    HW229403   1.592   3.499   5.338
 9502SOL     OW29404   5.534   4.859   3.515
 9502SOL    HW129405   5.547   4.760   3.516
 9502SOL    HW229406   5.439   4.881   3.533
 9503SOL     OW29407   5.590   1.339   0.274
 9503SOL    HW129408   5.641   1.385   0.347
 9503SOL    HW229409   5.542   1.408   0.219
 9504SOL     OW29410   6.239   5.633   2.480
 9504SOL    HW129411   6.319   5.688   2.456
 9504SOL    HW229412   6.160   5.693   2.493
 9505SOL     OW29413   4.604   3.353   6.640
 9505SOL    HW129414   4.702   3.338   6.629
 9505SOL    HW229415   4.554   3.282   6.591
 9506SOL     OW29416   3.077   1.342   1.956
 9506SOL    HW129417   3.169   1.338   1.916
 9506SOL    HW229418   3.037   1.432   1.937
 9507SOL     OW29419   0.136   6.121   1.126
 9507SOL    HW129420   0.221   6.170   1.105
 9507SOL    HW229421   0.155   6.049   1.192
 9508SOL     OW29422   5.190   0.994   1.877
 9508SOL    HW129423   5.181   1.078   1.930
 9508SOL    HW229424   5.124   0.995   1.802
 9509SOL     OW29425   6.110   1.645   4.100
 9509SOL    HW129426   6.073   1.614   4.012
 9509SOL    HW229427   6.054   1.609   4.174
 9510SOL     OW29428   1.487   3.270   2.607
 9510SOL    HW129429   1.452   3.363   2.594
 9510SOL    HW229430   1.567   3.256   2.548
 9511SOL     OW29431   1.068   1.804   1.179
 9511SOL    HW129432   1.016   1.723   1.207
 9511SOL    HW229433   1.005   1.871   1.140
 9512SOL     OW29434   6.408   2.416   1.426
 9512SOL    HW129435   6.323   2.466   1.440
 9512SOL    HW229436   6.452   2.399   1.514
 9513SOL     OW29437   4.776   4.140   4.946
 9513SOL    HW129438   4.860   4.154   4.997
 9513SOL    HW229439   4.707   4.205   4.978
 9514SOL     OW29440   3.865   3.132   1.327
 9514SOL    HW129441   3.776   3.148   1.371
 9514SOL    HW229442   3.933   3.192   1.369
 9515SOL     OW29443   6.735   6.109   2.716
 9515SOL    HW129444   6.740   6.199   2.672
 9515SOL    HW229445   6.656   6.106   2.776
 9516SOL     OW29446   0.356   4.104   5.768
 9516SOL    HW129447   0.360   4.059   5.857
 9516SOL    HW229448   0.335   4.201   5.780
 9517SOL     OW29449   1.302   5.816   1.776
 9517SOL    HW129450   1.362   5.779   1.705
 9517SOL    HW229451   1.344   5.897   1.817
 9518SOL     OW29452   0.965   0.821   0.991
 9518SOL    HW129453   0.949   0.763   1.071
 9518SOL    HW229454   0.878   0.840   0.945
 9519SOL     OW29455   1.669   2.591   5.513
 9519SOL    HW129456   1.591   2.625   5.460
 9519SOL    HW229457   1.635   2.544   5.595
 9520SOL     OW29458   4.601   6.831   1.726
 9520SOL    HW129459   4.504   6.846   1.709
 9520SOL    HW229460   4.623   6.855   1.820
 9521SOL     OW29461   5.274   4.482   2.929
 9521SOL    HW129462   5.313   4.391   2.915
 9521SOL    HW229463   5.328   4.531   2.997
 9522SOL     OW29464   3.124   5.135   5.780
 9522SOL    HW129465   3.159   5.177   5.696
 9522SOL    HW229466   3.185   5.062   5.810
 9523SOL     OW29467   1.961   0.044   5.125
 9523SOL    HW129468   1.938   0.052   5.028
 9523SOL    HW229469   1.965   6.968   5.150
 9524SOL     OW29470   6.197   3.302   0.050
 9524SOL    HW129471   6.113   3.281   0.101
 9524SOL    HW229472   6.249   3.371   0.099
 9525SOL     OW29473   3.837   0.396   4.626
 9525SOL    HW129474   3.798   0.412   4.535
 9525SOL    HW229475   3.872   0.483   4.662
 9526SOL     OW29476   5.112   5.203   0.608
 9526SOL    HW129477   5.144   5.108   0.608
 9526SOL    HW229478   5.075   5.225   0.698
 9527SOL     OW29479   0.139   2.096   0.340
 9527SOL    HW129480   0.223   2.074   0.290
 9527SOL    HW229481   0.106   2.014   0.387
 9528SOL     OW29482   6.361   1.089   1.792
 9528SOL    HW129483   6.297   1.058   1.722
 9528SOL    HW229484   6.429   1.018   1.809
 9529SOL     OW29485   1.824   2.105   5.573
 9529SOL    HW129486   1.725   2.108   5.585
 9529SOL    HW229487   1.852   2.180   5.513
 9530SOL     OW29488   2.392   1.168   3.993
 9530SOL    HW129489   2.438   1.080   3.980
 9530SOL    HW229490   2.359   1.175   4.087
 9531SOL     OW29491   2.795   6.761   3.775
 9531SOL    HW129492   2.864   6.834   3.773
 9531SOL    HW229493   2.789   6.724   3.868
 9532SOL     OW29494   3.297   1.464   1.802
 9532SOL    HW129495   3.256   1.543   1.756
 9532SOL    HW229496   3.397   1.471   1.798
 9533SOL     OW29497   0.334   1.825   4.245
 9533SOL    HW129498   0.317   1.896   4.176
 9533SOL    HW229499   0.247   1.789   4.278
 9534SOL     OW29500   5.709   1.530   4.251
 9534SOL    HW129501   5.655   1.519   4.335
 9534SOL    HW229502   5.805   1.541   4.274
 9535SOL     OW29503   2.901   1.562   4.721
 9535SOL    HW129504   2.808   1.594   4.737
 9535SOL    HW229505   2.901   1.462   4.713
 9536SOL     OW29506   2.165   6.282   6.470
 9536SOL    HW129507   2.256   6.298   6.510
 9536SOL    HW229508   2.098   6.268   6.543
 9537SOL     OW29509   1.803   0.700   0.604
 9537SOL    HW129510   1.733   0.630   0.619
 9537SOL    HW229511   1.833   0.696   0.508
 9538SOL     OW29512   6.226   3.863   2.544
 9538SOL    HW129513   6.172   3.943   2.520
 9538SOL    HW229514   6.323   3.887   2.545
 9539SOL     OW29515   0.276   3.575   6.796
 9539SOL    HW129516   0.194   3.518   6.786
 9539SOL    HW229517   0.266   3.634   6.877
 9540SOL     OW29518   5.454   3.338   5.773
 9540SOL    HW129519   5.518   3.414   5.779
 9540SOL    HW229520   5.468   3.289   5.686
 9541SOL     OW29521   6.382   2.112   3.275
 9541SOL    HW129522   6.287   2.129   3.302
 9541SOL    HW229523   6.421   2.041   3.334
 9542SOL     OW29524   4.955   3.848   4.268
 9542SOL    HW129525   4.926   3.840   4.363
 9542SOL    HW229526   5.033   3.788   4.251
 9543SOL     OW29527   4.108   2.050   0.669
 9543SOL    HW129528   4.127   2.122   0.601
 9543SOL    HW229529   4.034   2.080   0.729
 9544SOL     OW29530   5.195   0.582   1.413
 9544SOL    HW129531   5.137   0.603   1.334
 9544SOL    HW229532   5.284   0.625   1.400
 9545SOL     OW29533   1.409   0.005   4.776
 9545SOL    HW129534   1.349   0.057   4.715
 9545SOL    HW229535   1.497   7.013   4.732
 9546SOL     OW29536   2.694   4.122   1.705
 9546SOL    HW129537   2.637   4.204   1.704
 9546SOL    HW229538   2.786   4.146   1.736
 9547SOL     OW29539   5.278   6.293   2.732
 9547SOL    HW129540   5.224   6.292   2.816
 9547SOL    HW229541   5.258   6.376   2.680
 9548SOL     OW29542   5.528   6.683   2.331
 9548SOL    HW129543   5.605   6.742   2.356
 9548SOL    HW229544   5.446   6.738   2.318
 9549SOL     OW29545   1.952   5.450   0.074
 9549SOL    HW129546   1.875   5.513   0.080
 9549SOL    HW229547   2.038   5.503   0.073
 9550SOL     OW29548   1.805   0.636   0.323
 9550SOL    HW129549   1.725   0.576   0.315
 9550SOL    HW229550   1.888   0.582   0.308
 9551SOL     OW29551   1.401   5.684   5.160
 9551SOL    HW129552   1.326   5.749   5.166
 9551SOL    HW229553   1.366   5.591   5.172
 9552SOL     OW29554   6.766   5.517   2.678
 9552SOL    HW129555   6.677   5.492   2.716
 9552SOL    HW229556   6.768   5.491   2.581
 9553SOL     OW29557   5.512   4.278   6.400
 9553SOL    HW129558   5.510   4.213   6.323
 9553SOL    HW229559   5.545   4.366   6.367
 9554SOL     OW29560   2.043   2.159   2.378
 9554SOL    HW129561   2.116   2.170   2.310
 9554SOL    HW229562   1.958   2.133   2.332
 9555SOL     OW29563   6.719   2.489   6.510
 9555SOL    HW129564   6.812   2.524   6.514
 9555SOL    HW229565   6.655   2.560   6.539
 9556SOL     OW29566   6.404   0.736   1.076
 9556SOL    HW129567   6.447   0.721   0.987
 9556SOL    HW229568   6.366   0.829   1.078
 9557SOL     OW29569   4.765   1.377   1.708
 9557SOL    HW129570   4.754   1.293   1.655
 9557SOL    HW229571   4.711   1.450   1.666
 9558SOL     OW29572   6.904   3.953   1.173
 9558SOL    HW129573   6.867   4.012   1.101
 9558SOL    HW229574   6.845   3.872   1.183
 9559SOL     OW29575   0.331   4.473   2.841
 9559SOL    HW129576   0.361   4.468   2.937
 9559SOL    HW229577   0.346   4.384   2.797
 9560SOL     OW29578   3.666   1.835   5.950
 9560SOL    HW129579   3.608   1.804   5.875
 9560SOL    HW229580   3.686   1.758   6.011
 9561SOL     OW29581   3.545   4.958   0.180
 9561SOL    HW129582   3.639   4.979   0.154
 9561SOL    HW229583   3.486   4.966   0.100
 9562SOL     OW29584   6.619   5.430   4.151
 9562SOL    HW129585   6.643   5.432   4.248
 9562SOL    HW229586   6.626   5.521   4.112
 9563SOL     OW29587   0.886   6.847   6.284
 9563SOL    HW129588   0.869   6.903   6.203
 9563SOL    HW229589   0.801   6.802   6.312
 9564SOL     OW29590   0.888   0.786   5.892
 9564SOL    HW129591   0.889   0.759   5.795
 9564SOL    HW229592   0.953   0.861   5.906
 9565SOL     OW29593   2.691   5.850   5.385
 9565SOL    HW129594   2.730   5.773   5.435
 9565SOL    HW229595   2.592   5.853   5.400
 9566SOL     OW29596   2.630   5.950   5.011
 9566SOL    HW129597   2.726   5.980   5.006
 9566SOL    HW229598   2.595   5.936   4.919
 9567SOL     OW29599   5.415   5.210   4.592
 9567SOL    HW129600   5.428   5.283   4.660
 9567SOL    HW229601   5.335   5.155   4.617
 9568SOL     OW29602   5.873   3.368   5.459
 9568SOL    HW129603   5.882   3.416   5.546
 9568SOL    HW229604   5.881   3.434   5.384
 9569SOL     OW29605   5.306   6.773   1.514
 9569SOL    HW129606   5.369   6.821   1.575
 9569SOL    HW229607   5.247   6.839   1.467
 9570SOL     OW29608   0.607   2.575   6.946
 9570SOL    HW129609   0.657   2.629   6.879
 9570SOL    HW229610   0.613   2.478   6.922
 9571SOL     OW29611   3.762   1.719   0.188
 9571SOL    HW129612   3.855   1.725   0.224
 9571SOL    HW229613   3.719   1.635   0.220
 9572SOL     OW29614   0.772   3.810   0.837
 9572SOL    HW129615   0.849   3.873   0.850
 9572SOL    HW229616   0.696   3.838   0.897
 9573SOL     OW29617   4.888   2.219   1.964
 9573SOL    HW129618   4.945   2.167   2.029
 9573SOL    HW229619   4.853   2.301   2.009
 9574SOL     OW29620   2.687   1.520   3.929
 9574SOL    HW129621   2.778   1.554   3.905
 9574SOL    HW229622   2.645   1.480   3.848
 9575SOL     OW29623   3.134   1.394   3.036
 9575SOL    HW129624   3.226   1.412   3.002
 9575SOL    HW229625   3.117   1.295   3.037
 9576SOL     OW29626   3.964   3.598   5.709
 9576SOL    HW129627   3.921   3.593   5.618
 9576SOL    HW229628   3.998   3.508   5.735
 9577SOL     OW29629   0.370   5.130   3.553
 9577SOL    HW129630   0.398   5.130   3.649
 9577SOL    HW229631   0.399   5.046   3.509
 9578SOL     OW29632   6.868   4.194   1.281
 9578SOL    HW129633   6.860   4.103   1.240
 9578SOL    HW229634   6.952   4.199   1.335
 9579SOL     OW29635   1.648   4.426   2.975
 9579SOL    HW129636   1.592   4.347   2.952
 9579SOL    HW229637   1.722   4.399   3.036
 9580SOL     OW29638   4.128   3.869   5.333
 9580SOL    HW129639   4.135   3.776   5.368
 9580SOL    HW229640   4.194   3.927   5.381
 9581SOL     OW29641   1.532   6.554   6.197
 9581SOL    HW129642   1.474   6.585   6.122
 9581SOL    HW229643   1.618   6.519   6.159
 9582SOL     OW29644   3.685   6.104   3.349
 9582SOL    HW129645   3.590   6.126   3.366
 9582SOL    HW229646   3.718   6.040   3.419
 9583SOL     OW29647   1.309   4.885   2.040
 9583SOL    HW129648   1.279   4.832   2.119
 9583SOL    HW229649   1.323   4.981   2.066
 9584SOL     OW29650   5.317   4.086   6.733
 9584SOL    HW129651   5.254   4.099   6.656
 9584SOL    HW229652   5.406   4.123   6.710
 9585SOL     OW29653   5.829   1.500   3.055
 9585SOL    HW129654   5.861   1.511   2.961
 9585SOL    HW229655   5.847   1.407   3.087
 9586SOL     OW29656   4.721   4.203   2.430
 9586SOL    HW129657   4.779   4.272   2.388
 9586SOL    HW229658   4.646   4.181   2.369
 9587SOL     OW29659   4.518   6.006   1.746
 9587SOL    HW129660   4.599   6.062   1.728
 9587SOL    HW229661   4.452   6.021   1.672
 9588SOL     OW29662   5.879   1.322   3.685
 9588SOL    HW129663   5.888   1.238   3.631
 9588SOL    HW229664   5.887   1.402   3.625
 9589SOL     OW29665   3.998   1.903   5.266
 9589SOL    HW129666   3.958   1.854   5.343
 9589SOL    HW229667   4.014   1.839   5.190
 9590SOL     OW29668   0.072   4.712   4.644
 9590SOL    HW129669   0.150   4.652   4.632
 9590SOL    HW229670   0.001   4.690   4.577
 9591SOL     OW29671   6.733   4.492   2.449
 9591SOL    HW129672   6.763   4.411   2.498
 9591SOL    HW229673   6.762   4.486   2.354
 9592SOL     OW29674   4.104   5.358   0.324
 9592SOL    HW129675   4.007   5.357   0.350
 9592SOL    HW229676   4.151   5.283   0.371
 9593SOL     OW29677   2.089   2.107   3.692
 9593SOL    HW129678   2.140   2.165   3.755
 9593SOL    HW229679   1.991   2.123   3.704
 9594SOL     OW29680   5.695   0.211   1.162
 9594SOL    HW129681   5.734   0.240   1.075
 9594SOL    HW229682   5.768   0.191   1.227
 9595SOL     OW29683   2.422   5.030   5.678
 9595SOL    HW129684   2.493   5.051   5.746
 9595SOL    HW229685   2.464   4.988   5.598
 9596SOL     OW29686   5.672   4.857   2.106
 9596SOL    HW129687   5.585   4.859   2.156
 9596SOL    HW229688   5.748   4.854   2.172
 9597SOL     OW29689   2.121   4.465   1.685
 9597SOL    HW129690   2.187   4.464   1.759
 9597SOL    HW229691   2.096   4.559   1.662
 9598SOL     OW29692   1.051   5.959   5.583
 9598SOL    HW129693   1.030   6.031   5.517
 9598SOL    HW229694   1.150   5.948   5.590
 9599SOL     OW29695   3.593   1.917   5.373
 9599SOL    HW129696   3.658   1.853   5.416
 9599SOL    HW229697   3.501   1.878   5.377
 9600SOL     OW29698   1.377   5.975   6.840
 9600SOL    HW129699   1.308   6.027   6.890
 9600SOL    HW229700   1.439   6.038   6.794
 9601SOL     OW29701   1.773   6.991   4.942
 9601SOL    HW129702   1.730   6.904   4.968
 9601SOL    HW229703   1.732   0.003   4.857
 9602SOL     OW29704   1.087   5.766   6.380
 9602SOL    HW129705   1.148   5.819   6.439
 9602SOL    HW229706   1.001   5.816   6.368
 9603SOL     OW29707   1.122   5.304   1.858
 9603SOL    HW129708   1.144   5.363   1.780
 9603SOL    HW229709   1.146   5.351   1.943
 9604SOL     OW29710   6.896   0.620   6.249
 9604SOL    HW129711   6.803   0.655   6.255
 9604SOL    HW229712   6.943   0.666   6.173
 9605SOL     OW29713   3.683   4.652   0.994
 9605SOL    HW129714   3.674   4.715   0.917
 9605SOL    HW229715   3.710   4.562   0.960
 9606SOL     OW29716   0.084   1.611   5.150
 9606SOL    HW129717   0.163   1.556   5.176
 9606SOL    HW229718   0.024   1.558   5.091
 9607SOL     OW29719   6.915   2.802   3.916
 9607SOL    HW129720   6.847   2.794   3.843
 9607SOL    HW229721   6.996   2.747   3.892
 9608SOL     OW29722   6.095   0.883   1.666
 9608SOL    HW129723   6.021   0.844   1.721
 9608SOL    HW229724   6.079   0.862   1.570
 9609SOL     OW29725   1.386   2.223   4.653
 9609SOL    HW129726   1.438   2.297   4.694
 9609SOL    HW229727   1.304   2.205   4.708
 9610SOL     OW29728   5.225   0.687   5.787
 9610SOL    HW129729   5.133   0.688   5.748
 9610SOL    HW229730   5.238   0.769   5.844
 9611SOL     OW29731   4.706   5.564   1.022
 9611SOL    HW129732   4.802   5.572   1.046
 9611SOL    HW229733   4.690   5.477   0.976
 9612SOL     OW29734   5.536   4.129   3.709
 9612SOL    HW129735   5.496   4.041   3.684
 9612SOL    HW229736   5.503   4.157   3.799
 9613SOL     OW29737   5.426   0.540   4.738
 9613SOL    HW129738   5.497   0.610   4.723
 9613SOL    HW229739   5.395   0.505   4.649
 9614SOL     OW29740   2.793   2.418   0.575
 9614SOL    HW129741   2.834   2.504   0.544
 9614SOL    HW229742   2.788   2.418   0.675
 9615SOL     OW29743   6.842   6.127   3.707
 9615SOL    HW129744   6.829   6.174   3.620
 9615SOL    HW229745   6.937   6.098   3.715
 9616SOL     OW29746   0.772   2.409   1.172
 9616SOL    HW129747   0.845   2.386   1.107
 9616SOL    HW229748   0.717   2.484   1.135
 9617SOL     OW29749   0.031   3.156   3.865
 9617SOL    HW129750   0.041   3.220   3.788
 9617SOL    HW229751   0.062   3.065   3.836
 9618SOL     OW29752   5.112   3.697   1.967
 9618SOL    HW129753   5.014   3.709   1.985
 9618SOL    HW229754   5.128   3.702   1.869
 9619SOL     OW29755   1.111   0.594   0.739
 9619SOL    HW129756   1.102   0.687   0.704
 9619SOL    HW229757   1.078   0.591   0.834
 9620SOL     OW29758   4.144   0.766   6.520
 9620SOL    HW129759   4.197   0.838   6.566
 9620SOL    HW229760   4.047   0.780   6.538
 9621SOL     OW29761   6.889   1.095   1.471
 9621SOL    HW129762   6.847   1.006   1.456
 9621SOL    HW229763   6.952   1.115   1.395
 9622SOL     OW29764   6.733   6.492   4.598
 9622SOL    HW129765   6.676   6.474   4.678
 9622SOL    HW229766   6.676   6.531   4.525
 9623SOL     OW29767   2.159   5.985   5.990
 9623SOL    HW129768   2.232   6.042   5.952
 9623SOL    HW229769   2.199   5.910   6.042
 9624SOL     OW29770   4.549   4.855   6.502
 9624SOL    HW129771   4.583   4.928   6.561
 9624SOL    HW229772   4.549   4.768   6.552
 9625SOL     OW29773   5.095   4.449   5.822
 9625SOL    HW129774   5.096   4.547   5.841
 9625SOL    HW229775   5.088   4.434   5.723
 9626SOL     OW29776   2.457   2.681   6.826
 9626SOL    HW129777   2.426   2.774   6.846
 9626SOL    HW229778   2.468   2.631   6.912
 9627SOL     OW29779   6.588   6.269   0.710
 9627SOL    HW129780   6.587   6.178   0.668
 9627SOL    HW229781   6.548   6.263   0.802
 9628SOL     OW29782   5.722   1.693   5.459
 9628SOL    HW129783   5.727   1.793   5.452
 9628SOL    HW229784   5.814   1.656   5.468
 9629SOL     OW29785   0.561   5.430   4.298
 9629SOL    HW129786   0.626   5.504   4.311
 9629SOL    HW229787   0.532   5.428   4.202
 9630SOL     OW29788   6.151   0.031   6.671
 9630SOL    HW129789   6.185   6.969   6.628
 9630SOL    HW229790   6.133   0.013   6.768
 9631SOL     OW29791   5.179   5.736   0.317
 9631SOL    HW129792   5.267   5.733   0.268
 9631SOL    HW229793   5.183   5.805   0.389
 9632SOL     OW29794   3.051   5.332   2.950
 9632SOL    HW129795   3.068   5.343   2.852
 9632SOL    HW229796   2.969   5.277   2.964
 9633SOL     OW29797   3.262   2.979   5.039
 9633SOL    HW129798   3.235   3.066   5.081
 9633SOL    HW229799   3.302   2.919   5.108
 9634SOL     OW29800   6.283   4.869   2.434
 9634SOL    HW129801   6.316   4.806   2.363
 9634SOL    HW229802   6.360   4.896   2.492
 9635SOL     OW29803   0.699   5.601   4.461
 9635SOL    HW129804   0.741   5.691   4.449
 9635SOL    HW229805   0.599   5.611   4.467
 9636SOL     OW29806   5.193   3.402   3.910
 9636SOL    HW129807   5.252   3.433   3.984
 9636SOL    HW229808   5.192   3.302   3.907
 9637SOL     OW29809   2.842   2.411   6.529
 9637SOL    HW129810   2.754   2.447   6.561
 9637SOL    HW229811   2.863   2.449   6.439
 9638SOL     OW29812   0.175   4.535   5.585
 9638SOL    HW129813   0.076   4.549   5.579
 9638SOL    HW229814   0.206   4.483   5.505
 9639SOL     OW29815   4.760   2.951   1.402
 9639SOL    HW129816   4.818   2.882   1.359
 9639SOL    HW229817   4.778   2.953   1.501
 9640SOL     OW29818   3.161   6.955   3.397
 9640SOL    HW129819   3.188   0.017   3.349
 9640SOL    HW229820   3.148   6.975   3.494
 9641SOL     OW29821   0.994   2.794   4.949
 9641SOL    HW129822   1.034   2.811   4.859
 9641SOL    HW229823   0.970   2.882   4.991
 9642SOL     OW29824   0.629   3.260   5.352
 9642SOL    HW129825   0.616   3.163   5.330
 9642SOL    HW229826   0.693   3.269   5.428
 9643SOL     OW29827   5.766   5.141   4.701
 9643SOL    HW129828   5.725   5.201   4.632
 9643SOL    HW229829   5.695   5.087   4.745
 9644SOL     OW29830   0.753   4.365   3.670
 9644SOL    HW129831   0.802   4.451   3.687
 9644SOL    HW229832   0.750   4.312   3.755
 9645SOL     OW29833   1.313   4.747   0.038
 9645SOL    HW129834   1.357   4.690   0.107
 9645SOL    HW229835   1.363   4.834   0.031
 9646SOL     OW29836   2.843   5.090   0.807
 9646SOL    HW129837   2.837   5.025   0.732
 9646SOL    HW229838   2.758   5.087   0.860
 9647SOL     OW29839   5.941   6.968   3.297
 9647SOL    HW129840   5.932   6.895   3.364
 9647SOL    HW229841   5.851   6.997   3.266
 9648SOL     OW29842   3.640   2.420   1.120
 9648SOL    HW129843   3.596   2.506   1.147
 9648SOL    HW229844   3.585   2.343   1.153
 9649SOL     OW29845   6.804   6.084   1.070
 9649SOL    HW129846   6.890   6.096   1.119
 9649SOL    HW229847   6.806   6.138   0.986
 9650SOL     OW29848   0.693   5.388   4.632
 9650SOL    HW129849   0.692   5.468   4.572
 9650SOL    HW229850   0.775   5.334   4.615
 9651SOL     OW29851   4.564   1.390   6.908
 9651SOL    HW129852   4.485   1.452   6.905
 9651SOL    HW229853   4.532   1.295   6.899
 9652SOL     OW29854   7.002   3.789   0.827
 9652SOL    HW129855   6.918   3.741   0.804
 9652SOL    HW229856   0.037   3.733   0.887
 9653SOL     OW29857   5.347   3.857   5.431
 9653SOL    HW129858   5.337   3.906   5.518
 9653SOL    HW229859   5.337   3.921   5.355
 9654SOL     OW29860   4.014   3.234   4.478
 9654SOL    HW129861   4.056   3.314   4.435
 9654SOL    HW229862   3.954   3.188   4.413
 9655SOL     OW29863   5.073   0.038   0.686
 9655SOL    HW129864   5.061   6.961   0.696
 9655SOL    HW229865   5.166   0.057   0.652
 9656SOL     OW29866   5.809   4.282   6.074
 9656SOL    HW129867   5.815   4.285   6.174
 9656SOL    HW229868   5.717   4.256   6.046
 9657SOL     OW29869   4.787   5.142   3.213
 9657SOL    HW129870   4.823   5.073   3.150
 9657SOL    HW229871   4.694   5.167   3.186
 9658SOL     OW29872   5.344   0.969   2.610
 9658SOL    HW129873   5.344   0.904   2.534
 9658SOL    HW229874   5.422   0.950   2.670
 9659SOL     OW29875   3.169   2.473   0.549
 9659SOL    HW129876   3.131   2.405   0.486
 9659SOL    HW229877   3.267   2.482   0.532
 9660SOL     OW29878   2.609   6.859   1.612
 9660SOL    HW129879   2.531   6.855   1.674
 9660SOL    HW229880   2.602   6.784   1.546
 9661SOL     OW29881   4.085   3.546   2.318
 9661SOL    HW129882   3.986   3.532   2.314
 9661SOL    HW229883   4.122   3.497   2.397
 9662SOL     OW29884   4.232   0.519   5.164
 9662SOL    HW129885   4.188   0.448   5.219
 9662SOL    HW229886   4.170   0.598   5.157
 9663SOL     OW29887   1.249   5.742   2.826
 9663SOL    HW129888   1.166   5.751   2.772
 9663SOL    HW229889   1.289   5.833   2.841
 9664SOL     OW29890   2.103   4.679   3.528
 9664SOL    HW129891   2.127   4.615   3.600
 9664SOL    HW229892   2.149   4.652   3.443
 9665SOL     OW29893   6.152   4.204   6.260
 9665SOL    HW129894   6.239   4.155   6.252
 9665SOL    HW229895   6.093   4.156   6.324
 9666SOL     OW29896   5.181   3.933   0.607
 9666SOL    HW129897   5.146   3.971   0.521
 9666SOL    HW229898   5.239   4.001   0.652
 9667SOL     OW29899   5.812   6.165   6.505
 9667SOL    HW129900   5.737   6.222   6.471
 9667SOL    HW229901   5.776   6.101   6.573
 9668SOL     OW29902   2.559   0.195   0.297
 9668SOL    HW129903   2.555   0.230   0.204
 9668SOL    HW229904   2.652   0.163   0.317
 9669SOL     OW29905   3.862   0.382   0.396
 9669SOL    HW129906   3.853   0.302   0.456
 9669SOL    HW229907   3.954   0.420   0.404
 9670SOL     OW29908   1.010   0.058   1.914
 9670SOL    HW129909   0.921   0.074   1.956
 9670SOL    HW229910   0.997   0.021   1.821
 9671SOL     OW29911   0.977   6.456   6.159
 9671SOL    HW129912   1.068   6.496   6.162
 9671SOL    HW229913   0.920   6.497   6.230
 9672SOL     OW29914   1.181   4.217   4.259
 9672SOL    HW129915   1.098   4.261   4.294
 9672SOL    HW229916   1.259   4.277   4.273
 9673SOL     OW29917   2.446   3.520   5.824
 9673SOL    HW129918   2.473   3.439   5.772
 9673SOL    HW229919   2.357   3.503   5.867
 9674SOL     OW29920   1.905   0.316   3.587
 9674SOL    HW129921   1.887   0.218   3.599
 9674SOL    HW229922   1.994   0.338   3.628
 9675SOL     OW29923   6.078   4.125   5.748
 9675SOL    HW129924   5.995   4.072   5.733
 9675SOL    HW229925   6.088   4.145   5.845
 9676SOL     OW29926   1.176   3.055   5.952
 9676SOL    HW129927   1.126   3.105   5.882
 9676SOL    HW229928   1.217   3.121   6.016
 9677SOL     OW29929   0.503   4.696   2.707
 9677SOL    HW129930   0.468   4.776   2.755
 9677SOL    HW229931   0.460   4.613   2.743
 9678SOL     OW29932   4.690   2.959   6.139
 9678SOL    HW129933   4.749   3.041   6.145
 9678SOL    HW229934   4.606   2.982   6.090
 9679SOL     OW29935   1.040   0.916   3.991
 9679SOL    HW129936   0.944   0.946   3.985
 9679SOL    HW229937   1.099   0.986   3.951
 9680SOL     OW29938   4.668   0.311   1.645
 9680SOL    HW129939   4.755   0.279   1.682
 9680SOL    HW229940   4.661   0.410   1.656
 9681SOL     OW29941   0.657   3.420   1.656
 9681SOL    HW129942   0.613   3.471   1.730
 9681SOL    HW229943   0.741   3.378   1.689
 9682SOL     OW29944   3.846   6.434   5.301
 9682SOL    HW129945   3.866   6.348   5.347
 9682SOL    HW229946   3.907   6.445   5.223
 9683SOL     OW29947   3.252   5.815   3.644
 9683SOL    HW129948   3.288   5.727   3.676
 9683SOL    HW229949   3.328   5.877   3.625
 9684SOL     OW29950   0.924   2.662   6.405
 9684SOL    HW129951   1.023   2.657   6.394
 9684SOL    HW229952   0.895   2.758   6.405
 9685SOL     OW29953   3.556   4.347   1.737
 9685SOL    HW129954   3.546   4.439   1.775
 9685SOL    HW229955   3.467   4.315   1.705
 9686SOL     OW29956   0.507   1.806   6.080
 9686SOL    HW129957   0.463   1.738   6.021
 9686SOL    HW229958   0.497   1.779   6.176
 9687SOL     OW29959   5.266   1.185   3.667
 9687SOL    HW129960   5.253   1.226   3.758
 9687SOL    HW229961   5.261   1.086   3.675
 9688SOL     OW29962   0.367   4.919   2.368
 9688SOL    HW129963   0.275   4.932   2.403
 9688SOL    HW229964   0.409   5.007   2.350
 9689SOL     OW29965   2.014   5.550   1.244
 9689SOL    HW129966   2.042   5.454   1.241
 9689SOL    HW229967   1.916   5.555   1.264
 9690SOL     OW29968   6.386   4.672   5.154
 9690SOL    HW129969   6.329   4.740   5.201
 9690SOL    HW229970   6.327   4.614   5.097
 9691SOL     OW29971   3.853   3.277   2.144
 9691SOL    HW129972   3.952   3.277   2.163
 9691SOL    HW229973   3.810   3.353   2.193
 9692SOL     OW29974   5.195   4.941   0.600
 9692SOL    HW129975   5.293   4.946   0.580
 9692SOL    HW229976   5.166   4.846   0.602
 9693SOL     OW29977   4.299   2.997   6.518
 9693SOL    HW129978   4.214   2.983   6.568
 9693SOL    HW229979   4.371   3.026   6.581
 9694SOL     OW29980   2.518   6.485   0.911
 9694SOL    HW129981   2.506   6.386   0.916
 9694SOL    HW229982   2.433   6.530   0.935
 9695SOL     OW29983   1.755   2.564   3.585
 9695SOL    HW129984   1.778   2.516   3.500
 9695SOL    HW229985   1.667   2.611   3.574
 9696SOL     OW29986   4.902   3.558   3.322
 9696SOL    HW129987   4.844   3.604   3.388
 9696SOL    HW229988   4.887   3.459   3.326
 9697SOL     OW29989   6.804   0.022   1.772
 9697SOL    HW129990   6.838   6.952   1.749
 9697SOL    HW229991   6.706   0.016   1.794
 9698SOL     OW29992   6.805   3.553   2.118
 9698SOL    HW129993   6.808   3.454   2.133
 9698SOL    HW229994   6.710   3.584   2.115
 9699SOL     OW29995   1.989   6.736   1.851
 9699SOL    HW129996   1.908   6.735   1.910
 9699SOL    HW229997   1.997   6.826   1.808
 9700SOL     OW29998   6.403   0.470   5.593
 9700SOL    HW129999   6.470   0.409   5.549
 9700SOL    HW230000   6.319   0.420   5.612
 9701SOL     OW30001   5.323   3.642   6.626
 9701SOL    HW130002   5.245   3.705   6.636
 9701SOL    HW230003   5.291   3.557   6.586
 9702SOL     OW30004   3.195   3.927   1.734
 9702SOL    HW130005   3.270   3.882   1.685
 9702SOL    HW230006   3.115   3.867   1.735
 9703SOL     OW30007   6.263   5.378   2.911
 9703SOL    HW130008   6.271   5.398   2.814
 9703SOL    HW230009   6.231   5.459   2.960
 9704SOL     OW30010   0.608   4.420   2.250
 9704SOL    HW130011   0.525   4.370   2.228
 9704SOL    HW230012   0.626   4.489   2.180
 9705SOL     OW30013   6.881   3.705   5.710
 9705SOL    HW130014   6.837   3.623   5.672
 9705SOL    HW230015   6.924   3.757   5.636
 9706SOL     OW30016   1.214   6.334   1.890
 9706SOL    HW130017   1.132   6.355   1.836
 9706SOL    HW230018   1.197   6.252   1.945
 9707SOL     OW30019   1.134   5.401   2.262
 9707SOL    HW130020   1.217   5.441   2.225
 9707SOL    HW230021   1.133   5.413   2.362
 9708SOL     OW30022   2.315   1.329   2.192
 9708SOL    HW130023   2.332   1.232   2.176
 9708SOL    HW230024   2.388   1.384   2.152
 9709SOL     OW30025   4.537   1.653   2.214
 9709SOL    HW130026   4.562   1.724   2.148
 9709SOL    HW230027   4.593   1.571   2.198
 9710SOL     OW30028   4.643   4.344   4.209
 9710SOL    HW130029   4.625   4.364   4.305
 9710SOL    HW230030   4.629   4.427   4.155
 9711SOL     OW30031   2.844   0.849   0.011
 9711SOL    HW130032   2.909   0.859   6.958
 9711SOL    HW230033   2.751   0.848   6.997
 9712SOL     OW30034   4.946   6.889   5.240
 9712SOL    HW130035   4.927   6.791   5.248
 9712SOL    HW230036   4.962   6.913   5.145
 9713SOL     OW30037   1.058   0.562   2.819
 9713SOL    HW130038   1.026   0.647   2.776
 9713SOL    HW230039   1.100   0.583   2.907
 9714SOL     OW30040   2.139   2.756   4.295
 9714SOL    HW130041   2.158   2.843   4.340
 9714SOL    HW230042   2.223   2.700   4.293
 9715SOL     OW30043   0.071   1.905   6.082
 9715SOL    HW130044   0.113   1.981   6.132
 9715SOL    HW230045   0.114   1.819   6.109
 9716SOL     OW30046   1.827   6.616   0.869
 9716SOL    HW130047   1.821   6.692   0.804
 9716SOL    HW230048   1.865   6.649   0.955
 9717SOL     OW30049   3.805   2.293   6.274
 9717SOL    HW130050   3.846   2.372   6.319
 9717SOL    HW230051   3.730   2.323   6.215
 9718SOL     OW30052   3.189   2.112   6.385
 9718SOL    HW130053   3.287   2.117   6.369
 9718SOL    HW230054   3.171   2.052   6.463
 9719SOL     OW30055   4.000   6.929   5.173
 9719SOL    HW130056   3.955   6.902   5.258
 9719SOL    HW230057   3.931   6.959   5.107
 9720SOL     OW30058   1.902   2.736   2.158
 9720SOL    HW130059   1.834   2.680   2.110
 9720SOL    HW230060   1.957   2.676   2.217
 9721SOL     OW30061   0.876   2.238   1.617
 9721SOL    HW130062   0.840   2.169   1.680
 9721SOL    HW230063   0.800   2.284   1.571
 9722SOL     OW30064   3.441   2.823   5.188
 9722SOL    HW130065   3.372   2.751   5.189
 9722SOL    HW230066   3.477   2.837   5.280
 9723SOL     OW30067   5.811   0.096   4.800
 9723SOL    HW130068   5.834   0.179   4.749
 9723SOL    HW230069   5.827   0.112   4.897
 9724SOL     OW30070   2.111   5.409   1.502
 9724SOL    HW130071   2.019   5.395   1.540
 9724SOL    HW230072   2.119   5.357   1.417
 9725SOL     OW30073   5.562   5.464   4.039
 9725SOL    HW130074   5.621   5.542   4.017
 9725SOL    HW230075   5.477   5.471   3.987
 9726SOL     OW30076   0.180   0.303   3.324
 9726SOL    HW130077   0.276   0.297   3.349
 9726SOL    HW230078   0.165   0.257   3.236
 9727SOL     OW30079   6.761   2.937   1.450
 9727SOL    HW130080   6.710   2.930   1.364
 9727SOL    HW230081   6.739   2.858   1.508
 9728SOL     OW30082   6.039   1.730   4.612
 9728SOL    HW130083   6.018   1.802   4.547
 9728SOL    HW230084   5.956   1.678   4.633
 9729SOL     OW30085   6.996   3.499   2.443
 9729SOL    HW130086   0.054   3.523   2.388
 9729SOL    HW230087   6.927   3.571   2.433
 9730SOL     OW30088   0.711   5.481   3.697
 9730SOL    HW130089   0.775   5.467   3.622
 9730SOL    HW230090   0.621   5.445   3.671
 9731SOL     OW30091   6.741   1.781   1.491
 9731SOL    HW130092   6.716   1.866   1.539
 9731SOL    HW230093   6.825   1.745   1.530
 9732SOL     OW30094   0.332   2.861   3.328
 9732SOL    HW130095   0.371   2.833   3.241
 9732SOL    HW230096   0.399   2.847   3.401
 9733SOL     OW30097   5.842   5.585   0.749
 9733SOL    HW130098   5.786   5.530   0.810
 9733SOL    HW230099   5.889   5.657   0.801
 9734SOL     OW30100   3.865   3.802   0.225
 9734SOL    HW130101   3.954   3.758   0.242
 9734SOL    HW230102   3.796   3.732   0.210
 9735SOL     OW30103   0.889   1.627   0.519
 9735SOL    HW130104   0.906   1.626   0.618
 9735SOL    HW230105   0.949   1.695   0.476
 9736SOL     OW30106   5.238   2.174   5.448
 9736SOL    HW130107   5.159   2.220   5.408
 9736SOL    HW230108   5.222   2.075   5.448
 9737SOL     OW30109   5.543   3.191   4.654
 9737SOL    HW130110   5.637   3.221   4.638
 9737SOL    HW230111   5.485   3.271   4.670
 9738SOL     OW30112   2.450   6.273   1.521
 9738SOL    HW130113   2.354   6.291   1.541
 9738SOL    HW230114   2.462   6.261   1.423
 9739SOL     OW30115   5.612   6.673   0.185
 9739SOL    HW130116   5.567   6.722   0.110
 9739SOL    HW230117   5.705   6.708   0.196
 9740SOL     OW30118   6.864   0.929   0.823
 9740SOL    HW130119   6.876   0.981   0.908
 9740SOL    HW230120   6.954   0.907   0.785
 9741SOL     OW30121   2.229   2.853   3.452
 9741SOL    HW130122   2.167   2.818   3.381
 9741SOL    HW230123   2.233   2.788   3.528
 9742SOL     OW30124   4.063   0.820   6.938
 9742SOL    HW130125   4.060   0.739   6.879
 9742SOL    HW230126   4.109   0.798   0.002
 9743SOL     OW30127   6.725   3.754   4.480
 9743SOL    HW130128   6.814   3.709   4.475
 9743SOL    HW230129   6.659   3.705   4.422
 9744SOL     OW30130   1.792   2.432   2.575
 9744SOL    HW130131   1.889   2.425   2.550
 9744SOL    HW230132   1.766   2.351   2.628
 9745SOL     OW30133   1.376   6.118   6.219
 9745SOL    HW130134   1.350   6.202   6.171
 9745SOL    HW230135   1.363   6.040   6.158
 9746SOL     OW30136   3.379   6.396   6.451
 9746SOL    HW130137   3.444   6.323   6.429
 9746SOL    HW230138   3.289   6.356   6.467
 9747SOL     OW30139   4.304   1.576   3.370
 9747SOL    HW130140   4.212   1.552   3.340
 9747SOL    HW230141   4.300   1.625   3.457
 9748SOL     OW30142   0.792   2.024   3.327
 9748SOL    HW130143   0.856   1.961   3.283
 9748SOL    HW230144   0.815   2.035   3.423
 9749SOL     OW30145   6.591   0.347   1.271
 9749SOL    HW130146   6.558   0.270   1.326
 9749SOL    HW230147   6.644   0.311   1.193
 9750SOL     OW30148   5.701   1.784   4.762
 9750SOL    HW130149   5.731   1.863   4.815
 9750SOL    HW230150   5.774   1.756   4.699
 9751SOL     OW30151   2.650   6.210   0.895
 9751SOL    HW130152   2.748   6.212   0.873
 9751SOL    HW230153   2.634   6.149   0.972
 9752SOL     OW30154   3.773   3.702   1.028
 9752SOL    HW130155   3.763   3.724   0.931
 9752SOL    HW230156   3.842   3.631   1.039
 9753SOL     OW30157   6.443   6.340   3.214
 9753SOL    HW130158   6.483   6.276   3.280
 9753SOL    HW230159   6.501   6.345   3.133
 9754SOL     OW30160   3.331   1.011   1.883
 9754SOL    HW130161   3.356   1.047   1.973
 9754SOL    HW230162   3.235   0.982   1.885
 9755SOL     OW30163   2.985   3.972   1.121
 9755SOL    HW130164   2.902   3.919   1.104
 9755SOL    HW230165   3.049   3.918   1.176
 9756SOL     OW30166   5.328   0.053   6.600
 9756SOL    HW130167   5.426   0.059   6.623
 9756SOL    HW230168   5.275   0.043   6.684
 9757SOL     OW30169   5.407   3.962   4.217
 9757SOL    HW130170   5.417   4.034   4.286
 9757SOL    HW230171   5.489   3.959   4.160
 9758SOL     OW30172   3.573   1.049   2.241
 9758SOL    HW130173   3.662   1.059   2.196
 9758SOL    HW230174   3.581   1.078   2.336
 9759SOL     OW30175   0.004   2.156   1.155
 9759SOL    HW130176   7.020   2.087   1.083
 9759SOL    HW230177   6.936   2.200   1.166
 9760SOL     OW30178   5.059   0.649   6.081
 9760SOL    HW130179   5.015   0.689   6.001
 9760SOL    HW230180   5.025   0.695   6.163
 9761SOL     OW30181   0.608   1.800   1.930
 9761SOL    HW130182   0.564   1.889   1.914
 9761SOL    HW230183   0.625   1.789   2.028
 9762SOL     OW30184   4.058   0.981   6.151
 9762SOL    HW130185   4.032   0.906   6.212
 9762SOL    HW230186   4.148   1.015   6.177
 9763SOL     OW30187   5.888   1.767   1.185
 9763SOL    HW130188   5.888   1.867   1.179
 9763SOL    HW230189   5.941   1.738   1.264
 9764SOL     OW30190   0.271   2.569   3.254
 9764SOL    HW130191   0.224   2.485   3.228
 9764SOL    HW230192   0.322   2.605   3.176
 9765SOL     OW30193   6.598   2.058   1.204
 9765SOL    HW130194   6.524   2.115   1.168
 9765SOL    HW230195   6.675   2.116   1.232
 9766SOL     OW30196   0.432   2.530   2.896
 9766SOL    HW130197   0.365   2.582   2.843
 9766SOL    HW230198   0.406   2.433   2.896
 9767SOL     OW30199   3.917   1.569   5.058
 9767SOL    HW130200   3.865   1.552   5.142
 9767SOL    HW230201   3.999   1.512   5.058
 9768SOL     OW30202   5.106   1.731   6.689
 9768SOL    HW130203   5.010   1.759   6.686
 9768SOL    HW230204   5.158   1.782   6.620
 9769SOL     OW30205   4.065   0.972   5.247
 9769SOL    HW130206   4.036   1.064   5.272
 9769SOL    HW230207   4.146   0.978   5.187
 9770SOL     OW30208   1.787   3.343   5.141
 9770SOL    HW130209   1.850   3.323   5.216
 9770SOL    HW230210   1.828   3.315   5.054
 9771SOL     OW30211   3.482   0.728   2.169
 9771SOL    HW130212   3.484   0.822   2.205
 9771SOL    HW230213   3.387   0.697   2.165
 9772SOL     OW30214   0.266   0.441   2.104
 9772SOL    HW130215   0.286   0.450   2.202
 9772SOL    HW230216   0.342   0.479   2.051
 9773SOL     OW30217   5.483   6.195   1.674
 9773SOL    HW130218   5.393   6.197   1.718
 9773SOL    HW230219   5.476   6.147   1.587
 9774SOL     OW30220   1.778   5.999   4.718
 9774SOL    HW130221   1.756   6.084   4.765
 9774SOL    HW230222   1.875   5.999   4.694
 9775SOL     OW30223   1.241   1.327   3.154
 9775SOL    HW130224   1.261   1.351   3.249
 9775SOL    HW230225   1.275   1.400   3.094
 9776SOL     OW30226   1.741   5.914   1.615
 9776SOL    HW130227   1.762   5.852   1.540
 9776SOL    HW230228   1.698   5.864   1.690
 9777SOL     OW30229   4.362   1.617   5.139
 9777SOL    HW130230   4.316   1.696   5.179
 9777SOL    HW230231   4.364   1.627   5.039
 9778SOL     OW30232   1.433   3.666   2.999
 9778SOL    HW130233   1.477   3.703   3.082
 9778SOL    HW230234   1.393   3.742   2.947
 9779SOL     OW30235   2.918   1.072   3.213
 9779SOL    HW130236   2.903   1.147   3.276
 9779SOL    HW230237   2.833   1.021   3.200
 9780SOL     OW30238   0.944   1.644   0.803
 9780SOL    HW130239   1.038   1.645   0.836
 9780SOL    HW230240   0.906   1.736   0.806
 9781SOL     OW30241   1.223   1.184   2.479
 9781SOL    HW130242   1.160   1.121   2.434
 9781SOL    HW230243   1.241   1.262   2.418
 9782SOL     OW30244   6.947   2.597   0.474
 9782SOL    HW130245   6.999   2.682   0.462
 9782SOL    HW230246   7.008   2.519   0.470
 9783SOL     OW30247   5.044   2.049   2.159
 9783SOL    HW130248   4.994   1.965   2.181
 9783SOL    HW230249   5.141   2.036   2.182
 9784SOL     OW30250   2.054   1.223   0.651
 9784SOL    HW130251   2.035   1.247   0.556
 9784SOL    HW230252   2.082   1.304   0.702
 9785SOL     OW30253   1.816   3.741   4.506
 9785SOL    HW130254   1.821   3.684   4.424
 9785SOL    HW230255   1.722   3.774   4.517
 9786SOL     OW30256   2.752   4.647   6.664
 9786SOL    HW130257   2.720   4.732   6.706
 9786SOL    HW230258   2.758   4.660   6.565
 9787SOL     OW30259   2.446   3.238   1.144
 9787SOL    HW130260   2.423   3.319   1.090
 9787SOL    HW230261   2.537   3.205   1.118
 9788SOL     OW30262   3.156   6.874   2.537
 9788SOL    HW130263   3.211   6.792   2.520
 9788SOL    HW230264   3.167   6.901   2.632
 9789SOL     OW30265   4.524   1.919   0.752
 9789SOL    HW130266   4.475   1.863   0.685
 9789SOL    HW230267   4.459   1.963   0.813
 9790SOL     OW30268   4.527   5.724   4.902
 9790SOL    HW130269   4.479   5.672   4.973
 9790SOL    HW230270   4.531   5.820   4.929
 9791SOL     OW30271   0.298   1.204   1.288
 9791SOL    HW130272   0.256   1.288   1.253
 9791SOL    HW230273   0.270   1.127   1.230
 9792SOL     OW30274   3.492   3.754   0.768
 9792SOL    HW130275   3.491   3.843   0.723
 9792SOL    HW230276   3.456   3.764   0.861
 9793SOL     OW30277   5.974   1.362   2.108
 9793SOL    HW130278   6.063   1.335   2.071
 9793SOL    HW230279   5.960   1.460   2.092
 9794SOL     OW30280   4.101   5.494   4.422
 9794SOL    HW130281   4.093   5.395   4.429
 9794SOL    HW230282   4.131   5.532   4.509
 9795SOL     OW30283   1.869   4.348   3.153
 9795SOL    HW130284   1.858   4.305   3.243
 9795SOL    HW230285   1.911   4.283   3.090
 9796SOL     OW30286   3.508   3.689   4.542
 9796SOL    HW130287   3.514   3.781   4.582
 9796SOL    HW230288   3.479   3.696   4.447
 9797SOL     OW30289   3.422   5.528   6.748
 9797SOL    HW130290   3.519   5.530   6.725
 9797SOL    HW230291   3.406   5.458   6.818
 9798SOL     OW30292   0.017   4.288   6.145
 9798SOL    HW130293   0.075   4.369   6.137
 9798SOL    HW230294   0.026   4.232   6.062
 9799SOL     OW30295   4.070   6.351   6.771
 9799SOL    HW130296   4.121   6.393   6.846
 9799SOL    HW230297   4.030   6.423   6.714
 9800SOL     OW30298   6.765   4.576   5.129
 9800SOL    HW130299   6.840   4.637   5.104
 9800SOL    HW230300   6.779   4.542   5.222
 9801SOL     OW30301   4.398   0.404   0.676
 9801SOL    HW130302   4.304   0.420   0.644
 9801SOL    HW230303   4.396   0.379   0.773
 9802SOL     OW30304   4.032   3.240   0.404
 9802SOL    HW130305   3.985   3.321   0.369
 9802SOL    HW230306   3.984   3.206   0.485
 9803SOL     OW30307   2.677   3.557   0.230
 9803SOL    HW130308   2.586   3.552   0.271
 9803SOL    HW230309   2.724   3.470   0.244
 9804SOL     OW30310   1.246   4.334   2.767
 9804SOL    HW130311   1.290   4.367   2.850
 9804SOL    HW230312   1.223   4.411   2.708
 9805SOL     OW30313   0.194   5.537   4.586
 9805SOL    HW130314   0.125   5.470   4.613
 9805SOL    HW230315   0.255   5.497   4.517
 9806SOL     OW30316   3.598   1.133   6.799
 9806SOL    HW130317   3.655   1.209   6.768
 9806SOL    HW230318   3.546   1.097   6.722
 9807SOL     OW30319   3.422   3.214   3.735
 9807SOL    HW130320   3.458   3.297   3.779
 9807SOL    HW230321   3.475   3.195   3.653
 9808SOL     OW30322   3.218   6.024   2.592
 9808SOL    HW130323   3.242   6.037   2.688
 9808SOL    HW230324   3.299   5.996   2.540
 9809SOL     OW30325   5.940   2.664   1.246
 9809SOL    HW130326   5.893   2.718   1.175
 9809SOL    HW230327   6.037   2.659   1.225
 9810SOL     OW30328   3.077   2.878   0.805
 9810SOL    HW130329   3.157   2.872   0.864
 9810SOL    HW230330   3.105   2.867   0.710
 9811SOL     OW30331   5.245   3.774   4.085
 9811SOL    HW130332   5.311   3.700   4.080
 9811SOL    HW230333   5.285   3.851   4.135
 9812SOL     OW30334   3.466   5.409   6.325
 9812SOL    HW130335   3.387   5.450   6.370
 9812SOL    HW230336   3.530   5.375   6.394
 9813SOL     OW30337   4.299   1.275   2.188
 9813SOL    HW130338   4.212   1.230   2.165
 9813SOL    HW230339   4.280   1.363   2.230
 9814SOL     OW30340   6.723   2.154   6.186
 9814SOL    HW130341   6.666   2.235   6.197
 9814SOL    HW230342   6.669   2.080   6.145
 9815SOL     OW30343   5.155   2.417   4.353
 9815SOL    HW130344   5.160   2.508   4.312
 9815SOL    HW230345   5.072   2.371   4.323
 9816SOL     OW30346   3.387   0.889   0.096
 9816SOL    HW130347   3.332   0.971   0.078
 9816SOL    HW230348   3.413   0.887   0.192
 9817SOL     OW30349   6.854   0.126   1.410
 9817SOL    HW130350   6.903   0.133   1.497
 9817SOL    HW230351   6.757   0.146   1.424
 9818SOL     OW30352   3.663   2.180   5.310
 9818SOL    HW130353   3.594   2.250   5.328
 9818SOL    HW230354   3.627   2.090   5.335
 9819SOL     OW30355   2.680   0.563   1.695
 9819SOL    HW130356   2.674   0.584   1.597
 9819SOL    HW230357   2.603   0.505   1.722
 9820SOL     OW30358   3.683   2.813   6.973
 9820SOL    HW130359   3.666   2.753   6.895
 9820SOL    HW230360   3.779   2.841   6.973
 9821SOL     OW30361   6.815   5.528   0.387
 9821SOL    HW130362   6.751   5.555   0.459
 9821SOL    HW230363   6.784   5.566   0.299
 9822SOL     OW30364   0.264   0.468   2.422
 9822SOL    HW130365   0.319   0.547   2.449
 9822SOL    HW230366   0.308   0.384   2.455
 9823SOL     OW30367   3.757   6.653   1.490
 9823SOL    HW130368   3.749   6.594   1.570
 9823SOL    HW230369   3.722   6.603   1.410
 9824SOL     OW30370   2.064   3.934   5.658
 9824SOL    HW130371   2.053   3.864   5.729
 9824SOL    HW230372   2.089   3.890   5.572
 9825SOL     OW30373   3.996   5.505   5.008
 9825SOL    HW130374   4.034   5.474   5.096
 9825SOL    HW230375   3.976   5.603   5.014
 9826SOL     OW30376   5.942   6.421   5.309
 9826SOL    HW130377   5.842   6.417   5.318
 9826SOL    HW230378   5.974   6.340   5.259
 9827SOL     OW30379   1.121   5.177   4.763
 9827SOL    HW130380   1.201   5.223   4.802
 9827SOL    HW230381   1.077   5.120   4.833
 9828SOL     OW30382   2.746   1.807   6.892
 9828SOL    HW130383   2.782   1.900   6.907
 9828SOL    HW230384   2.704   1.803   6.802
 9829SOL     OW30385   2.549   4.393   1.663
 9829SOL    HW130386   2.498   4.466   1.709
 9829SOL    HW230387   2.631   4.431   1.622
 9830SOL     OW30388   6.254   1.470   1.073
 9830SOL    HW130389   6.217   1.558   1.044
 9830SOL    HW230390   6.218   1.448   1.164
 9831SOL     OW30391   6.281   6.724   1.137
 9831SOL    HW130392   6.256   6.628   1.129
 9831SOL    HW230393   6.208   6.775   1.183
 9832SOL     OW30394   3.459   4.136   1.034
 9832SOL    HW130395   3.555   4.126   1.011
 9832SOL    HW230396   3.411   4.183   0.960
 9833SOL     OW30397   4.494   4.376   6.450
 9833SOL    HW130398   4.533   4.435   6.378
 9833SOL    HW230399   4.413   4.330   6.415
 9834SOL     OW30400   2.258   2.170   4.178
 9834SOL    HW130401   2.302   2.184   4.089
 9834SOL    HW230402   2.273   2.251   4.234
 9835SOL     OW30403   5.553   1.599   4.880
 9835SOL    HW130404   5.611   1.668   4.837
 9835SOL    HW230405   5.527   1.630   4.972
 9836SOL     OW30406   5.009   5.215   1.262
 9836SOL    HW130407   5.062   5.212   1.347
 9836SOL    HW230408   5.063   5.176   1.187
 9837SOL     OW30409   2.580   6.020   5.793
 9837SOL    HW130410   2.531   5.967   5.724
 9837SOL    HW230411   2.514   6.072   5.847
 9838SOL     OW30412   6.715   5.862   4.873
 9838SOL    HW130413   6.685   5.779   4.826
 9838SOL    HW230414   6.714   5.846   4.972
 9839SOL     OW30415   5.692   3.191   2.511
 9839SOL    HW130416   5.643   3.276   2.492
 9839SOL    HW230417   5.724   3.192   2.606
 9840SOL     OW30418   5.858   0.373   0.383
 9840SOL    HW130419   5.800   0.453   0.369
 9840SOL    HW230420   5.847   0.310   0.306
 9841SOL     OW30421   2.252   2.999   4.516
 9841SOL    HW130422   2.242   3.084   4.567
 9841SOL    HW230423   2.307   2.934   4.569
 9842SOL     OW30424   3.361   3.591   3.765
 9842SOL    HW130425   3.403   3.520   3.821
 9842SOL    HW230426   3.327   3.551   3.680
 9843SOL     OW30427   5.756   4.801   3.005
 9843SOL    HW130428   5.849   4.839   2.996
 9843SOL    HW230429   5.762   4.702   3.019
 9844SOL     OW30430   4.943   0.103   2.080
 9844SOL    HW130431   5.006   0.153   2.139
 9844SOL    HW230432   4.994   0.037   2.024
 9845SOL     OW30433   1.555   1.779   3.515
 9845SOL    HW130434   1.492   1.769   3.592
 9845SOL    HW230435   1.503   1.776   3.429
 9846SOL     OW30436   2.936   3.680   3.544
 9846SOL    HW130437   2.899   3.606   3.488
 9846SOL    HW230438   3.029   3.656   3.574
 9847SOL     OW30439   2.408   4.445   5.126
 9847SOL    HW130440   2.329   4.469   5.068
 9847SOL    HW230441   2.408   4.347   5.144
 9848SOL     OW30442   6.036   3.559   0.205
 9848SOL    HW130443   5.962   3.618   0.171
 9848SOL    HW230444   6.012   3.463   0.189
 9849SOL     OW30445   6.720   6.125   5.467
 9849SOL    HW130446   6.809   6.081   5.477
 9849SOL    HW230447   6.724   6.191   5.392
 9850SOL     OW30448   4.482   0.385   3.242
 9850SOL    HW130449   4.447   0.296   3.212
 9850SOL    HW230450   4.564   0.408   3.189
 9851SOL     OW30451   5.225   2.693   5.421
 9851SOL    HW130452   5.192   2.768   5.478
 9851SOL    HW230453   5.151   2.657   5.365
 9852SOL     OW30454   5.573   1.557   4.547
 9852SOL    HW130455   5.513   1.479   4.564
 9852SOL    HW230456   5.518   1.639   4.530
 9853SOL     OW30457   0.580   4.710   1.296
 9853SOL    HW130458   0.491   4.753   1.281
 9853SOL    HW230459   0.568   4.611   1.302
 9854SOL     OW30460   3.637   6.732   3.796
 9854SOL    HW130461   3.684   6.686   3.720
 9854SOL    HW230462   3.673   6.699   3.883
 9855SOL     OW30463   1.695   4.427   0.939
 9855SOL    HW130464   1.622   4.427   0.871
 9855SOL    HW230465   1.668   4.483   1.018
 9856SOL     OW30466   3.572   3.203   1.405
 9856SOL    HW130467   3.545   3.211   1.501
 9856SOL    HW230468   3.494   3.169   1.352
 9857SOL     OW30469   6.322   4.737   2.954
 9857SOL    HW130470   6.264   4.783   2.886
 9857SOL    HW230471   6.384   4.804   2.995
 9858SOL     OW30472   3.760   1.696   1.576
 9858SOL    HW130473   3.743   1.716   1.672
 9858SOL    HW230474   3.728   1.772   1.520
 9859SOL     OW30475   0.162   0.087   1.558
 9859SOL    HW130476   0.210   0.130   1.482
 9859SOL    HW230477   0.104   0.155   1.603
 9860SOL     OW30478   0.611   0.916   2.701
 9860SOL    HW130479   0.542   0.885   2.636
 9860SOL    HW230480   0.695   0.940   2.652
 9861SOL     OW30481   2.921   6.393   4.255
 9861SOL    HW130482   2.971   6.356   4.333
 9861SOL    HW230483   2.843   6.447   4.288
 9862SOL     OW30484   0.378   2.197   1.145
 9862SOL    HW130485   0.425   2.285   1.149
 9862SOL    HW230486   0.392   2.156   1.055
 9863SOL     OW30487   3.618   6.986   0.364
 9863SOL    HW130488   3.607   6.944   0.273
 9863SOL    HW230489   3.529   7.017   0.397
 9864SOL     OW30490   4.490   6.076   3.166
 9864SOL    HW130491   4.531   6.151   3.217
 9864SOL    HW230492   4.394   6.065   3.194
 9865SOL     OW30493   1.903   2.937   3.788
 9865SOL    HW130494   1.841   2.976   3.721
 9865SOL    HW230495   1.851   2.908   3.868
 9866SOL     OW30496   3.206   5.149   3.637
 9866SOL    HW130497   3.225   5.101   3.723
 9866SOL    HW230498   3.264   5.111   3.565
 9867SOL     OW30499   4.020   6.983   6.554
 9867SOL    HW130500   3.922   6.986   6.573
 9867SOL    HW230501   4.058   0.053   6.560
 9868SOL     OW30502   1.055   5.237   5.669
 9868SOL    HW130503   1.067   5.177   5.748
 9868SOL    HW230504   1.135   5.230   5.609
 9869SOL     OW30505   1.061   4.138   3.007
 9869SOL    HW130506   1.075   4.233   3.035
 9869SOL    HW230507   1.148   4.089   3.008
 9870SOL     OW30508   4.285   4.972   1.964
 9870SOL    HW130509   4.227   4.938   1.890
 9870SOL    HW230510   4.233   5.033   2.023
 9871SOL     OW30511   1.703   2.026   5.956
 9871SOL    HW130512   1.790   1.997   5.916
 9871SOL    HW230513   1.716   2.113   6.004
 9872SOL     OW30514   1.296   4.137   3.456
 9872SOL    HW130515   1.373   4.195   3.482
 9872SOL    HW230516   1.215   4.163   3.508
 9873SOL     OW30517   1.682   1.610   0.286
 9873SOL    HW130518   1.733   1.576   0.208
 9873SOL    HW230519   1.704   1.556   0.367
 9874SOL     OW30520   1.081   3.603   4.490
 9874SOL    HW130521   1.165   3.585   4.541
 9874SOL    HW230522   1.059   3.701   4.496
 9875SOL     OW30523   0.882   1.199   2.964
 9875SOL    HW130524   0.788   1.235   2.962
 9875SOL    HW230525   0.943   1.269   3.001
 9876SOL     OW30526   0.227   5.231   2.229
 9876SOL    HW130527   0.161   5.168   2.272
 9876SOL    HW230528   0.203   5.325   2.253
 9877SOL     OW30529   3.605   0.225   1.379
 9877SOL    HW130530   3.669   0.274   1.439
 9877SOL    HW230531   3.606   0.128   1.402
 9878SOL     OW30532   0.244   0.450   4.988
 9878SOL    HW130533   0.177   0.444   4.914
 9878SOL    HW230534   0.307   0.373   4.982
 9879SOL     OW30535   5.734   5.892   5.208
 9879SOL    HW130536   5.675   5.840   5.270
 9879SOL    HW230537   5.685   5.973   5.175
 9880SOL     OW30538   1.740   1.579   4.119
 9880SOL    HW130539   1.813   1.580   4.050
 9880SOL    HW230540   1.762   1.643   4.192
 9881SOL     OW30541   0.107   1.425   6.237
 9881SOL    HW130542   0.126   1.340   6.285
 9881SOL    HW230543   0.178   1.441   6.168
 9882SOL     OW30544   2.346   2.288   3.309
 9882SOL    HW130545   2.429   2.233   3.317
 9882SOL    HW230546   2.314   2.315   3.399
 9883SOL     OW30547   2.835   1.119   2.213
 9883SOL    HW130548   2.929   1.145   2.193
 9883SOL    HW230549   2.782   1.201   2.237
 9884SOL     OW30550   3.379   0.670   4.358
 9884SOL    HW130551   3.348   0.718   4.441
 9884SOL    HW230552   3.301   0.656   4.297
 9885SOL     OW30553   6.646   4.269   4.093
 9885SOL    HW130554   6.643   4.169   4.084
 9885SOL    HW230555   6.726   4.304   4.045
 9886SOL     OW30556   0.925   3.438   1.760
 9886SOL    HW130557   0.923   3.515   1.696
 9886SOL    HW230558   0.907   3.472   1.853
 9887SOL     OW30559   4.267   6.462   5.844
 9887SOL    HW130560   4.223   6.479   5.932
 9887SOL    HW230561   4.361   6.432   5.858
 9888SOL     OW30562   6.409   5.252   6.944
 9888SOL    HW130563   6.368   5.267   6.853
 9888SOL    HW230564   6.501   5.215   6.933
 9889SOL     OW30565   0.377   5.301   0.406
 9889SOL    HW130566   0.461   5.352   0.389
 9889SOL    HW230567   0.309   5.325   0.337
 9890SOL     OW30568   1.407   3.277   0.364
 9890SOL    HW130569   1.345   3.200   0.370
 9890SOL    HW230570   1.399   3.333   0.447
 9891SOL     OW30571   4.822   1.646   1.966
 9891SOL    HW130572   4.843   1.695   2.051
 9891SOL    HW230573   4.817   1.548   1.985
 9892SOL     OW30574   0.953   6.514   6.798
 9892SOL    HW130575   1.023   6.576   6.764
 9892SOL    HW230576   0.995   6.449   6.862
 9893SOL     OW30577   2.308   1.656   0.313
 9893SOL    HW130578   2.251   1.588   0.266
 9893SOL    HW230579   2.401   1.619   0.324
 9894SOL     OW30580   1.916   0.897   1.379
 9894SOL    HW130581   1.908   0.968   1.449
 9894SOL    HW230582   2.012   0.885   1.354
 9895SOL     OW30583   4.366   2.877   5.387
 9895SOL    HW130584   4.267   2.865   5.375
 9895SOL    HW230585   4.391   2.971   5.368
 9896SOL     OW30586   6.930   6.318   6.189
 9896SOL    HW130587   6.913   6.408   6.148
 9896SOL    HW230588   6.917   6.247   6.121
 9897SOL     OW30589   5.169   4.873   4.590
 9897SOL    HW130590   5.248   4.908   4.540
 9897SOL    HW230591   5.186   4.778   4.617
 9898SOL     OW30592   2.514   6.629   5.736
 9898SOL    HW130593   2.559   6.696   5.796
 9898SOL    HW230594   2.527   6.537   5.774
 9899SOL     OW30595   0.216   5.134   0.104
 9899SOL    HW130596   0.167   5.048   0.121
 9899SOL    HW230597   0.150   5.206   0.083
 9900SOL     OW30598   2.388   4.337   3.802
 9900SOL    HW130599   2.457   4.381   3.860
 9900SOL    HW230600   2.327   4.282   3.858
 9901SOL     OW30601   2.221   3.376   5.912
 9901SOL    HW130602   2.167   3.351   5.832
 9901SOL    HW230603   2.267   3.295   5.948
 9902SOL     OW30604   2.636   4.589   0.611
 9902SOL    HW130605   2.635   4.516   0.679
 9902SOL    HW230606   2.667   4.553   0.523
 9903SOL     OW30607   5.505   0.733   4.551
 9903SOL    HW130608   5.408   0.722   4.530
 9903SOL    HW230609   5.560   0.675   4.490
 9904SOL     OW30610   6.097   2.215   0.553
 9904SOL    HW130611   6.144   2.290   0.599
 9904SOL    HW230612   6.114   2.130   0.603
 9905SOL     OW30613   5.368   0.256   0.323
 9905SOL    HW130614   5.460   0.224   0.298
 9905SOL    HW230615   5.340   0.327   0.258
 9906SOL     OW30616   3.429   3.134   4.885
 9906SOL    HW130617   3.367   3.063   4.919
 9906SOL    HW230618   3.434   3.129   4.785
 9907SOL     OW30619   1.289   6.626   1.743
 9907SOL    HW130620   1.210   6.655   1.797
 9907SOL    HW230621   1.373   6.650   1.792
 9908SOL     OW30622   4.937   3.754   2.304
 9908SOL    HW130623   4.941   3.817   2.381
 9908SOL    HW230624   4.916   3.804   2.221
 9909SOL     OW30625   1.983   0.373   4.899
 9909SOL    HW130626   2.050   0.445   4.880
 9909SOL    HW230627   2.027   0.284   4.892
 9910SOL     OW30628   0.053   5.135   3.744
 9910SOL    HW130629   0.026   5.159   3.651
 9910SOL    HW230630   7.002   5.081   3.788
 9911SOL     OW30631   2.910   5.465   2.568
 9911SOL    HW130632   2.983   5.414   2.613
 9911SOL    HW230633   2.946   5.553   2.536
 9912SOL     OW30634   4.951   0.717   6.711
 9912SOL    HW130635   4.939   0.809   6.673
 9912SOL    HW230636   4.955   0.650   6.637
 9913SOL     OW30637   4.745   3.651   0.247
 9913SOL    HW130638   4.741   3.553   0.265
 9913SOL    HW230639   4.833   3.673   0.205
 9914SOL     OW30640   0.133   4.351   4.493
 9914SOL    HW130641   0.040   4.327   4.463
 9914SOL    HW230642   0.197   4.281   4.460
 9915SOL     OW30643   5.229   1.106   3.391
 9915SOL    HW130644   5.256   1.122   3.486
 9915SOL    HW230645   5.134   1.133   3.378
 9916SOL     OW30646   1.383   3.053   2.147
 9916SOL    HW130647   1.396   2.983   2.216
 9916SOL    HW230648   1.303   3.030   2.091
 9917SOL     OW30649   5.877   4.508   4.645
 9917SOL    HW130650   5.944   4.444   4.606
 9917SOL    HW230651   5.845   4.472   4.733
 9918SOL     OW30652   4.928   2.801   2.288
 9918SOL    HW130653   4.891   2.894   2.295
 9918SOL    HW230654   5.028   2.805   2.287
 9919SOL     OW30655   5.902   5.973   0.600
 9919SOL    HW130656   5.937   5.882   0.623
 9919SOL    HW230657   5.969   6.021   0.544
 9920SOL     OW30658   4.951   2.125   2.512
 9920SOL    HW130659   5.035   2.142   2.460
 9920SOL    HW230660   4.968   2.139   2.609
 9921SOL     OW30661   3.505   4.991   6.448
 9921SOL    HW130662   3.413   4.953   6.463
 9921SOL    HW230663   3.560   4.924   6.398
 9922SOL     OW30664   0.105   5.739   0.958
 9922SOL    HW130665   0.025   5.779   0.911
 9922SOL    HW230666   0.189   5.775   0.917
 9923SOL     OW30667   5.681   4.470   1.022
 9923SOL    HW130668   5.741   4.526   0.965
 9923SOL    HW230669   5.614   4.530   1.067
 9924SOL     OW30670   1.227   3.371   4.642
 9924SOL    HW130671   1.292   3.447   4.638
 9924SOL    HW230672   1.182   3.370   4.731
 9925SOL     OW30673   5.580   2.030   3.388
 9925SOL    HW130674   5.492   2.036   3.434
 9925SOL    HW230675   5.589   1.941   3.344
 9926SOL     OW30676   2.988   5.341   0.495
 9926SOL    HW130677   2.905   5.296   0.460
 9926SOL    HW230678   3.023   5.403   0.424
 9927SOL     OW30679   4.968   0.054   3.913
 9927SOL    HW130680   4.898   0.109   3.958
 9927SOL    HW230681   4.933   0.020   3.826
 9928SOL     OW30682   4.759   4.741   2.195
 9928SOL    HW130683   4.799   4.832   2.209
 9928SOL    HW230684   4.797   4.699   2.114
 9929SOL     OW30685   1.218   4.598   2.625
 9929SOL    HW130686   1.315   4.619   2.621
 9929SOL    HW230687   1.184   4.581   2.532
 9930SOL     OW30688   5.686   0.853   3.463
 9930SOL    HW130689   5.765   0.795   3.485
 9930SOL    HW230690   5.602   0.806   3.490
 9931SOL     OW30691   0.539   5.091   6.018
 9931SOL    HW130692   0.526   5.022   5.946
 9931SOL    HW230693   0.566   5.178   5.976
 9932SOL     OW30694   0.731   6.646   5.365
 9932SOL    HW130695   0.682   6.733   5.354
 9932SOL    HW230696   0.683   6.574   5.314
 9933SOL     OW30697   0.337   6.276   2.239
 9933SOL    HW130698   0.315   6.332   2.319
 9933SOL    HW230699   0.431   6.244   2.245
 9934SOL     OW30700   6.940   2.048   5.080
 9934SOL    HW130701   6.931   2.040   4.981
 9934SOL    HW230702   0.012   2.071   5.103
 9935SOL     OW30703   2.906   0.522   6.137
 9935SOL    HW130704   2.945   0.487   6.051
 9935SOL    HW230705   2.837   0.459   6.171
 9936SOL     OW30706   1.020   4.070   4.125
 9936SOL    HW130707   1.089   4.126   4.172
 9936SOL    HW230708   1.030   3.974   4.154
 9937SOL     OW30709   6.897   2.358   6.261
 9937SOL    HW130710   6.996   2.359   6.249
 9937SOL    HW230711   6.859   2.274   6.223
 9938SOL     OW30712   0.050   6.123   2.465
 9938SOL    HW130713   6.989   6.173   2.441
 9938SOL    HW230714   0.083   6.072   2.385
 9939SOL     OW30715   3.298   3.248   2.898
 9939SOL    HW130716   3.229   3.176   2.908
 9939SOL    HW230717   3.255   3.330   2.862
 9940SOL     OW30718   0.120   0.827   1.107
 9940SOL    HW130719   0.133   0.825   1.008
 9940SOL    HW230720   0.175   0.755   1.149
 9941SOL     OW30721   3.358   5.695   4.516
 9941SOL    HW130722   3.451   5.732   4.515
 9941SOL    HW230723   3.345   5.636   4.437
 9942SOL     OW30724   2.330   5.697   3.840
 9942SOL    HW130725   2.312   5.637   3.918
 9942SOL    HW230726   2.243   5.727   3.801
 9943SOL     OW30727   0.494   0.015   5.043
 9943SOL    HW130728   0.498   0.101   4.991
 9943SOL    HW230729   0.422   6.979   5.005
 9944SOL     OW30730   1.736   4.346   6.582
 9944SOL    HW130731   1.834   4.330   6.593
 9944SOL    HW230732   1.686   4.268   6.619
 9945SOL     OW30733   0.143   5.839   0.149
 9945SOL    HW130734   0.189   5.751   0.158
 9945SOL    HW230735   0.130   5.861   0.052
 9946SOL     OW30736   5.842   1.562   4.644
 9946SOL    HW130737   5.854   1.519   4.734
 9946SOL    HW230738   5.747   1.553   4.614
 9947SOL     OW30739   6.008   4.629   2.937
 9947SOL    HW130740   6.081   4.595   2.996
 9947SOL    HW230741   5.927   4.570   2.946
 9948SOL     OW30742   5.634   3.480   4.045
 9948SOL    HW130743   5.706   3.450   3.982
 9948SOL    HW230744   5.624   3.412   4.118
 9949SOL     OW30745   6.124   5.456   1.818
 9949SOL    HW130746   6.187   5.441   1.894
 9949SOL    HW230747   6.030   5.460   1.852
 9950SOL     OW30748   3.117   6.156   6.735
 9950SOL    HW130749   3.213   6.183   6.743
 9950SOL    HW230750   3.073   6.211   6.665
 9951SOL     OW30751   6.473   2.696   2.911
 9951SOL    HW130752   6.432   2.757   2.979
 9951SOL    HW230753   6.413   2.691   2.831
 9952SOL     OW30754   6.847   4.835   6.116
 9952SOL    HW130755   6.757   4.799   6.139
 9952SOL    HW230756   6.840   4.892   6.035
 9953SOL     OW30757   5.685   2.803   3.806
 9953SOL    HW130758   5.708   2.894   3.841
 9953SOL    HW230759   5.769   2.750   3.793
 9954SOL     OW30760   3.915   0.687   4.629
 9954SOL    HW130761   3.965   0.709   4.713
 9954SOL    HW230762   3.977   0.692   4.551
 9955SOL     OW30763   0.739   4.705   4.299
 9955SOL    HW130764   0.783   4.659   4.221
 9955SOL    HW230765   0.655   4.656   4.323
 9956SOL     OW30766   1.088   6.092   0.364
 9956SOL    HW130767   1.055   6.030   0.435
 9956SOL    HW230768   1.011   6.143   0.326
 9957SOL     OW30769   5.552   5.679   2.230
 9957SOL    HW130770   5.581   5.743   2.159
 9957SOL    HW230771   5.470   5.714   2.275
 9958SOL     OW30772   3.135   4.651   1.021
 9958SOL    HW130773   3.231   4.664   0.997
 9958SOL    HW230774   3.078   4.659   0.939
 9959SOL     OW30775   3.398   3.919   1.362
 9959SOL    HW130776   3.480   3.894   1.312
 9959SOL    HW230777   3.401   3.879   1.454
 9960SOL     OW30778   0.575   1.078   2.476
 9960SOL    HW130779   0.562   1.154   2.412
 9960SOL    HW230780   0.664   1.036   2.460
 9961SOL     OW30781   2.112   3.840   4.836
 9961SOL    HW130782   2.189   3.781   4.810
 9961SOL    HW230783   2.142   3.904   4.907
 9962SOL     OW30784   4.888   6.959   4.433
 9962SOL    HW130785   4.853   6.904   4.358
 9962SOL    HW230786   4.987   6.965   4.426
 9963SOL     OW30787   3.515   1.155   0.882
 9963SOL    HW130788   3.590   1.092   0.860
 9963SOL    HW230789   3.442   1.105   0.928
 9964SOL     OW30790   5.252   6.497   4.855
 9964SOL    HW130791   5.267   6.588   4.815
 9964SOL    HW230792   5.207   6.438   4.788
 9965SOL     OW30793   5.290   6.744   0.157
 9965SOL    HW130794   5.286   6.694   0.244
 9965SOL    HW230795   5.197   6.758   0.123
 9966SOL     OW30796   6.205   1.202   3.013
 9966SOL    HW130797   6.157   1.278   3.058
 9966SOL    HW230798   6.222   1.130   3.080
 9967SOL     OW30799   1.024   4.936   0.359
 9967SOL    HW130800   0.974   4.991   0.292
 9967SOL    HW230801   0.967   4.858   0.387
 9968SOL     OW30802   3.355   3.826   2.780
 9968SOL    HW130803   3.343   3.768   2.860
 9968SOL    HW230804   3.313   3.915   2.797
 9969SOL     OW30805   1.331   3.336   1.575
 9969SOL    HW130806   1.235   3.353   1.552
 9969SOL    HW230807   1.353   3.241   1.555
 9970SOL     OW30808   6.290   4.731   1.766
 9970SOL    HW130809   6.195   4.752   1.745
 9970SOL    HW230810   6.305   4.632   1.759
 9971SOL     OW30811   2.762   6.949   6.679
 9971SOL    HW130812   2.698   6.875   6.698
 9971SOL    HW230813   2.798   6.985   6.765
 9972SOL     OW30814   6.623   5.230   1.384
 9972SOL    HW130815   6.656   5.143   1.347
 9972SOL    HW230816   6.525   5.240   1.364
 9973SOL     OW30817   5.430   6.839   3.593
 9973SOL    HW130818   5.338   6.876   3.606
 9973SOL    HW230819   5.435   6.748   3.633
 9974SOL     OW30820   2.441   0.209   4.241
 9974SOL    HW130821   2.500   0.142   4.287
 9974SOL    HW230822   2.355   0.166   4.216
 9975SOL     OW30823   0.142   4.363   0.959
 9975SOL    HW130824   0.223   4.374   0.901
 9975SOL    HW230825   0.071   4.314   0.908
 9976SOL     OW30826   3.083   6.372   4.959
 9976SOL    HW130827   3.043   6.317   5.033
 9976SOL    HW230828   3.182   6.370   4.967
 9977SOL     OW30829   6.125   4.653   3.465
 9977SOL    HW130830   6.060   4.651   3.389
 9977SOL    HW230831   6.192   4.580   3.454
 9978SOL     OW30832   6.794   2.231   4.566
 9978SOL    HW130833   6.702   2.237   4.607
 9978SOL    HW230834   6.807   2.307   4.502
 9979SOL     OW30835   0.957   3.897   4.842
 9979SOL    HW130836   1.004   3.878   4.756
 9979SOL    HW230837   0.975   3.823   4.907
 9980SOL     OW30838   2.344   6.309   5.749
 9980SOL    HW130839   2.265   6.309   5.811
 9980SOL    HW230840   2.426   6.331   5.801
 9981SOL     OW30841   3.992   2.174   3.729
 9981SOL    HW130842   3.983   2.216   3.819
 9981SOL    HW230843   3.903   2.137   3.700
 9982SOL     OW30844   6.573   6.642   3.060
 9982SOL    HW130845   6.630   6.561   3.045
 9982SOL    HW230846   6.478   6.621   3.038
 9983SOL     OW30847   6.303   0.993   1.026
 9983SOL    HW130848   6.354   1.036   1.100
 9983SOL    HW230849   6.349   1.010   0.939
 9984SOL     OW30850   3.185   1.003   6.581
 9984SOL    HW130851   3.150   1.062   6.653
 9984SOL    HW230852   3.109   0.953   6.539
 9985SOL     OW30853   2.414   1.673   1.503
 9985SOL    HW130854   2.485   1.605   1.525
 9985SOL    HW230855   2.400   1.675   1.404
 9986SOL     OW30856   4.740   4.148   4.575
 9986SOL    HW130857   4.789   4.193   4.501
 9986SOL    HW230858   4.775   4.055   4.586
 9987SOL     OW30859   0.366   4.036   5.258
 9987SOL    HW130860   0.350   4.125   5.214
 9987SOL    HW230861   0.292   4.017   5.322
 9988SOL     OW30862   6.619   0.565   4.441
 9988SOL    HW130863   6.648   0.484   4.390
 9988SOL    HW230864   6.519   0.570   4.440
 9989SOL     OW30865   1.699   2.970   4.758
 9989SOL    HW130866   1.786   2.967   4.806
 9989SOL    HW230867   1.640   3.039   4.800
 9990SOL     OW30868   1.752   5.004   1.788
 9990SOL    HW130869   1.739   5.101   1.766
 9990SOL    HW230870   1.723   4.948   1.710
 9991SOL     OW30871   3.959   1.821   3.405
 9991SOL    HW130872   3.976   1.850   3.311
 9991SOL    HW230873   4.015   1.875   3.467
 9992SOL     OW30874   6.015   5.232   6.543
 9992SOL    HW130875   6.036   5.321   6.585
 9992SOL    HW230876   6.039   5.234   6.446
 9993SOL     OW30877   1.279   0.325   1.642
 9993SOL    HW130878   1.203   0.391   1.647
 9993SOL    HW230879   1.366   0.375   1.636
 9994SOL     OW30880   6.461   4.937   3.151
 9994SOL    HW130881   6.431   5.029   3.175
 9994SOL    HW230882   6.426   4.872   3.218
 9995SOL     OW30883   5.269   1.230   4.672
 9995SOL    HW130884   5.340   1.160   4.664
 9995SOL    HW230885   5.227   1.245   4.582
 9996SOL     OW30886   2.934   2.953   0.061
 9996SOL    HW130887   2.929   2.855   0.044
 9996SOL    HW230888   2.853   2.998   0.023
 9997SOL     OW30889   2.163   0.678   4.363
 9997SOL    HW130890   2.128   0.747   4.427
 9997SOL    HW230891   2.252   0.645   4.395
 9998SOL     OW30892   5.745   6.010   4.708
 9998SOL    HW130893   5.752   5.917   4.745
 9998SOL    HW230894   5.764   6.076   4.781
 9999SOL     OW30895   0.069   0.985   5.086
 9999SOL    HW130896   0.111   1.063   5.039
 9999SOL    HW230897   0.117   0.901   5.061
10000SOL     OW30898   0.023   4.736   0.429
10000SOL    HW130899   0.051   4.666   0.495
10000SOL    HW230900   0.016   4.824   0.476
10001SOL     OW30901   3.988   0.538   3.391
10001SOL    HW130902   4.032   0.449   3.381
10001SOL    HW230903   3.891   0.525   3.411
10002SOL     OW30904   1.304   2.015   1.600
10002SOL    HW130905   1.306   2.035   1.503
10002SOL    HW230906   1.340   1.923   1.616
10003SOL     OW30907   5.194   3.672   2.751
10003SOL    HW130908   5.155   3.708   2.835
10003SOL    HW230909   5.129   3.684   2.676
10004SOL     OW30910   6.681   3.299   3.935
10004SOL    HW130911   6.590   3.335   3.956
10004SOL    HW230912   6.743   3.375   3.916
10005SOL     OW30913   4.439   0.393   3.846
10005SOL    HW130914   4.534   0.401   3.815
10005SOL    HW230915   4.391   0.479   3.828
10006SOL     OW30916   4.514   2.069   3.998
10006SOL    HW130917   4.497   1.989   4.056
10006SOL    HW230918   4.611   2.094   4.004
10007SOL     OW30919   5.667   4.685   4.082
10007SOL    HW130920   5.661   4.743   4.001
10007SOL    HW230921   5.720   4.733   4.153
10008SOL     OW30922   3.227   0.059   3.990
10008SOL    HW130923   3.250   6.995   3.945
10008SOL    HW230924   3.191   0.123   3.922
10009SOL     OW30925   2.596   4.415   1.038
10009SOL    HW130926   2.661   4.379   0.971
10009SOL    HW230927   2.644   4.434   1.123
10010SOL     OW30928   5.994   0.987   6.527
10010SOL    HW130929   6.008   0.909   6.588
10010SOL    HW230930   5.978   0.954   6.434
10011SOL     OW30931   6.985   6.452   3.563
10011SOL    HW130932   7.017   6.530   3.508
10011SOL    HW230933   0.034   6.381   3.563
10012SOL     OW30934   5.390   0.383   4.502
10012SOL    HW130935   5.334   0.310   4.541
10012SOL    HW230936   5.486   0.359   4.511
10013SOL     OW30937   1.480   0.492   1.641
10013SOL    HW130938   1.497   0.518   1.547
10013SOL    HW230939   1.566   0.490   1.692
10014SOL     OW30940   1.482   4.536   5.835
10014SOL    HW130941   1.566   4.553   5.886
10014SOL    HW230942   1.492   4.572   5.742
10015SOL     OW30943   2.634   5.621   6.270
10015SOL    HW130944   2.563   5.670   6.322
10015SOL    HW230945   2.591   5.549   6.216
10016SOL     OW30946   2.238   1.353   5.014
10016SOL    HW130947   2.252   1.440   4.967
10016SOL    HW230948   2.143   1.346   5.045
10017SOL     OW30949   0.394   1.845   3.531
10017SOL    HW130950   0.456   1.901   3.476
10017SOL    HW230951   0.312   1.825   3.478
10018SOL     OW30952   5.258   6.591   6.285
10018SOL    HW130953   5.308   6.670   6.248
10018SOL    HW230954   5.316   6.510   6.283
10019SOL     OW30955   0.816   0.679   2.970
10019SOL    HW130956   0.890   0.722   3.023
10019SOL    HW230957   0.732   0.731   2.984
10020SOL     OW30958   0.300   3.430   0.351
10020SOL    HW130959   0.371   3.359   0.360
10020SOL    HW230960   0.268   3.434   0.257
10021SOL     OW30961   4.699   3.168   1.264
10021SOL    HW130962   4.732   3.078   1.294
10021SOL    HW230963   4.629   3.156   1.193
10022SOL     OW30964   1.780   0.795   6.133
10022SOL    HW130965   1.757   0.882   6.176
10022SOL    HW230966   1.870   0.764   6.167
10023SOL     OW30967   0.522   3.521   0.992
10023SOL    HW130968   0.619   3.506   0.977
10023SOL    HW230969   0.510   3.599   1.053
10024SOL     OW30970   0.880   3.747   3.104
10024SOL    HW130971   0.952   3.746   3.034
10024SOL    HW230972   0.793   3.772   3.062
10025SOL     OW30973   0.494   1.340   0.917
10025SOL    HW130974   0.455   1.395   0.991
10025SOL    HW230975   0.469   1.379   0.829
10026SOL     OW30976   6.327   0.708   4.534
10026SOL    HW130977   6.380   0.791   4.549
10026SOL    HW230978   6.332   0.650   4.616
10027SOL     OW30979   5.986   2.967   5.670
10027SOL    HW130980   6.041   2.973   5.587
10027SOL    HW230981   5.905   2.911   5.653
10028SOL     OW30982   1.759   1.622   1.625
10028SOL    HW130983   1.755   1.712   1.583
10028SOL    HW230984   1.838   1.617   1.687
10029SOL     OW30985   3.524   1.350   4.160
10029SOL    HW130986   3.453   1.313   4.220
10029SOL    HW230987   3.596   1.393   4.216
10030SOL     OW30988   1.149   0.902   2.815
10030SOL    HW130989   1.213   0.850   2.759
10030SOL    HW230990   1.198   0.944   2.891
10031SOL     OW30991   6.839   4.778   3.440
10031SOL    HW130992   6.813   4.862   3.391
10031SOL    HW230993   6.768   4.709   3.428
10032SOL     OW30994   3.745   1.832   5.089
10032SOL    HW130995   3.712   1.740   5.070
10032SOL    HW230996   3.687   1.875   5.157
10033SOL     OW30997   5.544   3.143   3.821
10033SOL    HW130998   5.561   3.201   3.741
10033SOL    HW230999   5.630   3.131   3.871
10034SOL     OW31000   3.967   6.462   5.733
10034SOL    HW131001   4.054   6.494   5.772
10034SOL    HW231002   3.933   6.386   5.788
10035SOL     OW31003   0.771   6.645   3.720
10035SOL    HW131004   0.835   6.592   3.775
10035SOL    HW231005   0.751   6.595   3.636
10036SOL     OW31006   6.027   0.680   0.173
10036SOL    HW131007   6.081   0.637   0.245
10036SOL    HW231008   6.088   0.732   0.113
10037SOL     OW31009   6.761   6.797   1.504
10037SOL    HW131010   6.803   6.712   1.536
10037SOL    HW231011   6.832   6.863   1.481
10038SOL     OW31012   6.286   0.234   1.218
10038SOL    HW131013   6.269   0.166   1.290
10038SOL    HW231014   6.371   0.281   1.237
10039SOL     OW31015   4.252   0.951   2.488
10039SOL    HW131016   4.329   0.888   2.486
10039SOL    HW231017   4.198   0.935   2.571
10040SOL     OW31018   1.079   2.765   0.749
10040SOL    HW131019   1.171   2.740   0.718
10040SOL    HW231020   1.054   2.706   0.826
10041SOL     OW31021   1.364   0.019   0.120
10041SOL    HW131022   1.458   7.008   0.123
10041SOL    HW231023   1.301   6.964   0.139
10042SOL     OW31024   6.274   1.900   3.565
10042SOL    HW131025   6.182   1.866   3.546
10042SOL    HW231026   6.270   1.973   3.633
10043SOL     OW31027   1.591   2.721   5.830
10043SOL    HW131028   1.583   2.709   5.929
10043SOL    HW231029   1.559   2.638   5.784
10044SOL     OW31030   4.775   0.956   6.804
10044SOL    HW131031   4.808   0.919   6.891
10044SOL    HW231032   4.853   0.987   6.749
10045SOL     OW31033   2.179   0.859   1.294
10045SOL    HW131034   2.190   0.959   1.287
10045SOL    HW231035   2.268   0.817   1.311
10046SOL     OW31036   0.488   5.598   0.373
10046SOL    HW131037   0.568   5.540   0.359
10046SOL    HW231038   0.412   5.566   0.317
10047SOL     OW31039   1.414   3.473   1.129
10047SOL    HW131040   1.350   3.545   1.155
10047SOL    HW231041   1.420   3.405   1.203
10048SOL     OW31042   5.919   3.627   2.003
10048SOL    HW131043   5.879   3.706   1.955
10048SOL    HW231044   5.862   3.605   2.083
10049SOL     OW31045   6.550   1.893   4.902
10049SOL    HW131046   6.546   1.982   4.948
10049SOL    HW231047   6.468   1.881   4.846
10050SOL     OW31048   0.154   2.367   6.217
10050SOL    HW131049   0.209   2.407   6.290
10050SOL    HW231050   0.166   2.268   6.215
10051SOL     OW31051   1.672   0.985   3.700
10051SOL    HW131052   1.765   0.970   3.733
10051SOL    HW231053   1.670   0.976   3.600
10052SOL     OW31054   0.879   0.429   3.733
10052SOL    HW131055   0.915   0.514   3.770
10052SOL    HW231056   0.781   0.423   3.753
10053SOL     OW31057   6.464   5.677   2.781
10053SOL    HW131058   6.536   5.687   2.850
10053SOL    HW231059   6.474   5.748   2.711
10054SOL     OW31060   5.795   4.171   3.757
10054SOL    HW131061   5.854   4.111   3.704
10054SOL    HW231062   5.700   4.155   3.733
10055SOL     OW31063   1.825   1.603   0.024
10055SOL    HW131064   1.812   1.701   0.006
10055SOL    HW231065   1.921   1.579   0.007
10056SOL     OW31066   5.228   2.080   4.134
10056SOL    HW131067   5.163   2.017   4.091
10056SOL    HW231068   5.221   2.170   4.091
10057SOL     OW31069   5.985   4.248   4.875
10057SOL    HW131070   5.979   4.175   4.942
10057SOL    HW231071   6.080   4.256   4.843
10058SOL     OW31072   6.329   4.194   3.578
10058SOL    HW131073   6.309   4.169   3.483
10058SOL    HW231074   6.387   4.124   3.620
10059SOL     OW31075   5.244   5.577   6.107
10059SOL    HW131076   5.183   5.504   6.139
10059SOL    HW231077   5.317   5.537   6.052
10060SOL     OW31078   2.831   1.673   2.321
10060SOL    HW131079   2.736   1.648   2.337
10060SOL    HW231080   2.875   1.694   2.408
10061SOL     OW31081   3.619   0.052   3.383
10061SOL    HW131082   3.699   7.019   3.406
10061SOL    HW231083   3.643   0.119   3.313
10062SOL     OW31084   6.534   6.859   4.703
10062SOL    HW131085   6.483   6.944   4.720
10062SOL    HW231086   6.478   6.781   4.729
10063SOL     OW31087   3.598   2.072   4.261
10063SOL    HW131088   3.635   2.038   4.175
10063SOL    HW231089   3.673   2.099   4.321
10064SOL     OW31090   2.980   6.551   2.294
10064SOL    HW131091   3.041   6.513   2.224
10064SOL    HW231092   3.018   6.535   2.385
10065SOL     OW31093   6.763   1.965   1.757
10065SOL    HW131094   6.753   1.996   1.662
10065SOL    HW231095   6.759   1.865   1.760
10066SOL     OW31096   6.024   3.853   3.333
10066SOL    HW131097   5.953   3.920   3.356
10066SOL    HW231098   6.050   3.864   3.237
10067SOL     OW31099   5.465   3.393   5.075
10067SOL    HW131100   5.432   3.309   5.032
10067SOL    HW231101   5.557   3.378   5.111
10068SOL     OW31102   2.046   3.543   2.864
10068SOL    HW131103   2.044   3.598   2.947
10068SOL    HW231104   2.072   3.601   2.787
10069SOL     OW31105   2.986   5.130   1.953
10069SOL    HW131106   2.998   5.031   1.949
10069SOL    HW231107   3.066   5.173   1.995
10070SOL     OW31108   5.043   6.795   0.422
10070SOL    HW131109   5.001   6.802   0.512
10070SOL    HW231110   5.105   6.872   0.408
10071SOL     OW31111   4.995   0.545   5.275
10071SOL    HW131112   5.066   0.553   5.345
10071SOL    HW231113   5.000   0.623   5.213
10072SOL     OW31114   5.572   3.316   2.213
10072SOL    HW131115   5.530   3.404   2.236
10072SOL    HW231116   5.519   3.272   2.140
10073SOL     OW31117   5.845   5.913   5.475
10073SOL    HW131118   5.805   6.004   5.490
10073SOL    HW231119   5.812   5.876   5.388
10074SOL     OW31120   1.529   4.551   1.149
10074SOL    HW131121   1.451   4.582   1.094
10074SOL    HW231122   1.500   4.473   1.204
10075SOL     OW31123   1.097   3.175   2.328
10075SOL    HW131124   1.096   3.084   2.371
10075SOL    HW231125   1.191   3.209   2.327
10076SOL     OW31126   5.703   4.565   3.281
10076SOL    HW131127   5.709   4.644   3.342
10076SOL    HW231128   5.777   4.500   3.303
10077SOL     OW31129   4.217   3.767   6.647
10077SOL    HW131130   4.230   3.676   6.609
10077SOL    HW231131   4.255   3.835   6.584
10078SOL     OW31132   5.883   5.440   4.162
10078SOL    HW131133   5.954   5.371   4.154
10078SOL    HW231134   5.889   5.503   4.084
10079SOL     OW31135   5.809   5.405   2.950
10079SOL    HW131136   5.741   5.449   2.892
10079SOL    HW231137   5.769   5.390   3.041
10080SOL     OW31138   5.539   2.657   5.228
10080SOL    HW131139   5.604   2.667   5.153
10080SOL    HW231140   5.479   2.737   5.229
10081SOL     OW31141   1.543   4.942   0.661
10081SOL    HW131142   1.583   5.009   0.599
10081SOL    HW231143   1.583   4.852   0.643
10082SOL     OW31144   0.782   4.717   1.513
10082SOL    HW131145   0.744   4.681   1.599
10082SOL    HW231146   0.709   4.729   1.446
10083SOL     OW31147   3.088   6.274   2.748
10083SOL    HW131148   3.134   6.197   2.793
10083SOL    HW231149   2.989   6.261   2.753
10084SOL     OW31150   1.915   2.997   5.340
10084SOL    HW131151   1.919   2.903   5.305
10084SOL    HW231152   1.941   2.998   5.436
10085SOL     OW31153   3.838   0.013   1.228
10085SOL    HW131154   3.809   6.981   1.308
10085SOL    HW231155   3.851   0.108   1.255
10086SOL     OW31156   2.934   0.712   3.034
10086SOL    HW131157   2.874   0.644   2.992
10086SOL    HW231158   2.973   0.770   2.963
10087SOL     OW31159   1.752   5.056   6.076
10087SOL    HW131160   1.722   4.961   6.071
10087SOL    HW231161   1.691   5.106   6.138
10088SOL     OW31162   5.673   1.703   0.993
10088SOL    HW131163   5.630   1.620   1.027
10088SOL    HW231164   5.729   1.744   1.065
10089SOL     OW31165   3.751   6.899   2.007
10089SOL    HW131166   3.749   6.917   2.105
10089SOL    HW231167   3.843   6.914   1.972
10090SOL     OW31168   2.999   5.502   1.862
10090SOL    HW131169   3.011   5.460   1.952
10090SOL    HW231170   2.931   5.450   1.809
10091SOL     OW31171   5.772   6.004   2.742
10091SOL    HW131172   5.694   6.008   2.805
10091SOL    HW231173   5.739   5.979   2.651
10092SOL     OW31174   7.017   1.300   2.537
10092SOL    HW131175   6.966   1.387   2.544
10092SOL    HW231176   0.043   1.297   2.450
10093SOL     OW31177   4.512   4.264   6.133
10093SOL    HW131178   4.445   4.232   6.066
10093SOL    HW231179   4.588   4.308   6.086
10094SOL     OW31180   3.749   2.364   0.860
10094SOL    HW131181   3.753   2.350   0.959
10094SOL    HW231182   3.768   2.460   0.839
10095SOL     OW31183   4.394   2.621   5.288
10095SOL    HW131184   4.305   2.600   5.247
10095SOL    HW231185   4.390   2.711   5.330
10096SOL     OW31186   6.693   4.946   1.986
10096SOL    HW131187   6.701   5.044   2.001
10096SOL    HW231188   6.643   4.928   1.901
10097SOL     OW31189   1.286   1.180   1.175
10097SOL    HW131190   1.232   1.132   1.105
10097SOL    HW231191   1.300   1.118   1.252
10098SOL     OW31192   4.309   5.111   0.233
10098SOL    HW131193   4.265   5.099   0.322
10098SOL    HW231194   4.248   5.079   0.160
10099SOL     OW31195   6.842   6.257   3.450
10099SOL    HW131196   6.892   6.236   3.365
10099SOL    HW231197   6.882   6.338   3.493
10100SOL     OW31198   4.948   5.350   4.050
10100SOL    HW131199   4.896   5.430   4.022
10100SOL    HW231200   4.936   5.334   4.148
10101SOL     OW31201   0.117   2.604   6.861
10101SOL    HW131202   0.131   2.566   6.770
10101SOL    HW231203   0.132   2.534   6.930
10102SOL     OW31204   0.039   4.978   3.102
10102SOL    HW131205   0.090   4.904   3.146
10102SOL    HW231206   0.099   5.056   3.086
10103SOL     OW31207   0.176   6.968   0.063
10103SOL    HW131208   0.170   0.045   0.056
10103SOL    HW231209   0.272   6.941   0.069
10104SOL     OW31210   2.279   1.568   4.821
10104SOL    HW131211   2.276   1.587   4.723
10104SOL    HW231212   2.240   1.644   4.872
10105SOL     OW31213   2.999   1.401   4.435
10105SOL    HW131214   2.915   1.382   4.484
10105SOL    HW231215   2.980   1.414   4.337
10106SOL     OW31216   6.005   3.816   1.083
10106SOL    HW131217   6.070   3.787   1.153
10106SOL    HW231218   6.052   3.821   0.994
10107SOL     OW31219   5.010   6.101   5.744
10107SOL    HW131220   5.068   6.082   5.665
10107SOL    HW231221   5.065   6.103   5.827
10108SOL     OW31222   2.555   2.115   5.102
10108SOL    HW131223   2.504   2.045   5.054
10108SOL    HW231224   2.511   2.134   5.190
10109SOL     OW31225   0.916   3.180   1.371
10109SOL    HW131226   0.885   3.139   1.285
10109SOL    HW231227   0.896   3.116   1.446
10110SOL     OW31228   6.031   6.691   1.949
10110SOL    HW131229   6.008   6.690   1.852
10110SOL    HW231230   6.034   6.598   1.985
10111SOL     OW31231   0.112   2.975   1.779
10111SOL    HW131232   0.119   2.911   1.856
10111SOL    HW231233   0.103   2.924   1.694
10112SOL     OW31234   0.214   3.013   4.115
10112SOL    HW131235   0.168   2.930   4.146
10112SOL    HW231236   0.164   3.051   4.037
10113SOL     OW31237   0.031   6.472   6.404
10113SOL    HW131238   0.039   6.381   6.363
10113SOL    HW231239   6.959   6.505   6.392
10114SOL     OW31240   5.398   4.160   1.495
10114SOL    HW131241   5.311   4.154   1.544
10114SOL    HW231242   5.462   4.094   1.534
10115SOL     OW31243   3.922   1.646   6.582
10115SOL    HW131244   3.825   1.623   6.596
10115SOL    HW231245   3.976   1.611   6.658
10116SOL     OW31246   0.492   0.053   6.636
10116SOL    HW131247   0.574   0.095   6.597
10116SOL    HW231248   0.483   0.079   6.732
10117SOL     OW31249   0.237   4.432   1.205
10117SOL    HW131250   0.264   4.527   1.191
10117SOL    HW231251   0.180   4.402   1.128
10118SOL     OW31252   4.101   5.220   3.594
10118SOL    HW131253   4.009   5.203   3.558
10118SOL    HW231254   4.128   5.314   3.574
10119SOL     OW31255   5.757   6.231   6.788
10119SOL    HW131256   5.756   6.312   6.846
10119SOL    HW231257   5.665   6.191   6.785
10120SOL     OW31258   2.424   2.687   3.021
10120SOL    HW131259   2.438   2.632   3.103
10120SOL    HW231260   2.475   2.646   2.945
10121SOL     OW31261   6.661   5.590   1.186
10121SOL    HW131262   6.656   5.689   1.174
10121SOL    HW231263   6.696   5.548   1.102
10122SOL     OW31264   1.951   0.376   3.307
10122SOL    HW131265   1.917   0.296   3.257
10122SOL    HW231266   1.936   0.363   3.405
10123SOL     OW31267   6.040   6.585   6.844
10123SOL    HW131268   6.016   6.537   6.760
10123SOL    HW231269   6.136   6.613   6.841
10124SOL     OW31270   0.865   4.586   3.212
10124SOL    HW131271   0.815   4.556   3.131
10124SOL    HW231272   0.946   4.638   3.185
10125SOL     OW31273   1.905   1.959   4.879
10125SOL    HW131274   1.942   2.052   4.871
10125SOL    HW231275   1.978   1.895   4.899
10126SOL     OW31276   6.780   6.226   4.606
10126SOL    HW131277   6.774   6.326   4.609
10126SOL    HW231278   6.865   6.199   4.560
10127SOL     OW31279   2.160   0.986   4.836
10127SOL    HW131280   2.079   1.034   4.802
10127SOL    HW231281   2.241   1.040   4.816
10128SOL     OW31282   3.134   0.975   0.444
10128SOL    HW131283   3.162   1.069   0.426
10128SOL    HW231284   3.081   0.940   0.366
10129SOL     OW31285   6.650   2.021   5.629
10129SOL    HW131286   6.650   1.997   5.531
10129SOL    HW231287   6.615   1.943   5.682
10130SOL     OW31288   1.492   2.843   3.117
10130SOL    HW131289   1.560   2.861   3.046
10130SOL    HW231290   1.411   2.900   3.100
10131SOL     OW31291   2.091   0.882   5.110
10131SOL    HW131292   2.119   0.888   5.014
10131SOL    HW231293   2.030   0.804   5.122
10132SOL     OW31294   5.954   0.709   2.138
10132SOL    HW131295   6.026   0.728   2.071
10132SOL    HW231296   5.974   0.756   2.223
10133SOL     OW31297   4.646   5.053   1.246
10133SOL    HW131298   4.555   5.091   1.234
10133SOL    HW231299   4.665   4.988   1.172
10134SOL     OW31300   6.396   0.303   3.146
10134SOL    HW131301   6.457   0.380   3.157
10134SOL    HW231302   6.302   0.332   3.167
10135SOL     OW31303   5.935   6.672   3.523
10135SOL    HW131304   5.843   6.710   3.525
10135SOL    HW231305   5.945   6.606   3.598
10136SOL     OW31306   4.697   0.854   2.956
10136SOL    HW131307   4.779   0.798   2.940
10136SOL    HW231308   4.723   0.939   3.002
10137SOL     OW31309   6.493   6.088   2.882
10137SOL    HW131310   6.416   6.106   2.820
10137SOL    HW231311   6.474   6.004   2.934
10138SOL     OW31312   0.309   1.907   2.490
10138SOL    HW131313   0.333   1.898   2.393
10138SOL    HW231314   0.231   1.849   2.511
10139SOL     OW31315   4.156   2.499   1.145
10139SOL    HW131316   4.110   2.430   1.200
10139SOL    HW231317   4.249   2.468   1.124
10140SOL     OW31318   5.920   6.648   4.104
10140SOL    HW131319   5.878   6.646   4.194
10140SOL    HW231320   5.893   6.731   4.056
10141SOL     OW31321   0.955   2.243   4.520
10141SOL    HW131322   0.928   2.162   4.571
10141SOL    HW231323   0.885   2.266   4.452
10142SOL     OW31324   4.338   6.230   1.579
10142SOL    HW131325   4.267   6.171   1.616
10142SOL    HW231326   4.297   6.298   1.518
10143SOL     OW31327   6.460   3.413   6.805
10143SOL    HW131328   6.370   3.380   6.775
10143SOL    HW231329   6.460   3.422   6.904
10144SOL     OW31330   4.024   0.970   1.500
10144SOL    HW131331   4.068   1.013   1.422
10144SOL    HW231332   3.970   0.891   1.469
10145SOL     OW31333   6.320   0.207   4.988
10145SOL    HW131334   6.322   0.162   5.077
10145SOL    HW231335   6.396   0.173   4.932
10146SOL     OW31336   1.416   1.290   5.455
10146SOL    HW131337   1.403   1.301   5.553
10146SOL    HW231338   1.431   1.193   5.434
10147SOL     OW31339   3.208   4.796   0.585
10147SOL    HW131340   3.234   4.851   0.505
10147SOL    HW231341   3.144   4.725   0.558
10148SOL     OW31342   0.235   5.652   6.296
10148SOL    HW131343   0.203   5.665   6.390
10148SOL    HW231344   0.246   5.554   6.278
10149SOL     OW31345   2.893   3.362   3.621
10149SOL    HW131346   2.940   3.274   3.609
10149SOL    HW231347   2.857   3.368   3.714
10150SOL     OW31348   6.007   4.119   0.338
10150SOL    HW131349   5.917   4.134   0.298
10150SOL    HW231350   6.030   4.195   0.398
10151SOL     OW31351   0.340   1.055   0.355
10151SOL    HW131352   0.277   1.009   0.418
10151SOL    HW231353   0.288   1.121   0.300
10152SOL     OW31354   3.400   6.403   3.953
10152SOL    HW131355   3.374   6.308   3.970
10152SOL    HW231356   3.344   6.464   4.009
10153SOL     OW31357   4.817   4.075   1.176
10153SOL    HW131358   4.784   4.166   1.153
10153SOL    HW231359   4.740   4.011   1.173
10154SOL     OW31360   4.778   5.227   6.012
10154SOL    HW131361   4.799   5.292   5.939
10154SOL    HW231362   4.728   5.149   5.974
10155SOL     OW31363   4.787   2.537   4.694
10155SOL    HW131364   4.885   2.555   4.706
10155SOL    HW231365   4.759   2.565   4.602
10156SOL     OW31366   3.341   1.473   6.769
10156SOL    HW131367   3.416   1.460   6.834
10156SOL    HW231368   3.374   1.524   6.690
10157SOL     OW31369   0.619   4.983   1.588
10157SOL    HW131370   0.645   5.078   1.604
10157SOL    HW231371   0.692   4.922   1.618
10158SOL     OW31372   6.308   4.885   6.572
10158SOL    HW131373   6.368   4.965   6.583
10158SOL    HW231374   6.291   4.844   6.662
10159SOL     OW31375   3.914   2.989   1.836
10159SOL    HW131376   3.859   3.070   1.817
10159SOL    HW231377   3.989   2.984   1.771
10160SOL     OW31378   6.819   4.240   2.583
10160SOL    HW131379   6.886   4.268   2.652
10160SOL    HW231380   6.867   4.208   2.502
10161SOL     OW31381   6.621   2.990   0.237
10161SOL    HW131382   6.669   3.038   0.310
10161SOL    HW231383   6.538   3.040   0.213
10162SOL     OW31384   2.347   2.473   1.822
10162SOL    HW131385   2.268   2.425   1.862
10162SOL    HW231386   2.327   2.571   1.817
10163SOL     OW31387   3.393   5.764   4.813
10163SOL    HW131388   3.464   5.703   4.846
10163SOL    HW231389   3.380   5.751   4.714
10164SOL     OW31390   0.554   0.990   3.723
10164SOL    HW131391   0.594   1.048   3.652
10164SOL    HW231392   0.579   0.895   3.706
10165SOL     OW31393   2.136   3.492   4.081
10165SOL    HW131394   2.120   3.412   4.023
10165SOL    HW231395   2.154   3.572   4.024
10166SOL     OW31396   2.897   6.332   3.139
10166SOL    HW131397   2.985   6.373   3.115
10166SOL    HW231398   2.823   6.391   3.107
10167SOL     OW31399   4.037   1.575   6.937
10167SOL    HW131400   4.006   1.480   6.946
10167SOL    HW231401   3.962   1.637   6.963
10168SOL     OW31402   0.804   0.991   6.663
10168SOL    HW131403   0.822   0.922   6.733
10168SOL    HW231404   0.746   1.063   6.702
10169SOL     OW31405   4.489   5.022   2.877
10169SOL    HW131406   4.450   5.022   2.969
10169SOL    HW231407   4.588   5.024   2.883
10170SOL     OW31408   5.012   6.146   6.792
10170SOL    HW131409   4.963   6.209   6.852
10170SOL    HW231410   5.100   6.185   6.767
10171SOL     OW31411   1.583   4.139   3.179
10171SOL    HW131412   1.542   4.048   3.177
10171SOL    HW231413   1.630   4.152   3.266
10172SOL     OW31414   0.419   1.423   3.324
10172SOL    HW131415   0.376   1.388   3.407
10172SOL    HW231416   0.432   1.347   3.260
10173SOL     OW31417   4.602   2.647   4.906
10173SOL    HW131418   4.532   2.580   4.931
10173SOL    HW231419   4.644   2.620   4.819
10174SOL     OW31420   4.952   4.562   1.288
10174SOL    HW131421   5.015   4.570   1.366
10174SOL    HW231422   4.875   4.624   1.303
10175SOL     OW31423   6.242   0.028   3.478
10175SOL    HW131424   6.294   7.012   3.402
10175SOL    HW231425   6.292   0.106   3.517
10176SOL     OW31426   6.774   1.462   5.040
10176SOL    HW131427   6.792   1.413   4.955
10176SOL    HW231428   6.720   1.544   5.021
10177SOL     OW31429   3.093   1.089   4.555
10177SOL    HW131430   3.038   1.163   4.594
10177SOL    HW231431   3.061   1.001   4.591
10178SOL     OW31432   6.701   1.651   2.373
10178SOL    HW131433   6.667   1.740   2.401
10178SOL    HW231434   6.754   1.610   2.448
10179SOL     OW31435   0.249   5.949   0.712
10179SOL    HW131436   0.338   5.958   0.756
10179SOL    HW231437   0.178   5.988   0.771
10180SOL     OW31438   2.086   0.136   6.185
10180SOL    HW131439   1.994   0.124   6.147
10180SOL    HW231440   2.092   0.089   6.273
10181SOL     OW31441   6.683   4.205   2.145
10181SOL    HW131442   6.672   4.116   2.189
10181SOL    HW231443   6.627   4.208   2.062
10182SOL     OW31444   2.965   6.843   6.491
10182SOL    HW131445   2.995   6.749   6.508
10182SOL    HW231446   2.885   6.863   6.548
10183SOL     OW31447   3.836   5.906   6.174
10183SOL    HW131448   3.882   5.922   6.261
10183SOL    HW231449   3.836   5.808   6.154
10184SOL     OW31450   4.649   2.707   3.986
10184SOL    HW131451   4.605   2.762   4.057
10184SOL    HW231452   4.616   2.613   3.992
10185SOL     OW31453   2.995   4.823   1.974
10185SOL    HW131454   2.908   4.774   1.975
10185SOL    HW231455   3.044   4.803   1.889
10186SOL     OW31456   3.418   2.792   1.918
10186SOL    HW131457   3.479   2.830   1.987
10186SOL    HW231458   3.324   2.792   1.954
10187SOL     OW31459   1.708   3.652   5.579
10187SOL    HW131460   1.654   3.578   5.539
10187SOL    HW231461   1.667   3.680   5.666
10188SOL     OW31462   2.382   0.266   6.566
10188SOL    HW131463   2.394   0.211   6.649
10188SOL    HW231464   2.428   0.221   6.489
10189SOL     OW31465   1.960   1.938   5.260
10189SOL    HW131466   2.037   1.892   5.303
10189SOL    HW231467   1.989   2.025   5.222
10190SOL     OW31468   3.093   3.931   0.870
10190SOL    HW131469   3.062   3.928   0.965
10190SOL    HW231470   3.171   3.870   0.859
10191SOL     OW31471   5.811   0.626   0.017
10191SOL    HW131472   5.888   0.652   0.075
10191SOL    HW231473   5.768   0.709   7.002
10192SOL     OW31474   2.755   0.389   4.197
10192SOL    HW131475   2.846   0.420   4.170
10192SOL    HW231476   2.738   0.417   4.291
10193SOL     OW31477   3.790   3.202   3.839
10193SOL    HW131478   3.788   3.122   3.779
10193SOL    HW231479   3.767   3.174   3.932
10194SOL     OW31480   3.077   5.767   3.398
10194SOL    HW131481   3.125   5.771   3.311
10194SOL    HW231482   3.142   5.781   3.473
10195SOL     OW31483   5.175   0.144   2.220
10195SOL    HW131484   5.247   0.203   2.184
10195SOL    HW231485   5.217   0.074   2.279
10196SOL     OW31486   4.297   4.809   3.770
10196SOL    HW131487   4.365   4.768   3.709
10196SOL    HW231488   4.302   4.767   3.860
10197SOL     OW31489   5.147   1.830   2.951
10197SOL    HW131490   5.098   1.909   2.914
10197SOL    HW231491   5.214   1.862   3.018
10198SOL     OW31492   3.361   1.772   1.946
10198SOL    HW131493   3.444   1.779   1.891
10198SOL    HW231494   3.316   1.861   1.951
10199SOL     OW31495   1.428   1.743   0.248
10199SOL    HW131496   1.524   1.719   0.263
10199SOL    HW231497   1.379   1.742   0.335
10200SOL     OW31498   5.508   6.841   3.938
10200SOL    HW131499   5.453   6.766   3.901
10200SOL    HW231500   5.474   6.928   3.902
10201SOL     OW31501   1.100   5.103   3.224
10201SOL    HW131502   1.023   5.065   3.275
10201SOL    HW231503   1.073   5.189   3.182
10202SOL     OW31504   1.472   2.216   3.385
10202SOL    HW131505   1.460   2.208   3.286
10202SOL    HW231506   1.492   2.311   3.409
10203SOL     OW31507   6.638   2.367   0.985
10203SOL    HW131508   6.593   2.310   0.917
10203SOL    HW231509   6.652   2.459   0.948
10204SOL     OW31510   1.845   6.006   4.148
10204SOL    HW131511   1.809   6.019   4.056
10204SOL    HW231512   1.936   5.964   4.143
10205SOL     OW31513   3.512   6.829   0.777
10205SOL    HW131514   3.412   6.838   0.771
10205SOL    HW231515   3.535   6.768   0.852
10206SOL     OW31516   5.779   6.414   7.016
10206SOL    HW131517   5.874   6.401   0.021
10206SOL    HW231518   5.723   6.340   0.031
10207SOL     OW31519   3.394   1.334   2.579
10207SOL    HW131520   3.308   1.288   2.602
10207SOL    HW231521   3.376   1.431   2.562
10208SOL     OW31522   0.364   2.465   6.383
10208SOL    HW131523   0.454   2.490   6.347
10208SOL    HW231524   0.356   2.495   6.478
10209SOL     OW31525   3.935   6.210   6.982
10209SOL    HW131526   3.843   6.185   6.950
10209SOL    HW231527   3.986   6.252   6.906
10210SOL     OW31528   4.600   6.346   6.768
10210SOL    HW131529   4.578   6.441   6.749
10210SOL    HW231530   4.532   6.308   6.830
10211SOL     OW31531   3.631   5.241   5.059
10211SOL    HW131532   3.568   5.317   5.072
10211SOL    HW231533   3.604   5.165   5.118
10212SOL     OW31534   6.143   5.979   5.755
10212SOL    HW131535   6.104   6.068   5.732
10212SOL    HW231536   6.128   5.915   5.679
10213SOL     OW31537   4.103   0.393   4.284
10213SOL    HW131538   4.194   0.372   4.249
10213SOL    HW231539   4.106   0.478   4.336
10214SOL     OW31540   0.111   0.913   0.497
10214SOL    HW131541   0.105   0.822   0.537
10214SOL    HW231542   0.048   0.920   0.419
10215SOL     OW31543   4.609   2.615   0.272
10215SOL    HW131544   4.635   2.711   0.271
10215SOL    HW231545   4.535   2.600   0.338
10216SOL     OW31546   5.202   0.653   2.489
10216SOL    HW131547   5.165   0.561   2.494
10216SOL    HW231548   5.144   0.716   2.541
10217SOL     OW31549   2.998   1.967   5.936
10217SOL    HW131550   2.919   1.977   5.877
10217SOL    HW231551   2.983   2.018   6.021
10218SOL     OW31552   3.887   0.547   6.491
10218SOL    HW131553   3.844   0.493   6.419
10218SOL    HW231554   3.857   0.642   6.483
10219SOL     OW31555   0.470   4.973   0.507
10219SOL    HW131556   0.469   5.014   0.415
10219SOL    HW231557   0.563   4.972   0.542
10220SOL     OW31558   4.090   2.532   6.681
10220SOL    HW131559   4.034   2.501   6.758
10220SOL    HW231560   4.185   2.502   6.695
10221SOL     OW31561   2.502   0.652   4.332
10221SOL    HW131562   2.470   0.707   4.255
10221SOL    HW231563   2.451   0.567   4.336
10222SOL     OW31564   2.504   4.601   5.356
10222SOL    HW131565   2.595   4.563   5.374
10222SOL    HW231566   2.466   4.558   5.274
10223SOL     OW31567   1.335   4.843   5.941
10223SOL    HW131568   1.359   4.793   5.858
10223SOL    HW231569   1.342   4.941   5.923
10224SOL     OW31570   3.337   5.662   5.597
10224SOL    HW131571   3.360   5.759   5.591
10224SOL    HW231572   3.241   5.651   5.622
10225SOL     OW31573   5.162   6.963   4.431
10225SOL    HW131574   5.173   6.867   4.458
10225SOL    HW231575   5.251   7.009   4.435
10226SOL     OW31576   0.101   2.503   6.613
10226SOL    HW131577   0.200   2.494   6.618
10226SOL    HW231578   0.075   2.548   6.527
10227SOL     OW31579   4.783   4.330   5.377
10227SOL    HW131580   4.707   4.354   5.317
10227SOL    HW231581   4.868   4.369   5.341
10228SOL     OW31582   1.134   2.638   1.741
10228SOL    HW131583   1.185   2.672   1.821
10228SOL    HW231584   1.161   2.690   1.660
10229SOL     OW31585   2.860   0.888   2.042
10229SOL    HW131586   2.856   0.801   2.091
10229SOL    HW231587   2.845   0.964   2.105
10230SOL     OW31588   5.502   7.007   3.397
10230SOL    HW131589   5.501   6.941   3.322
10230SOL    HW231590   5.457   6.967   3.477
10231SOL     OW31591   4.926   5.900   4.550
10231SOL    HW131592   4.941   5.909   4.452
10231SOL    HW231593   4.849   5.958   4.577
10232SOL     OW31594   4.275   2.314   3.147
10232SOL    HW131595   4.257   2.242   3.214
10232SOL    HW231596   4.188   2.355   3.119
10233SOL     OW31597   4.560   6.540   5.330
10233SOL    HW131598   4.521   6.454   5.364
10233SOL    HW231599   4.644   6.521   5.280
10234SOL     OW31600   4.201   4.438   1.026
10234SOL    HW131601   4.169   4.489   1.106
10234SOL    HW231602   4.157   4.475   0.944
10235SOL     OW31603   4.914   0.083   0.166
10235SOL    HW131604   4.983   0.140   0.211
10235SOL    HW231605   4.823   0.121   0.184
10236SOL     OW31606   1.277   4.942   1.293
10236SOL    HW131607   1.255   4.988   1.379
10236SOL    HW231608   1.357   4.986   1.251
10237SOL     OW31609   5.837   2.772   3.137
10237SOL    HW131610   5.788   2.730   3.061
10237SOL    HW231611   5.782   2.767   3.220
10238SOL     OW31612   4.865   5.335   6.289
10238SOL    HW131613   4.948   5.335   6.235
10238SOL    HW231614   4.788   5.302   6.234
10239SOL     OW31615   5.601   3.331   4.260
10239SOL    HW131616   5.665   3.356   4.332
10239SOL    HW231617   5.588   3.231   4.261
10240SOL     OW31618   4.844   3.760   2.923
10240SOL    HW131619   4.865   3.760   3.021
10240SOL    HW231620   4.810   3.849   2.896
10241SOL     OW31621   1.295   2.573   2.766
10241SOL    HW131622   1.344   2.556   2.681
10241SOL    HW231623   1.357   2.559   2.843
10242SOL     OW31624   1.350   5.497   6.718
10242SOL    HW131625   1.348   5.404   6.756
10242SOL    HW231626   1.266   5.514   6.668
10243SOL     OW31627   0.406   5.638   3.676
10243SOL    HW131628   0.347   5.642   3.595
10243SOL    HW231629   0.481   5.575   3.659
10244SOL     OW31630   2.464   5.767   6.952
10244SOL    HW131631   2.377   5.800   6.987
10244SOL    HW231632   2.539   5.822   6.990
10245SOL     OW31633   3.520   2.962   0.678
10245SOL    HW131634   3.549   2.893   0.745
10245SOL    HW231635   3.496   3.046   0.726
10246SOL     OW31636   3.721   4.222   4.962
10246SOL    HW131637   3.760   4.252   5.049
10246SOL    HW231638   3.737   4.293   4.893
10247SOL     OW31639   1.467   5.681   6.509
10247SOL    HW131640   1.444   5.609   6.574
10247SOL    HW231641   1.396   5.751   6.510
10248SOL     OW31642   5.626   0.841   3.851
10248SOL    HW131643   5.647   0.847   3.949
10248SOL    HW231644   5.582   0.925   3.822
10249SOL     OW31645   4.641   0.834   6.176
10249SOL    HW131646   4.546   0.816   6.202
10249SOL    HW231647   4.648   0.842   6.077
10250SOL     OW31648   4.385   5.728   0.788
10250SOL    HW131649   4.426   5.759   0.874
10250SOL    HW231650   4.455   5.686   0.731
10251SOL     OW31651   3.850   4.328   1.357
10251SOL    HW131652   3.928   4.321   1.418
10251SOL    HW231653   3.837   4.424   1.331
10252SOL     OW31654   0.284   3.785   0.706
10252SOL    HW131655   0.231   3.721   0.762
10252SOL    HW231656   0.231   3.869   0.692
10253SOL     OW31657   4.589   4.319   0.122
10253SOL    HW131658   4.607   4.336   0.219
10253SOL    HW231659   4.532   4.392   0.085
10254SOL     OW31660   2.846   2.063   5.460
10254SOL    HW131661   2.918   2.079   5.392
10254SOL    HW231662   2.861   1.974   5.503
10255SOL     OW31663   3.430   5.013   4.305
10255SOL    HW131664   3.339   4.974   4.319
10255SOL    HW231665   3.450   5.079   4.377
10256SOL     OW31666   5.490   5.962   6.970
10256SOL    HW131667   5.521   5.884   6.916
10256SOL    HW231668   5.395   5.948   6.997
10257SOL     OW31669   1.787   4.626   5.521
10257SOL    HW131670   1.851   4.563   5.479
10257SOL    HW231671   1.791   4.617   5.621
10258SOL     OW31672   4.715   1.381   2.701
10258SOL    HW131673   4.773   1.334   2.635
10258SOL    HW231674   4.670   1.459   2.656
10259SOL     OW31675   6.531   3.591   4.337
10259SOL    HW131676   6.439   3.556   4.322
10259SOL    HW231677   6.590   3.517   4.368
10260SOL     OW31678   0.574   5.603   2.162
10260SOL    HW131679   0.585   5.542   2.083
10260SOL    HW231680   0.527   5.555   2.235
10261SOL     OW31681   2.127   0.261   2.133
10261SOL    HW131682   2.033   0.254   2.101
10261SOL    HW231683   2.142   0.197   2.208
10262SOL     OW31684   7.010   6.224   4.078
10262SOL    HW131685   6.920   6.205   4.041
10262SOL    HW231686   0.006   6.323   4.073
10263SOL     OW31687   6.440   3.205   4.936
10263SOL    HW131688   6.443   3.105   4.931
10263SOL    HW231689   6.512   3.243   4.877
10264SOL     OW31690   0.603   0.818   0.520
10264SOL    HW131691   0.643   0.756   0.588
10264SOL    HW231692   0.621   0.913   0.548
10265SOL     OW31693   4.932   2.639   4.043
10265SOL    HW131694   4.979   2.626   4.130
10265SOL    HW231695   4.840   2.600   4.049
10266SOL     OW31696   3.610   3.692   0.067
10266SOL    HW131697   3.529   3.637   0.088
10266SOL    HW231698   3.668   3.641   0.003
10267SOL     OW31699   6.955   0.682   6.521
10267SOL    HW131700   6.901   0.748   6.573
10267SOL    HW231701   6.933   0.690   6.424
10268SOL     OW31702   6.905   4.037   0.134
10268SOL    HW131703   6.893   4.136   0.137
10268SOL    HW231704   6.989   4.015   0.083
10269SOL     OW31705   4.171   1.575   5.589
10269SOL    HW131706   4.143   1.644   5.656
10269SOL    HW231707   4.268   1.588   5.567
10270SOL     OW31708   3.824   6.194   2.872
10270SOL    HW131709   3.794   6.264   2.807
10270SOL    HW231710   3.744   6.149   2.911
10271SOL     OW31711   2.106   4.734   1.352
10271SOL    HW131712   2.170   4.659   1.336
10271SOL    HW231713   2.057   4.718   1.437
10272SOL     OW31714   2.096   3.231   3.991
10272SOL    HW131715   2.161   3.165   4.032
10272SOL    HW231716   2.134   3.266   3.906
10273SOL     OW31717   4.493   6.298   3.740
10273SOL    HW131718   4.403   6.339   3.726
10273SOL    HW231719   4.522   6.315   3.834
10274SOL     OW31720   2.293   4.337   6.375
10274SOL    HW131721   2.331   4.294   6.293
10274SOL    HW231722   2.262   4.266   6.438
10275SOL     OW31723   0.893   5.802   1.673
10275SOL    HW131724   0.973   5.754   1.635
10275SOL    HW231725   0.918   5.897   1.695
10276SOL     OW31726   1.361   0.265   0.242
10276SOL    HW131727   1.378   0.171   0.214
10276SOL    HW231728   1.435   0.324   0.209
10277SOL     OW31729   6.896   5.978   1.895
10277SOL    HW131730   6.883   6.046   1.823
10277SOL    HW231731   6.829   5.905   1.884
10278SOL     OW31732   6.172   1.191   5.578
10278SOL    HW131733   6.266   1.168   5.554
10278SOL    HW231734   6.123   1.219   5.496
10279SOL     OW31735   3.692   6.046   4.329
10279SOL    HW131736   3.692   6.132   4.279
10279SOL    HW231737   3.774   6.041   4.386
10280SOL     OW31738   2.747   2.818   0.274
10280SOL    HW131739   2.689   2.737   0.269
10280SOL    HW231740   2.712   2.887   0.210
10281SOL     OW31741   4.214   0.938   4.417
10281SOL    HW131742   4.167   0.913   4.332
10281SOL    HW231743   4.161   1.007   4.465
10282SOL     OW31744   1.768   3.541   4.282
10282SOL    HW131745   1.843   3.475   4.275
10282SOL    HW231746   1.791   3.623   4.230
10283SOL     OW31747   1.556   5.216   6.177
10283SOL    HW131748   1.562   5.291   6.243
10283SOL    HW231749   1.462   5.185   6.170
10284SOL     OW31750   5.071   3.080   0.137
10284SOL    HW131751   5.132   3.045   0.066
10284SOL    HW231752   5.016   3.005   0.174
10285SOL     OW31753   4.916   1.663   1.470
10285SOL    HW131754   4.834   1.625   1.513
10285SOL    HW231755   4.991   1.598   1.477
10286SOL     OW31756   3.479   0.215   4.016
10286SOL    HW131757   3.481   0.291   3.951
10286SOL    HW231758   3.405   0.151   3.992
10287SOL     OW31759   2.271   4.022   2.603
10287SOL    HW131760   2.366   4.052   2.610
10287SOL    HW231761   2.210   4.098   2.629
10288SOL     OW31762   4.317   6.105   4.285
10288SOL    HW131763   4.414   6.083   4.295
10288SOL    HW231764   4.302   6.150   4.197
10289SOL     OW31765   2.583   1.491   1.746
10289SOL    HW131766   2.498   1.470   1.795
10289SOL    HW231767   2.610   1.413   1.690
10290SOL     OW31768   3.126   3.083   3.239
10290SOL    HW131769   3.194   3.013   3.221
10290SOL    HW231770   3.171   3.167   3.270
10291SOL     OW31771   3.889   0.398   4.102
10291SOL    HW131772   3.826   0.437   4.170
10291SOL    HW231773   3.977   0.380   4.144
10292SOL     OW31774   6.527   2.585   4.053
10292SOL    HW131775   6.460   2.519   4.020
10292SOL    HW231776   6.617   2.563   4.013
10293SOL     OW31777   1.650   4.699   2.947
10293SOL    HW131778   1.649   4.610   2.992
10293SOL    HW231779   1.584   4.699   2.871
10294SOL     OW31780   5.597   0.729   3.220
10294SOL    HW131781   5.680   0.730   3.164
10294SOL    HW231782   5.621   0.749   3.315
10295SOL     OW31783   1.923   3.879   3.223
10295SOL    HW131784   1.831   3.870   3.260
10295SOL    HW231785   1.962   3.966   3.251
10296SOL     OW31786   6.200   3.322   1.589
10296SOL    HW131787   6.101   3.328   1.576
10296SOL    HW231788   6.241   3.275   1.511
10297SOL     OW31789   3.909   4.967   5.059
10297SOL    HW131790   3.874   4.940   4.969
10297SOL    HW231791   3.909   5.067   5.065
10298SOL     OW31792   5.870   3.225   3.208
10298SOL    HW131793   5.778   3.229   3.248
10298SOL    HW231794   5.890   3.312   3.163
10299SOL     OW31795   3.951   4.806   2.297
10299SOL    HW131796   3.965   4.756   2.211
10299SOL    HW231797   3.853   4.805   2.320
10300SOL     OW31798   0.250   5.782   2.325
10300SOL    HW131799   0.318   5.716   2.357
10300SOL    HW231800   0.166   5.772   2.379
10301SOL     OW31801   4.246   0.349   1.681
10301SOL    HW131802   4.160   0.350   1.733
10301SOL    HW231803   4.241   0.278   1.610
10302SOL     OW31804   0.644   3.586   3.423
10302SOL    HW131805   0.641   3.664   3.486
10302SOL    HW231806   0.560   3.583   3.370
10303SOL     OW31807   4.280   3.300   0.902
10303SOL    HW131808   4.361   3.268   0.853
10303SOL    HW231809   4.307   3.332   0.993
10304SOL     OW31810   5.758   5.678   3.416
10304SOL    HW131811   5.805   5.730   3.345
10304SOL    HW231812   5.670   5.722   3.437
10305SOL     OW31813   2.606   5.452   1.457
10305SOL    HW131814   2.600   5.352   1.456
10305SOL    HW231815   2.648   5.482   1.543
10306SOL     OW31816   4.900   3.844   6.988
10306SOL    HW131817   4.938   3.795   0.045
10306SOL    HW231818   4.848   3.923   7.019
10307SOL     OW31819   2.750   1.790   6.247
10307SOL    HW131820   2.773   1.832   6.335
10307SOL    HW231821   2.823   1.727   6.220
10308SOL     OW31822   2.879   5.108   4.277
10308SOL    HW131823   2.931   5.081   4.196
10308SOL    HW231824   2.910   5.055   4.356
10309SOL     OW31825   0.281   6.198   3.659
10309SOL    HW131826   0.254   6.141   3.736
10309SOL    HW231827   0.213   6.191   3.586
10310SOL     OW31828   3.537   4.191   4.507
10310SOL    HW131829   3.602   4.156   4.575
10310SOL    HW231830   3.587   4.219   4.425
10311SOL     OW31831   1.078   6.881   0.810
10311SOL    HW131832   1.128   6.865   0.725
10311SOL    HW231833   1.074   6.796   0.863
10312SOL     OW31834   2.953   4.733   0.460
10312SOL    HW131835   2.960   4.814   0.402
10312SOL    HW231836   2.908   4.757   0.546
10313SOL     OW31837   6.764   6.080   3.964
10313SOL    HW131838   6.794   6.103   3.871
10313SOL    HW231839   6.682   6.023   3.959
10314SOL     OW31840   0.132   5.369   5.259
10314SOL    HW131841   0.046   5.382   5.309
10314SOL    HW231842   0.206   5.356   5.325
10315SOL     OW31843   4.238   6.260   5.606
10315SOL    HW131844   4.241   6.332   5.538
10315SOL    HW231845   4.239   6.300   5.698
10316SOL     OW31846   0.777   3.047   4.184
10316SOL    HW131847   0.747   2.985   4.256
10316SOL    HW231848   0.701   3.068   4.123
10317SOL     OW31849   5.843   4.321   6.345
10317SOL    HW131850   5.896   4.402   6.372
10317SOL    HW231851   5.823   4.266   6.427
10318SOL     OW31852   5.042   5.029   2.756
10318SOL    HW131853   5.013   4.933   2.757
10318SOL    HW231854   5.100   5.047   2.835
10319SOL     OW31855   4.387   6.747   3.631
10319SOL    HW131856   4.431   6.794   3.555
10319SOL    HW231857   4.292   6.775   3.638
10320SOL     OW31858   4.043   6.443   1.729
10320SOL    HW131859   4.006   6.480   1.814
10320SOL    HW231860   4.130   6.487   1.709
10321SOL     OW31861   4.696   6.028   4.641
10321SOL    HW131862   4.728   6.042   4.735
10321SOL    HW231863   4.623   5.960   4.640
10322SOL     OW31864   6.837   1.379   6.518
10322SOL    HW131865   6.766   1.379   6.448
10322SOL    HW231866   6.868   1.473   6.534
10323SOL     OW31867   0.840   2.418   5.241
10323SOL    HW131868   0.767   2.367   5.195
10323SOL    HW231869   0.923   2.362   5.243
10324SOL     OW31870   2.912   3.391   4.429
10324SOL    HW131871   2.932   3.299   4.464
10324SOL    HW231872   2.957   3.459   4.487
10325SOL     OW31873   0.535   3.365   3.840
10325SOL    HW131874   0.462   3.299   3.860
10325SOL    HW231875   0.587   3.384   3.923
10326SOL     OW31876   5.543   1.894   1.526
10326SOL    HW131877   5.544   1.811   1.471
10326SOL    HW231878   5.630   1.942   1.514
10327SOL     OW31879   6.090   1.616   3.821
10327SOL    HW131880   6.008   1.633   3.767
10327SOL    HW231881   6.163   1.581   3.761
10328SOL     OW31882   6.866   3.845   2.222
10328SOL    HW131883   6.837   3.780   2.292
10328SOL    HW231884   6.865   3.801   2.133
10329SOL     OW31885   2.910   5.537   3.083
10329SOL    HW131886   2.961   5.519   3.167
10329SOL    HW231887   2.931   5.468   3.015
10330SOL     OW31888   3.259   3.529   0.890
10330SOL    HW131889   3.207   3.554   0.808
10330SOL    HW231890   3.252   3.431   0.905
10331SOL     OW31891   5.140   1.822   4.553
10331SOL    HW131892   5.152   1.919   4.531
10331SOL    HW231893   5.143   1.810   4.652
10332SOL     OW31894   1.502   2.812   6.920
10332SOL    HW131895   1.410   2.827   6.955
10332SOL    HW231896   1.530   2.892   6.866
10333SOL     OW31897   0.050   4.520   5.248
10333SOL    HW131898   6.993   4.506   5.308
10333SOL    HW231899   0.085   4.613   5.260
10334SOL     OW31900   0.938   4.943   5.341
10334SOL    HW131901   1.007   4.902   5.401
10334SOL    HW231902   0.933   4.893   5.255
10335SOL     OW31903   3.197   5.214   3.306
10335SOL    HW131904   3.155   5.134   3.264
10335SOL    HW231905   3.255   5.186   3.383
10336SOL     OW31906   4.372   6.741   3.050
10336SOL    HW131907   4.465   6.713   3.028
10336SOL    HW231908   4.312   6.662   3.051
10337SOL     OW31909   1.131   3.688   6.537
10337SOL    HW131910   1.130   3.648   6.629
10337SOL    HW231911   1.102   3.783   6.542
10338SOL     OW31912   2.427   4.617   2.608
10338SOL    HW131913   2.489   4.672   2.664
10338SOL    HW231914   2.472   4.594   2.521
10339SOL     OW31915   3.312   6.138   0.108
10339SOL    HW131916   3.269   6.048   0.114
10339SOL    HW231917   3.412   6.127   0.105
10340SOL     OW31918   1.588   6.475   0.863
10340SOL    HW131919   1.675   6.525   0.863
10340SOL    HW231920   1.602   6.385   0.904
10341SOL     OW31921   0.212   3.543   2.224
10341SOL    HW131922   0.150   3.512   2.152
10341SOL    HW231923   0.254   3.465   2.269
10342SOL     OW31924   2.925   5.548   3.849
10342SOL    HW131925   2.859   5.556   3.923
10342SOL    HW231926   2.997   5.483   3.874
10343SOL     OW31927   2.676   2.316   4.908
10343SOL    HW131928   2.604   2.265   4.955
10343SOL    HW231929   2.751   2.333   4.972
10344SOL     OW31930   4.820   3.821   1.470
10344SOL    HW131931   4.767   3.749   1.425
10344SOL    HW231932   4.858   3.883   1.402
10345SOL     OW31933   3.662   1.565   6.536
10345SOL    HW131934   3.618   1.638   6.589
10345SOL    HW231935   3.616   1.478   6.555
10346SOL     OW31936   6.311   5.845   0.152
10346SOL    HW131937   6.287   5.749   0.142
10346SOL    HW231938   6.328   5.865   0.249
10347SOL     OW31939   4.117   6.891   2.143
10347SOL    HW131940   4.050   6.885   2.069
10347SOL    HW231941   4.151   6.985   2.149
10348SOL     OW31942   6.826   3.918   5.178
10348SOL    HW131943   6.793   3.870   5.260
10348SOL    HW231944   6.764   3.993   5.157
10349SOL     OW31945   5.857   1.969   0.261
10349SOL    HW131946   5.815   1.947   0.349
10349SOL    HW231947   5.925   2.042   0.274
10350SOL     OW31948   2.065   4.965   4.431
10350SOL    HW131949   2.120   4.966   4.515
10350SOL    HW231950   2.004   4.885   4.433
10351SOL     OW31951   3.671   5.562   5.189
10351SOL    HW131952   3.740   5.621   5.231
10351SOL    HW231953   3.662   5.478   5.243
10352SOL     OW31954   0.255   1.235   1.776
10352SOL    HW131955   0.312   1.316   1.764
10352SOL    HW231956   0.244   1.188   1.688
10353SOL     OW31957   5.546   3.123   3.440
10353SOL    HW131958   5.448   3.128   3.418
10353SOL    HW231959   5.582   3.034   3.412
10354SOL     OW31960   0.107   2.718   1.896
10354SOL    HW131961   0.056   2.653   1.839
10354SOL    HW231962   0.176   2.669   1.949
10355SOL     OW31963   0.100   2.322   0.748
10355SOL    HW131964   0.008   2.284   0.760
10355SOL    HW231965   0.111   2.352   0.653
10356SOL     OW31966   5.970   2.639   6.796
10356SOL    HW131967   5.995   2.543   6.801
10356SOL    HW231968   5.953   2.674   6.888
10357SOL     OW31969   0.309   0.166   6.460
10357SOL    HW131970   0.375   0.227   6.415
10357SOL    HW231971   0.357   0.097   6.512
10358SOL     OW31972   1.001   2.911   4.195
10358SOL    HW131973   0.911   2.946   4.168
10358SOL    HW231974   1.020   2.827   4.144
10359SOL     OW31975   0.902   2.627   2.683
10359SOL    HW131976   0.830   2.652   2.748
10359SOL    HW231977   0.991   2.630   2.728
10360SOL     OW31978   5.921   4.618   1.047
10360SOL    HW131979   5.851   4.641   1.116
10360SOL    HW231980   5.975   4.700   1.027
10361SOL     OW31981   5.792   1.969   3.153
10361SOL    HW131982   5.761   2.064   3.145
10361SOL    HW231983   5.738   1.911   3.091
10362SOL     OW31984   0.377   6.303   1.315
10362SOL    HW131985   0.335   6.296   1.405
10362SOL    HW231986   0.477   6.300   1.324
10363SOL     OW31987   5.729   4.995   6.197
10363SOL    HW131988   5.703   5.090   6.216
10363SOL    HW231989   5.711   4.975   6.101
10364SOL     OW31990   5.969   5.596   1.421
10364SOL    HW131991   5.930   5.688   1.420
10364SOL    HW231992   6.010   5.578   1.510
10365SOL     OW31993   6.019   6.099   0.092
10365SOL    HW131994   6.035   6.195   0.116
10365SOL    HW231995   6.091   6.067   0.031
10366SOL     OW31996   2.671   0.251   3.203
10366SOL    HW131997   2.684   0.303   3.118
10366SOL    HW231998   2.612   0.173   3.185
10367SOL     OW31999   5.194   6.209   1.890
10367SOL    HW132000   5.215   6.118   1.926
10367SOL    HW232001   5.096   6.224   1.891
10368SOL     OW32002   1.489   5.723   1.604
10368SOL    HW132003   1.525   5.734   1.696
10368SOL    HW232004   1.562   5.735   1.537
10369SOL     OW32005   2.502   0.818   5.470
10369SOL    HW132006   2.509   0.917   5.479
10369SOL    HW232007   2.416   0.794   5.426
10370SOL     OW32008   2.071   2.164   6.342
10370SOL    HW132009   1.974   2.183   6.326
10370SOL    HW232010   2.091   2.172   6.439
10371SOL     OW32011   3.843   5.322   3.211
10371SOL    HW132012   3.941   5.323   3.190
10371SOL    HW232013   3.803   5.411   3.189
10372SOL     OW32014   1.200   6.051   1.581
10372SOL    HW132015   1.220   6.007   1.493
10372SOL    HW232016   1.278   6.106   1.609
10373SOL     OW32017   6.256   0.254   6.138
10373SOL    HW132018   6.322   0.301   6.080
10373SOL    HW232019   6.170   0.242   6.089
10374SOL     OW32020   2.716   4.900   3.242
10374SOL    HW132021   2.725   4.880   3.339
10374SOL    HW232022   2.699   4.815   3.192
10375SOL     OW32023   2.331   5.680   6.732
10375SOL    HW132024   2.389   5.604   6.700
10375SOL    HW232025   2.385   5.739   6.793
10376SOL     OW32026   1.790   4.704   4.073
10376SOL    HW132027   1.738   4.788   4.063
10376SOL    HW232028   1.865   4.718   4.138
10377SOL     OW32029   2.609   0.728   3.883
10377SOL    HW132030   2.630   0.630   3.888
10377SOL    HW232031   2.642   0.765   3.797
10378SOL     OW32032   0.428   6.750   5.646
10378SOL    HW132033   0.497   6.739   5.717
10378SOL    HW232034   0.414   6.663   5.599
10379SOL     OW32035   0.897   5.727   3.300
10379SOL    HW132036   0.797   5.732   3.302
10379SOL    HW232037   0.932   5.712   3.392
10380SOL     OW32038   2.824   1.187   4.133
10380SOL    HW132039   2.804   1.279   4.167
10380SOL    HW232040   2.913   1.186   4.089
10381SOL     OW32041   2.575   0.572   2.735
10381SOL    HW132042   2.588   0.479   2.769
10381SOL    HW232043   2.657   0.601   2.687
10382SOL     OW32044   4.161   5.621   2.207
10382SOL    HW132045   4.157   5.721   2.200
10382SOL    HW232046   4.068   5.585   2.212
10383SOL     OW32047   0.418   6.875   0.004
10383SOL    HW132048   0.360   6.794   0.020
10383SOL    HW232049   0.502   6.866   0.057
10384SOL     OW32050   4.903   4.912   1.193
10384SOL    HW132051   4.841   4.853   1.244
10384SOL    HW232052   4.903   5.003   1.234
10385SOL     OW32053   3.808   4.523   6.719
10385SOL    HW132054   3.709   4.519   6.705
10385SOL    HW232055   3.828   4.567   6.807
10386SOL     OW32056   0.158   0.176   2.144
10386SOL    HW132057   0.064   0.159   2.114
10386SOL    HW232058   0.173   0.275   2.151
10387SOL     OW32059   5.609   1.851   1.847
10387SOL    HW132060   5.663   1.843   1.931
10387SOL    HW232061   5.654   1.914   1.784
10388SOL     OW32062   1.019   0.532   5.003
10388SOL    HW132063   1.093   0.475   4.967
10388SOL    HW232064   1.011   0.518   5.102
10389SOL     OW32065   0.452   3.478   0.734
10389SOL    HW132066   0.469   3.496   0.831
10389SOL    HW232067   0.409   3.558   0.692
10390SOL     OW32068   2.256   2.212   2.189
10390SOL    HW132069   2.274   2.309   2.173
10390SOL    HW232070   2.333   2.158   2.154
10391SOL     OW32071   6.210   6.908   3.007
10391SOL    HW132072   6.205   6.919   2.908
10391SOL    HW232073   6.167   6.821   3.034
10392SOL     OW32074   6.333   3.814   4.021
10392SOL    HW132075   6.344   3.786   3.925
10392SOL    HW232076   6.357   3.911   4.029
10393SOL     OW32077   1.790   2.433   2.047
10393SOL    HW132078   1.781   2.334   2.038
10393SOL    HW232079   1.816   2.472   1.959
10394SOL     OW32080   2.743   6.499   3.630
10394SOL    HW132081   2.779   6.587   3.659
10394SOL    HW232082   2.779   6.426   3.688
10395SOL     OW32083   0.797   1.121   1.541
10395SOL    HW132084   0.806   1.175   1.625
10395SOL    HW232085   0.714   1.150   1.492
10396SOL     OW32086   3.388   2.274   5.347
10396SOL    HW132087   3.308   2.307   5.297
10396SOL    HW232088   3.358   2.210   5.419
10397SOL     OW32089   5.071   1.588   4.113
10397SOL    HW132090   5.159   1.552   4.082
10397SOL    HW232091   4.998   1.548   4.057
10398SOL     OW32092   5.193   2.791   2.349
10398SOL    HW132093   5.241   2.707   2.373
10398SOL    HW232094   5.240   2.835   2.272
10399SOL     OW32095   0.715   3.876   2.294
10399SOL    HW132096   0.669   3.964   2.307
10399SOL    HW232097   0.646   3.804   2.286
10400SOL     OW32098   2.007   6.501   0.600
10400SOL    HW132099   1.925   6.530   0.550
10400SOL    HW232100   2.079   6.569   0.587
10401SOL     OW32101   6.688   0.921   5.718
10401SOL    HW132102   6.665   0.878   5.631
10401SOL    HW232103   6.734   1.008   5.701
10402SOL     OW32104   6.843   4.429   5.344
10402SOL    HW132105   6.833   4.329   5.345
10402SOL    HW232106   6.858   4.462   5.437
10403SOL     OW32107   3.253   6.883   0.806
10403SOL    HW132108   3.153   6.889   0.802
10403SOL    HW232109   3.289   6.960   0.858
10404SOL     OW32110   0.314   5.572   5.865
10404SOL    HW132111   0.409   5.540   5.872
10404SOL    HW232112   0.260   5.506   5.812
10405SOL     OW32113   0.242   1.608   6.964
10405SOL    HW132114   0.243   1.656   0.030
10405SOL    HW232115   0.156   1.626   6.918
10406SOL     OW32116   1.611   5.335   0.933
10406SOL    HW132117   1.553   5.300   0.860
10406SOL    HW232118   1.561   5.402   0.987
10407SOL     OW32119   2.187   6.194   6.971
10407SOL    HW132120   2.179   6.156   0.041
10407SOL    HW232121   2.281   6.183   6.938
10408SOL     OW32122   4.817   0.440   0.547
10408SOL    HW132123   4.871   0.497   0.485
10408SOL    HW232124   4.724   0.431   0.512
10409SOL     OW32125   6.104   4.253   0.813
10409SOL    HW132126   6.054   4.299   0.887
10409SOL    HW232127   6.199   4.237   0.842
10410SOL     OW32128   4.485   6.953   1.002
10410SOL    HW132129   4.392   6.918   0.987
10410SOL    HW232130   4.481   0.011   1.062
10411SOL     OW32131   1.901   5.476   4.318
10411SOL    HW132132   1.949   5.392   4.342
10411SOL    HW232133   1.863   5.518   4.400
10412SOL     OW32134   5.450   6.962   1.699
10412SOL    HW132135   5.505   0.005   1.646
10412SOL    HW232136   5.510   6.894   1.740
10413SOL     OW32137   6.030   2.824   2.668
10413SOL    HW132138   6.056   2.887   2.741
10413SOL    HW232139   5.992   2.877   2.591
10414SOL     OW32140   5.845   3.304   3.984
10414SOL    HW132141   5.840   3.208   3.954
10414SOL    HW232142   5.935   3.341   3.963
10415SOL     OW32143   0.805   0.858   6.892
10415SOL    HW132144   0.847   0.928   6.950
10415SOL    HW232145   0.748   0.798   6.948
10416SOL     OW32146   5.190   2.896   3.736
10416SOL    HW132147   5.109   2.865   3.785
10416SOL    HW232148   5.163   2.943   3.652
10417SOL     OW32149   1.711   4.113   2.943
10417SOL    HW132150   1.685   4.026   2.901
10417SOL    HW232151   1.657   4.126   3.027
10418SOL     OW32152   1.747   5.698   6.484
10418SOL    HW132153   1.652   5.695   6.515
10418SOL    HW232154   1.808   5.674   6.559
10419SOL     OW32155   1.507   0.654   6.712
10419SOL    HW132156   1.606   0.655   6.721
10419SOL    HW232157   1.481   0.698   6.626
10420SOL     OW32158   0.437   3.067   2.944
10420SOL    HW132159   0.472   3.148   2.897
10420SOL    HW232160   0.505   2.994   2.940
10421SOL     OW32161   0.834   2.255   2.994
10421SOL    HW132162   0.791   2.197   3.064
10421SOL    HW232163   0.901   2.202   2.943
10422SOL     OW32164   5.502   2.889   0.077
10422SOL    HW132165   5.547   2.902   0.166
10422SOL    HW232166   5.491   2.791   0.059
10423SOL     OW32167   5.064   5.458   2.924
10423SOL    HW132168   5.161   5.455   2.898
10423SOL    HW232169   5.045   5.386   2.991
10424SOL     OW32170   4.639   1.541   6.576
10424SOL    HW132171   4.576   1.618   6.589
10424SOL    HW232172   4.626   1.475   6.650
10425SOL     OW32173   1.810   6.725   2.056
10425SOL    HW132174   1.795   6.728   2.155
10425SOL    HW232175   1.762   6.645   2.018
10426SOL     OW32176   6.600   4.249   6.954
10426SOL    HW132177   6.534   4.220   0.002
10426SOL    HW232178   6.569   4.217   6.864
10427SOL     OW32179   5.446   0.835   1.000
10427SOL    HW132180   5.462   0.865   1.094
10427SOL    HW232181   5.392   0.904   0.951
10428SOL     OW32182   4.884   1.381   3.526
10428SOL    HW132183   4.853   1.438   3.602
10428SOL    HW232184   4.921   1.439   3.454
10429SOL     OW32185   5.617   5.410   2.307
10429SOL    HW132186   5.564   5.491   2.283
10429SOL    HW232187   5.707   5.438   2.341
10430SOL     OW32188   4.340   6.097   2.751
10430SOL    HW132189   4.379   6.013   2.715
10430SOL    HW232190   4.389   6.176   2.713
10431SOL     OW32191   2.444   1.318   5.273
10431SOL    HW132192   2.406   1.372   5.347
10431SOL    HW232193   2.369   1.282   5.216
10432SOL     OW32194   4.026   0.298   4.834
10432SOL    HW132195   3.994   0.314   4.927
10432SOL    HW232196   3.948   0.301   4.771
10433SOL     OW32197   2.756   6.602   1.032
10433SOL    HW132198   2.680   6.560   0.981
10433SOL    HW232199   2.727   6.691   1.067
10434SOL     OW32200   3.034   2.131   5.253
10434SOL    HW132201   2.976   2.080   5.190
10434SOL    HW232202   3.076   2.208   5.206
10435SOL     OW32203   5.760   5.364   6.356
10435SOL    HW132204   5.738   5.347   6.452
10435SOL    HW232205   5.792   5.458   6.345
10436SOL     OW32206   0.447   1.139   2.781
10436SOL    HW132207   0.533   1.095   2.756
10436SOL    HW232208   0.373   1.100   2.726
10437SOL     OW32209   0.642   3.952   6.056
10437SOL    HW132210   0.721   3.891   6.064
10437SOL    HW232211   0.660   4.022   5.987
10438SOL     OW32212   3.332   6.838   5.899
10438SOL    HW132213   3.428   6.808   5.898
10438SOL    HW232214   3.323   6.920   5.842
10439SOL     OW32215   3.537   0.739   5.436
10439SOL    HW132216   3.482   0.775   5.361
10439SOL    HW232217   3.478   0.723   5.516
10440SOL     OW32218   0.792   5.400   0.838
10440SOL    HW132219   0.863   5.373   0.904
10440SOL    HW232220   0.743   5.480   0.873
10441SOL     OW32221   4.145   0.409   0.583
10441SOL    HW132222   4.100   0.339   0.638
10441SOL    HW232223   4.172   0.371   0.495
10442SOL     OW32224   4.830   5.901   5.194
10442SOL    HW132225   4.851   5.881   5.099
10442SOL    HW232226   4.838   5.999   5.210
10443SOL     OW32227   6.235   2.571   4.532
10443SOL    HW132228   6.279   2.531   4.612
10443SOL    HW232229   6.305   2.609   4.471
10444SOL     OW32230   3.937   5.170   4.546
10444SOL    HW132231   3.860   5.109   4.527
10444SOL    HW232232   3.927   5.207   4.638
10445SOL     OW32233   6.349   6.232   2.074
10445SOL    HW132234   6.337   6.319   2.026
10445SOL    HW232235   6.331   6.245   2.171
10446SOL     OW32236   1.171   6.632   6.519
10446SOL    HW132237   1.124   6.545   6.505
10446SOL    HW232238   1.167   6.687   6.436
10447SOL     OW32239   5.758   1.829   0.482
10447SOL    HW132240   5.678   1.778   0.516
10447SOL    HW232241   5.818   1.850   0.559
10448SOL     OW32242   3.348   3.775   2.513
10448SOL    HW132243   3.372   3.858   2.463
10448SOL    HW232244   3.350   3.793   2.612
10449SOL     OW32245   1.811   5.525   4.819
10449SOL    HW132246   1.775   5.616   4.837
10449SOL    HW232247   1.778   5.461   4.888
10450SOL     OW32248   0.171   3.538   1.369
10450SOL    HW132249   0.234   3.511   1.296
10450SOL    HW232250   0.094   3.475   1.372
10451SOL     OW32251   2.466   4.595   2.238
10451SOL    HW132252   2.473   4.504   2.279
10451SOL    HW232253   2.370   4.614   2.217
10452SOL     OW32254   1.910   3.327   6.212
10452SOL    HW132255   1.872   3.299   6.124
10452SOL    HW232256   1.938   3.245   6.263
10453SOL     OW32257   5.174   0.425   1.644
10453SOL    HW132258   5.097   0.476   1.682
10453SOL    HW232259   5.192   0.456   1.551
10454SOL     OW32260   5.546   4.714   2.382
10454SOL    HW132261   5.646   4.721   2.393
10454SOL    HW232262   5.515   4.628   2.423
10455SOL     OW32263   0.369   4.497   3.140
10455SOL    HW132264   0.381   4.438   3.220
10455SOL    HW232265   0.437   4.570   3.141
10456SOL     OW32266   3.991   5.965   1.171
10456SOL    HW132267   3.976   5.868   1.148
10456SOL    HW232268   3.909   6.017   1.148
10457SOL     OW32269   3.511   2.971   3.908
10457SOL    HW132270   3.447   3.046   3.924
10457SOL    HW232271   3.531   2.924   3.994
10458SOL     OW32272   0.333   5.922   1.603
10458SOL    HW132273   0.296   5.967   1.685
10458SOL    HW232274   0.345   5.825   1.622
10459SOL     OW32275   7.011   4.708   1.557
10459SOL    HW132276   0.056   4.634   1.549
10459SOL    HW232277   6.919   4.671   1.542
10460SOL     OW32278   1.345   4.074   1.546
10460SOL    HW132279   1.430   4.102   1.592
10460SOL    HW232280   1.274   4.141   1.564
10461SOL     OW32281   3.292   0.304   6.415
10461SOL    HW132282   3.323   0.347   6.499
10461SOL    HW232283   3.298   0.369   6.339
10462SOL     OW32284   5.480   6.255   0.995
10462SOL    HW132285   5.455   6.183   0.929
10462SOL    HW232286   5.502   6.339   0.946
10463SOL     OW32287   3.698   3.145   1.100
10463SOL    HW132288   3.764   3.126   1.172
10463SOL    HW232289   3.657   3.235   1.115
10464SOL     OW32290   5.787   6.439   1.970
10464SOL    HW132291   5.719   6.372   1.997
10464SOL    HW232292   5.743   6.516   1.925
10465SOL     OW32293   0.251   5.132   4.618
10465SOL    HW132294   0.287   5.044   4.588
10465SOL    HW232295   0.298   5.206   4.569
10466SOL     OW32296   4.785   6.420   5.179
10466SOL    HW132297   4.852   6.474   5.230
10466SOL    HW232298   4.813   6.413   5.084
10467SOL     OW32299   4.489   1.218   4.114
10467SOL    HW132300   4.428   1.140   4.133
10467SOL    HW232301   4.449   1.274   4.041
10468SOL     OW32302   2.742   5.138   3.563
10468SOL    HW132303   2.821   5.186   3.525
10468SOL    HW232304   2.672   5.205   3.589
10469SOL     OW32305   0.990   4.569   6.332
10469SOL    HW132306   0.976   4.644   6.397
10469SOL    HW232307   0.901   4.539   6.296
10470SOL     OW32308   2.158   2.406   4.695
10470SOL    HW132309   2.123   2.422   4.602
10470SOL    HW232310   2.257   2.411   4.694
10471SOL     OW32311   4.714   4.053   0.029
10471SOL    HW132312   4.699   3.998   0.112
10471SOL    HW232313   4.673   4.143   0.042
10472SOL     OW32314   3.931   1.224   3.535
10472SOL    HW132315   3.870   1.176   3.598
10472SOL    HW232316   3.954   1.164   3.459
10473SOL     OW32317   4.994   5.317   7.016
10473SOL    HW132318   5.078   5.370   7.003
10473SOL    HW232319   4.915   5.375   6.999
10474SOL     OW32320   5.299   0.887   3.706
10474SOL    HW132321   5.319   0.818   3.775
10474SOL    HW232322   5.208   0.872   3.669
10475SOL     OW32323   4.322   6.474   1.428
10475SOL    HW132324   4.231   6.435   1.433
10475SOL    HW232325   4.316   6.573   1.419
10476SOL     OW32326   0.335   4.912   6.353
10476SOL    HW132327   0.429   4.919   6.317
10476SOL    HW232328   0.337   4.927   6.452
10477SOL     OW32329   4.623   4.340   5.034
10477SOL    HW132330   4.587   4.341   5.127
10477SOL    HW232331   4.581   4.413   4.981
10478SOL     OW32332   0.767   6.225   3.306
10478SOL    HW132333   0.815   6.152   3.353
10478SOL    HW232334   0.668   6.211   3.315
10479SOL     OW32335   0.839   4.266   2.181
10479SOL    HW132336   0.743   4.290   2.198
10479SOL    HW232337   0.882   4.239   2.267
10480SOL     OW32338   4.929   1.337   0.650
10480SOL    HW132339   4.916   1.296   0.560
10480SOL    HW232340   5.024   1.368   0.659
10481SOL     OW32341   2.531   1.578   4.564
10481SOL    HW132342   2.583   1.529   4.633
10481SOL    HW232343   2.588   1.594   4.484
10482SOL     OW32344   1.171   6.311   6.882
10482SOL    HW132345   1.165   6.230   6.940
10482SOL    HW232346   1.234   6.294   6.807
10483SOL     OW32347   0.174   5.701   0.648
10483SOL    HW132348   0.200   5.798   0.649
10483SOL    HW232349   0.099   5.689   0.582
10484SOL     OW32350   6.828   1.674   1.805
10484SOL    HW132351   6.783   1.704   1.889
10484SOL    HW232352   6.827   1.574   1.800
10485SOL     OW32353   3.638   4.128   4.244
10485SOL    HW132354   3.713   4.063   4.231
10485SOL    HW232355   3.551   4.080   4.236
10486SOL     OW32356   5.974   5.448   5.998
10486SOL    HW132357   5.949   5.393   6.078
10486SOL    HW232358   5.934   5.539   6.005
10487SOL     OW32359   5.573   3.959   2.718
10487SOL    HW132360   5.537   3.976   2.810
10487SOL    HW232361   5.554   3.865   2.691
10488SOL     OW32362   0.713   2.274   5.859
10488SOL    HW132363   0.636   2.334   5.881
10488SOL    HW232364   0.762   2.251   5.943
10489SOL     OW32365   5.876   5.146   2.837
10489SOL    HW132366   5.799   5.108   2.786
10489SOL    HW232367   5.848   5.231   2.881
10490SOL     OW32368   5.024   6.664   6.393
10490SOL    HW132369   5.113   6.639   6.353
10490SOL    HW232370   4.983   6.584   6.436
10491SOL     OW32371   2.154   2.106   5.430
10491SOL    HW132372   2.195   2.148   5.511
10491SOL    HW232373   2.088   2.036   5.459
10492SOL     OW32374   2.716   6.530   0.368
10492SOL    HW132375   2.752   6.565   0.282
10492SOL    HW232376   2.792   6.496   0.424
10493SOL     OW32377   3.591   5.852   0.805
10493SOL    HW132378   3.691   5.850   0.812
10493SOL    HW232379   3.561   5.786   0.737
10494SOL     OW32380   0.236   5.560   4.263
10494SOL    HW132381   0.187   5.484   4.221
10494SOL    HW232382   0.238   5.638   4.200
10495SOL     OW32383   5.946   6.629   0.489
10495SOL    HW132384   6.029   6.650   0.540
10495SOL    HW232385   5.911   6.539   0.516
10496SOL     OW32386   0.824   4.496   5.860
10496SOL    HW132387   0.747   4.466   5.804
10496SOL    HW232388   0.908   4.452   5.829
10497SOL     OW32389   3.575   6.512   0.665
10497SOL    HW132390   3.646   6.447   0.637
10497SOL    HW232391   3.580   6.526   0.764
10498SOL     OW32392   3.446   3.484   0.005
10498SOL    HW132393   3.501   3.405   0.032
10498SOL    HW232394   3.449   3.493   6.927
10499SOL     OW32395   4.427   4.662   3.128
10499SOL    HW132396   4.439   4.589   3.196
10499SOL    HW232397   4.331   4.666   3.100
10500SOL     OW32398   1.953   2.989   4.880
10500SOL    HW132399   2.002   2.934   4.948
10500SOL    HW232400   1.956   2.942   4.792
10501SOL     OW32401   3.399   4.944   3.213
10501SOL    HW132402   3.429   5.025   3.163
10501SOL    HW232403   3.299   4.940   3.214
10502SOL     OW32404   3.296   4.055   2.568
10502SOL    HW132405   3.309   4.054   2.469
10502SOL    HW232406   3.363   4.116   2.610
10503SOL     OW32407   6.762   0.785   0.441
10503SOL    HW132408   6.811   0.813   0.359
10503SOL    HW232409   6.718   0.865   0.482
10504SOL     OW32410   1.514   2.980   5.527
10504SOL    HW132411   1.594   2.930   5.560
10504SOL    HW232412   1.432   2.926   5.544
10505SOL     OW32413   5.845   6.535   0.950
10505SOL    HW132414   5.799   6.451   0.980
10505SOL    HW232415   5.923   6.510   0.893
10506SOL     OW32416   1.674   4.736   5.048
10506SOL    HW132417   1.581   4.704   5.067
10506SOL    HW232418   1.712   4.684   4.972
10507SOL     OW32419   1.548   6.340   5.964
10507SOL    HW132420   1.625   6.327   6.025
10507SOL    HW232421   1.463   6.315   6.011
10508SOL     OW32422   1.602   6.295   1.154
10508SOL    HW132423   1.523   6.279   1.094
10508SOL    HW232424   1.661   6.214   1.154
10509SOL     OW32425   4.910   3.470   2.227
10509SOL    HW132426   4.820   3.435   2.252
10509SOL    HW232427   4.902   3.566   2.198
10510SOL     OW32428   6.019   6.212   2.184
10510SOL    HW132429   6.058   6.146   2.120
10510SOL    HW232430   6.041   6.185   2.277
10511SOL     OW32431   3.911   1.762   0.736
10511SOL    HW132432   3.893   1.693   0.667
10511SOL    HW232433   3.852   1.841   0.720
10512SOL     OW32434   4.023   0.708   5.118
10512SOL    HW132435   3.952   0.662   5.173
10512SOL    HW232436   4.052   0.791   5.165
10513SOL     OW32437   3.847   3.913   0.502
10513SOL    HW132438   3.825   3.946   0.594
10513SOL    HW232439   3.903   3.831   0.509
10514SOL     OW32440   1.429   5.399   2.016
10514SOL    HW132441   1.521   5.378   1.983
10514SOL    HW232442   1.435   5.440   2.107
10515SOL     OW32443   1.899   3.931   4.693
10515SOL    HW132444   1.977   3.883   4.733
10515SOL    HW232445   1.851   3.869   4.630
10516SOL     OW32446   5.344   1.711   2.015
10516SOL    HW132447   5.366   1.738   2.108
10516SOL    HW232448   5.347   1.791   1.955
10517SOL     OW32449   0.654   1.787   2.186
10517SOL    HW132450   0.557   1.786   2.210
10517SOL    HW232451   0.705   1.732   2.253
10518SOL     OW32452   0.992   5.823   2.727
10518SOL    HW132453   0.946   5.814   2.815
10518SOL    HW232454   1.005   5.733   2.686
10519SOL     OW32455   2.308   6.543   0.674
10519SOL    HW132456   2.333   6.446   0.668
10519SOL    HW232457   2.243   6.556   0.749
10520SOL     OW32458   2.928   2.486   6.229
10520SOL    HW132459   2.872   2.509   6.149
10520SOL    HW232460   2.997   2.419   6.202
10521SOL     OW32461   6.247   2.396   2.696
10521SOL    HW132462   6.166   2.405   2.638
10521SOL    HW232463   6.236   2.317   2.756
10522SOL     OW32464   4.973   1.556   3.287
10522SOL    HW132465   4.957   1.503   3.204
10522SOL    HW232466   4.907   1.632   3.292
10523SOL     OW32467   0.599   4.195   1.936
10523SOL    HW132468   0.670   4.265   1.924
10523SOL    HW232469   0.642   4.110   1.967
10524SOL     OW32470   5.620   6.480   4.665
10524SOL    HW132471   5.673   6.395   4.660
10524SOL    HW232472   5.682   6.558   4.654
10525SOL     OW32473   4.701   1.735   3.494
10525SOL    HW132474   4.757   1.770   3.419
10525SOL    HW232475   4.639   1.665   3.458
10526SOL     OW32476   1.415   5.855   6.064
10526SOL    HW132477   1.321   5.831   6.087
10526SOL    HW232478   1.440   5.812   5.977
10527SOL     OW32479   0.156   6.216   5.966
10527SOL    HW132480   0.179   6.311   5.986
10527SOL    HW232481   0.157   6.201   5.867
10528SOL     OW32482   2.038   6.092   5.300
10528SOL    HW132483   2.091   6.124   5.378
10528SOL    HW232484   2.078   6.008   5.265
10529SOL     OW32485   6.716   5.136   0.464
10529SOL    HW132486   6.651   5.193   0.413
10529SOL    HW232487   6.804   5.135   0.415
10530SOL     OW32488   6.251   0.587   1.460
10530SOL    HW132489   6.196   0.625   1.386
10530SOL    HW232490   6.348   0.607   1.444
10531SOL     OW32491   3.403   1.472   6.229
10531SOL    HW132492   3.380   1.383   6.268
10531SOL    HW232493   3.353   1.544   6.277
10532SOL     OW32494   4.783   5.798   5.858
10532SOL    HW132495   4.735   5.764   5.939
10532SOL    HW232496   4.880   5.813   5.880
10533SOL     OW32497   4.135   6.602   3.324
10533SOL    HW132498   4.093   6.598   3.233
10533SOL    HW232499   4.234   6.589   3.316
10534SOL     OW32500   0.897   6.426   3.893
10534SOL    HW132501   0.825   6.405   3.958
10534SOL    HW232502   0.985   6.427   3.940
10535SOL     OW32503   4.279   1.588   2.271
10535SOL    HW132504   4.367   1.635   2.266
10535SOL    HW232505   4.232   1.594   2.183
10536SOL     OW32506   5.979   3.794   4.241
10536SOL    HW132507   6.030   3.757   4.163
10536SOL    HW232508   6.004   3.890   4.254
10537SOL     OW32509   3.417   1.102   3.125
10537SOL    HW132510   3.482   1.039   3.083
10537SOL    HW232511   3.436   1.195   3.094
10538SOL     OW32512   5.856   2.730   3.454
10538SOL    HW132513   5.950   2.750   3.428
10538SOL    HW232514   5.848   2.732   3.554
10539SOL     OW32515   6.429   0.001   2.530
10539SOL    HW132516   6.494   6.951   2.554
10539SOL    HW232517   6.457   0.044   2.444
10540SOL     OW32518   1.575   3.491   6.106
10540SOL    HW132519   1.599   3.574   6.056
10540SOL    HW232520   1.485   3.504   6.148
10541SOL     OW32521   3.310   2.224   5.954
10541SOL    HW132522   3.324   2.301   5.890
10541SOL    HW232523   3.351   2.141   5.915
10542SOL     OW32524   4.170   6.672   1.996
10542SOL    HW132525   4.096   6.605   2.000
10542SOL    HW232526   4.165   6.733   2.076
10543SOL     OW32527   1.624   2.716   4.387
10543SOL    HW132528   1.570   2.781   4.440
10543SOL    HW232529   1.566   2.674   4.317
10544SOL     OW32530   3.035   2.091   2.205
10544SOL    HW132531   2.989   2.177   2.183
10544SOL    HW232532   2.998   2.017   2.149
10545SOL     OW32533   1.465   3.058   1.824
10545SOL    HW132534   1.403   3.028   1.752
10545SOL    HW232535   1.451   3.155   1.841
10546SOL     OW32536   1.936   6.769   5.166
10546SOL    HW132537   1.905   6.674   5.161
10546SOL    HW232538   2.032   6.771   5.194
10547SOL     OW32539   3.584   6.165   5.776
10547SOL    HW132540   3.597   6.193   5.681
10547SOL    HW232541   3.489   6.137   5.790
10548SOL     OW32542   0.871   5.478   3.201
10548SOL    HW132543   0.966   5.448   3.214
10548SOL    HW232544   0.856   5.562   3.252
10549SOL     OW32545   6.870   1.522   2.585
10549SOL    HW132546   6.823   1.448   2.632
10549SOL    HW232547   6.919   1.578   2.651
10550SOL     OW32548   6.591   5.674   3.048
10550SOL    HW132549   6.640   5.589   3.033
10550SOL    HW232550   6.545   5.671   3.136
10551SOL     OW32551   4.413   0.178   4.434
10551SOL    HW132552   4.357   0.220   4.505
10551SOL    HW232553   4.364   0.101   4.393
10552SOL     OW32554   2.606   6.902   3.086
10552SOL    HW132555   2.509   6.927   3.080
10552SOL    HW232556   2.634   6.902   3.182
10553SOL     OW32557   5.164   5.300   1.487
10553SOL    HW132558   5.252   5.282   1.531
10553SOL    HW232559   5.119   5.377   1.532
10554SOL     OW32560   6.451   5.610   1.409
10554SOL    HW132561   6.542   5.631   1.373
10554SOL    HW232562   6.455   5.528   1.466
10555SOL     OW32563   3.486   3.151   2.098
10555SOL    HW132564   3.544   3.123   2.021
10555SOL    HW232565   3.399   3.185   2.063
10556SOL     OW32566   2.619   2.425   1.802
10556SOL    HW132567   2.532   2.474   1.805
10556SOL    HW232568   2.683   2.475   1.742
10557SOL     OW32569   0.419   3.982   2.871
10557SOL    HW132570   0.348   3.993   2.940
10557SOL    HW232571   0.437   4.071   2.827
10558SOL     OW32572   4.764   4.862   4.678
10558SOL    HW132573   4.831   4.908   4.737
10558SOL    HW232574   4.800   4.774   4.650
10559SOL     OW32575   3.627   5.868   1.330
10559SOL    HW132576   3.673   5.827   1.252
10559SOL    HW232577   3.658   5.824   1.414
10560SOL     OW32578   5.509   0.104   3.877
10560SOL    HW132579   5.424   0.157   3.886
10560SOL    HW232580   5.550   0.123   3.788
10561SOL     OW32581   0.847   5.175   5.460
10561SOL    HW132582   0.919   5.184   5.529
10561SOL    HW232583   0.851   5.083   5.420
10562SOL     OW32584   3.509   6.786   2.591
10562SOL    HW132585   3.462   6.868   2.624
10562SOL    HW232586   3.486   6.770   2.495
10563SOL     OW32587   1.957   5.808   2.050
10563SOL    HW132588   2.042   5.830   2.003
10563SOL    HW232589   1.951   5.860   2.135
10564SOL     OW32590   5.342   4.768   3.204
10564SOL    HW132591   5.280   4.731   3.134
10564SOL    HW232592   5.421   4.811   3.160
10565SOL     OW32593   0.212   1.459   4.842
10565SOL    HW132594   0.304   1.447   4.805
10565SOL    HW232595   0.186   1.555   4.837
10566SOL     OW32596   4.179   1.809   0.548
10566SOL    HW132597   4.148   1.722   0.586
10566SOL    HW232598   4.154   1.883   0.610
10567SOL     OW32599   3.168   1.882   6.607
10567SOL    HW132600   3.165   1.832   6.693
10567SOL    HW232601   3.081   1.873   6.559
10568SOL     OW32602   5.587   2.318   6.007
10568SOL    HW132603   5.633   2.361   6.085
10568SOL    HW232604   5.521   2.382   5.968
10569SOL     OW32605   5.312   0.414   0.844
10569SOL    HW132606   5.393   0.471   0.849
10569SOL    HW232607   5.301   0.379   0.751
10570SOL     OW32608   1.298   4.000   3.051
10570SOL    HW132609   1.306   3.943   3.133
10570SOL    HW232610   1.343   3.954   2.975
10571SOL     OW32611   0.467   3.780   5.410
10571SOL    HW132612   0.520   3.860   5.440
10571SOL    HW232613   0.485   3.703   5.470
10572SOL     OW32614   6.740   4.578   0.778
10572SOL    HW132615   6.709   4.672   0.760
10572SOL    HW232616   6.838   4.572   0.762
10573SOL     OW32617   6.183   2.616   3.748
10573SOL    HW132618   6.156   2.614   3.652
10573SOL    HW232619   6.182   2.523   3.785
10574SOL     OW32620   5.549   2.783   2.495
10574SOL    HW132621   5.480   2.855   2.502
10574SOL    HW232622   5.611   2.788   2.573
10575SOL     OW32623   4.811   0.521   2.657
10575SOL    HW132624   4.783   0.548   2.565
10575SOL    HW232625   4.795   0.423   2.670
10576SOL     OW32626   1.885   3.271   4.914
10576SOL    HW132627   1.881   3.183   4.867
10576SOL    HW232628   1.979   3.304   4.915
10577SOL     OW32629   3.897   4.216   7.002
10577SOL    HW132630   3.931   4.131   6.961
10577SOL    HW232631   3.973   4.261   0.029
10578SOL     OW32632   1.376   3.832   2.429
10578SOL    HW132633   1.403   3.793   2.341
10578SOL    HW232634   1.281   3.806   2.449
10579SOL     OW32635   0.105   3.340   6.781
10579SOL    HW132636   0.151   3.280   6.846
10579SOL    HW232637   0.087   3.289   6.697
10580SOL     OW32638   5.570   6.490   6.684
10580SOL    HW132639   5.520   6.568   6.647
10580SOL    HW232640   5.633   6.521   6.754
10581SOL     OW32641   4.523   0.951   2.353
10581SOL    HW132642   4.489   0.859   2.369
10581SOL    HW232643   4.500   1.010   2.430
10582SOL     OW32644   6.996   3.518   6.948
10582SOL    HW132645   7.016   3.454   6.874
10582SOL    HW232646   6.936   3.590   6.914
10583SOL     OW32647   4.313   2.198   5.458
10583SOL    HW132648   4.325   2.167   5.553
10583SOL    HW232649   4.402   2.220   5.419
10584SOL     OW32650   5.970   0.987   3.555
10584SOL    HW132651   5.978   0.961   3.458
10584SOL    HW232652   5.882   1.032   3.570
10585SOL     OW32653   1.326   1.364   5.189
10585SOL    HW132654   1.344   1.364   5.287
10585SOL    HW232655   1.283   1.451   5.163
10586SOL     OW32656   4.670   3.443   6.152
10586SOL    HW132657   4.654   3.473   6.058
10586SOL    HW232658   4.682   3.523   6.211
10587SOL     OW32659   2.050   5.177   4.843
10587SOL    HW132660   2.007   5.176   4.934
10587SOL    HW232661   2.122   5.247   4.841
10588SOL     OW32662   1.090   3.780   4.196
10588SOL    HW132663   1.016   3.716   4.216
10588SOL    HW232664   1.160   3.733   4.143
10589SOL     OW32665   5.857   0.207   3.630
10589SOL    HW132666   5.898   0.220   3.540
10589SOL    HW232667   5.757   0.214   3.623
10590SOL     OW32668   0.438   6.022   2.055
10590SOL    HW132669   0.516   5.990   2.001
10590SOL    HW232670   0.365   5.953   2.052
10591SOL     OW32671   6.395   4.096   2.553
10591SOL    HW132672   6.356   4.156   2.623
10591SOL    HW232673   6.349   4.113   2.465
10592SOL     OW32674   6.708   3.423   4.470
10592SOL    HW132675   6.805   3.410   4.488
10592SOL    HW232676   6.677   3.357   4.401
10593SOL     OW32677   3.762   5.907   3.519
10593SOL    HW132678   3.793   5.925   3.612
10593SOL    HW232679   3.769   5.809   3.500
10594SOL     OW32680   3.842   5.909   3.772
10594SOL    HW132681   3.810   5.960   3.852
10594SOL    HW232682   3.942   5.900   3.777
10595SOL     OW32683   5.657   6.149   0.646
10595SOL    HW132684   5.721   6.078   0.674
10595SOL    HW232685   5.707   6.232   0.621
10596SOL     OW32686   5.742   3.980   0.256
10596SOL    HW132687   5.645   3.984   0.233
10596SOL    HW232688   5.796   3.971   0.173
10597SOL     OW32689   1.173   6.596   5.135
10597SOL    HW132690   1.121   6.675   5.167
10597SOL    HW232691   1.130   6.556   5.055
10598SOL     OW32692   3.494   1.446   0.942
10598SOL    HW132693   3.487   1.524   0.880
10598SOL    HW232694   3.485   1.361   0.890
10599SOL     OW32695   0.725   2.211   0.815
10599SOL    HW132696   0.641   2.228   0.763
10599SOL    HW232697   0.766   2.298   0.841
10600SOL     OW32698   4.334   1.705   1.654
10600SOL    HW132699   4.371   1.691   1.562
10600SOL    HW232700   4.358   1.797   1.686
10601SOL     OW32701   2.073   1.780   5.057
10601SOL    HW132702   1.997   1.768   5.121
10601SOL    HW232703   2.160   1.764   5.104
10602SOL     OW32704   6.714   6.572   1.735
10602SOL    HW132705   6.628   6.622   1.746
10602SOL    HW232706   6.698   6.489   1.682
10603SOL     OW32707   5.792   0.759   2.660
10603SOL    HW132708   5.699   0.770   2.624
10603SOL    HW232709   5.837   0.847   2.662
10604SOL     OW32710   5.367   2.461   5.192
10604SOL    HW132711   5.273   2.492   5.204
10604SOL    HW232712   5.430   2.538   5.207
10605SOL     OW32713   4.374   2.324   1.198
10605SOL    HW132714   4.414   2.361   1.115
10605SOL    HW232715   4.418   2.365   1.278
10606SOL     OW32716   5.931   1.476   0.662
10606SOL    HW132717   5.995   1.515   0.596
10606SOL    HW232718   5.908   1.544   0.731
10607SOL     OW32719   2.531   4.958   0.789
10607SOL    HW132720   2.542   5.049   0.750
10607SOL    HW232721   2.445   4.918   0.755
10608SOL     OW32722   5.373   4.226   2.820
10608SOL    HW132723   5.445   4.264   2.762
10608SOL    HW232724   5.324   4.155   2.771
10609SOL     OW32725   5.919   6.813   6.350
10609SOL    HW132726   6.005   6.763   6.357
10609SOL    HW232727   5.924   6.898   6.402
10610SOL     OW32728   0.550   1.889   2.933
10610SOL    HW132729   0.606   1.856   3.009
10610SOL    HW232730   0.574   1.840   2.850
10611SOL     OW32731   4.162   5.123   5.388
10611SOL    HW132732   4.173   5.188   5.464
10611SOL    HW232733   4.078   5.070   5.401
10612SOL     OW32734   5.335   2.782   3.472
10612SOL    HW132735   5.242   2.774   3.437
10612SOL    HW232736   5.381   2.858   3.428
10613SOL     OW32737   5.254   5.227   5.121
10613SOL    HW132738   5.188   5.243   5.048
10613SOL    HW232739   5.239   5.294   5.194
10614SOL     OW32740   3.739   1.935   6.745
10614SOL    HW132741   3.650   1.943   6.699
10614SOL    HW232742   3.810   1.915   6.678
10615SOL     OW32743   2.757   2.334   5.405
10615SOL    HW132744   2.793   2.242   5.418
10615SOL    HW232745   2.662   2.338   5.437
10616SOL     OW32746   1.398   5.281   0.080
10616SOL    HW132747   1.320   5.341   0.060
10616SOL    HW232748   1.483   5.334   0.072
10617SOL     OW32749   2.204   2.536   0.530
10617SOL    HW132750   2.170   2.469   0.463
10617SOL    HW232751   2.255   2.607   0.483
10618SOL     OW32752   0.520   4.652   4.001
10618SOL    HW132753   0.553   4.646   4.095
10618SOL    HW232754   0.511   4.749   3.975
10619SOL     OW32755   1.170   2.866   1.264
10619SOL    HW132756   1.195   2.963   1.263
10619SOL    HW232757   1.208   2.823   1.346
10620SOL     OW32758   3.913   1.020   5.690
10620SOL    HW132759   3.918   1.053   5.784
10620SOL    HW232760   3.852   0.940   5.686
10621SOL     OW32761   0.921   4.306   4.335
10621SOL    HW132762   0.873   4.312   4.423
10621SOL    HW232763   0.872   4.244   4.274
10622SOL     OW32764   4.074   1.792   5.768
10622SOL    HW132765   3.985   1.835   5.753
10622SOL    HW232766   4.111   1.821   5.856
10623SOL     OW32767   5.614   4.467   5.468
10623SOL    HW132768   5.624   4.494   5.564
10623SOL    HW232769   5.704   4.447   5.430
10624SOL     OW32770   6.811   1.776   6.227
10624SOL    HW132771   6.776   1.787   6.320
10624SOL    HW232772   6.910   1.789   6.227
10625SOL     OW32773   5.829   5.551   6.787
10625SOL    HW132774   5.914   5.603   6.786
10625SOL    HW232775   5.765   5.592   6.852
10626SOL     OW32776   5.626   3.702   2.470
10626SOL    HW132777   5.601   3.610   2.502
10626SOL    HW232778   5.543   3.755   2.454
10627SOL     OW32779   5.879   4.706   5.560
10627SOL    HW132780   5.915   4.645   5.489
10627SOL    HW232781   5.948   4.719   5.631
10628SOL     OW32782   2.984   5.785   1.712
10628SOL    HW132783   2.979   5.763   1.810
10628SOL    HW232784   3.050   5.860   1.699
10629SOL     OW32785   4.744   5.560   4.020
10629SOL    HW132786   4.680   5.578   3.946
10629SOL    HW232787   4.693   5.545   4.105
10630SOL     OW32788   3.793   0.924   1.137
10630SOL    HW132789   3.830   0.996   1.078
10630SOL    HW232790   3.782   0.840   1.084
10631SOL     OW32791   3.746   6.051   1.616
10631SOL    HW132792   3.789   6.125   1.667
10631SOL    HW232793   3.701   6.088   1.535
10632SOL     OW32794   5.668   6.970   4.550
10632SOL    HW132795   5.606   7.014   4.485
10632SOL    HW232796   5.724   0.019   4.595
10633SOL     OW32797   2.284   2.747   0.788
10633SOL    HW132798   2.338   2.670   0.753
10633SOL    HW232799   2.307   2.829   0.736
10634SOL     OW32800   0.977   4.390   0.156
10634SOL    HW132801   1.009   4.357   0.245
10634SOL    HW232802   1.034   4.466   0.126
10635SOL     OW32803   2.991   4.570   6.784
10635SOL    HW132804   2.906   4.607   6.748
10635SOL    HW232805   3.032   4.508   6.718
10636SOL     OW32806   6.424   3.283   0.917
10636SOL    HW132807   6.380   3.373   0.909
10636SOL    HW232808   6.511   3.292   0.964
10637SOL     OW32809   2.213   0.254   5.783
10637SOL    HW132810   2.194   0.343   5.825
10637SOL    HW232811   2.183   0.181   5.844
10638SOL     OW32812   5.747   4.867   6.803
10638SOL    HW132813   5.687   4.913   6.868
10638SOL    HW232814   5.820   4.928   6.775
10639SOL     OW32815   6.320   5.154   0.164
10639SOL    HW132816   6.375   5.072   0.178
10639SOL    HW232817   6.321   5.179   0.067
10640SOL     OW32818   3.432   6.376   4.443
10640SOL    HW132819   3.409   6.283   4.413
10640SOL    HW232820   3.495   6.418   4.377
10641SOL     OW32821   0.906   1.571   3.817
10641SOL    HW132822   0.917   1.477   3.849
10641SOL    HW232823   0.850   1.572   3.735
10642SOL     OW32824   0.237   1.968   6.516
10642SOL    HW132825   0.289   1.890   6.552
10642SOL    HW232826   0.298   2.047   6.509
10643SOL     OW32827   2.916   5.166   5.108
10643SOL    HW132828   2.935   5.103   5.033
10643SOL    HW232829   3.001   5.190   5.154
10644SOL     OW32830   0.665   3.437   4.068
10644SOL    HW132831   0.704   3.510   4.011
10644SOL    HW232832   0.739   3.382   4.107
10645SOL     OW32833   2.118   3.054   3.644
10645SOL    HW132834   2.156   3.007   3.564
10645SOL    HW232835   2.043   3.000   3.681
10646SOL     OW32836   4.927   1.067   2.967
10646SOL    HW132837   4.911   1.146   3.026
10646SOL    HW232838   5.008   1.084   2.911
10647SOL     OW32839   4.057   5.773   4.611
10647SOL    HW132840   3.996   5.712   4.662
10647SOL    HW232841   4.149   5.736   4.611
10648SOL     OW32842   4.558   3.776   5.767
10648SOL    HW132843   4.487   3.846   5.769
10648SOL    HW232844   4.648   3.819   5.766
10649SOL     OW32845   6.297   3.446   3.720
10649SOL    HW132846   6.387   3.404   3.729
10649SOL    HW232847   6.306   3.545   3.729
10650SOL     OW32848   0.934   0.218   2.785
10650SOL    HW132849   1.017   0.226   2.729
10650SOL    HW232850   0.956   0.169   2.870
10651SOL     OW32851   2.158   5.670   5.836
10651SOL    HW132852   2.060   5.687   5.848
10651SOL    HW232853   2.171   5.581   5.792
10652SOL     OW32854   2.773   0.556   6.853
10652SOL    HW132855   2.690   0.505   6.874
10652SOL    HW232856   2.793   0.549   6.755
10653SOL     OW32857   5.622   6.243   4.344
10653SOL    HW132858   5.690   6.232   4.271
10653SOL    HW232859   5.669   6.262   4.430
10654SOL     OW32860   6.734   1.419   4.343
10654SOL    HW132861   6.667   1.385   4.277
10654SOL    HW232862   6.713   1.382   4.433
10655SOL     OW32863   6.395   5.597   0.724
10655SOL    HW132864   6.343   5.681   0.737
10655SOL    HW232865   6.397   5.545   0.810
10656SOL     OW32866   6.104   0.556   6.274
10656SOL    HW132867   6.152   0.543   6.361
10656SOL    HW232868   6.170   0.558   6.199
10657SOL     OW32869   4.482   6.785   5.730
10657SOL    HW132870   4.545   6.861   5.715
10657SOL    HW232871   4.473   6.768   5.828
10658SOL     OW32872   1.028   1.491   6.148
10658SOL    HW132873   1.062   1.515   6.239
10658SOL    HW232874   1.098   1.510   6.080
10659SOL     OW32875   0.699   5.597   0.039
10659SOL    HW132876   0.619   5.643   0.001
10659SOL    HW232877   0.769   5.588   6.991
10660SOL     OW32878   6.271   2.739   6.633
10660SOL    HW132879   6.188   2.793   6.648
10660SOL    HW232880   6.246   2.649   6.596
10661SOL     OW32881   3.425   5.567   5.342
10661SOL    HW132882   3.381   5.619   5.415
10661SOL    HW232883   3.524   5.575   5.350
10662SOL     OW32884   3.339   1.278   0.708
10662SOL    HW132885   3.392   1.229   0.777
10662SOL    HW232886   3.362   1.375   0.710
10663SOL     OW32887   6.824   3.165   4.116
10663SOL    HW132888   6.751   3.196   4.055
10663SOL    HW232889   6.912   3.176   4.071
10664SOL     OW32890   1.096   6.631   4.727
10664SOL    HW132891   1.103   6.727   4.753
10664SOL    HW232892   1.173   6.580   4.766
10665SOL     OW32893   3.604   3.357   0.409
10665SOL    HW132894   3.568   3.418   0.480
10665SOL    HW232895   3.610   3.264   0.445
10666SOL     OW32896   4.440   3.788   1.092
10666SOL    HW132897   4.531   3.780   1.132
10666SOL    HW232898   4.442   3.753   0.998
10667SOL     OW32899   5.779   2.441   4.038
10667SOL    HW132900   5.873   2.471   4.020
10667SOL    HW232901   5.717   2.490   3.977
10668SOL     OW32902   3.606   3.669   5.981
10668SOL    HW132903   3.607   3.757   6.027
10668SOL    HW232904   3.592   3.596   6.048
10669SOL     OW32905   6.280   2.756   1.759
10669SOL    HW132906   6.249   2.850   1.773
10669SOL    HW232907   6.361   2.757   1.699
10670SOL     OW32908   4.615   4.587   4.027
10670SOL    HW132909   4.677   4.651   4.074
10670SOL    HW232910   4.532   4.636   4.001
10671SOL     OW32911   2.185   3.164   4.757
10671SOL    HW132912   2.182   3.227   4.835
10671SOL    HW232913   2.111   3.097   4.766
10672SOL     OW32914   6.212   4.558   1.461
10672SOL    HW132915   6.277   4.534   1.533
10672SOL    HW232916   6.236   4.648   1.423
10673SOL     OW32917   3.185   1.582   1.214
10673SOL    HW132918   3.129   1.582   1.297
10673SOL    HW232919   3.216   1.488   1.195
10674SOL     OW32920   3.599   3.259   4.300
10674SOL    HW132921   3.552   3.345   4.280
10674SOL    HW232922   3.646   3.226   4.218
10675SOL     OW32923   3.676   6.215   5.524
10675SOL    HW132924   3.766   6.209   5.481
10675SOL    HW232925   3.610   6.253   5.459
10676SOL     OW32926   1.279   1.175   4.673
10676SOL    HW132927   1.360   1.225   4.704
10676SOL    HW232928   1.218   1.238   4.626
10677SOL     OW32929   0.192   1.991   6.968
10677SOL    HW132930   0.164   1.966   0.039
10677SOL    HW232931   0.113   1.982   6.906
10678SOL     OW32932   3.711   5.173   2.569
10678SOL    HW132933   3.710   5.138   2.662
10678SOL    HW232934   3.709   5.097   2.504
10679SOL     OW32935   5.237   4.175   7.017
10679SOL    HW132936   5.304   4.224   0.051
10679SOL    HW232937   5.274   4.161   6.925
10680SOL     OW32938   4.866   1.119   5.719
10680SOL    HW132939   4.779   1.146   5.678
10680SOL    HW232940   4.908   1.048   5.662
10681SOL     OW32941   2.511   3.253   5.348
10681SOL    HW132942   2.606   3.284   5.340
10681SOL    HW232943   2.492   3.184   5.278
10682SOL     OW32944   5.030   3.119   6.047
10682SOL    HW132945   5.080   3.079   6.124
10682SOL    HW232946   5.092   3.171   5.989
10683SOL     OW32947   1.729   0.848   3.039
10683SOL    HW132948   1.773   0.869   2.952
10683SOL    HW232949   1.752   0.755   3.067
10684SOL     OW32950   5.075   4.252   1.414
10684SOL    HW132951   5.113   4.240   1.506
10684SOL    HW232952   5.003   4.321   1.416
10685SOL     OW32953   1.033   0.137   2.498
10685SOL    HW132954   0.959   0.171   2.439
10685SOL    HW232955   1.105   0.206   2.504
10686SOL     OW32956   2.728   1.292   6.275
10686SOL    HW132957   2.788   1.294   6.195
10686SOL    HW232958   2.781   1.267   6.356
10687SOL     OW32959   0.643   3.056   3.378
10687SOL    HW132960   0.593   3.068   3.464
10687SOL    HW232961   0.696   3.139   3.359
10688SOL     OW32962   5.282   1.240   3.951
10688SOL    HW132963   5.309   1.164   4.010
10688SOL    HW232964   5.286   1.326   4.003
10689SOL     OW32965   1.306   1.509   2.928
10689SOL    HW132966   1.241   1.584   2.917
10689SOL    HW232967   1.297   1.446   2.850
10690SOL     OW32968   0.729   6.916   4.650
10690SOL    HW132969   0.770   6.853   4.585
10690SOL    HW232970   0.631   6.923   4.632
10691SOL     OW32971   3.262   6.490   1.015
10691SOL    HW132972   3.275   6.537   0.928
10691SOL    HW232973   3.313   6.538   1.086
10692SOL     OW32974   2.676   2.153   4.254
10692SOL    HW132975   2.767   2.182   4.223
10692SOL    HW232976   2.617   2.138   4.175
10693SOL     OW32977   1.104   4.897   6.904
10693SOL    HW132978   1.167   4.827   6.937
10693SOL    HW232979   1.150   4.986   6.903
10694SOL     OW32980   5.016   0.996   5.020
10694SOL    HW132981   5.108   1.011   4.984
10694SOL    HW232982   4.994   1.067   5.087
10695SOL     OW32983   5.139   4.610   1.704
10695SOL    HW132984   5.124   4.705   1.730
10695SOL    HW232985   5.169   4.605   1.609
10696SOL     OW32986   6.353   4.487   4.413
10696SOL    HW132987   6.407   4.533   4.483
10696SOL    HW232988   6.268   4.538   4.398
10697SOL     OW32989   2.731   5.330   4.278
10697SOL    HW132990   2.783   5.244   4.274
10697SOL    HW232991   2.673   5.331   4.359
10698SOL     OW32992   3.792   4.096   0.200
10698SOL    HW132993   3.831   4.119   0.111
10698SOL    HW232994   3.798   3.997   0.214
10699SOL     OW32995   3.893   3.468   1.130
10699SOL    HW132996   3.897   3.395   1.062
10699SOL    HW232997   3.980   3.472   1.180
10700SOL     OW32998   4.697   0.368   1.297
10700SOL    HW132999   4.609   0.329   1.325
10700SOL    HW233000   4.764   0.295   1.285
10701SOL     OW33001   3.422   6.156   6.287
10701SOL    HW133002   3.355   6.099   6.335
10701SOL    HW233003   3.485   6.097   6.236
10702SOL     OW33004   5.758   2.152   1.968
10702SOL    HW133005   5.662   2.172   1.990
10702SOL    HW233006   5.818   2.211   2.022
10703SOL     OW33007   0.386   1.863   5.726
10703SOL    HW133008   0.351   1.788   5.781
10703SOL    HW233009   0.388   1.835   5.630
10704SOL     OW33010   5.309   6.864   2.285
10704SOL    HW133011   5.307   6.903   2.377
10704SOL    HW233012   5.220   6.825   2.263
10705SOL     OW33013   4.597   3.435   0.848
10705SOL    HW133014   4.645   3.414   0.763
10705SOL    HW233015   4.599   3.533   0.864
10706SOL     OW33016   3.212   0.773   1.406
10706SOL    HW133017   3.255   0.838   1.343
10706SOL    HW233018   3.221   0.680   1.369
10707SOL     OW33019   4.717   6.897   3.111
10707SOL    HW133020   4.772   6.938   3.038
10707SOL    HW233021   4.676   6.812   3.079
10708SOL     OW33022   4.248   0.646   1.612
10708SOL    HW133023   4.285   0.567   1.661
10708SOL    HW233024   4.321   0.710   1.591
10709SOL     OW33025   6.123   4.716   2.633
10709SOL    HW133026   6.101   4.747   2.725
10709SOL    HW233027   6.186   4.781   2.590
10710SOL     OW33028   4.558   1.552   3.342
10710SOL    HW133029   4.599   1.462   3.326
10710SOL    HW233030   4.458   1.543   3.348
10711SOL     OW33031   2.873   6.786   2.485
10711SOL    HW133032   2.848   6.829   2.398
10711SOL    HW233033   2.962   6.821   2.514
10712SOL     OW33034   5.615   0.360   3.295
10712SOL    HW133035   5.576   0.413   3.369
10712SOL    HW233036   5.544   0.336   3.229
10713SOL     OW33037   1.376   3.844   1.672
10713SOL    HW133038   1.365   3.916   1.604
10713SOL    HW233039   1.355   3.755   1.630
10714SOL     OW33040   3.136   4.070   5.124
10714SOL    HW133041   3.055   4.012   5.116
10714SOL    HW233042   3.187   4.069   5.038
10715SOL     OW33043   6.047   1.032   2.133
10715SOL    HW133044   6.104   1.107   2.099
10715SOL    HW233045   5.958   1.068   2.161
10716SOL     OW33046   5.170   0.846   3.316
10716SOL    HW133047   5.071   0.840   3.331
10716SOL    HW233048   5.200   0.941   3.329
10717SOL     OW33049   2.949   2.728   6.900
10717SOL    HW133050   2.982   2.649   6.849
10717SOL    HW233051   3.013   2.804   6.889
10718SOL     OW33052   1.616   4.699   6.309
10718SOL    HW133053   1.671   4.750   6.375
10718SOL    HW233054   1.650   4.605   6.301
10719SOL     OW33055   0.584   5.877   4.686
10719SOL    HW133056   0.501   5.822   4.683
10719SOL    HW233057   0.580   5.940   4.764
10720SOL     OW33058   0.169   5.206   3.334
10720SOL    HW133059   0.237   5.134   3.347
10720SOL    HW233060   0.163   5.230   3.237
10721SOL     OW33061   5.101   2.457   6.328
10721SOL    HW133062   5.060   2.427   6.242
10721SOL    HW233063   5.029   2.465   6.397
10722SOL     OW33064   0.367   3.241   5.409
10722SOL    HW133065   0.463   3.267   5.398
10722SOL    HW233066   0.353   3.149   5.372
10723SOL     OW33067   5.439   6.819   0.752
10723SOL    HW133068   5.518   6.775   0.795
10723SOL    HW233069   5.461   6.842   0.657
10724SOL     OW33070   0.345   6.383   6.538
10724SOL    HW133071   0.262   6.336   6.568
10724SOL    HW233072   0.379   6.443   6.610
10725SOL     OW33073   1.921   6.114   6.030
10725SOL    HW133074   1.852   6.092   5.961
10725SOL    HW233075   1.998   6.050   6.022
10726SOL     OW33076   3.986   1.029   3.777
10726SOL    HW133077   4.065   0.980   3.814
10726SOL    HW233078   3.950   1.091   3.847
10727SOL     OW33079   1.835   6.533   6.306
10727SOL    HW133080   1.892   6.484   6.240
10727SOL    HW233081   1.802   6.469   6.376
10728SOL     OW33082   4.955   5.638   0.966
10728SOL    HW133083   4.971   5.733   0.992
10728SOL    HW233084   5.028   5.581   1.004
10729SOL     OW33085   6.064   2.009   1.040
10729SOL    HW133086   5.987   2.052   1.088
10729SOL    HW233087   6.117   1.954   1.105
10730SOL     OW33088   4.549   0.442   2.853
10730SOL    HW133089   4.598   0.356   2.854
10730SOL    HW233090   4.584   0.501   2.926
10731SOL     OW33091   4.507   0.163   1.439
10731SOL    HW133092   4.567   0.210   1.504
10731SOL    HW233093   4.412   0.169   1.471
10732SOL     OW33094   0.924   3.667   5.841
10732SOL    HW133095   0.973   3.592   5.887
10732SOL    HW233096   0.914   3.744   5.904
10733SOL     OW33097   5.553   1.699   0.589
10733SOL    HW133098   5.463   1.684   0.548
10733SOL    HW233099   5.606   1.614   0.584
10734SOL     OW33100   6.760   2.859   1.894
10734SOL    HW133101   6.798   2.829   1.806
10734SOL    HW233102   6.829   2.913   1.943
10735SOL     OW33103   0.308   5.144   2.620
10735SOL    HW133104   0.264   5.054   2.616
10735SOL    HW233105   0.368   5.155   2.541
10736SOL     OW33106   2.075   1.001   4.259
10736SOL    HW133107   2.093   0.916   4.210
10736SOL    HW233108   2.031   0.981   4.346
10737SOL     OW33109   6.845   2.226   0.792
10737SOL    HW133110   6.755   2.192   0.765
10737SOL    HW233111   6.886   2.164   0.859
10738SOL     OW33112   4.036   0.261   3.645
10738SOL    HW133113   3.979   0.179   3.638
10738SOL    HW233114   4.088   0.273   3.561
10739SOL     OW33115   2.871   1.879   2.057
10739SOL    HW133116   2.828   1.841   2.139
10739SOL    HW233117   2.811   1.863   1.978
10740SOL     OW33118   4.488   5.782   3.156
10740SOL    HW133119   4.461   5.783   3.252
10740SOL    HW233120   4.501   5.876   3.125
10741SOL     OW33121   3.139   0.807   2.890
10741SOL    HW133122   3.204   0.734   2.909
10741SOL    HW233123   3.189   0.893   2.873
10742SOL     OW33124   6.788   5.261   0.705
10742SOL    HW133125   6.794   5.211   0.618
10742SOL    HW233126   6.701   5.242   0.749
10743SOL     OW33127   2.470   2.294   5.474
10743SOL    HW133128   2.430   2.336   5.393
10743SOL    HW233129   2.448   2.349   5.555
10744SOL     OW33130   5.604   2.198   0.557
10744SOL    HW133131   5.593   2.180   0.655
10744SOL    HW233132   5.699   2.219   0.537
10745SOL     OW33133   0.127   5.720   6.531
10745SOL    HW133134   0.149   5.648   6.597
10745SOL    HW233135   0.029   5.736   6.531
10746SOL     OW33136   1.364   4.129   6.021
10746SOL    HW133137   1.304   4.074   5.963
10746SOL    HW233138   1.334   4.224   6.020
10747SOL     OW33139   3.313   2.043   4.271
10747SOL    HW133140   3.265   2.094   4.342
10747SOL    HW233141   3.411   2.065   4.274
10748SOL     OW33142   5.055   1.383   2.252
10748SOL    HW133143   5.059   1.416   2.158
10748SOL    HW233144   5.141   1.404   2.299
10749SOL     OW33145   2.409   0.065   6.759
10749SOL    HW133146   2.477   0.059   6.833
10749SOL    HW233147   2.374   6.995   6.739
10750SOL     OW33148   3.784   6.575   6.333
10750SOL    HW133149   3.798   6.570   6.234
10750SOL    HW233150   3.798   6.484   6.373
10751SOL     OW33151   2.008   5.311   3.817
10751SOL    HW133152   2.034   5.408   3.817
10751SOL    HW233153   1.957   5.290   3.733
10752SOL     OW33154   4.914   4.939   3.926
10752SOL    HW133155   4.846   5.013   3.928
10752SOL    HW233156   4.915   4.896   3.836
10753SOL     OW33157   6.449   3.703   4.700
10753SOL    HW133158   6.387   3.625   4.696
10753SOL    HW233159   6.514   3.699   4.624
10754SOL     OW33160   1.281   7.001   2.191
10754SOL    HW133161   1.246   6.912   2.220
10754SOL    HW233162   1.210   0.049   2.205
10755SOL     OW33163   6.148   5.656   1.643
10755SOL    HW133164   6.150   5.604   1.728
10755SOL    HW233165   6.231   5.712   1.637
10756SOL     OW33166   0.619   6.883   5.222
10756SOL    HW133167   0.582   6.946   5.155
10756SOL    HW233168   0.615   6.924   5.313
10757SOL     OW33169   2.666   3.148   0.998
10757SOL    HW133170   2.725   3.073   0.967
10757SOL    HW233171   2.683   3.229   0.942
10758SOL     OW33172   0.731   4.924   3.736
10758SOL    HW133173   0.700   4.834   3.706
10758SOL    HW233174   0.664   4.963   3.800
10759SOL     OW33175   0.094   1.317   6.603
10759SOL    HW133176   0.001   1.346   6.580
10759SOL    HW233177   0.091   1.255   6.681
10760SOL     OW33178   5.933   1.639   4.924
10760SOL    HW133179   6.013   1.699   4.916
10760SOL    HW233180   5.869   1.678   4.990
10761SOL     OW33181   2.632   5.178   5.137
10761SOL    HW133182   2.719   5.162   5.184
10761SOL    HW233183   2.633   5.268   5.095
10762SOL     OW33184   3.036   1.657   4.942
10762SOL    HW133185   3.098   1.734   4.956
10762SOL    HW233186   3.012   1.650   4.845
10763SOL     OW33187   4.356   6.276   4.061
10763SOL    HW133188   4.290   6.331   4.010
10763SOL    HW233189   4.359   6.184   4.024
10764SOL     OW33190   4.709   0.188   5.095
10764SOL    HW133191   4.757   0.234   5.020
10764SOL    HW233192   4.628   0.142   5.059
10765SOL     OW33193   6.252   3.745   0.252
10765SOL    HW133194   6.307   3.728   0.333
10765SOL    HW233195   6.178   3.679   0.247
10766SOL     OW33196   3.438   3.570   1.392
10766SOL    HW133197   3.531   3.570   1.354
10766SOL    HW233198   3.372   3.562   1.318
10767SOL     OW33199   4.903   1.786   2.194
10767SOL    HW133200   4.840   1.864   2.194
10767SOL    HW233201   4.900   1.741   2.284
10768SOL     OW33202   6.536   4.701   6.689
10768SOL    HW133203   6.502   4.651   6.609
10768SOL    HW233204   6.526   4.644   6.770
10769SOL     OW33205   1.677   3.765   5.172
10769SOL    HW133206   1.646   3.671   5.186
10769SOL    HW233207   1.632   3.803   5.091
10770SOL     OW33208   4.127   6.092   3.687
10770SOL    HW133209   4.111   6.010   3.741
10770SOL    HW233210   4.211   6.081   3.633
10771SOL     OW33211   1.955   0.995   3.953
10771SOL    HW133212   1.973   0.935   4.032
10771SOL    HW233213   2.018   0.972   3.879
10772SOL     OW33214   5.274   5.586   3.101
10772SOL    HW133215   5.291   5.580   3.003
10772SOL    HW233216   5.251   5.680   3.126
10773SOL     OW33217   5.782   4.452   2.935
10773SOL    HW133218   5.743   4.463   2.844
10773SOL    HW233219   5.761   4.361   2.970
10774SOL     OW33220   0.104   6.794   2.937
10774SOL    HW133221   0.100   6.863   3.009
10774SOL    HW233222   0.198   6.764   2.924
10775SOL     OW33223   0.220   3.417   1.629
10775SOL    HW133224   0.170   3.453   1.708
10775SOL    HW233225   0.217   3.485   1.555
10776SOL     OW33226   1.410   0.636   6.113
10776SOL    HW133227   1.372   0.583   6.037
10776SOL    HW233228   1.492   0.591   6.146
10777SOL     OW33229   2.651   6.010   1.100
10777SOL    HW133230   2.665   5.912   1.108
10777SOL    HW233231   2.689   6.056   1.181
10778SOL     OW33232   5.756   5.690   2.400
10778SOL    HW133233   5.780   5.603   2.443
10778SOL    HW233234   5.661   5.686   2.368
10779SOL     OW33235   4.743   2.826   3.753
10779SOL    HW133236   4.714   2.803   3.846
10779SOL    HW233237   4.706   2.758   3.689
10780SOL     OW33238   6.534   0.629   2.290
10780SOL    HW133239   6.477   0.568   2.235
10780SOL    HW233240   6.477   0.700   2.332
10781SOL     OW33241   3.492   0.148   4.274
10781SOL    HW133242   3.432   0.069   4.282
10781SOL    HW233243   3.510   0.167   4.178
10782SOL     OW33244   6.043   5.186   3.859
10782SOL    HW133245   6.014   5.115   3.794
10782SOL    HW233246   6.040   5.275   3.813
10783SOL     OW33247   6.890   2.007   3.397
10783SOL    HW133248   6.902   2.102   3.428
10783SOL    HW233249   6.812   1.967   3.445
10784SOL     OW33250   2.653   1.673   4.864
10784SOL    HW133251   2.706   1.705   4.942
10784SOL    HW233252   2.645   1.747   4.797
10785SOL     OW33253   1.098   3.478   5.925
10785SOL    HW133254   1.111   3.526   6.012
10785SOL    HW233255   1.186   3.471   5.878
10786SOL     OW33256   0.408   4.356   3.986
10786SOL    HW133257   0.417   4.455   3.998
10786SOL    HW233258   0.382   4.336   3.891
10787SOL     OW33259   2.067   2.424   6.611
10787SOL    HW133260   2.121   2.416   6.527
10787SOL    HW233261   2.079   2.516   6.649
10788SOL     OW33262   5.986   3.734   5.907
10788SOL    HW133263   5.948   3.806   5.848
10788SOL    HW233264   5.968   3.645   5.866
10789SOL     OW33265   5.533   1.890   0.817
10789SOL    HW133266   5.559   1.869   0.723
10789SOL    HW233267   5.567   1.818   0.878
10790SOL     OW33268   6.587   6.345   2.957
10790SOL    HW133269   6.679   6.384   2.952
10790SOL    HW233270   6.590   6.248   2.933
10791SOL     OW33271   0.673   6.437   2.466
10791SOL    HW133272   0.704   6.451   2.372
10791SOL    HW233273   0.685   6.341   2.491
10792SOL     OW33274   3.840   4.303   5.568
10792SOL    HW133275   3.776   4.263   5.634
10792SOL    HW233276   3.882   4.230   5.514
10793SOL     OW33277   6.352   4.075   3.951
10793SOL    HW133278   6.343   4.174   3.963
10793SOL    HW233279   6.424   4.056   3.884
10794SOL     OW33280   3.074   3.958   4.450
10794SOL    HW133281   3.149   4.013   4.487
10794SOL    HW233282   3.078   3.961   4.350
10795SOL     OW33283   6.931   5.334   2.833
10795SOL    HW133284   6.877   5.266   2.882
10795SOL    HW233285   6.873   5.413   2.811
10796SOL     OW33286   1.009   6.340   5.654
10796SOL    HW133287   0.982   6.244   5.645
10796SOL    HW233288   1.000   6.368   5.750
10797SOL     OW33289   3.443   2.507   0.470
10797SOL    HW133290   3.505   2.584   0.485
10797SOL    HW233291   3.493   2.421   0.488
10798SOL     OW33292   6.282   1.333   0.839
10798SOL    HW133293   6.251   1.410   0.894
10798SOL    HW233294   6.318   1.261   0.898
10799SOL     OW33295   4.948   1.901   1.025
10799SOL    HW133296   4.912   1.954   1.102
10799SOL    HW233297   4.887   1.911   0.946
10800SOL     OW33298   6.894   6.763   1.796
10800SOL    HW133299   6.822   6.700   1.769
10800SOL    HW233300   6.980   6.737   1.752
10801SOL     OW33301   2.072   0.700   1.097
10801SOL    HW133302   2.152   0.670   1.045
10801SOL    HW233303   2.102   0.747   1.180
10802SOL     OW33304   6.028   1.396   3.420
10802SOL    HW133305   6.012   1.342   3.338
10802SOL    HW233306   6.102   1.354   3.474
10803SOL     OW33307   2.013   5.095   5.988
10803SOL    HW133308   2.069   5.016   6.011
10803SOL    HW233309   1.917   5.070   5.992
10804SOL     OW33310   6.854   3.061   4.409
10804SOL    HW133311   6.839   3.113   4.325
10804SOL    HW233312   6.851   2.963   4.389
10805SOL     OW33313   6.457   1.105   6.441
10805SOL    HW133314   6.448   1.023   6.499
10805SOL    HW233315   6.535   1.094   6.381
10806SOL     OW33316   1.569   5.106   6.868
10806SOL    HW133317   1.502   5.081   6.938
10806SOL    HW233318   1.599   5.200   6.882
10807SOL     OW33319   3.309   5.917   5.404
10807SOL    HW133320   3.387   5.912   5.341
10807SOL    HW233321   3.228   5.879   5.360
10808SOL     OW33322   1.042   2.865   6.176
10808SOL    HW133323   1.124   2.844   6.230
10808SOL    HW233324   1.065   2.930   6.103
10809SOL     OW33325   1.247   0.415   4.920
10809SOL    HW133326   1.296   0.435   4.835
10809SOL    HW233327   1.313   0.386   4.989
10810SOL     OW33328   6.364   0.659   4.272
10810SOL    HW133329   6.340   0.648   4.369
10810SOL    HW233330   6.339   0.751   4.242
10811SOL     OW33331   4.865   5.433   4.770
10811SOL    HW133332   4.899   5.522   4.742
10811SOL    HW233333   4.770   5.441   4.801
10812SOL     OW33334   0.110   3.060   0.396
10812SOL    HW133335   0.039   3.128   0.377
10812SOL    HW233336   0.198   3.106   0.408
10813SOL     OW33337   0.958   3.355   6.548
10813SOL    HW133338   0.914   3.410   6.619
10813SOL    HW233339   0.892   3.333   6.477
10814SOL     OW33340   3.621   1.796   0.804
10814SOL    HW133341   3.696   1.729   0.803
10814SOL    HW233342   3.576   1.794   0.893
10815SOL     OW33343   5.477   1.025   4.659
10815SOL    HW133344   5.575   1.036   4.641
10815SOL    HW233345   5.448   0.932   4.635
10816SOL     OW33346   3.102   3.270   4.672
10816SOL    HW133347   3.022   3.305   4.720
10816SOL    HW233348   3.083   3.178   4.637
10817SOL     OW33349   1.542   6.482   4.128
10817SOL    HW133350   1.480   6.431   4.187
10817SOL    HW233351   1.493   6.559   4.087
10818SOL     OW33352   4.030   3.972   6.945
10818SOL    HW133353   4.087   3.993   0.002
10818SOL    HW233354   4.028   3.873   6.929
10819SOL     OW33355   6.122   6.294   5.635
10819SOL    HW133356   6.165   6.231   5.571
10819SOL    HW233357   6.084   6.372   5.586
10820SOL     OW33358   2.712   4.577   6.197
10820SOL    HW133359   2.693   4.569   6.099
10820SOL    HW233360   2.631   4.609   6.245
10821SOL     OW33361   4.359   5.791   3.391
10821SOL    HW133362   4.399   5.866   3.443
10821SOL    HW233363   4.260   5.805   3.382
10822SOL     OW33364   5.915   1.227   2.400
10822SOL    HW133365   5.883   1.309   2.446
10822SOL    HW233366   5.926   1.246   2.302
10823SOL     OW33367   5.302   6.325   1.257
10823SOL    HW133368   5.380   6.374   1.295
10823SOL    HW233369   5.263   6.378   1.182
10824SOL     OW33370   1.382   3.248   3.489
10824SOL    HW133371   1.378   3.174   3.423
10824SOL    HW233372   1.335   3.328   3.452
10825SOL     OW33373   0.456   2.533   0.809
10825SOL    HW133374   0.483   2.446   0.767
10825SOL    HW233375   0.357   2.545   0.800
10826SOL     OW33376   6.681   3.186   2.667
10826SOL    HW133377   6.622   3.266   2.678
10826SOL    HW233378   6.657   3.118   2.736
10827SOL     OW33379   0.364   3.624   4.647
10827SOL    HW133380   0.445   3.609   4.704
10827SOL    HW233381   0.357   3.549   4.580
10828SOL     OW33382   6.657   4.151   5.088
10828SOL    HW133383   6.658   4.245   5.122
10828SOL    HW233384   6.563   4.119   5.082
10829SOL     OW33385   3.578   2.836   5.446
10829SOL    HW133386   3.596   2.811   5.541
10829SOL    HW233387   3.644   2.905   5.416
10830SOL     OW33388   4.991   2.072   3.126
10830SOL    HW133389   5.040   2.137   3.184
10830SOL    HW233390   4.894   2.096   3.123
10831SOL     OW33391   3.882   0.028   3.640
10831SOL    HW133392   3.901   0.012   3.543
10831SOL    HW233393   3.793   0.073   3.650
10832SOL     OW33394   6.673   2.549   0.135
10832SOL    HW133395   6.741   2.585   0.072
10832SOL    HW233396   6.642   2.459   0.105
10833SOL     OW33397   0.461   0.847   6.553
10833SOL    HW133398   0.542   0.799   6.587
10833SOL    HW233399   0.482   0.894   6.468
10834SOL     OW33400   6.216   6.152   1.189
10834SOL    HW133401   6.257   6.102   1.265
10834SOL    HW233402   6.125   6.183   1.214
10835SOL     OW33403   0.028   2.524   5.390
10835SOL    HW133404   0.069   2.594   5.332
10835SOL    HW233405   0.064   2.434   5.363
10836SOL     OW33406   0.006   1.331   3.581
10836SOL    HW133407   0.011   1.243   3.536
10836SOL    HW233408   6.973   1.394   3.526
10837SOL     OW33409   0.491   3.027   4.137
10837SOL    HW133410   0.498   3.102   4.202
10837SOL    HW233411   0.397   2.994   4.133
10838SOL     OW33412   0.577   5.725   2.499
10838SOL    HW133413   0.616   5.711   2.408
10838SOL    HW233414   0.605   5.815   2.533
10839SOL     OW33415   4.479   2.936   0.567
10839SOL    HW133416   4.470   2.885   0.653
10839SOL    HW233417   4.391   2.934   0.519
10840SOL     OW33418   2.241   0.256   1.880
10840SOL    HW133419   2.185   0.267   1.962
10840SOL    HW233420   2.302   0.177   1.891
10841SOL     OW33421   2.085   5.384   5.082
10841SOL    HW133422   2.034   5.468   5.097
10841SOL    HW233423   2.151   5.371   5.155
10842SOL     OW33424   6.201   4.474   2.039
10842SOL    HW133425   6.215   4.412   2.116
10842SOL    HW233426   6.196   4.421   1.954
10843SOL     OW33427   2.866   1.818   1.571
10843SOL    HW133428   2.921   1.855   1.646
10843SOL    HW233429   2.841   1.892   1.509
10844SOL     OW33430   1.705   5.538   5.256
10844SOL    HW133431   1.685   5.521   5.352
10844SOL    HW233432   1.681   5.632   5.232
10845SOL     OW33433   4.221   0.329   4.596
10845SOL    HW133434   4.210   0.280   4.683
10845SOL    HW233435   4.143   0.311   4.537
10846SOL     OW33436   5.877   0.046   5.849
10846SOL    HW133437   5.905   6.996   5.914
10846SOL    HW233438   5.779   0.063   5.859
10847SOL     OW33439   3.220   0.208   6.845
10847SOL    HW133440   3.142   0.236   6.901
10847SOL    HW233441   3.189   0.148   6.772
10848SOL     OW33442   1.552   3.809   1.858
10848SOL    HW133443   1.485   3.823   1.785
10848SOL    HW233444   1.642   3.794   1.819
10849SOL     OW33445   2.366   6.498   2.857
10849SOL    HW133446   2.425   6.540   2.789
10849SOL    HW233447   2.281   6.468   2.814
10850SOL     OW33448   4.515   4.628   0.790
10850SOL    HW133449   4.498   4.688   0.869
10850SOL    HW233450   4.431   4.617   0.738
10851SOL     OW33451   1.451   4.244   0.527
10851SOL    HW133452   1.526   4.272   0.587
10851SOL    HW233453   1.364   4.273   0.566
10852SOL     OW33454   2.466   2.006   2.664
10852SOL    HW133455   2.512   1.955   2.591
10852SOL    HW233456   2.507   1.985   2.752
10853SOL     OW33457   3.606   1.131   6.138
10853SOL    HW133458   3.586   1.222   6.100
10853SOL    HW233459   3.526   1.072   6.125
10854SOL     OW33460   3.331   6.099   5.793
10854SOL    HW133461   3.267   6.087   5.717
10854SOL    HW233462   3.283   6.084   5.879
10855SOL     OW33463   4.307   1.535   6.902
10855SOL    HW133464   4.209   1.530   6.920
10855SOL    HW233465   4.329   1.619   6.853
10856SOL     OW33466   0.639   1.527   0.485
10856SOL    HW133467   0.705   1.598   0.508
10856SOL    HW233468   0.655   1.495   0.392
10857SOL     OW33469   6.935   2.879   2.252
10857SOL    HW133470   6.982   2.805   2.205
10857SOL    HW233471   6.854   2.844   2.298
10858SOL     OW33472   2.457   6.394   2.321
10858SOL    HW133473   2.556   6.408   2.331
10858SOL    HW233474   2.433   6.399   2.224
10859SOL     OW33475   1.375   5.436   3.389
10859SOL    HW133476   1.429   5.473   3.313
10859SOL    HW233477   1.408   5.475   3.475
10860SOL     OW33478   6.994   3.805   3.276
10860SOL    HW133479   7.019   3.779   3.369
10860SOL    HW233480   6.919   3.747   3.245
10861SOL     OW33481   3.805   3.055   5.844
10861SOL    HW133482   3.804   2.955   5.843
10861SOL    HW233483   3.885   3.088   5.796
10862SOL     OW33484   0.648   0.732   5.455
10862SOL    HW133485   0.675   0.787   5.376
10862SOL    HW233486   0.629   0.638   5.426
10863SOL     OW33487   2.152   6.489   4.290
10863SOL    HW133488   2.226   6.421   4.290
10863SOL    HW233489   2.179   6.568   4.344
10864SOL     OW33490   3.659   6.565   2.931
10864SOL    HW133491   3.613   6.506   2.999
10864SOL    HW233492   3.678   6.512   2.849
10865SOL     OW33493   6.572   1.825   6.104
10865SOL    HW133494   6.523   1.737   6.105
10865SOL    HW233495   6.657   1.816   6.157
10866SOL     OW33496   5.629   4.805   6.552
10866SOL    HW133497   5.676   4.802   6.640
10866SOL    HW233498   5.689   4.848   6.484
10867SOL     OW33499   2.906   1.155   6.515
10867SOL    HW133500   2.874   1.077   6.461
10867SOL    HW233501   2.866   1.150   6.607
10868SOL     OW33502   2.436   2.547   3.251
10868SOL    HW133503   2.379   2.466   3.268
10868SOL    HW233504   2.482   2.574   3.335
10869NA      NA33505   6.324   2.484   5.792
10870NA      NA33506   4.287   4.710   5.161
10871NA      NA33507   2.078   3.637   1.884
10872NA      NA33508   4.817   3.689   5.286
10873NA      NA33509   4.083   2.401   5.306
10874NA      NA33510   3.684   4.746   1.663
10875NA      NA33511   6.693   6.040   4.732
10876NA      NA33512   3.653   3.508   4.962
10877NA      NA33513   4.518   6.500   6.338
10878NA      NA33514   2.551   0.598   5.056
10879NA      NA33515   0.559   4.763   2.456
10880NA      NA33516   2.424   0.565   2.393
10881NA      NA33517   3.364   4.390   1.270
10882NA      NA33518   3.535   3.314   3.023
   7.02171   7.02171   7.02171
