Generated by trjconv : CNT in water t= 118.00000
33518
    1C        C    1   2.842   2.768   4.746
    1C        C    2   2.896   2.717   4.865
    1C        C    3   2.840   2.769   4.982
    1C        C    4   2.852   2.777   4.259
    1C        C    5   2.900   2.727   4.382
    1C        C    6   2.842   2.773   4.502
    1C        C    7   3.010   2.640   4.625
    1C        C    8   2.895   2.723   4.623
    1C        C    9   3.076   2.601   4.743
    1C        C   10   3.007   2.629   4.863
    1C        C   11   3.180   2.491   4.974
    1C        C   12   3.058   2.561   4.974
    1C        C   13   2.851   2.771   3.772
    1C        C   14   2.900   2.720   3.894
    1C        C   15   2.848   2.772   4.015
    1C        C   16   3.017   2.643   4.138
    1C        C   17   2.900   2.723   4.137
    1C        C   18   3.079   2.611   4.260
    1C        C   19   3.017   2.649   4.381
    1C        C   20   3.207   2.560   4.504
    1C        C   21   3.075   2.608   4.503
    1C        C   22   3.279   2.532   4.623
    1C        C   23   3.208   2.547   4.744
    1C        C   24   3.411   2.480   4.863
    1C        C   25   3.268   2.494   4.862
    1C        C   26   3.490   2.480   4.979
    1C        C   27   2.853   2.769   3.282
    1C        C   28   2.908   2.726   3.405
    1C        C   29   2.851   2.769   3.527
    1C        C   30   3.020   2.642   3.649
    1C        C   31   2.904   2.724   3.650
    1C        C   32   3.081   2.606   3.771
    1C        C   33   3.017   2.642   3.892
    1C        C   34   3.208   2.554   4.015
    1C        C   35   3.078   2.607   4.016
    1C        C   36   3.276   2.537   4.138
    1C        C   37   3.210   2.558   4.261
    1C        C   38   3.414   2.505   4.381
    1C        C   39   3.275   2.533   4.383
    1C        C   40   3.486   2.498   4.502
    1C        C   41   3.415   2.497   4.624
    1C        C   42   3.631   2.488   4.744
    1C        C   43   3.489   2.486   4.744
    1C        C   44   3.705   2.487   4.865
    1C        C   45   3.629   2.477   4.981
    1C        C   46   2.838   2.754   2.794
    1C        C   47   2.900   2.716   2.916
    1C        C   48   2.847   2.763   3.037
    1C        C   49   3.017   2.637   3.161
    1C        C   50   2.902   2.719   3.160
    1C        C   51   3.079   2.600   3.282
    1C        C   52   3.021   2.641   3.405
    1C        C   53   3.208   2.542   3.526
    1C        C   54   3.080   2.604   3.527
    1C        C   55   3.275   2.522   3.649
    1C        C   56   3.210   2.550   3.771
    1C        C   57   3.417   2.505   3.895
    1C        C   58   3.279   2.534   3.894
    1C        C   59   3.487   2.501   4.017
    1C        C   60   3.415   2.508   4.138
    1C        C   61   3.628   2.507   4.258
    1C        C   62   3.487   2.502   4.260
    1C        C   63   3.698   2.509   4.380
    1C        C   64   3.627   2.499   4.502
    1C        C   65   3.837   2.543   4.623
    1C        C   66   3.701   2.504   4.623
    1C        C   67   3.907   2.565   4.743
    1C        C   68   3.841   2.526   4.862
    1C        C   69   4.051   2.585   4.978
    1C        C   70   3.920   2.534   4.977
    1C        C   71   2.820   2.731   2.309
    1C        C   72   2.883   2.691   2.429
    1C        C   73   2.829   2.738   2.551
    1C        C   74   3.005   2.623   2.671
    1C        C   75   2.885   2.697   2.674
    1C        C   76   3.071   2.595   2.793
    1C        C   77   3.015   2.634   2.917
    1C        C   78   3.206   2.541   3.038
    1C        C   79   3.077   2.599   3.039
    1C        C   80   3.276   2.524   3.159
    1C        C   81   3.208   2.543   3.282
    1C        C   82   3.413   2.493   3.400
    1C        C   83   3.274   2.516   3.404
    1C        C   84   3.482   2.489   3.524
    1C        C   85   3.414   2.496   3.648
    1C        C   86   3.624   2.502   3.767
    1C        C   87   3.483   2.494   3.771
    1C        C   88   3.694   2.509   3.890
    1C        C   89   3.628   2.504   4.014
    1C        C   90   3.836   2.546   4.134
    1C        C   91   3.700   2.508   4.136
    1C        C   92   3.900   2.572   4.257
    1C        C   93   3.836   2.542   4.379
    1C        C   94   4.028   2.631   4.499
    1C        C   95   3.903   2.566   4.500
    1C        C   96   4.090   2.673   4.619
    1C        C   97   4.034   2.628   4.740
    1C        C   98   4.189   2.768   4.863
    1C        C   99   4.098   2.657   4.864
    1C        C  100   4.211   2.847   4.976
    1C        C  101   2.818   2.725   2.072
    1C        C  102   2.991   2.592   2.190
    1C        C  103   2.875   2.676   2.190
    1C        C  104   3.066   2.579   2.309
    1C        C  105   3.002   2.615   2.430
    1C        C  106   3.201   2.536   2.552
    1C        C  107   3.070   2.587   2.551
    1C        C  108   3.270   2.514   2.674
    1C        C  109   3.201   2.539   2.794
    1C        C  110   3.411   2.499   2.910
    1C        C  111   3.271   2.517   2.915
    1C        C  112   3.483   2.494   3.032
    1C        C  113   3.415   2.498   3.156
    1C        C  114   3.626   2.494   3.278
    1C        C  115   3.484   2.491   3.278
    1C        C  116   3.694   2.509   3.401
    1C        C  117   3.623   2.499   3.523
    1C        C  118   3.832   2.538   3.646
    1C        C  119   3.694   2.508   3.644
    1C        C  120   3.899   2.565   3.767
    1C        C  121   3.832   2.543   3.889
    1C        C  122   4.024   2.635   4.014
    1C        C  123   3.900   2.569   4.010
    1C        C  124   4.087   2.673   4.135
    1C        C  125   4.026   2.637   4.257
    1C        C  126   4.194   2.769   4.377
    1C        C  127   4.087   2.677   4.378
    1C        C  128   4.241   2.823   4.499
    1C        C  129   4.194   2.769   4.621
    1C        C  130   4.326   2.937   4.739
    1C        C  131   4.243   2.821   4.742
    1C        C  132   4.357   3.003   4.860
    1C        C  133   4.284   2.965   4.974
    1C        C  134   3.170   2.464   2.082
    1C        C  135   3.037   2.507   2.084
    1C        C  136   3.257   2.474   2.192
    1C        C  137   3.195   2.520   2.310
    1C        C  138   3.405   2.479   2.427
    1C        C  139   3.266   2.504   2.431
    1C        C  140   3.480   2.478   2.547
    1C        C  141   3.409   2.490   2.669
    1C        C  142   3.624   2.490   2.789
    1C        C  143   3.483   2.485   2.789
    1C        C  144   3.696   2.500   2.910
    1C        C  145   3.624   2.497   3.032
    1C        C  146   3.831   2.536   3.154
    1C        C  147   3.694   2.500   3.155
    1C        C  148   3.897   2.562   3.275
    1C        C  149   3.831   2.541   3.399
    1C        C  150   4.023   2.623   3.524
    1C        C  151   3.897   2.559   3.522
    1C        C  152   4.079   2.670   3.645
    1C        C  153   4.022   2.635   3.770
    1C        C  154   4.188   2.768   3.887
    1C        C  155   4.082   2.675   3.891
    1C        C  156   4.243   2.816   4.008
    1C        C  157   4.197   2.762   4.131
    1C        C  158   4.334   2.923   4.253
    1C        C  159   4.242   2.816   4.253
    1C        C  160   4.372   2.989   4.372
    1C        C  161   4.326   2.935   4.495
    1C        C  162   4.436   3.117   4.615
    1C        C  163   4.366   2.994   4.617
    1C        C  164   4.467   3.184   4.735
    1C        C  165   4.432   3.122   4.857
    1C        C  166   4.512   3.320   4.974
    1C        C  167   4.477   3.186   4.974
    1C        C  168   3.476   2.431   2.073
    1C        C  169   3.397   2.453   2.187
    1C        C  170   3.616   2.466   2.306
    1C        C  171   3.474   2.462   2.305
    1C        C  172   3.691   2.489   2.424
    1C        C  173   3.621   2.484   2.546
    1C        C  174   3.830   2.532   2.664
    1C        C  175   3.693   2.498   2.666
    1C        C  176   3.899   2.555   2.786
    1C        C  177   3.834   2.528   2.909
    1C        C  178   4.023   2.622   3.033
    1C        C  179   3.899   2.556   3.031
    1C        C  180   4.086   2.657   3.155
    1C        C  181   4.024   2.624   3.277
    1C        C  182   4.190   2.751   3.399
    1C        C  183   4.083   2.658   3.401
    1C        C  184   4.240   2.806   3.519
    1C        C  185   4.188   2.760   3.642
    1C        C  186   4.332   2.918   3.763
    1C        C  187   4.239   2.811   3.763
    1C        C  188   4.372   2.980   3.884
    1C        C  189   4.333   2.924   4.008
    1C        C  190   4.442   3.105   4.125
    1C        C  191   4.375   2.981   4.130
    1C        C  192   4.470   3.173   4.246
    1C        C  193   4.441   3.112   4.370
    1C        C  194   4.503   3.316   4.491
    1C        C  195   4.466   3.180   4.492
    1C        C  196   4.525   3.386   4.612
    1C        C  197   4.509   3.320   4.735
    1C        C  198   4.552   3.534   4.849
    1C        C  199   4.525   3.394   4.856
    1C        C  200   4.584   3.620   4.959
    1C        C  201   3.615   2.413   2.071
    1C        C  202   3.821   2.513   2.182
    1C        C  203   3.689   2.458   2.185
    1C        C  204   3.896   2.543   2.300
    1C        C  205   3.828   2.524   2.422
    1C        C  206   4.024   2.616   2.541
    1C        C  207   3.897   2.553   2.542
    1C        C  208   4.082   2.658   2.663
    1C        C  209   4.021   2.626   2.787
    1C        C  210   4.191   2.750   2.908
    1C        C  211   4.079   2.663   2.910
    1C        C  212   4.242   2.798   3.031
    1C        C  213   4.196   2.747   3.154
    1C        C  214   4.327   2.912   3.272
    1C        C  215   4.240   2.800   3.276
    1C        C  216   4.364   2.974   3.394
    1C        C  217   4.326   2.918   3.518
    1C        C  218   4.432   3.101   3.637
    1C        C  219   4.371   2.974   3.640
    1C        C  220   4.461   3.170   3.757
    1C        C  221   4.435   3.106   3.881
    1C        C  222   4.508   3.305   4.003
    1C        C  223   4.470   3.169   4.002
    1C        C  224   4.522   3.380   4.122
    1C        C  225   4.505   3.310   4.244
    1C        C  226   4.528   3.522   4.363
    1C        C  227   4.515   3.381   4.366
    1C        C  228   4.527   3.595   4.483
    1C        C  229   4.537   3.527   4.606
    1C        C  230   4.507   3.742   4.725
    1C        C  231   4.537   3.603   4.725
    1C        C  232   4.497   3.820   4.842
    1C        C  233   4.542   3.753   4.956
    1C        C  234   4.016   2.608   2.062
    1C        C  235   3.890   2.549   2.066
    1C        C  236   4.083   2.647   2.179
    1C        C  237   4.021   2.611   2.300
    1C        C  238   4.201   2.734   2.417
    1C        C  239   4.086   2.650   2.419
    1C        C  240   4.251   2.786   2.538
    1C        C  241   4.194   2.743   2.660
    1C        C  242   4.330   2.903   2.782
    1C        C  243   4.241   2.794   2.784
    1C        C  244   4.369   2.964   2.903
    1C        C  245   4.332   2.907   3.027
    1C        C  246   4.430   3.095   3.149
    1C        C  247   4.369   2.967   3.150
    1C        C  248   4.455   3.163   3.270
    1C        C  249   4.427   3.101   3.394
    1C        C  250   4.499   3.303   3.513
    1C        C  251   4.456   3.168   3.515
    1C        C  252   4.507   3.374   3.635
    1C        C  253   4.498   3.306   3.759
    1C        C  254   4.524   3.517   3.876
    1C        C  255   4.514   3.376   3.881
    1C        C  256   4.528   3.590   3.997
    1C        C  257   4.526   3.521   4.120
    1C        C  258   4.501   3.733   4.241
    1C        C  259   4.522   3.594   4.241
    1C        C  260   4.472   3.802   4.361
    1C        C  261   4.495   3.733   4.482
    1C        C  262   4.420   3.935   4.603
    1C        C  263   4.478   3.805   4.602
    1C        C  264   4.393   4.007   4.721
    1C        C  265   4.433   3.945   4.842
    1C        C  266   4.318   4.129   4.956
    1C        C  267   4.391   4.011   4.959
    1C        C  268   4.260   2.777   2.060
    1C        C  269   4.196   2.732   2.176
    1C        C  270   4.341   2.895   2.298
    1C        C  271   4.254   2.782   2.295
    1C        C  272   4.377   2.957   2.420
    1C        C  273   4.342   2.894   2.541
    1C        C  274   4.441   3.086   2.661
    1C        C  275   4.378   2.959   2.661
    1C        C  276   4.471   3.152   2.782
    1C        C  277   4.441   3.085   2.903
    1C        C  278   4.501   3.290   3.024
    1C        C  279   4.462   3.154   3.025
    1C        C  280   4.511   3.364   3.143
    1C        C  281   4.493   3.299   3.267
    1C        C  282   4.524   3.509   3.387
    1C        C  283   4.513   3.368   3.389
    1C        C  284   4.517   3.581   3.508
    1C        C  285   4.517   3.514   3.632
    1C        C  286   4.494   3.727   3.753
    1C        C  287   4.518   3.587   3.753
    1C        C  288   4.476   3.793   3.876
    1C        C  289   4.503   3.729   3.998
    1C        C  290   4.430   3.931   4.114
    1C        C  291   4.486   3.802   4.118
    1C        C  292   4.397   3.998   4.235
    1C        C  293   4.422   3.934   4.358
    1C        C  294   4.327   4.124   4.478
    1C        C  295   4.392   3.999   4.480
    1C        C  296   4.281   4.186   4.596
    1C        C  297   4.320   4.129   4.719
    1C        C  298   4.197   4.311   4.839
    1C        C  299   4.280   4.195   4.838
    1C        C  300   4.168   4.401   4.947
    1C        C  301   4.349   2.883   2.061
    1C        C  302   4.464   3.072   2.172
    1C        C  303   4.391   2.949   2.177
    1C        C  304   4.484   3.142   2.294
    1C        C  305   4.449   3.079   2.415
    1C        C  306   4.502   3.285   2.536
    1C        C  307   4.471   3.147   2.537
    1C        C  308   4.518   3.356   2.657
    1C        C  309   4.506   3.289   2.781
    1C        C  310   4.524   3.501   2.899
    1C        C  311   4.516   3.360   2.902
    1C        C  312   4.523   3.573   3.020
    1C        C  313   4.523   3.505   3.144
    1C        C  314   4.494   3.718   3.262
    1C        C  315   4.521   3.579   3.264
    1C        C  316   4.478   3.790   3.383
    1C        C  317   4.497   3.721   3.505
    1C        C  318   4.427   3.920   3.628
    1C        C  319   4.481   3.790   3.627
    1C        C  320   4.396   3.987   3.749
    1C        C  321   4.427   3.926   3.872
    1C        C  322   4.314   4.108   3.988
    1C        C  323   4.394   3.992   3.992
    1C        C  324   4.274   4.166   4.111
    1C        C  325   4.322   4.118   4.235
    1C        C  326   4.185   4.282   4.353
    1C        C  327   4.281   4.178   4.356
    1C        C  328   4.132   4.335   4.472
    1C        C  329   4.182   4.287   4.596
    1C        C  330   4.023   4.432   4.710
    1C        C  331   4.133   4.342   4.716
    1C        C  332   3.969   4.491   4.826
    1C        C  333   4.050   4.476   4.940
    1C        C  334   4.562   3.266   2.061
    1C        C  335   4.532   3.129   2.059
    1C        C  336   4.540   3.349   2.171
    1C        C  337   4.516   3.280   2.292
    1C        C  338   4.530   3.494   2.411
    1C        C  339   4.520   3.353   2.413
    1C        C  340   4.524   3.568   2.532
    1C        C  341   4.527   3.497   2.654
    1C        C  342   4.498   3.708   2.774
    1C        C  343   4.523   3.569   2.775
    1C        C  344   4.478   3.779   2.894
    1C        C  345   4.493   3.711   3.018
    1C        C  346   4.425   3.915   3.136
    1C        C  347   4.474   3.782   3.138
    1C        C  348   4.394   3.981   3.257
    1C        C  349   4.429   3.922   3.381
    1C        C  350   4.315   4.097   3.499
    1C        C  351   4.396   3.981   3.505
    1C        C  352   4.272   4.157   3.619
    1C        C  353   4.313   4.102   3.742
    1C        C  354   4.171   4.260   3.866
    1C        C  355   4.267   4.157   3.863
    1C        C  356   4.119   4.311   3.987
    1C        C  357   4.172   4.263   4.109
    1C        C  358   4.009   4.398   4.228
    1C        C  359   4.126   4.318   4.230
    1C        C  360   3.948   4.442   4.348
    1C        C  361   4.017   4.417   4.468
    1C        C  362   3.825   4.511   4.592
    1C        C  363   3.955   4.455   4.589
    1C        C  364   3.758   4.548   4.710
    1C        C  365   3.837   4.540   4.828
    1C        C  366   3.630   4.590   4.947
    1C        C  367   3.768   4.574   4.945
    1C        C  368   4.511   3.565   2.054
    1C        C  369   4.524   3.490   2.172
    1C        C  370   4.504   3.706   2.287
    1C        C  371   4.522   3.566   2.291
    1C        C  372   4.486   3.777   2.408
    1C        C  373   4.504   3.707   2.530
    1C        C  374   4.423   3.905   2.647
    1C        C  375   4.481   3.776   2.651
    1C        C  376   4.392   3.973   2.768
    1C        C  377   4.426   3.910   2.890
    1C        C  378   4.319   4.093   3.008
    1C        C  379   4.396   3.975   3.012
    1C        C  380   4.274   4.152   3.129
    1C        C  381   4.311   4.095   3.252
    1C        C  382   4.171   4.251   3.373
    1C        C  383   4.267   4.148   3.376
    1C        C  384   4.118   4.300   3.495
    1C        C  385   4.176   4.261   3.618
    1C        C  386   4.002   4.380   3.740
    1C        C  387   4.122   4.305   3.741
    1C        C  388   3.945   4.427   3.860
    1C        C  389   4.002   4.391   3.984
    1C        C  390   3.815   4.485   4.104
    1C        C  391   3.944   4.429   4.107
    1C        C  392   3.750   4.511   4.227
    1C        C  393   3.819   4.500   4.350
    1C        C  394   3.612   4.546   4.472
    1C        C  395   3.751   4.522   4.472
    1C        C  396   3.543   4.564   4.594
    1C        C  397   3.618   4.565   4.713
    1C        C  398   3.407   4.561   4.839
    1C        C  399   3.547   4.575   4.835
    1C        C  400   3.343   4.522   4.958
    1C        C  401   4.498   3.703   2.049
    1C        C  402   4.455   3.915   2.167
    1C        C  403   4.489   3.778   2.167
    1C        C  404   4.408   3.976   2.286
    1C        C  405   4.432   3.907   2.407
    1C        C  406   4.324   4.095   2.522
    1C        C  407   4.396   3.973   2.526
    1C        C  408   4.280   4.151   2.644
    1C        C  409   4.317   4.092   2.767
    1C        C  410   4.171   4.249   2.884
    1C        C  411   4.270   4.148   2.887
    1C        C  412   4.120   4.293   3.008
    1C        C  413   4.173   4.250   3.132
    1C        C  414   3.994   4.370   3.251
    1C        C  415   4.113   4.294   3.252
    1C        C  416   3.934   4.406   3.373
    1C        C  417   3.998   4.374   3.495
    1C        C  418   3.809   4.469   3.618
    1C        C  419   3.938   4.410   3.617
    1C        C  420   3.743   4.497   3.739
    1C        C  421   3.813   4.477   3.861
    1C        C  422   3.608   4.530   3.982
    1C        C  423   3.747   4.506   3.982
    1C        C  424   3.540   4.542   4.106
    1C        C  425   3.611   4.538   4.228
    1C        C  426   3.401   4.544   4.355
    1C        C  427   3.542   4.551   4.350
    1C        C  428   3.329   4.542   4.477
    1C        C  429   3.402   4.556   4.597
    1C        C  430   3.193   4.519   4.722
    1C        C  431   3.332   4.550   4.720
    1C        C  432   3.125   4.494   4.845
    1C        C  433   3.207   4.494   4.959
    1C        C  434   4.384   4.120   2.051
    1C        C  435   4.447   3.995   2.052
    1C        C  436   4.307   4.166   2.163
    1C        C  437   4.336   4.098   2.284
    1C        C  438   4.177   4.249   2.400
    1C        C  439   4.285   4.157   2.402
    1C        C  440   4.124   4.296   2.522
    1C        C  441   4.178   4.249   2.644
    1C        C  442   4.002   4.376   2.763
    1C        C  443   4.120   4.299   2.762
    1C        C  444   3.939   4.406   2.886
    1C        C  445   4.001   4.370   3.008
    1C        C  446   3.808   4.466   3.127
    1C        C  447   3.938   4.410   3.127
    1C        C  448   3.741   4.486   3.250
    1C        C  449   3.805   4.465   3.374
    1C        C  450   3.605   4.528   3.497
    1C        C  451   3.743   4.496   3.496
    1C        C  452   3.536   4.543   3.619
    1C        C  453   3.607   4.535   3.742
    1C        C  454   3.393   4.550   3.865
    1C        C  455   3.534   4.545   3.862
    1C        C  456   3.326   4.542   3.989
    1C        C  457   3.399   4.545   4.111
    1C        C  458   3.192   4.505   4.239
    1C        C  459   3.330   4.535   4.233
    1C        C  460   3.122   4.490   4.361
    1C        C  461   3.191   4.513   4.482
    1C        C  462   2.994   4.432   4.602
    1C        C  463   3.122   4.492   4.604
    1C        C  464   2.934   4.396   4.725
    1C        C  465   2.993   4.440   4.847
    1C        C  466   2.800   4.334   4.962
    1C        C  467   2.906   4.425   4.960
    1C        C  468   4.125   4.282   2.039
    1C        C  469   4.192   4.251   2.158
    1C        C  470   4.004   4.366   2.278
    1C        C  471   4.127   4.294   2.276
    1C        C  472   3.938   4.400   2.398
    1C        C  473   4.004   4.370   2.519
    1C        C  474   3.809   4.461   2.641
    1C        C  475   3.940   4.407   2.640
    1C        C  476   3.742   4.486   2.763
    1C        C  477   3.810   4.464   2.884
    1C        C  478   3.603   4.520   3.005
    1C        C  479   3.741   4.489   3.005
    1C        C  480   3.535   4.531   3.128
    1C        C  481   3.604   4.521   3.252
    1C        C  482   3.393   4.534   3.375
    1C        C  483   3.535   4.531   3.374
    1C        C  484   3.324   4.534   3.498
    1C        C  485   3.395   4.548   3.619
    1C        C  486   3.189   4.505   3.746
    1C        C  487   3.325   4.542   3.742
    1C        C  488   3.124   4.477   3.869
    1C        C  489   3.190   4.505   3.991
    1C        C  490   3.003   4.416   4.116
    1C        C  491   3.127   4.483   4.115
    1C        C  492   2.943   4.378   4.238
    1C        C  493   2.998   4.422   4.361
    1C        C  494   2.824   4.299   4.484
    1C        C  495   2.936   4.386   4.482
    1C        C  496   2.771   4.255   4.607
    1C        C  497   2.822   4.308   4.728
    1C        C  498   2.662   4.163   4.848
    1C        C  499   2.755   4.269   4.846
    1C        C  500   2.587   4.119   4.958
    1C        C  501   4.005   4.353   2.040
    1C        C  502   3.813   4.457   2.155
    1C        C  503   3.942   4.401   2.156
    1C        C  504   3.743   4.481   2.275
    1C        C  505   3.809   4.458   2.398
    1C        C  506   3.603   4.514   2.517
    1C        C  507   3.741   4.482   2.519
    1C        C  508   3.533   4.525   2.639
    1C        C  509   3.604   4.515   2.761
    1C        C  510   3.392   4.531   2.885
    1C        C  511   3.533   4.530   2.883
    1C        C  512   3.322   4.525   3.007
    1C        C  513   3.394   4.535   3.128
    1C        C  514   3.188   4.498   3.256
    1C        C  515   3.324   4.535   3.252
    1C        C  516   3.120   4.476   3.378
    1C        C  517   3.186   4.502   3.500
    1C        C  518   2.998   4.414   3.625
    1C        C  519   3.123   4.480   3.624
    1C        C  520   2.940   4.376   3.748
    1C        C  521   2.999   4.412   3.871
    1C        C  522   2.838   4.280   3.995
    1C        C  523   2.941   4.377   3.995
    1C        C  524   2.791   4.231   4.119
    1C        C  525   2.835   4.286   4.241
    1C        C  526   2.698   4.127   4.365
    1C        C  527   2.780   4.242   4.363
    1C        C  528   2.656   4.073   4.488
    1C        C  529   2.687   4.141   4.607
    1C        C  530   2.583   3.959   4.730
    1C        C  531   2.636   4.091   4.729
    1C        C  532   2.542   3.902   4.854
    1C        C  533   2.527   3.993   4.963
    1C        C  534   3.619   4.553   2.037
    1C        C  535   3.751   4.508   2.039
    1C        C  536   3.537   4.533   2.153
    1C        C  537   3.603   4.509   2.276
    1C        C  538   3.389   4.526   2.399
    1C        C  539   3.531   4.523   2.396
    1C        C  540   3.318   4.516   2.520
    1C        C  541   3.392   4.523   2.640
    1C        C  542   3.185   4.481   2.766
    1C        C  543   3.322   4.515   2.763
    1C        C  544   3.119   4.461   2.890
    1C        C  545   3.185   4.493   3.011
    1C        C  546   2.997   4.402   3.133
    1C        C  547   3.121   4.471   3.135
    1C        C  548   2.941   4.364   3.257
    1C        C  549   2.997   4.406   3.380
    1C        C  550   2.833   4.277   3.508
    1C        C  551   2.938   4.372   3.504
    1C        C  552   2.784   4.227   3.631
    1C        C  553   2.835   4.281   3.751
    1C        C  554   2.698   4.120   3.875
    1C        C  555   2.789   4.228   3.873
    1C        C  556   2.660   4.062   3.998
    1C        C  557   2.701   4.122   4.120
    1C        C  558   2.594   3.941   4.243
    1C        C  559   2.661   4.065   4.243
    1C        C  560   2.565   3.879   4.367
    1C        C  561   2.589   3.948   4.488
    1C        C  562   2.531   3.748   4.615
    1C        C  563   2.568   3.884   4.612
    1C        C  564   2.513   3.680   4.738
    1C        C  565   2.519   3.760   4.855
    1C        C  566   2.529   3.545   4.976
    1C        C  567   2.524   3.684   4.973
    1C        C  568   3.326   4.471   2.041
    1C        C  569   3.396   4.510   2.156
    1C        C  570   3.184   4.475   2.278
    1C        C  571   3.321   4.512   2.276
    1C        C  572   3.115   4.459   2.400
    1C        C  573   3.179   4.490   2.522
    1C        C  574   2.988   4.402   2.644
    1C        C  575   3.115   4.464   2.645
    1C        C  576   2.929   4.363   2.767
    1C        C  577   2.992   4.399   2.888
    1C        C  578   2.830   4.269   3.017
    1C        C  579   2.936   4.361   3.012
    1C        C  580   2.781   4.222   3.142
    1C        C  581   2.834   4.272   3.262
    1C        C  582   2.704   4.108   3.384
    1C        C  583   2.789   4.221   3.386
    1C        C  584   2.664   4.052   3.507
    1C        C  585   2.701   4.113   3.629
    1C        C  586   2.598   3.932   3.754
    1C        C  587   2.662   4.058   3.753
    1C        C  588   2.570   3.869   3.877
    1C        C  589   2.599   3.935   3.999
    1C        C  590   2.540   3.734   4.127
    1C        C  591   2.569   3.872   4.122
    1C        C  592   2.526   3.668   4.252
    1C        C  593   2.531   3.742   4.372
    1C        C  594   2.511   3.534   4.497
    1C        C  595   2.517   3.675   4.495
    1C        C  596   2.514   3.463   4.620
    1C        C  597   2.511   3.538   4.739
    1C        C  598   2.530   3.326   4.863
    1C        C  599   2.523   3.467   4.861
    1C        C  600   2.536   3.250   4.981
    1C        C  601   3.193   4.436   2.044
    1C        C  602   2.980   4.392   2.157
    1C        C  603   3.112   4.449   2.158
    1C        C  604   2.926   4.353   2.283
    1C        C  605   2.990   4.393   2.402
    1C        C  606   2.821   4.270   2.529
    1C        C  607   2.923   4.367   2.524
    1C        C  608   2.771   4.219   2.651
    1C        C  609   2.822   4.271   2.772
    1C        C  610   2.689   4.110   2.895
    1C        C  611   2.778   4.219   2.896
    1C        C  612   2.650   4.052   3.018
    1C        C  613   2.694   4.111   3.139
    1C        C  614   2.588   3.931   3.264
    1C        C  615   2.655   4.055   3.263
    1C        C  616   2.566   3.864   3.387
    1C        C  617   2.599   3.926   3.509
    1C        C  618   2.527   3.730   3.637
    1C        C  619   2.570   3.864   3.633
    1C        C  620   2.512   3.662   3.760
    1C        C  621   2.530   3.734   3.881
    1C        C  622   2.511   3.526   4.012
    1C        C  623   2.526   3.666   4.004
    1C        C  624   2.514   3.453   4.133
    1C        C  625   2.510   3.528   4.253
    1C        C  626   2.529   3.320   4.378
    1C        C  627   2.513   3.460   4.377
    1C        C  628   2.548   3.250   4.500
    1C        C  629   2.537   3.323   4.620
    1C        C  630   2.595   3.121   4.746
    1C        C  631   2.547   3.254   4.742
    1C        C  632   2.618   3.050   4.868
    1C        C  633   2.560   3.112   4.983
    1C        C  634   2.783   4.299   2.052
    1C        C  635   2.892   4.387   2.045
    1C        C  636   2.749   4.226   2.166
    1C        C  637   2.813   4.267   2.285
    1C        C  638   2.680   4.106   2.409
    1C        C  639   2.765   4.219   2.409
    1C        C  640   2.644   4.045   2.531
    1C        C  641   2.685   4.107   2.652
    1C        C  642   2.589   3.919   2.777
    1C        C  643   2.649   4.047   2.775
    1C        C  644   2.562   3.857   2.901
    1C        C  645   2.590   3.924   3.022
    1C        C  646   2.524   3.724   3.148
    1C        C  647   2.564   3.859   3.145
    1C        C  648   2.512   3.656   3.272
    1C        C  649   2.528   3.728   3.392
    1C        C  650   2.519   3.518   3.520
    1C        C  651   2.517   3.659   3.515
    1C        C  652   2.517   3.450   3.644
    1C        C  653   2.508   3.521   3.766
    1C        C  654   2.534   3.314   3.888
    1C        C  655   2.515   3.454   3.890
    1C        C  656   2.554   3.245   4.010
    1C        C  657   2.538   3.314   4.132
    1C        C  658   2.600   3.117   4.258
    1C        C  659   2.553   3.250   4.258
    1C        C  660   2.630   3.054   4.381
    1C        C  661   2.599   3.118   4.503
    1C        C  662   2.703   2.935   4.627
    1C        C  663   2.627   3.054   4.626
    1C        C  664   2.750   2.877   4.747
    1C        C  665   2.701   2.934   4.868
    1C        C  666   2.739   2.865   4.983
    1C        C  667   2.678   4.020   2.049
    1C        C  668   2.686   4.099   2.164
    1C        C  669   2.594   3.912   2.291
    1C        C  670   2.644   4.044   2.287
    1C        C  671   2.561   3.848   2.412
    1C        C  672   2.582   3.918   2.533
    1C        C  673   2.516   3.718   2.659
    1C        C  674   2.561   3.852   2.656
    1C        C  675   2.509   3.649   2.782
    1C        C  676   2.525   3.721   2.902
    1C        C  677   2.504   3.512   3.029
    1C        C  678   2.513   3.653   3.026
    1C        C  679   2.508   3.442   3.151
    1C        C  680   2.505   3.515   3.272
    1C        C  681   2.540   3.310   3.400
    1C        C  682   2.518   3.449   3.397
    1C        C  683   2.556   3.240   3.522
    1C        C  684   2.536   3.310   3.643
    1C        C  685   2.605   3.113   3.768
    1C        C  686   2.553   3.244   3.767
    1C        C  687   2.637   3.049   3.890
    1C        C  688   2.607   3.114   4.012
    1C        C  689   2.711   2.935   4.139
    1C        C  690   2.633   3.053   4.137
    1C        C  691   2.756   2.881   4.261
    1C        C  692   2.711   2.938   4.383
    1C        C  693   2.748   2.878   4.505
    1C        C  694   2.619   3.893   2.056
    1C        C  695   2.518   3.704   2.175
    1C        C  696   2.578   3.832   2.175
    1C        C  697   2.508   3.637   2.299
    1C        C  698   2.525   3.711   2.417
    1C        C  699   2.489   3.504   2.542
    1C        C  700   2.500   3.645   2.540
    1C        C  701   2.502   3.435   2.665
    1C        C  702   2.502   3.508   2.786
    1C        C  703   2.529   3.299   2.909
    1C        C  704   2.501   3.438   2.909
    1C        C  705   2.547   3.232   3.032
    1C        C  706   2.532   3.303   3.153
    1C        C  707   2.597   3.105   3.278
    1C        C  708   2.552   3.240   3.278
    1C        C  709   2.631   3.043   3.400
    1C        C  710   2.604   3.107   3.523
    1C        C  711   2.715   2.930   3.648
    1C        C  712   2.635   3.047   3.647
    1C        C  713   2.752   2.872   3.771
    1C        C  714   2.713   2.931   3.894
    1C        C  715   2.751   2.874   4.018
    1C        C  716   2.451   3.499   2.063
    1C        C  717   2.498   3.630   2.058
    1C        C  718   2.462   3.420   2.183
    1C        C  719   2.479   3.498   2.301
    1C        C  720   2.513   3.289   2.423
    1C        C  721   2.487   3.428   2.423
    1C        C  722   2.541   3.222   2.545
    1C        C  723   2.529   3.297   2.664
    1C        C  724   2.596   3.098   2.788
    1C        C  725   2.544   3.229   2.788
    1C        C  726   2.625   3.035   2.911
    1C        C  727   2.594   3.098   3.034
    1C        C  728   2.704   2.920   3.158
    1C        C  729   2.626   3.038   3.157
    1C        C  730   2.753   2.869   3.280
    1C        C  731   2.710   2.926   3.402
    1C        C  732   2.756   2.874   3.525
    1C        C  733   2.485   3.195   2.071
    1C        C  734   2.491   3.280   2.182
    1C        C  735   2.586   3.087   2.304
    1C        C  736   2.526   3.215   2.304
    1C        C  737   2.615   3.019   2.425
    1C        C  738   2.586   3.089   2.545
    1C        C  739   2.695   2.907   2.668
    1C        C  740   2.621   3.028   2.667
    1C        C  741   2.741   2.856   2.791
    1C        C  742   2.702   2.917   2.912
    1C        C  743   2.749   2.866   3.035
    1C        C  744   2.540   3.068   2.071
    1C        C  745   2.684   2.899   2.186
    1C        C  746   2.604   3.015   2.184
    1C        C  747   2.726   2.838   2.306
    1C        C  748   2.683   2.896   2.428
    1C        C  749   2.738   2.846   2.548
    1C        C  750   2.738   2.839   2.071
    1C        C  751   3.668   2.309   1.979
    1C        O  752   3.704   2.197   2.023
    1C        O  753   3.690   2.342   1.845
    1C        C  754   4.625   3.041   1.984
    1C        O  755   4.611   3.027   1.860
    1C        O  756   4.755   3.012   2.027
    1C        C  757   4.434   4.216   1.950
    1C        O  758   4.499   4.320   1.980
    1C        O  759   4.459   4.173   1.820
    1C        C  760   3.596   4.656   1.933
    1C        O  761   3.598   4.778   1.965
    1C        O  762   3.557   4.621   1.803
    1C        C  763   2.891   4.472   1.924
    1C        O  764   2.932   4.421   1.816
    1C        O  765   2.787   4.562   1.898
    1C        C  766   2.337   3.474   1.972
    1C        O  767   2.361   3.401   1.872
    1C        O  768   2.235   3.569   1.955
    1C        C  769   4.705   3.609   5.045
    1C        O  770   4.685   3.577   5.165
    1C        O  771   4.835   3.635   5.001
    1C        C  772   4.270   4.462   5.035
    1C        O  773   4.320   4.401   5.133
    1C        O  774   4.375   4.520   4.963
    1C        C  775   4.143   2.517   5.071
    1C        O  776   4.212   2.415   5.042
    1C        O  777   4.166   2.556   5.204
    1C        C  778   2.893   4.525   5.068
    1C        O  779   2.807   4.617   5.069
    1C        O  780   2.962   4.508   5.189
    1C        C  781   2.457   3.044   5.065
    1C        O  782   2.343   3.007   5.027
    1C        O  783   2.487   2.985   5.188
    1C        C  784   2.443   3.970   5.083
    1C        O  785   2.336   3.906   5.063
    1C        O  786   2.497   3.934   5.207
    1C        C  787   2.944   2.417   2.013
    1C        O  788   2.903   2.455   1.900
    1C        O  789   2.912   2.291   2.062
    1C        C  790   3.180   2.367   5.055
    1C        O  791   3.153   2.255   5.003
    1C        O  792   3.229   2.364   5.186
    1C        H  793   4.239   3.042   5.034
    1C        H  794   4.170   2.819   5.071
    1C        H  795   4.516   3.125   5.053
    1C        H  796   4.522   3.369   5.068
    1C        H  797   4.551   3.810   5.047
    1C        H  798   4.401   3.965   5.055
    1C        H  799   4.283   4.170   5.049
    1C        H  800   4.024   4.526   5.030
    1C        H  801   3.825   4.633   5.015
    1C        H  802   3.586   4.626   5.038
    1C        H  803   3.400   4.459   5.022
    1C        H  804   3.161   4.469   5.052
    1C        H  805   3.894   2.478   5.064
    1C        H  806   3.677   2.491   5.076
    1C        H  807   3.017   2.583   5.070
    1C        H  808   3.444   2.490   5.075
    1C        H  809   2.836   2.708   5.070
    1C        H  810   2.659   2.847   5.052
    1C        H  811   2.554   3.299   5.074
    1C        H  812   2.544   3.504   5.074
    1C        H  813   2.554   3.737   5.060
    1C        H  814   2.572   4.189   5.038
    1C        H  815   2.746   4.320   5.053
    1C        H  816   2.682   2.841   1.979
    1C        H  817   2.802   2.657   1.991
    1C        H  818   3.216   2.456   1.986
    1C        H  819   3.435   2.433   1.974
    1C        H  820   3.864   2.495   1.977
    1C        H  821   4.035   2.658   1.970
    1C        H  822   4.292   2.697   1.995
    1C        H  823   4.413   2.891   1.975
    1C        H  824   4.623   3.301   1.980
    1C        H  825   4.503   3.509   1.963
    1C        H  826   4.560   3.751   1.976
    1C        H  827   3.804   4.511   1.946
    1C        H  828   3.948   4.339   1.951
    1C        H  829   4.183   4.304   1.951
    1C        H  830   4.507   3.971   1.966
    1C        H  831   2.608   3.833   1.968
    1C        H  832   2.713   4.051   1.953
    1C        H  833   2.715   4.291   1.970
    1C        H  834   3.353   4.514   1.947
    1C        H  835   3.160   4.373   1.964
    1C        H  836   2.530   3.009   1.982
    1C        H  837   2.392   3.192   2.018
    1C        H  838   2.457   3.681   1.973
    2V3OU   H29  839   2.800   3.556   1.549
    2V3OU   C27  840   2.777   3.504   1.646
    2V3OU   H27  841   2.717   3.577   1.706
    2V3OU   H28  842   2.731   3.403   1.630
    2V3OU   O11  843   2.901   3.474   1.710
    2V3OU   C15  844   2.919   3.393   1.820
    2V3OU   C13  845   3.051   3.372   1.864
    2V3OU   C14  846   3.076   3.269   1.955
    2V3OU   C16  847   2.972   3.193   2.007
    2V3OU    H6  848   2.992   3.106   2.071
    2V3OU   C12  849   3.213   3.234   2.001
    2V3OU    O2  850   3.235   3.130   2.067
    2V3OU   C10  851   3.328   3.310   1.950
    2V3OU    C8  852   3.461   3.272   1.964
    2V3OU   O10  853   3.492   3.150   2.015
    2V3OU   H26  854   3.408   3.113   2.048
    2V3OU    C6  855   3.567   3.351   1.910
    2V3OU    C5  856   3.534   3.465   1.838
    2V3OU    C4  857   3.705   3.294   1.914
    2V3OU    H4  858   3.722   3.236   2.010
    2V3OU    H5  859   3.715   3.224   1.826
    2V3OU    C2  860   3.817   3.397   1.905
    2V3OU    O6  861   3.798   3.472   2.025
    2V3OU   H21  862   3.768   3.557   1.989
    2V3OU    C3  863   3.779   3.493   1.792
    2V3OU    H2  864   3.862   3.568   1.786
    2V3OU    H3  865   3.781   3.439   1.694
    2V3OU   C25  866   3.952   3.325   1.895
    2V3OU    O7  867   4.001   3.298   1.785
    2V3OU   C26  868   4.030   3.293   2.021
    2V3OU   H22  869   4.061   3.386   2.075
    2V3OU   H23  870   4.119   3.230   1.996
    2V3OU    O8  871   3.967   3.210   2.116
    2V3OU   H24  872   3.919   3.266   2.178
    2V3OU    C1  873   3.644   3.562   1.808
    2V3OU    H1  874   3.620   3.617   1.712
    2V3OU    O3  875   3.656   3.658   1.913
    2V3OU   C19  876   3.615   3.793   1.894
    2V3OU    H9  877   3.520   3.796   1.833
    2V3OU    O4  878   3.717   3.847   1.814
    2V3OU   C20  879   3.847   3.874   1.867
    2V3OU   H10  880   3.897   3.775   1.887
    2V3OU   C24  881   3.609   3.853   2.035
    2V3OU   H16  882   3.547   3.787   2.101
    2V3OU   H17  883   3.556   3.951   2.022
    2V3OU   C23  884   3.750   3.874   2.091
    2V3OU   H15  885   3.796   3.772   2.109
    2V3OU    N1  886   3.730   3.955   2.210
    2V3OU   H19  887   3.808   3.925   2.265
    2V3OU   H20  888   3.646   3.933   2.259
    2V3OU   C21  889   3.852   3.950   2.000
    2V3OU   H11  890   3.954   3.932   2.046
    2V3OU    O5  891   3.828   4.090   1.998
    2V3OU   H18  892   3.785   4.107   2.083
    2V3OU   C22  893   3.911   3.950   1.752
    2V3OU   H12  894   3.857   4.047   1.736
    2V3OU   H13  895   3.910   3.888   1.659
    2V3OU   H14  896   4.018   3.971   1.777
    2V3OU   C11  897   3.161   3.466   1.837
    2V3OU    O1  898   3.134   3.583   1.801
    2V3OU    C9  899   3.298   3.422   1.869
    2V3OU    C7  900   3.398   3.502   1.815
    2V3OU    O9  901   3.385   3.611   1.730
    2V3OU   H25  902   3.289   3.629   1.727
    2V3OU   C17  903   2.815   3.316   1.875
    2V3OU    H7  904   2.711   3.337   1.848
    2V3OU   C18  905   2.841   3.213   1.965
    2V3OU    H8  906   2.758   3.145   1.989
    3SOL     OW  907   2.162   4.294   1.383
    3SOL    HW1  908   2.165   4.195   1.368
    3SOL    HW2  909   2.150   4.340   1.295
    4SOL     OW  910   6.124   6.994   1.483
    4SOL    HW1  911   6.172   6.963   1.401
    4SOL    HW2  912   6.103   6.915   1.541
    5SOL     OW  913   4.395   1.067   1.409
    5SOL    HW1  914   4.388   1.137   1.480
    5SOL    HW2  915   4.309   1.017   1.402
    6SOL     OW  916   3.479   2.075   2.170
    6SOL    HW1  917   3.394   2.127   2.180
    6SOL    HW2  918   3.543   2.125   2.111
    7SOL     OW  919   6.049   2.093   2.159
    7SOL    HW1  920   6.010   2.003   2.178
    7SOL    HW2  921   6.149   2.089   2.166
    8SOL     OW  922   2.222   6.601   4.715
    8SOL    HW1  923   2.210   6.665   4.638
    8SOL    HW2  924   2.202   6.508   4.684
    9SOL     OW  925   1.731   5.564   5.646
    9SOL    HW1  926   1.793   5.503   5.596
    9SOL    HW2  927   1.702   5.520   5.731
   10SOL     OW  928   0.312   4.385   6.218
   10SOL    HW1  929   0.385   4.429   6.271
   10SOL    HW2  930   0.257   4.328   6.279
   11SOL     OW  931   3.607   6.588   0.230
   11SOL    HW1  932   3.603   6.494   0.197
   11SOL    HW2  933   3.635   6.648   0.154
   12SOL     OW  934   4.997   5.960   3.106
   12SOL    HW1  935   5.058   6.025   3.060
   12SOL    HW2  936   4.964   5.999   3.191
   13SOL     OW  937   2.779   6.494   4.397
   13SOL    HW1  938   2.697   6.476   4.342
   13SOL    HW2  939   2.859   6.459   4.349
   14SOL     OW  940   3.684   5.762   6.925
   14SOL    HW1  941   3.778   5.739   6.951
   14SOL    HW2  942   3.670   5.861   6.936
   15SOL     OW  943   0.950   6.336   0.027
   15SOL    HW1  944   0.932   6.264   0.094
   15SOL    HW2  945   1.038   6.379   0.047
   16SOL     OW  946   6.380   1.998   6.035
   16SOL    HW1  947   6.418   2.088   6.016
   16SOL    HW2  948   6.438   1.928   5.995
   17SOL     OW  949   5.106   6.542   4.197
   17SOL    HW1  950   5.177   6.575   4.135
   17SOL    HW2  951   5.056   6.620   4.234
   18SOL     OW  952   2.526   2.210   5.997
   18SOL    HW1  953   2.599   2.209   6.066
   18SOL    HW2  954   2.566   2.207   5.906
   19SOL     OW  955   6.941   0.046   3.143
   19SOL    HW1  956   6.912   0.040   3.239
   19SOL    HW2  957   0.016   0.070   3.139
   20SOL     OW  958   3.626   1.132   4.423
   20SOL    HW1  959   3.674   1.218   4.444
   20SOL    HW2  960   3.626   1.073   4.504
   21SOL     OW  961   3.228   1.727   1.955
   21SOL    HW1  962   3.176   1.687   1.879
   21SOL    HW2  963   3.264   1.816   1.929
   22SOL     OW  964   2.152   6.685   6.021
   22SOL    HW1  965   2.062   6.728   6.023
   22SOL    HW2  966   2.142   6.588   6.001
   23SOL     OW  967   4.276   6.515   3.774
   23SOL    HW1  968   4.239   6.515   3.681
   23SOL    HW2  969   4.374   6.494   3.771
   24SOL     OW  970   5.573   0.987   4.166
   24SOL    HW1  971   5.613   0.935   4.242
   24SOL    HW2  972   5.486   1.026   4.193
   25SOL     OW  973   3.047   5.561   0.115
   25SOL    HW1  974   3.128   5.539   0.170
   25SOL    HW2  975   3.076   5.603   0.029
   26SOL     OW  976   6.333   1.336   1.873
   26SOL    HW1  977   6.329   1.304   1.778
   26SOL    HW2  978   6.261   1.292   1.926
   27SOL     OW  979   6.444   0.477   2.572
   27SOL    HW1  980   6.355   0.440   2.598
   27SOL    HW2  981   6.516   0.432   2.626
   28SOL     OW  982   4.220   0.593   6.200
   28SOL    HW1  983   4.191   0.514   6.146
   28SOL    HW2  984   4.314   0.617   6.176
   29SOL     OW  985   5.420   2.495   2.148
   29SOL    HW1  986   5.467   2.473   2.234
   29SOL    HW2  987   5.430   2.418   2.084
   30SOL     OW  988   2.639   0.038   5.679
   30SOL    HW1  989   2.667   6.982   5.735
   30SOL    HW2  990   2.705   0.051   5.605
   31SOL     OW  991   0.696   0.957   5.399
   31SOL    HW1  992   0.767   1.016   5.439
   31SOL    HW2  993   0.698   0.868   5.445
   32SOL     OW  994   0.598   2.230   2.819
   32SOL    HW1  995   0.660   2.186   2.884
   32SOL    HW2  996   0.649   2.258   2.738
   33SOL     OW  997   1.644   2.783   5.799
   33SOL    HW1  998   1.717   2.762   5.733
   33SOL    HW2  999   1.649   2.880   5.823
   34SOL     OW 1000   2.171   0.465   4.799
   34SOL    HW1 1001   2.264   0.494   4.774
   34SOL    HW2 1002   2.105   0.530   4.761
   35SOL     OW 1003   3.987   1.968   6.585
   35SOL    HW1 1004   3.973   2.062   6.551
   35SOL    HW2 1005   4.078   1.937   6.560
   36SOL     OW 1006   1.069   0.437   6.390
   36SOL    HW1 1007   1.074   0.340   6.367
   36SOL    HW2 1008   1.109   0.452   6.481
   37SOL     OW 1009   2.481   6.586   1.235
   37SOL    HW1 1010   2.500   6.612   1.140
   37SOL    HW2 1011   2.392   6.539   1.240
   38SOL     OW 1012   6.913   5.913   2.792
   38SOL    HW1 1013   6.947   5.874   2.706
   38SOL    HW2 1014   6.829   5.964   2.774
   39SOL     OW 1015   6.357   3.738   6.110
   39SOL    HW1 1016   6.332   3.800   6.184
   39SOL    HW2 1017   6.427   3.781   6.053
   40SOL     OW 1018   6.213   1.482   2.893
   40SOL    HW1 1019   6.300   1.524   2.920
   40SOL    HW2 1020   6.232   1.402   2.836
   41SOL     OW 1021   1.889   6.665   4.189
   41SOL    HW1 1022   1.832   6.597   4.143
   41SOL    HW2 1023   1.917   6.629   4.278
   42SOL     OW 1024   3.258   6.930   6.369
   42SOL    HW1 1025   3.158   6.931   6.360
   42SOL    HW2 1026   3.297   6.868   6.301
   43SOL     OW 1027   5.856   5.986   5.533
   43SOL    HW1 1028   5.905   5.955   5.615
   43SOL    HW2 1029   5.763   5.950   5.534
   44SOL     OW 1030   0.053   2.756   6.372
   44SOL    HW1 1031   0.069   2.854   6.370
   44SOL    HW2 1032   7.009   2.734   6.445
   45SOL     OW 1033   3.085   0.670   2.571
   45SOL    HW1 1034   3.044   0.579   2.581
   45SOL    HW2 1035   3.025   0.738   2.612
   46SOL     OW 1036   1.058   3.661   4.560
   46SOL    HW1 1037   1.098   3.594   4.497
   46SOL    HW2 1038   1.088   3.753   4.533
   47SOL     OW 1039   6.189   3.933   3.812
   47SOL    HW1 1040   6.202   4.016   3.866
   47SOL    HW2 1041   6.100   3.893   3.833
   48SOL     OW 1042   0.337   2.404   4.809
   48SOL    HW1 1043   0.372   2.405   4.902
   48SOL    HW2 1044   0.372   2.323   4.761
   49SOL     OW 1045   4.871   4.155   0.913
   49SOL    HW1 1046   4.880   4.180   1.009
   49SOL    HW2 1047   4.788   4.101   0.900
   50SOL     OW 1048   6.653   3.225   4.583
   50SOL    HW1 1049   6.743   3.218   4.625
   50SOL    HW2 1050   6.607   3.307   4.617
   51SOL     OW 1051   3.436   4.978   2.872
   51SOL    HW1 1052   3.488   5.011   2.794
   51SOL    HW2 1053   3.338   4.988   2.854
   52SOL     OW 1054   3.122   1.678   2.877
   52SOL    HW1 1055   3.069   1.603   2.837
   52SOL    HW2 1056   3.075   1.713   2.958
   53SOL     OW 1057   4.463   7.005   3.879
   53SOL    HW1 1058   4.463   6.950   3.962
   53SOL    HW2 1059   4.445   6.946   3.800
   54SOL     OW 1060   3.046   4.927   6.002
   54SOL    HW1 1061   3.026   4.858   5.932
   54SOL    HW2 1062   3.136   4.966   5.985
   55SOL     OW 1063   3.470   0.980   5.709
   55SOL    HW1 1064   3.377   0.946   5.726
   55SOL    HW2 1065   3.536   0.906   5.723
   56SOL     OW 1066   2.112   0.749   2.208
   56SOL    HW1 1067   2.164   0.711   2.284
   56SOL    HW2 1068   2.120   0.849   2.209
   57SOL     OW 1069   5.067   0.556   0.558
   57SOL    HW1 1070   5.129   0.478   0.553
   57SOL    HW2 1071   4.973   0.525   0.541
   58SOL     OW 1072   0.324   5.924   6.973
   58SOL    HW1 1073   0.270   5.852   6.928
   58SOL    HW2 1074   0.272   6.009   6.970
   59SOL     OW 1075   1.692   0.397   6.229
   59SOL    HW1 1076   1.762   0.359   6.289
   59SOL    HW2 1077   1.637   0.323   6.190
   60SOL     OW 1078   4.475   0.213   5.830
   60SOL    HW1 1079   4.436   0.297   5.793
   60SOL    HW2 1080   4.403   0.145   5.843
   61SOL     OW 1081   4.773   0.257   4.097
   61SOL    HW1 1082   4.766   0.190   4.171
   61SOL    HW2 1083   4.688   0.260   4.046
   62SOL     OW 1084   1.021   0.512   3.827
   62SOL    HW1 1085   1.038   0.510   3.728
   62SOL    HW2 1086   0.941   0.568   3.846
   63SOL     OW 1087   6.546   2.073   3.408
   63SOL    HW1 1088   6.538   1.984   3.451
   63SOL    HW2 1089   6.643   2.093   3.391
   64SOL     OW 1090   6.777   3.586   5.950
   64SOL    HW1 1091   6.729   3.581   6.038
   64SOL    HW2 1092   6.807   3.680   5.934
   65SOL     OW 1093   6.815   4.379   5.221
   65SOL    HW1 1094   6.730   4.343   5.182
   65SOL    HW2 1095   6.826   4.344   5.314
   66SOL     OW 1096   3.687   0.849   6.760
   66SOL    HW1 1097   3.682   0.812   6.667
   66SOL    HW2 1098   3.775   0.823   6.801
   67SOL     OW 1099   5.806   6.533   5.195
   67SOL    HW1 1100   5.852   6.492   5.274
   67SOL    HW2 1101   5.813   6.472   5.117
   68SOL     OW 1102   6.192   1.614   6.837
   68SOL    HW1 1103   6.120   1.562   6.882
   68SOL    HW2 1104   6.229   1.562   6.760
   69SOL     OW 1105   1.921   4.223   6.535
   69SOL    HW1 1106   1.994   4.167   6.496
   69SOL    HW2 1107   1.865   4.167   6.596
   70SOL     OW 1108   6.557   5.836   2.744
   70SOL    HW1 1109   6.489   5.859   2.814
   70SOL    HW2 1110   6.599   5.920   2.710
   71SOL     OW 1111   3.164   2.130   3.686
   71SOL    HW1 1112   3.077   2.083   3.674
   71SOL    HW2 1113   3.216   2.086   3.760
   72SOL     OW 1114   3.080   5.912   3.671
   72SOL    HW1 1115   3.075   5.957   3.581
   72SOL    HW2 1116   3.145   5.836   3.666
   73SOL     OW 1117   3.055   2.551   7.011
   73SOL    HW1 1118   3.031   2.537   0.086
   73SOL    HW2 1119   3.123   2.482   6.984
   74SOL     OW 1120   5.226   6.817   0.350
   74SOL    HW1 1121   5.256   6.732   0.394
   74SOL    HW2 1122   5.305   6.867   0.316
   75SOL     OW 1123   3.454   5.215   5.092
   75SOL    HW1 1124   3.474   5.141   5.156
   75SOL    HW2 1125   3.540   5.255   5.060
   76SOL     OW 1126   2.172   2.352   1.054
   76SOL    HW1 1127   2.256   2.307   1.022
   76SOL    HW2 1128   2.184   2.451   1.050
   77SOL     OW 1129   5.352   5.585   4.899
   77SOL    HW1 1130   5.314   5.498   4.931
   77SOL    HW2 1131   5.444   5.570   4.864
   78SOL     OW 1132   6.726   6.729   6.131
   78SOL    HW1 1133   6.644   6.758   6.180
   78SOL    HW2 1134   6.700   6.673   6.052
   79SOL     OW 1135   3.311   0.140   0.573
   79SOL    HW1 1136   3.297   0.138   0.474
   79SOL    HW2 1137   3.226   0.167   0.619
   80SOL     OW 1138   6.450   0.589   5.242
   80SOL    HW1 1139   6.515   0.659   5.211
   80SOL    HW2 1140   6.378   0.633   5.295
   81SOL     OW 1141   2.184   0.756   2.780
   81SOL    HW1 1142   2.128   0.700   2.718
   81SOL    HW2 1143   2.128   0.787   2.857
   82SOL     OW 1144   6.807   5.098   6.964
   82SOL    HW1 1145   6.807   5.104   6.864
   82SOL    HW2 1146   6.713   5.098   6.998
   83SOL     OW 1147   6.793   6.721   0.668
   83SOL    HW1 1148   6.820   6.818   0.668
   83SOL    HW2 1149   6.696   6.714   0.642
   84SOL     OW 1150   5.154   3.562   2.400
   84SOL    HW1 1151   5.159   3.638   2.464
   84SOL    HW2 1152   5.082   3.498   2.430
   85SOL     OW 1153   0.739   0.981   5.121
   85SOL    HW1 1154   0.724   0.974   5.220
   85SOL    HW2 1155   0.691   1.062   5.086
   86SOL     OW 1156   0.319   0.501   5.586
   86SOL    HW1 1157   0.231   0.540   5.614
   86SOL    HW2 1158   0.368   0.468   5.666
   87SOL     OW 1159   4.597   2.736   0.134
   87SOL    HW1 1160   4.587   2.826   0.175
   87SOL    HW2 1161   4.694   2.717   0.118
   88SOL     OW 1162   4.812   1.672   6.853
   88SOL    HW1 1163   4.763   1.586   6.835
   88SOL    HW2 1164   4.902   1.669   6.809
   89SOL     OW 1165   1.872   2.610   6.900
   89SOL    HW1 1166   1.792   2.641   6.849
   89SOL    HW2 1167   1.924   2.690   6.932
   90SOL     OW 1168   5.053   6.894   4.043
   90SOL    HW1 1169   5.045   6.866   4.139
   90SOL    HW2 1170   4.962   6.910   4.006
   91SOL     OW 1171   4.634   4.471   3.697
   91SOL    HW1 1172   4.625   4.373   3.715
   91SOL    HW2 1173   4.670   4.485   3.605
   92SOL     OW 1174   2.867   5.502   0.395
   92SOL    HW1 1175   2.844   5.553   0.312
   92SOL    HW2 1176   2.825   5.411   0.391
   93SOL     OW 1177   3.068   4.162   5.867
   93SOL    HW1 1178   2.981   4.148   5.915
   93SOL    HW2 1179   3.064   4.119   5.777
   94SOL     OW 1180   3.328   5.221   6.602
   94SOL    HW1 1181   3.300   5.203   6.696
   94SOL    HW2 1182   3.248   5.243   6.547
   95SOL     OW 1183   0.526   1.427   3.384
   95SOL    HW1 1184   0.459   1.490   3.423
   95SOL    HW2 1185   0.617   1.448   3.420
   96SOL     OW 1186   2.446   0.043   5.462
   96SOL    HW1 1187   2.518   0.029   5.530
   96SOL    HW2 1188   2.369   0.090   5.505
   97SOL     OW 1189   6.615   4.055   4.966
   97SOL    HW1 1190   6.526   4.066   4.923
   97SOL    HW2 1191   6.653   3.966   4.941
   98SOL     OW 1192   5.759   3.034   6.349
   98SOL    HW1 1193   5.823   3.048   6.425
   98SOL    HW2 1194   5.780   2.948   6.303
   99SOL     OW 1195   4.333   2.902   1.132
   99SOL    HW1 1196   4.318   2.811   1.094
   99SOL    HW2 1197   4.431   2.916   1.148
  100SOL     OW 1198   0.274   6.757   6.912
  100SOL    HW1 1199   0.239   6.831   6.856
  100SOL    HW2 1200   0.262   6.670   6.864
  101SOL     OW 1201   0.726   5.613   3.314
  101SOL    HW1 1202   0.823   5.590   3.317
  101SOL    HW2 1203   0.705   5.680   3.385
  102SOL     OW 1204   4.410   0.653   2.992
  102SOL    HW1 1205   4.348   0.731   2.978
  102SOL    HW2 1206   4.505   0.686   2.996
  103SOL     OW 1207   4.299   1.253   1.906
  103SOL    HW1 1208   4.386   1.208   1.924
  103SOL    HW2 1209   4.234   1.232   1.980
  104SOL     OW 1210   6.250   5.676   3.097
  104SOL    HW1 1211   6.309   5.699   3.174
  104SOL    HW2 1212   6.304   5.670   3.013
  105SOL     OW 1213   6.776   0.923   6.658
  105SOL    HW1 1214   6.772   0.960   6.751
  105SOL    HW2 1215   6.697   0.863   6.643
  106SOL     OW 1216   2.811   6.525   6.374
  106SOL    HW1 1217   2.719   6.530   6.336
  106SOL    HW2 1218   2.822   6.596   6.444
  107SOL     OW 1219   1.921   2.062   1.518
  107SOL    HW1 1220   1.879   2.105   1.598
  107SOL    HW2 1221   2.012   2.030   1.541
  108SOL     OW 1222   4.605   3.912   0.275
  108SOL    HW1 1223   4.674   3.967   0.323
  108SOL    HW2 1224   4.649   3.831   0.236
  109SOL     OW 1225   0.849   0.342   1.416
  109SOL    HW1 1226   0.806   0.252   1.401
  109SOL    HW2 1227   0.948   0.333   1.406
  110SOL     OW 1228   3.962   5.643   5.534
  110SOL    HW1 1229   3.955   5.545   5.514
  110SOL    HW2 1230   4.058   5.669   5.536
  111SOL     OW 1231   4.043   0.721   3.873
  111SOL    HW1 1232   4.019   0.770   3.956
  111SOL    HW2 1233   4.054   0.623   3.893
  112SOL     OW 1234   5.665   5.801   5.493
  112SOL    HW1 1235   5.663   5.823   5.396
  112SOL    HW2 1236   5.667   5.701   5.505
  113SOL     OW 1237   6.296   5.063   3.652
  113SOL    HW1 1238   6.252   5.006   3.722
  113SOL    HW2 1239   6.226   5.117   3.605
  114SOL     OW 1240   0.950   0.197   0.473
  114SOL    HW1 1241   0.917   0.107   0.501
  114SOL    HW2 1242   0.887   0.235   0.405
  115SOL     OW 1243   4.703   1.161   4.177
  115SOL    HW1 1244   4.659   1.196   4.095
  115SOL    HW2 1245   4.665   1.071   4.199
  116SOL     OW 1246   6.290   5.090   2.410
  116SOL    HW1 1247   6.371   5.100   2.468
  116SOL    HW2 1248   6.268   5.177   2.368
  117SOL     OW 1249   0.729   1.177   6.429
  117SOL    HW1 1250   0.703   1.151   6.336
  117SOL    HW2 1251   0.723   1.276   6.439
  118SOL     OW 1252   0.388   1.002   1.716
  118SOL    HW1 1253   0.425   0.978   1.627
  118SOL    HW2 1254   0.459   1.045   1.772
  119SOL     OW 1255   0.157   1.952   6.567
  119SOL    HW1 1256   0.102   2.034   6.582
  119SOL    HW2 1257   0.148   1.891   6.646
  120SOL     OW 1258   6.649   7.016   1.069
  120SOL    HW1 1259   6.747   6.996   1.068
  120SOL    HW2 1260   6.604   6.963   0.998
  121SOL     OW 1261   2.570   3.721   0.009
  121SOL    HW1 1262   2.541   3.702   6.937
  121SOL    HW2 1263   2.499   3.775   0.055
  122SOL     OW 1264   1.449   3.881   5.642
  122SOL    HW1 1265   1.441   3.964   5.586
  122SOL    HW2 1266   1.516   3.896   5.714
  123SOL     OW 1267   0.111   2.215   1.095
  123SOL    HW1 1268   0.105   2.157   1.013
  123SOL    HW2 1269   0.158   2.300   1.072
  124SOL     OW 1270   5.358   3.320   0.751
  124SOL    HW1 1271   5.307   3.284   0.674
  124SOL    HW2 1272   5.419   3.250   0.787
  125SOL     OW 1273   2.188   2.188   2.803
  125SOL    HW1 1274   2.115   2.245   2.842
  125SOL    HW2 1275   2.265   2.186   2.866
  126SOL     OW 1276   3.291   4.350   0.826
  126SOL    HW1 1277   3.336   4.277   0.879
  126SOL    HW2 1278   3.313   4.438   0.868
  127SOL     OW 1279   0.049   4.817   5.884
  127SOL    HW1 1280   0.016   4.869   5.963
  127SOL    HW2 1281   0.080   4.727   5.914
  128SOL     OW 1282   4.746   2.563   1.823
  128SOL    HW1 1283   4.750   2.608   1.912
  128SOL    HW2 1284   4.806   2.611   1.759
  129SOL     OW 1285   4.157   3.293   6.081
  129SOL    HW1 1286   4.065   3.328   6.062
  129SOL    HW2 1287   4.175   3.215   6.021
  130SOL     OW 1288   0.665   0.763   4.373
  130SOL    HW1 1289   0.637   0.858   4.387
  130SOL    HW2 1290   0.765   0.757   4.376
  131SOL     OW 1291   4.511   1.412   3.307
  131SOL    HW1 1292   4.605   1.413   3.274
  131SOL    HW2 1293   4.502   1.471   3.388
  132SOL     OW 1294   1.476   2.735   0.862
  132SOL    HW1 1295   1.475   2.654   0.920
  132SOL    HW2 1296   1.431   2.811   0.909
  133SOL     OW 1297   5.483   6.704   3.133
  133SOL    HW1 1298   5.424   6.708   3.052
  133SOL    HW2 1299   5.479   6.791   3.181
  134SOL     OW 1300   5.710   2.545   2.684
  134SOL    HW1 1301   5.797   2.581   2.718
  134SOL    HW2 1302   5.702   2.563   2.586
  135SOL     OW 1303   5.138   1.788   2.948
  135SOL    HW1 1304   5.159   1.770   3.044
  135SOL    HW2 1305   5.099   1.705   2.907
  136SOL     OW 1306   4.717   4.485   5.900
  136SOL    HW1 1307   4.699   4.393   5.936
  136SOL    HW2 1308   4.747   4.478   5.805
  137SOL     OW 1309   4.477   6.945   5.418
  137SOL    HW1 1310   4.503   0.007   5.466
  137SOL    HW2 1311   4.461   6.966   5.322
  138SOL     OW 1312   0.363   5.089   4.373
  138SOL    HW1 1313   0.323   5.085   4.281
  138SOL    HW2 1314   0.451   5.041   4.374
  139SOL     OW 1315   2.425   5.813   5.480
  139SOL    HW1 1316   2.502   5.749   5.487
  139SOL    HW2 1317   2.367   5.805   5.561
  140SOL     OW 1318   6.404   5.016   4.385
  140SOL    HW1 1319   6.424   5.096   4.329
  140SOL    HW2 1320   6.470   4.944   4.365
  141SOL     OW 1321   0.911   1.788   5.682
  141SOL    HW1 1322   0.842   1.762   5.751
  141SOL    HW2 1323   0.885   1.876   5.642
  142SOL     OW 1324   1.772   6.157   1.392
  142SOL    HW1 1325   1.730   6.185   1.306
  142SOL    HW2 1326   1.725   6.075   1.428
  143SOL     OW 1327   5.732   4.154   2.263
  143SOL    HW1 1328   5.797   4.200   2.324
  143SOL    HW2 1329   5.783   4.105   2.192
  144SOL     OW 1330   1.606   6.541   6.446
  144SOL    HW1 1331   1.689   6.574   6.400
  144SOL    HW2 1332   1.616   6.552   6.545
  145SOL     OW 1333   1.183   5.210   0.600
  145SOL    HW1 1334   1.117   5.245   0.666
  145SOL    HW2 1335   1.270   5.194   0.646
  146SOL     OW 1336   4.652   6.060   6.880
  146SOL    HW1 1337   4.736   6.113   6.874
  146SOL    HW2 1338   4.610   6.074   6.970
  147SOL     OW 1339   6.182   2.829   0.406
  147SOL    HW1 1340   6.118   2.757   0.379
  147SOL    HW2 1341   6.274   2.791   0.414
  148SOL     OW 1342   0.405   4.857   5.418
  148SOL    HW1 1343   0.400   4.957   5.428
  148SOL    HW2 1344   0.501   4.829   5.412
  149SOL     OW 1345   2.852   1.310   4.039
  149SOL    HW1 1346   2.792   1.388   4.020
  149SOL    HW2 1347   2.936   1.343   4.082
  150SOL     OW 1348   0.003   4.980   6.098
  150SOL    HW1 1349   7.015   4.907   6.165
  150SOL    HW2 1350   6.935   5.014   6.072
  151SOL     OW 1351   3.992   1.964   1.342
  151SOL    HW1 1352   3.916   2.002   1.289
  151SOL    HW2 1353   4.052   2.038   1.373
  152SOL     OW 1354   2.036   0.725   4.371
  152SOL    HW1 1355   2.040   0.633   4.409
  152SOL    HW2 1356   2.124   0.750   4.332
  153SOL     OW 1357   2.268   0.056   2.184
  153SOL    HW1 1358   2.189   0.059   2.122
  153SOL    HW2 1359   2.289   0.148   2.217
  154SOL     OW 1360   6.727   2.923   1.933
  154SOL    HW1 1361   6.696   2.935   1.839
  154SOL    HW2 1362   6.816   2.878   1.933
  155SOL     OW 1363   0.249   1.328   3.575
  155SOL    HW1 1364   0.288   1.416   3.545
  155SOL    HW2 1365   0.271   1.257   3.509
  156SOL     OW 1366   6.496   1.760   1.472
  156SOL    HW1 1367   6.460   1.695   1.405
  156SOL    HW2 1368   6.586   1.791   1.442
  157SOL     OW 1369   6.235   3.342   2.141
  157SOL    HW1 1370   6.182   3.340   2.056
  157SOL    HW2 1371   6.330   3.363   2.120
  158SOL     OW 1372   3.103   0.394   2.297
  158SOL    HW1 1373   3.015   0.436   2.276
  158SOL    HW2 1374   3.089   0.317   2.359
  159SOL     OW 1375   4.906   4.164   1.189
  159SOL    HW1 1376   4.957   4.247   1.166
  159SOL    HW2 1377   4.828   4.187   1.247
  160SOL     OW 1378   6.696   4.391   6.757
  160SOL    HW1 1379   6.737   4.455   6.823
  160SOL    HW2 1380   6.767   4.330   6.721
  161SOL     OW 1381   1.940   5.257   4.952
  161SOL    HW1 1382   2.015   5.268   4.887
  161SOL    HW2 1383   1.948   5.169   4.998
  162SOL     OW 1384   3.997   6.482   0.321
  162SOL    HW1 1385   3.961   6.407   0.266
  162SOL    HW2 1386   4.089   6.505   0.290
  163SOL     OW 1387   4.263   6.137   1.398
  163SOL    HW1 1388   4.263   6.217   1.338
  163SOL    HW2 1389   4.329   6.070   1.366
  164SOL     OW 1390   6.514   4.098   1.319
  164SOL    HW1 1391   6.583   4.137   1.380
  164SOL    HW2 1392   6.430   4.151   1.327
  165SOL     OW 1393   4.915   3.075   0.401
  165SOL    HW1 1394   4.992   3.051   0.341
  165SOL    HW2 1395   4.830   3.041   0.360
  166SOL     OW 1396   0.250   5.757   3.505
  166SOL    HW1 1397   0.264   5.673   3.558
  166SOL    HW2 1398   0.311   5.758   3.427
  167SOL     OW 1399   5.744   1.991   0.271
  167SOL    HW1 1400   5.713   2.069   0.325
  167SOL    HW2 1401   5.667   1.952   0.221
  168SOL     OW 1402   2.831   3.698   0.950
  168SOL    HW1 1403   2.801   3.751   1.029
  168SOL    HW2 1404   2.920   3.731   0.919
  169SOL     OW 1405   2.871   0.092   1.618
  169SOL    HW1 1406   2.790   0.050   1.576
  169SOL    HW2 1407   2.942   0.104   1.549
  170SOL     OW 1408   0.416   1.634   3.889
  170SOL    HW1 1409   0.462   1.716   3.857
  170SOL    HW2 1410   0.439   1.618   3.986
  171SOL     OW 1411   3.471   3.877   0.304
  171SOL    HW1 1412   3.459   3.778   0.309
  171SOL    HW2 1413   3.384   3.920   0.278
  172SOL     OW 1414   6.618   1.534   4.776
  172SOL    HW1 1415   6.560   1.612   4.756
  172SOL    HW2 1416   6.681   1.518   4.699
  173SOL     OW 1417   6.820   0.278   4.278
  173SOL    HW1 1418   6.858   0.327   4.356
  173SOL    HW2 1419   6.760   0.205   4.310
  174SOL     OW 1420   3.098   5.438   3.306
  174SOL    HW1 1421   3.087   5.536   3.291
  174SOL    HW2 1422   3.008   5.394   3.305
  175SOL     OW 1423   1.740   6.491   1.732
  175SOL    HW1 1424   1.831   6.449   1.726
  175SOL    HW2 1425   1.740   6.559   1.805
  176SOL     OW 1426   2.350   4.137   1.006
  176SOL    HW1 1427   2.435   4.114   1.053
  176SOL    HW2 1428   2.313   4.221   1.044
  177SOL     OW 1429   5.674   2.936   3.202
  177SOL    HW1 1430   5.687   2.997   3.124
  177SOL    HW2 1431   5.696   2.984   3.286
  178SOL     OW 1432   5.035   4.315   6.260
  178SOL    HW1 1433   4.984   4.359   6.186
  178SOL    HW2 1434   4.971   4.277   6.327
  179SOL     OW 1435   3.031   1.014   6.835
  179SOL    HW1 1436   3.028   1.086   6.905
  179SOL    HW2 1437   2.989   1.049   6.751
  180SOL     OW 1438   0.851   1.345   6.728
  180SOL    HW1 1439   0.768   1.289   6.731
  180SOL    HW2 1440   0.931   1.288   6.744
  181SOL     OW 1441   3.681   1.722   6.423
  181SOL    HW1 1442   3.667   1.819   6.441
  181SOL    HW2 1443   3.778   1.701   6.424
  182SOL     OW 1444   4.593   2.213   4.145
  182SOL    HW1 1445   4.543   2.128   4.130
  182SOL    HW2 1446   4.536   2.277   4.196
  183SOL     OW 1447   3.984   0.133   2.118
  183SOL    HW1 1448   3.884   0.135   2.122
  183SOL    HW2 1449   4.013   0.048   2.073
  184SOL     OW 1450   1.249   5.940   3.858
  184SOL    HW1 1451   1.256   6.030   3.815
  184SOL    HW2 1452   1.337   5.917   3.900
  185SOL     OW 1453   1.023   3.204   6.554
  185SOL    HW1 1454   1.105   3.238   6.508
  185SOL    HW2 1455   1.035   3.210   6.653
  186SOL     OW 1456   6.301   0.423   3.726
  186SOL    HW1 1457   6.296   0.507   3.781
  186SOL    HW2 1458   6.249   0.351   3.770
  187SOL     OW 1459   5.725   1.043   3.944
  187SOL    HW1 1460   5.758   1.137   3.957
  187SOL    HW2 1461   5.670   1.016   4.022
  188SOL     OW 1462   5.778   2.660   3.042
  188SOL    HW1 1463   5.774   2.583   3.105
  188SOL    HW2 1464   5.687   2.700   3.032
  189SOL     OW 1465   1.874   5.836   2.820
  189SOL    HW1 1466   1.961   5.787   2.828
  189SOL    HW2 1467   1.798   5.775   2.842
  190SOL     OW 1468   3.698   1.261   4.826
  190SOL    HW1 1469   3.737   1.313   4.902
  190SOL    HW2 1470   3.772   1.222   4.770
  191SOL     OW 1471   5.840   5.286   5.908
  191SOL    HW1 1472   5.746   5.254   5.908
  191SOL    HW2 1473   5.898   5.220   5.859
  192SOL     OW 1474   0.218   6.662   2.135
  192SOL    HW1 1475   0.285   6.590   2.149
  192SOL    HW2 1476   0.210   6.682   2.037
  193SOL     OW 1477   5.151   2.873   6.558
  193SOL    HW1 1478   5.157   2.862   6.459
  193SOL    HW2 1479   5.198   2.957   6.585
  194SOL     OW 1480   3.395   0.741   3.008
  194SOL    HW1 1481   3.436   0.829   2.983
  194SOL    HW2 1482   3.461   0.668   2.995
  195SOL     OW 1483   1.535   6.121   3.343
  195SOL    HW1 1484   1.587   6.039   3.321
  195SOL    HW2 1485   1.587   6.178   3.406
  196SOL     OW 1486   1.827   2.153   6.774
  196SOL    HW1 1487   1.744   2.197   6.739
  196SOL    HW2 1488   1.853   2.077   6.715
  197SOL     OW 1489   2.348   1.537   0.971
  197SOL    HW1 1490   2.304   1.501   0.888
  197SOL    HW2 1491   2.444   1.511   0.972
  198SOL     OW 1492   4.140   0.853   3.254
  198SOL    HW1 1493   4.163   0.853   3.157
  198SOL    HW2 1494   4.095   0.939   3.278
  199SOL     OW 1495   1.880   2.581   4.246
  199SOL    HW1 1496   1.910   2.641   4.171
  199SOL    HW2 1497   1.833   2.501   4.207
  200SOL     OW 1498   0.710   2.719   0.851
  200SOL    HW1 1499   0.775   2.788   0.883
  200SOL    HW2 1500   0.737   2.687   0.760
  201SOL     OW 1501   0.468   1.153   5.945
  201SOL    HW1 1502   0.372   1.125   5.942
  201SOL    HW2 1503   0.522   1.092   5.887
  202SOL     OW 1504   4.796   0.576   6.387
  202SOL    HW1 1505   4.814   0.479   6.368
  202SOL    HW2 1506   4.700   0.596   6.369
  203SOL     OW 1507   5.847   2.672   5.395
  203SOL    HW1 1508   5.827   2.730   5.316
  203SOL    HW2 1509   5.936   2.629   5.383
  204SOL     OW 1510   0.214   0.229   5.671
  204SOL    HW1 1511   0.116   0.227   5.690
  204SOL    HW2 1512   0.229   0.244   5.573
  205SOL     OW 1513   0.998   2.267   2.661
  205SOL    HW1 1514   1.059   2.333   2.707
  205SOL    HW2 1515   0.996   2.182   2.713
  206SOL     OW 1516   0.705   3.464   1.810
  206SOL    HW1 1517   0.653   3.378   1.805
  206SOL    HW2 1518   0.783   3.459   1.747
  207SOL     OW 1519   4.897   1.887   3.221
  207SOL    HW1 1520   4.904   1.934   3.133
  207SOL    HW2 1521   4.988   1.883   3.264
  208SOL     OW 1522   0.412   4.133   5.328
  208SOL    HW1 1523   0.341   4.169   5.267
  208SOL    HW2 1524   0.445   4.206   5.388
  209SOL     OW 1525   6.471   4.516   2.649
  209SOL    HW1 1526   6.387   4.469   2.624
  209SOL    HW2 1527   6.497   4.580   2.577
  210SOL     OW 1528   4.420   2.022   0.528
  210SOL    HW1 1529   4.417   2.050   0.624
  210SOL    HW2 1530   4.496   2.067   0.482
  211SOL     OW 1531   1.784   0.564   3.148
  211SOL    HW1 1532   1.728   0.564   3.065
  211SOL    HW2 1533   1.725   0.584   3.227
  212SOL     OW 1534   1.225   3.881   2.788
  212SOL    HW1 1535   1.145   3.848   2.738
  212SOL    HW2 1536   1.304   3.823   2.766
  213SOL     OW 1537   1.834   5.802   1.232
  213SOL    HW1 1538   1.929   5.828   1.214
  213SOL    HW2 1539   1.775   5.840   1.160
  214SOL     OW 1540   4.192   5.417   2.241
  214SOL    HW1 1541   4.136   5.373   2.171
  214SOL    HW2 1542   4.285   5.431   2.207
  215SOL     OW 1543   2.423   5.032   1.439
  215SOL    HW1 1544   2.396   4.953   1.494
  215SOL    HW2 1545   2.380   5.027   1.349
  216SOL     OW 1546   1.597   0.498   2.639
  216SOL    HW1 1547   1.586   0.553   2.556
  216SOL    HW2 1548   1.651   0.417   2.619
  217SOL     OW 1549   1.161   3.078   5.636
  217SOL    HW1 1550   1.260   3.063   5.634
  217SOL    HW2 1551   1.124   3.040   5.721
  218SOL     OW 1552   0.852   2.595   5.386
  218SOL    HW1 1553   0.910   2.638   5.316
  218SOL    HW2 1554   0.895   2.511   5.418
  219SOL     OW 1555   3.805   0.711   0.281
  219SOL    HW1 1556   3.861   0.693   0.361
  219SOL    HW2 1557   3.863   0.717   0.199
  220SOL     OW 1558   3.039   0.698   0.970
  220SOL    HW1 1559   3.081   0.782   1.005
  220SOL    HW2 1560   3.002   0.645   1.047
  221SOL     OW 1561   6.060   5.153   1.235
  221SOL    HW1 1562   6.076   5.117   1.327
  221SOL    HW2 1563   6.027   5.247   1.242
  222SOL     OW 1564   1.978   4.666   6.777
  222SOL    HW1 1565   2.040   4.726   6.727
  222SOL    HW2 1566   1.981   4.689   6.874
  223SOL     OW 1567   6.873   2.736   5.491
  223SOL    HW1 1568   6.803   2.791   5.537
  223SOL    HW2 1569   6.845   2.718   5.397
  224SOL     OW 1570   3.278   2.186   6.057
  224SOL    HW1 1571   3.268   2.276   6.015
  224SOL    HW2 1572   3.373   2.172   6.084
  225SOL     OW 1573   4.680   3.713   5.927
  225SOL    HW1 1574   4.630   3.749   5.848
  225SOL    HW2 1575   4.751   3.778   5.953
  226SOL     OW 1576   0.975   1.577   6.566
  226SOL    HW1 1577   0.977   1.514   6.644
  226SOL    HW2 1578   0.993   1.526   6.482
  227SOL     OW 1579   2.108   4.092   2.526
  227SOL    HW1 1580   2.069   4.178   2.493
  227SOL    HW2 1581   2.093   4.020   2.458
  228SOL     OW 1582   1.988   0.760   2.979
  228SOL    HW1 1583   1.949   0.682   3.029
  228SOL    HW2 1584   2.018   0.829   3.045
  229SOL     OW 1585   5.189   4.529   6.803
  229SOL    HW1 1586   5.217   4.625   6.805
  229SOL    HW2 1587   5.138   4.511   6.719
  230SOL     OW 1588   4.438   6.099   4.440
  230SOL    HW1 1589   4.373   6.032   4.476
  230SOL    HW2 1590   4.390   6.183   4.418
  231SOL     OW 1591   5.521   1.289   6.972
  231SOL    HW1 1592   5.564   1.227   0.016
  231SOL    HW2 1593   5.453   1.345   7.019
  232SOL     OW 1594   0.305   2.780   6.741
  232SOL    HW1 1595   0.213   2.811   6.766
  232SOL    HW2 1596   0.339   2.717   6.812
  233SOL     OW 1597   3.309   2.135   3.464
  233SOL    HW1 1598   3.260   2.133   3.551
  233SOL    HW2 1599   3.242   2.130   3.389
  234SOL     OW 1600   5.461   1.054   5.906
  234SOL    HW1 1601   5.399   1.083   5.979
  234SOL    HW2 1602   5.535   1.120   5.897
  235SOL     OW 1603   4.848   2.953   2.547
  235SOL    HW1 1604   4.843   2.941   2.448
  235SOL    HW2 1605   4.939   2.986   2.573
  236SOL     OW 1606   4.821   3.537   6.524
  236SOL    HW1 1607   4.821   3.484   6.439
  236SOL    HW2 1608   4.906   3.518   6.575
  237SOL     OW 1609   6.746   4.470   2.679
  237SOL    HW1 1610   6.787   4.401   2.620
  237SOL    HW2 1611   6.647   4.471   2.665
  238SOL     OW 1612   6.491   1.020   0.463
  238SOL    HW1 1613   6.473   1.037   0.560
  238SOL    HW2 1614   6.516   1.106   0.418
  239SOL     OW 1615   1.099   4.309   0.525
  239SOL    HW1 1616   1.172   4.371   0.495
  239SOL    HW2 1617   1.109   4.291   0.623
  240SOL     OW 1618   6.790   3.709   3.280
  240SOL    HW1 1619   6.831   3.688   3.368
  240SOL    HW2 1620   6.858   3.696   3.208
  241SOL     OW 1621   2.648   2.399   4.252
  241SOL    HW1 1622   2.717   2.371   4.318
  241SOL    HW2 1623   2.670   2.362   4.162
  242SOL     OW 1624   3.834   3.624   3.470
  242SOL    HW1 1625   3.770   3.572   3.414
  242SOL    HW2 1626   3.904   3.562   3.507
  243SOL     OW 1627   4.634   1.549   0.052
  243SOL    HW1 1628   4.662   1.642   0.031
  243SOL    HW2 1629   4.572   1.516   7.003
  244SOL     OW 1630   5.937   3.126   6.553
  244SOL    HW1 1631   5.984   3.129   6.642
  244SOL    HW2 1632   5.988   3.182   6.487
  245SOL     OW 1633   3.739   1.899   3.774
  245SOL    HW1 1634   3.725   1.958   3.853
  245SOL    HW2 1635   3.786   1.815   3.802
  246SOL     OW 1636   5.376   1.829   3.488
  246SOL    HW1 1637   5.391   1.733   3.512
  246SOL    HW2 1638   5.463   1.871   3.463
  247SOL     OW 1639   2.598   1.869   0.504
  247SOL    HW1 1640   2.542   1.865   0.587
  247SOL    HW2 1641   2.560   1.806   0.436
  248SOL     OW 1642   2.433   1.513   2.888
  248SOL    HW1 1643   2.384   1.430   2.863
  248SOL    HW2 1644   2.515   1.489   2.941
  249SOL     OW 1645   5.018   0.128   5.370
  249SOL    HW1 1646   5.080   0.144   5.446
  249SOL    HW2 1647   5.022   0.031   5.343
  250SOL     OW 1648   3.575   2.707   1.208
  250SOL    HW1 1649   3.531   2.715   1.297
  250SOL    HW2 1650   3.657   2.650   1.217
  251SOL     OW 1651   4.824   3.438   5.349
  251SOL    HW1 1652   4.917   3.426   5.314
  251SOL    HW2 1653   4.764   3.465   5.275
  252SOL     OW 1654   6.319   0.064   5.555
  252SOL    HW1 1655   6.336   6.997   5.512
  252SOL    HW2 1656   6.374   0.070   5.639
  253SOL     OW 1657   3.867   4.673   5.815
  253SOL    HW1 1658   3.777   4.630   5.806
  253SOL    HW2 1659   3.860   4.770   5.789
  254SOL     OW 1660   0.034   2.634   3.725
  254SOL    HW1 1661   6.967   2.610   3.764
  254SOL    HW2 1662   0.070   2.715   3.771
  255SOL     OW 1663   1.124   4.621   6.101
  255SOL    HW1 1664   1.221   4.642   6.116
  255SOL    HW2 1665   1.091   4.671   6.021
  256SOL     OW 1666   5.600   3.306   5.709
  256SOL    HW1 1667   5.602   3.258   5.621
  256SOL    HW2 1668   5.628   3.244   5.782
  257SOL     OW 1669   4.894   6.805   2.939
  257SOL    HW1 1670   4.890   6.756   2.852
  257SOL    HW2 1671   4.903   6.739   3.014
  258SOL     OW 1672   2.460   3.970   5.727
  258SOL    HW1 1673   2.464   4.059   5.772
  258SOL    HW2 1674   2.505   3.975   5.638
  259SOL     OW 1675   5.224   0.910   2.222
  259SOL    HW1 1676   5.240   0.854   2.303
  259SOL    HW2 1677   5.237   1.006   2.244
  260SOL     OW 1678   3.627   5.153   2.982
  260SOL    HW1 1679   3.626   5.164   2.883
  260SOL    HW2 1680   3.555   5.089   3.009
  261SOL     OW 1681   5.466   4.986   1.279
  261SOL    HW1 1682   5.453   5.085   1.272
  261SOL    HW2 1683   5.414   4.951   1.356
  262SOL     OW 1684   1.864   3.671   1.202
  262SOL    HW1 1685   1.920   3.589   1.215
  262SOL    HW2 1686   1.902   3.726   1.127
  263SOL     OW 1687   1.068   0.388   3.389
  263SOL    HW1 1688   1.011   0.397   3.307
  263SOL    HW2 1689   1.013   0.351   3.464
  264SOL     OW 1690   6.448   2.778   0.435
  264SOL    HW1 1691   6.459   2.786   0.534
  264SOL    HW2 1692   6.524   2.824   0.390
  265SOL     OW 1693   6.310   6.759   3.066
  265SOL    HW1 1694   6.333   6.855   3.050
  265SOL    HW2 1695   6.242   6.753   3.139
  266SOL     OW 1696   4.759   3.058   5.944
  266SOL    HW1 1697   4.722   2.966   5.952
  266SOL    HW2 1698   4.696   3.114   5.890
  267SOL     OW 1699   1.410   1.051   5.251
  267SOL    HW1 1700   1.357   1.072   5.333
  267SOL    HW2 1701   1.477   0.980   5.271
  268SOL     OW 1702   3.684   1.005   6.150
  268SOL    HW1 1703   3.629   1.081   6.114
  268SOL    HW2 1704   3.777   1.037   6.169
  269SOL     OW 1705   3.045   2.229   0.164
  269SOL    HW1 1706   2.972   2.172   0.127
  269SOL    HW2 1707   3.006   2.315   0.196
  270SOL     OW 1708   0.749   5.955   0.331
  270SOL    HW1 1709   0.832   5.980   0.281
  270SOL    HW2 1710   0.674   6.016   0.304
  271SOL     OW 1711   0.620   1.835   6.201
  271SOL    HW1 1712   0.662   1.800   6.285
  271SOL    HW2 1713   0.520   1.836   6.212
  272SOL     OW 1714   3.649   6.065   3.951
  272SOL    HW1 1715   3.735   6.063   4.003
  272SOL    HW2 1716   3.618   6.159   3.941
  273SOL     OW 1717   1.762   5.228   5.772
  273SOL    HW1 1718   1.849   5.195   5.736
  273SOL    HW2 1719   1.687   5.197   5.714
  274SOL     OW 1720   4.136   1.096   3.646
  274SOL    HW1 1721   4.090   1.133   3.727
  274SOL    HW2 1722   4.083   1.019   3.610
  275SOL     OW 1723   6.937   6.341   2.645
  275SOL    HW1 1724   6.872   6.386   2.705
  275SOL    HW2 1725   7.019   6.316   2.697
  276SOL     OW 1726   0.354   6.886   4.051
  276SOL    HW1 1727   0.354   6.981   4.020
  276SOL    HW2 1728   0.300   6.878   4.135
  277SOL     OW 1729   1.457   2.918   0.485
  277SOL    HW1 1730   1.543   2.872   0.462
  277SOL    HW2 1731   1.449   2.925   0.584
  278SOL     OW 1732   0.101   3.417   3.298
  278SOL    HW1 1733   0.054   3.495   3.339
  278SOL    HW2 1734   0.182   3.449   3.249
  279SOL     OW 1735   5.358   2.945   4.202
  279SOL    HW1 1736   5.359   2.991   4.291
  279SOL    HW2 1737   5.391   2.851   4.214
  280SOL     OW 1738   2.227   5.301   1.591
  280SOL    HW1 1739   2.168   5.378   1.617
  280SOL    HW2 1740   2.217   5.282   1.493
  281SOL     OW 1741   2.084   4.345   1.634
  281SOL    HW1 1742   2.124   4.324   1.545
  281SOL    HW2 1743   2.102   4.270   1.697
  282SOL     OW 1744   3.378   0.854   5.286
  282SOL    HW1 1745   3.328   0.858   5.200
  282SOL    HW2 1746   3.375   0.943   5.331
  283SOL     OW 1747   5.344   2.825   6.267
  283SOL    HW1 1748   5.394   2.785   6.190
  283SOL    HW2 1749   5.248   2.837   6.243
  284SOL     OW 1750   0.590   3.878   3.504
  284SOL    HW1 1751   0.532   3.956   3.478
  284SOL    HW2 1752   0.562   3.797   3.452
  285SOL     OW 1753   5.242   4.855   4.031
  285SOL    HW1 1754   5.308   4.808   4.091
  285SOL    HW2 1755   5.287   4.933   3.987
  286SOL     OW 1756   3.256   4.031   6.993
  286SOL    HW1 1757   3.263   3.932   6.981
  286SOL    HW2 1758   3.227   4.072   6.907
  287SOL     OW 1759   1.676   3.411   1.154
  287SOL    HW1 1760   1.614   3.487   1.176
  287SOL    HW2 1761   1.673   3.344   1.228
  288SOL     OW 1762   3.905   1.173   6.381
  288SOL    HW1 1763   3.959   1.226   6.316
  288SOL    HW2 1764   3.958   1.160   6.465
  289SOL     OW 1765   1.966   4.567   5.560
  289SOL    HW1 1766   2.044   4.620   5.595
  289SOL    HW2 1767   1.935   4.503   5.630
  290SOL     OW 1768   0.227   1.784   5.530
  290SOL    HW1 1769   0.276   1.714   5.582
  290SOL    HW2 1770   0.270   1.873   5.546
  291SOL     OW 1771   0.809   1.662   3.847
  291SOL    HW1 1772   0.746   1.603   3.897
  291SOL    HW2 1773   0.758   1.722   3.785
  292SOL     OW 1774   2.221   0.280   3.417
  292SOL    HW1 1775   2.188   0.192   3.452
  292SOL    HW2 1776   2.142   0.338   3.396
  293SOL     OW 1777   4.616   5.679   4.177
  293SOL    HW1 1778   4.668   5.601   4.213
  293SOL    HW2 1779   4.616   5.752   4.245
  294SOL     OW 1780   5.458   6.049   6.572
  294SOL    HW1 1781   5.457   6.043   6.472
  294SOL    HW2 1782   5.364   6.058   6.606
  295SOL     OW 1783   5.001   0.819   3.704
  295SOL    HW1 1784   5.038   0.813   3.611
  295SOL    HW2 1785   5.042   0.897   3.751
  296SOL     OW 1786   3.171   1.335   3.009
  296SOL    HW1 1787   3.241   1.397   3.044
  296SOL    HW2 1788   3.108   1.311   3.082
  297SOL     OW 1789   1.687   4.009   3.410
  297SOL    HW1 1790   1.703   4.096   3.457
  297SOL    HW2 1791   1.731   3.935   3.460
  298SOL     OW 1792   6.254   5.612   0.965
  298SOL    HW1 1793   6.310   5.632   0.885
  298SOL    HW2 1794   6.164   5.579   0.936
  299SOL     OW 1795   6.175   2.742   4.577
  299SOL    HW1 1796   6.240   2.703   4.641
  299SOL    HW2 1797   6.197   2.711   4.484
  300SOL     OW 1798   5.983   0.304   3.092
  300SOL    HW1 1799   6.063   0.348   3.051
  300SOL    HW2 1800   5.905   0.313   3.030
  301SOL     OW 1801   5.929   3.499   7.003
  301SOL    HW1 1802   5.927   3.544   0.070
  301SOL    HW2 1803   6.023   3.495   6.969
  302SOL     OW 1804   0.709   0.271   3.850
  302SOL    HW1 1805   0.771   0.330   3.903
  302SOL    HW2 1806   0.672   0.201   3.911
  303SOL     OW 1807   4.660   0.680   3.101
  303SOL    HW1 1808   4.675   0.768   3.147
  303SOL    HW2 1809   4.656   0.607   3.169
  304SOL     OW 1810   2.342   6.910   3.130
  304SOL    HW1 1811   2.358   7.009   3.132
  304SOL    HW2 1812   2.392   6.867   3.205
  305SOL     OW 1813   1.275   4.075   0.199
  305SOL    HW1 1814   1.306   4.018   0.123
  305SOL    HW2 1815   1.244   4.163   0.164
  306SOL     OW 1816   2.181   0.831   3.536
  306SOL    HW1 1817   2.122   0.760   3.574
  306SOL    HW2 1818   2.241   0.866   3.608
  307SOL     OW 1819   4.697   0.320   1.106
  307SOL    HW1 1820   4.608   0.317   1.060
  307SOL    HW2 1821   4.685   0.348   1.201
  308SOL     OW 1822   1.231   6.407   3.253
  308SOL    HW1 1823   1.165   6.423   3.179
  308SOL    HW2 1824   1.275   6.493   3.277
  309SOL     OW 1825   3.626   4.550   5.396
  309SOL    HW1 1826   3.713   4.592   5.371
  309SOL    HW2 1827   3.551   4.604   5.357
  310SOL     OW 1828   0.342   6.589   5.697
  310SOL    HW1 1829   0.377   6.566   5.788
  310SOL    HW2 1830   0.346   6.688   5.684
  311SOL     OW 1831   0.654   5.930   1.713
  311SOL    HW1 1832   0.632   6.022   1.743
  311SOL    HW2 1833   0.743   5.903   1.749
  312SOL     OW 1834   5.110   1.824   5.326
  312SOL    HW1 1835   5.196   1.778   5.349
  312SOL    HW2 1836   5.043   1.756   5.294
  313SOL     OW 1837   2.047   4.127   1.823
  313SOL    HW1 1838   2.115   4.054   1.833
  313SOL    HW2 1839   1.977   4.098   1.758
  314SOL     OW 1840   3.711   5.607   0.216
  314SOL    HW1 1841   3.612   5.594   0.228
  314SOL    HW2 1842   3.751   5.637   0.303
  315SOL     OW 1843   0.266   3.069   3.690
  315SOL    HW1 1844   0.223   3.132   3.755
  315SOL    HW2 1845   0.334   3.117   3.636
  316SOL     OW 1846   2.298   2.895   3.714
  316SOL    HW1 1847   2.326   2.847   3.797
  316SOL    HW2 1848   2.219   2.953   3.733
  317SOL     OW 1849   6.646   1.467   6.800
  317SOL    HW1 1850   6.567   1.404   6.802
  317SOL    HW2 1851   6.716   1.434   6.862
  318SOL     OW 1852   1.811   3.988   0.841
  318SOL    HW1 1853   1.787   4.071   0.891
  318SOL    HW2 1854   1.823   4.010   0.744
  319SOL     OW 1855   1.382   6.971   1.182
  319SOL    HW1 1856   1.467   6.992   1.133
  319SOL    HW2 1857   1.327   0.032   1.192
  320SOL     OW 1858   6.135   3.304   0.924
  320SOL    HW1 1859   6.206   3.366   0.889
  320SOL    HW2 1860   6.168   3.210   0.920
  321SOL     OW 1861   1.960   2.509   1.809
  321SOL    HW1 1862   1.942   2.546   1.899
  321SOL    HW2 1863   1.882   2.526   1.749
  322SOL     OW 1864   3.843   2.983   5.071
  322SOL    HW1 1865   3.783   3.039   5.128
  322SOL    HW2 1866   3.792   2.905   5.036
  323SOL     OW 1867   6.625   4.109   1.060
  323SOL    HW1 1868   6.598   4.035   1.121
  323SOL    HW2 1869   6.547   4.170   1.044
  324SOL     OW 1870   0.942   3.158   4.780
  324SOL    HW1 1871   0.910   3.070   4.744
  324SOL    HW2 1872   1.042   3.159   4.779
  325SOL     OW 1873   2.123   2.808   1.743
  325SOL    HW1 1874   2.125   2.798   1.644
  325SOL    HW2 1875   2.056   2.878   1.768
  326SOL     OW 1876   2.167   5.838   6.415
  326SOL    HW1 1877   2.189   5.812   6.509
  326SOL    HW2 1878   2.071   5.818   6.397
  327SOL     OW 1879   6.189   4.939   5.431
  327SOL    HW1 1880   6.175   4.841   5.418
  327SOL    HW2 1881   6.104   4.981   5.463
  328SOL     OW 1882   4.114   4.852   1.918
  328SOL    HW1 1883   4.049   4.923   1.947
  328SOL    HW2 1884   4.090   4.820   1.827
  329SOL     OW 1885   3.716   3.707   3.079
  329SOL    HW1 1886   3.645   3.658   3.130
  329SOL    HW2 1887   3.794   3.725   3.140
  330SOL     OW 1888   3.232   6.923   1.527
  330SOL    HW1 1889   3.277   6.835   1.510
  330SOL    HW2 1890   3.153   6.909   1.587
  331SOL     OW 1891   4.972   5.055   5.562
  331SOL    HW1 1892   5.053   5.104   5.594
  331SOL    HW2 1893   4.956   4.975   5.619
  332SOL     OW 1894   3.110   1.824   4.052
  332SOL    HW1 1895   3.026   1.851   4.098
  332SOL    HW2 1896   3.096   1.735   4.007
  333SOL     OW 1897   3.853   6.143   6.104
  333SOL    HW1 1898   3.753   6.143   6.113
  333SOL    HW2 1899   3.879   6.088   6.024
  334SOL     OW 1900   3.534   6.978   2.428
  334SOL    HW1 1901   3.435   6.989   2.440
  334SOL    HW2 1902   3.568   6.906   2.488
  335SOL     OW 1903   3.040   6.498   3.339
  335SOL    HW1 1904   3.057   6.402   3.318
  335SOL    HW2 1905   3.045   6.512   3.438
  336SOL     OW 1906   3.310   1.098   3.516
  336SOL    HW1 1907   3.266   1.149   3.589
  336SOL    HW2 1908   3.270   1.124   3.428
  337SOL     OW 1909   0.047   3.397   1.586
  337SOL    HW1 1910   0.003   3.335   1.520
  337SOL    HW2 1911   0.143   3.373   1.594
  338SOL     OW 1912   2.883   2.871   1.410
  338SOL    HW1 1913   2.848   2.848   1.501
  338SOL    HW2 1914   2.969   2.922   1.420
  339SOL     OW 1915   4.041   6.125   2.593
  339SOL    HW1 1916   4.041   6.026   2.580
  339SOL    HW2 1917   4.102   6.149   2.668
  340SOL     OW 1918   4.958   3.794   4.532
  340SOL    HW1 1919   4.919   3.745   4.610
  340SOL    HW2 1920   4.948   3.738   4.449
  341SOL     OW 1921   5.240   5.600   4.136
  341SOL    HW1 1922   5.231   5.664   4.060
  341SOL    HW2 1923   5.179   5.522   4.121
  342SOL     OW 1924   6.456   5.123   0.396
  342SOL    HW1 1925   6.456   5.113   0.496
  342SOL    HW2 1926   6.482   5.216   0.372
  343SOL     OW 1927   3.707   6.824   1.468
  343SOL    HW1 1928   3.654   6.750   1.426
  343SOL    HW2 1929   3.721   6.804   1.565
  344SOL     OW 1930   2.166   4.824   0.494
  344SOL    HW1 1931   2.233   4.761   0.533
  344SOL    HW2 1932   2.076   4.806   0.534
  345SOL     OW 1933   0.932   0.561   5.357
  345SOL    HW1 1934   0.890   0.497   5.291
  345SOL    HW2 1935   0.956   0.646   5.310
  346SOL     OW 1936   1.650   0.057   2.456
  346SOL    HW1 1937   1.651   0.068   2.356
  346SOL    HW2 1938   1.583   0.120   2.496
  347SOL     OW 1939   5.333   6.734   6.656
  347SOL    HW1 1940   5.258   6.736   6.722
  347SOL    HW2 1941   5.295   6.735   6.563
  348SOL     OW 1942   3.265   5.235   1.151
  348SOL    HW1 1943   3.364   5.242   1.164
  348SOL    HW2 1944   3.246   5.183   1.068
  349SOL     OW 1945   0.592   4.859   2.536
  349SOL    HW1 1946   0.619   4.888   2.445
  349SOL    HW2 1947   0.604   4.935   2.600
  350SOL     OW 1948   3.733   3.318   1.459
  350SOL    HW1 1949   3.784   3.275   1.533
  350SOL    HW2 1950   3.649   3.359   1.494
  351SOL     OW 1951   2.794   1.654   0.042
  351SOL    HW1 1952   2.829   1.698   0.124
  351SOL    HW2 1953   2.754   1.566   0.066
  352SOL     OW 1954   3.142   0.471   5.949
  352SOL    HW1 1955   3.110   0.422   5.868
  352SOL    HW2 1956   3.084   0.551   5.965
  353SOL     OW 1957   1.579   6.192   0.466
  353SOL    HW1 1958   1.595   6.189   0.564
  353SOL    HW2 1959   1.666   6.184   0.417
  354SOL     OW 1960   4.428   1.584   0.240
  354SOL    HW1 1961   4.491   1.537   0.178
  354SOL    HW2 1962   4.456   1.565   0.335
  355SOL     OW 1963   0.088   3.621   2.718
  355SOL    HW1 1964   0.115   3.588   2.808
  355SOL    HW2 1965   7.015   3.654   2.721
  356SOL     OW 1966   3.827   5.208   3.706
  356SOL    HW1 1967   3.812   5.307   3.714
  356SOL    HW2 1968   3.911   5.192   3.653
  357SOL     OW 1969   6.964   5.789   5.229
  357SOL    HW1 1970   0.023   5.732   5.215
  357SOL    HW2 1971   6.924   5.769   5.319
  358SOL     OW 1972   5.731   0.407   1.894
  358SOL    HW1 1973   5.718   0.465   1.974
  358SOL    HW2 1974   5.817   0.431   1.849
  359SOL     OW 1975   1.302   1.727   2.311
  359SOL    HW1 1976   1.336   1.633   2.322
  359SOL    HW2 1977   1.205   1.724   2.286
  360SOL     OW 1978   3.937   6.846   0.180
  360SOL    HW1 1979   3.992   6.821   0.260
  360SOL    HW2 1980   3.859   6.784   0.173
  361SOL     OW 1981   4.764   6.569   2.286
  361SOL    HW1 1982   4.741   6.542   2.193
  361SOL    HW2 1983   4.863   6.582   2.293
  362SOL     OW 1984   3.124   3.170   1.052
  362SOL    HW1 1985   3.076   3.257   1.058
  362SOL    HW2 1986   3.059   3.096   1.034
  363SOL     OW 1987   3.936   4.939   3.823
  363SOL    HW1 1988   3.985   4.979   3.745
  363SOL    HW2 1989   3.990   4.865   3.861
  364SOL     OW 1990   1.227   5.264   6.091
  364SOL    HW1 1991   1.274   5.189   6.046
  364SOL    HW2 1992   1.292   5.314   6.148
  365SOL     OW 1993   4.973   6.431   1.997
  365SOL    HW1 1994   5.043   6.383   1.945
  365SOL    HW2 1995   4.945   6.375   2.075
  366SOL     OW 1996   5.635   1.077   0.099
  366SOL    HW1 1997   5.587   1.018   0.164
  366SOL    HW2 1998   5.710   1.124   0.146
  367SOL     OW 1999   5.473   2.997   1.373
  367SOL    HW1 2000   5.453   3.084   1.418
  367SOL    HW2 2001   5.454   3.005   1.275
  368SOL     OW 2002   1.337   4.593   5.255
  368SOL    HW1 2003   1.372   4.611   5.163
  368SOL    HW2 2004   1.357   4.671   5.314
  369SOL     OW 2005   0.601   3.958   1.827
  369SOL    HW1 2006   0.516   3.937   1.778
  369SOL    HW2 2007   0.649   4.031   1.780
  370SOL     OW 2008   3.446   1.463   5.567
  370SOL    HW1 2009   3.348   1.455   5.550
  370SOL    HW2 2010   3.462   1.519   5.648
  371SOL     OW 2011   3.170   3.332   0.383
  371SOL    HW1 2012   3.086   3.284   0.356
  371SOL    HW2 2013   3.226   3.347   0.302
  372SOL     OW 2014   6.930   6.895   6.172
  372SOL    HW1 2015   6.868   6.817   6.169
  372SOL    HW2 2016   6.878   6.979   6.186
  373SOL     OW 2017   7.002   6.567   0.553
  373SOL    HW1 2018   7.008   6.481   0.603
  373SOL    HW2 2019   6.938   6.629   0.599
  374SOL     OW 2020   3.759   0.638   1.508
  374SOL    HW1 2021   3.666   0.655   1.539
  374SOL    HW2 2022   3.772   0.540   1.493
  375SOL     OW 2023   6.493   4.929   3.312
  375SOL    HW1 2024   6.495   5.001   3.382
  375SOL    HW2 2025   6.546   4.850   3.344
  376SOL     OW 2026   2.129   2.756   4.240
  376SOL    HW1 2027   2.214   2.752   4.291
  376SOL    HW2 2028   2.079   2.670   4.251
  377SOL     OW 2029   4.719   2.124   3.398
  377SOL    HW1 2030   4.808   2.165   3.377
  377SOL    HW2 2031   4.729   2.060   3.474
  378SOL     OW 2032   4.937   3.200   5.188
  378SOL    HW1 2033   4.997   3.129   5.153
  378SOL    HW2 2034   4.932   3.275   5.123
  379SOL     OW 2035   5.686   3.842   0.959
  379SOL    HW1 2036   5.678   3.914   0.890
  379SOL    HW2 2037   5.711   3.756   0.914
  380SOL     OW 2038   1.617   1.867   1.131
  380SOL    HW1 2039   1.625   1.906   1.040
  380SOL    HW2 2040   1.695   1.894   1.187
  381SOL     OW 2041   3.430   3.771   1.043
  381SOL    HW1 2042   3.422   3.684   1.091
  381SOL    HW2 2043   3.437   3.755   0.944
  382SOL     OW 2044   2.938   5.964   0.411
  382SOL    HW1 2045   2.935   5.897   0.337
  382SOL    HW2 2046   2.855   5.957   0.466
  383SOL     OW 2047   6.499   2.586   0.213
  383SOL    HW1 2048   6.430   2.516   0.231
  383SOL    HW2 2049   6.495   2.655   0.285
  384SOL     OW 2050   1.260   5.265   4.843
  384SOL    HW1 2051   1.263   5.280   4.744
  384SOL    HW2 2052   1.242   5.169   4.861
  385SOL     OW 2053   4.600   6.247   0.575
  385SOL    HW1 2054   4.607   6.289   0.485
  385SOL    HW2 2055   4.592   6.148   0.565
  386SOL     OW 2056   3.346   6.300   5.782
  386SOL    HW1 2057   3.355   6.350   5.868
  386SOL    HW2 2058   3.419   6.328   5.720
  387SOL     OW 2059   0.468   0.831   5.071
  387SOL    HW1 2060   0.446   0.867   5.161
  387SOL    HW2 2061   0.488   0.733   5.077
  388SOL     OW 2062   6.391   2.557   5.018
  388SOL    HW1 2063   6.447   2.640   5.023
  388SOL    HW2 2064   6.448   2.477   5.037
  389SOL     OW 2065   4.313   5.043   1.477
  389SOL    HW1 2066   4.227   5.049   1.527
  389SOL    HW2 2067   4.305   5.092   1.391
  390SOL     OW 2068   3.464   2.036   0.544
  390SOL    HW1 2069   3.397   2.019   0.472
  390SOL    HW2 2070   3.435   2.116   0.598
  391SOL     OW 2071   3.536   4.298   5.911
  391SOL    HW1 2072   3.438   4.313   5.901
  391SOL    HW2 2073   3.552   4.213   5.960
  392SOL     OW 2074   1.257   3.724   1.974
  392SOL    HW1 2075   1.188   3.690   1.911
  392SOL    HW2 2076   1.271   3.659   2.048
  393SOL     OW 2077   1.051   4.394   1.455
  393SOL    HW1 2078   1.138   4.355   1.424
  393SOL    HW2 2079   0.979   4.372   1.390
  394SOL     OW 2080   6.409   0.798   6.217
  394SOL    HW1 2081   6.361   0.851   6.287
  394SOL    HW2 2082   6.468   0.731   6.261
  395SOL     OW 2083   5.790   4.706   1.069
  395SOL    HW1 2084   5.780   4.635   1.138
  395SOL    HW2 2085   5.852   4.777   1.103
  396SOL     OW 2086   2.658   1.429   2.309
  396SOL    HW1 2087   2.743   1.421   2.362
  396SOL    HW2 2088   2.597   1.495   2.353
  397SOL     OW 2089   4.409   1.737   5.279
  397SOL    HW1 2090   4.404   1.705   5.374
  397SOL    HW2 2091   4.317   1.743   5.241
  398SOL     OW 2092   2.431   1.539   4.186
  398SOL    HW1 2093   2.349   1.534   4.128
  398SOL    HW2 2094   2.404   1.547   4.282
  399SOL     OW 2095   5.606   6.188   3.871
  399SOL    HW1 2096   5.667   6.138   3.810
  399SOL    HW2 2097   5.561   6.261   3.820
  400SOL     OW 2098   6.595   0.479   4.826
  400SOL    HW1 2099   6.582   0.448   4.920
  400SOL    HW2 2100   6.516   0.534   4.798
  401SOL     OW 2101   6.776   5.661   5.925
  401SOL    HW1 2102   6.685   5.702   5.938
  401SOL    HW2 2103   6.829   5.670   6.009
  402SOL     OW 2104   6.330   0.201   2.234
  402SOL    HW1 2105   6.422   0.161   2.243
  402SOL    HW2 2106   6.334   0.280   2.172
  403SOL     OW 2107   2.115   1.206   5.392
  403SOL    HW1 2108   2.198   1.234   5.441
  403SOL    HW2 2109   2.059   1.148   5.452
  404SOL     OW 2110   3.512   4.894   3.805
  404SOL    HW1 2111   3.580   4.847   3.748
  404SOL    HW2 2112   3.559   4.938   3.882
  405SOL     OW 2113   2.696   4.780   3.699
  405SOL    HW1 2114   2.783   4.827   3.681
  405SOL    HW2 2115   2.695   4.693   3.649
  406SOL     OW 2116   0.582   5.627   5.989
  406SOL    HW1 2117   0.673   5.644   6.025
  406SOL    HW2 2118   0.568   5.682   5.906
  407SOL     OW 2119   2.178   3.212   4.572
  407SOL    HW1 2120   2.148   3.307   4.564
  407SOL    HW2 2121   2.219   3.197   4.662
  408SOL     OW 2122   2.676   1.736   3.801
  408SOL    HW1 2123   2.604   1.675   3.768
  408SOL    HW2 2124   2.654   1.830   3.776
  409SOL     OW 2125   1.020   3.739   2.651
  409SOL    HW1 2126   0.943   3.731   2.587
  409SOL    HW2 2127   1.075   3.655   2.646
  410SOL     OW 2128   2.174   1.821   1.546
  410SOL    HW1 2129   2.190   1.903   1.491
  410SOL    HW2 2130   2.255   1.803   1.602
  411SOL     OW 2131   0.976   2.648   1.410
  411SOL    HW1 2132   0.921   2.585   1.356
  411SOL    HW2 2133   1.038   2.698   1.350
  412SOL     OW 2134   1.645   5.029   1.530
  412SOL    HW1 2135   1.593   5.010   1.447
  412SOL    HW2 2136   1.676   4.943   1.570
  413SOL     OW 2137   5.600   5.374   2.734
  413SOL    HW1 2138   5.673   5.443   2.728
  413SOL    HW2 2139   5.588   5.347   2.830
  414SOL     OW 2140   2.108   6.392   3.343
  414SOL    HW1 2141   2.169   6.454   3.295
  414SOL    HW2 2142   2.151   6.302   3.350
  415SOL     OW 2143   6.800   1.007   0.798
  415SOL    HW1 2144   6.897   1.030   0.801
  415SOL    HW2 2145   6.787   0.919   0.752
  416SOL     OW 2146   4.932   3.208   4.745
  416SOL    HW1 2147   4.924   3.267   4.825
  416SOL    HW2 2148   4.928   3.113   4.774
  417SOL     OW 2149   3.127   1.970   6.080
  417SOL    HW1 2150   3.160   1.935   6.167
  417SOL    HW2 2151   3.179   2.052   6.054
  418SOL     OW 2152   3.952   5.654   4.714
  418SOL    HW1 2153   3.953   5.559   4.681
  418SOL    HW2 2154   3.858   5.688   4.714
  419SOL     OW 2155   0.826   6.679   1.007
  419SOL    HW1 2156   0.844   6.656   0.911
  419SOL    HW2 2157   0.756   6.618   1.043
  420SOL     OW 2158   4.889   1.592   6.048
  420SOL    HW1 2159   4.951   1.611   6.124
  420SOL    HW2 2160   4.874   1.493   6.042
  421SOL     OW 2161   5.327   3.318   2.540
  421SOL    HW1 2162   5.256   3.355   2.480
  421SOL    HW2 2163   5.311   3.349   2.633
  422SOL     OW 2164   4.906   3.218   1.973
  422SOL    HW1 2165   5.002   3.193   1.982
  422SOL    HW2 2166   4.850   3.157   2.028
  423SOL     OW 2167   3.621   1.309   6.393
  423SOL    HW1 2168   3.710   1.274   6.366
  423SOL    HW2 2169   3.590   1.263   6.477
  424SOL     OW 2170   0.962   3.865   3.280
  424SOL    HW1 2171   0.933   3.769   3.275
  424SOL    HW2 2172   0.906   3.913   3.347
  425SOL     OW 2173   2.656   0.964   5.382
  425SOL    HW1 2174   2.732   0.948   5.318
  425SOL    HW2 2175   2.569   0.957   5.332
  426SOL     OW 2176   2.811   2.345   4.438
  426SOL    HW1 2177   2.907   2.316   4.448
  426SOL    HW2 2178   2.756   2.305   4.511
  427SOL     OW 2179   3.655   2.084   3.111
  427SOL    HW1 2180   3.607   2.054   3.193
  427SOL    HW2 2181   3.597   2.069   3.031
  428SOL     OW 2182   2.448   1.758   5.564
  428SOL    HW1 2183   2.459   1.677   5.506
  428SOL    HW2 2184   2.469   1.840   5.511
  429SOL     OW 2185   1.020   6.153   3.776
  429SOL    HW1 2186   1.008   6.053   3.777
  429SOL    HW2 2187   1.085   6.178   3.704
  430SOL     OW 2188   1.405   6.943   3.418
  430SOL    HW1 2189   1.459   7.013   3.371
  430SOL    HW2 2190   1.311   6.977   3.431
  431SOL     OW 2191   2.648   1.752   1.745
  431SOL    HW1 2192   2.626   1.750   1.843
  431SOL    HW2 2193   2.701   1.834   1.724
  432SOL     OW 2194   4.108   2.222   2.292
  432SOL    HW1 2195   4.179   2.286   2.262
  432SOL    HW2 2196   4.049   2.199   2.215
  433SOL     OW 2197   2.327   5.634   0.197
  433SOL    HW1 2198   2.417   5.661   0.230
  433SOL    HW2 2199   2.258   5.655   0.266
  434SOL     OW 2200   4.017   6.150   3.732
  434SOL    HW1 2201   3.944   6.210   3.762
  434SOL    HW2 2202   4.100   6.168   3.786
  435SOL     OW 2203   3.581   1.541   6.264
  435SOL    HW1 2204   3.603   1.452   6.305
  435SOL    HW2 2205   3.601   1.614   6.329
  436SOL     OW 2206   4.871   0.044   2.787
  436SOL    HW1 2207   4.793   0.001   2.833
  436SOL    HW2 2208   4.861   0.034   2.688
  437SOL     OW 2209   6.807   0.599   5.070
  437SOL    HW1 2210   6.726   0.553   5.034
  437SOL    HW2 2211   6.862   0.534   5.122
  438SOL     OW 2212   0.333   4.457   2.972
  438SOL    HW1 2213   0.272   4.397   2.921
  438SOL    HW2 2214   0.349   4.542   2.920
  439SOL     OW 2215   6.351   0.014   3.995
  439SOL    HW1 2216   6.415   6.960   4.007
  439SOL    HW2 2217   6.261   7.000   3.970
  440SOL     OW 2218   3.707   1.291   0.859
  440SOL    HW1 2219   3.609   1.281   0.873
  440SOL    HW2 2220   3.725   1.359   0.789
  441SOL     OW 2221   6.989   4.065   2.515
  441SOL    HW1 2222   0.064   4.040   2.506
  441SOL    HW2 2223   6.932   3.990   2.479
  442SOL     OW 2224   5.337   3.345   6.059
  442SOL    HW1 2225   5.338   3.380   5.965
  442SOL    HW2 2226   5.364   3.418   6.121
  443SOL     OW 2227   4.950   3.245   2.324
  443SOL    HW1 2228   4.909   3.154   2.317
  443SOL    HW2 2229   4.918   3.290   2.408
  444SOL     OW 2230   4.172   0.830   1.718
  444SOL    HW1 2231   4.090   0.778   1.741
  444SOL    HW2 2232   4.148   0.906   1.657
  445SOL     OW 2233   1.448   5.641   2.049
  445SOL    HW1 2234   1.542   5.622   2.078
  445SOL    HW2 2235   1.386   5.631   2.127
  446SOL     OW 2236   5.514   0.076   1.525
  446SOL    HW1 2237   5.433   0.123   1.559
  446SOL    HW2 2238   5.499   0.050   1.429
  447SOL     OW 2239   6.178   4.623   1.103
  447SOL    HW1 2240   6.133   4.559   1.042
  447SOL    HW2 2241   6.242   4.574   1.162
  448SOL     OW 2242   2.778   6.840   3.253
  448SOL    HW1 2243   2.827   6.756   3.228
  448SOL    HW2 2244   2.809   6.915   3.195
  449SOL     OW 2245   1.415   4.058   5.149
  449SOL    HW1 2246   1.480   4.081   5.222
  449SOL    HW2 2247   1.414   4.130   5.080
  450SOL     OW 2248   0.427   5.062   3.826
  450SOL    HW1 2249   0.389   4.969   3.822
  450SOL    HW2 2250   0.434   5.099   3.733
  451SOL     OW 2251   0.836   2.160   2.264
  451SOL    HW1 2252   0.816   2.227   2.193
  451SOL    HW2 2253   0.915   2.189   2.317
  452SOL     OW 2254   4.840   5.307   2.038
  452SOL    HW1 2255   4.854   5.380   1.971
  452SOL    HW2 2256   4.839   5.219   1.991
  453SOL     OW 2257   3.532   0.517   6.269
  453SOL    HW1 2258   3.504   0.597   6.215
  453SOL    HW2 2259   3.451   0.474   6.308
  454SOL     OW 2260   6.516   3.137   6.385
  454SOL    HW1 2261   6.421   3.119   6.412
  454SOL    HW2 2262   6.519   3.214   6.322
  455SOL     OW 2263   5.878   4.485   6.283
  455SOL    HW1 2264   5.950   4.509   6.349
  455SOL    HW2 2265   5.801   4.547   6.295
  456SOL     OW 2266   2.939   1.017   2.423
  456SOL    HW1 2267   2.851   1.025   2.376
  456SOL    HW2 2268   3.012   1.009   2.356
  457SOL     OW 2269   2.719   0.367   6.860
  457SOL    HW1 2270   2.727   0.373   6.760
  457SOL    HW2 2271   2.798   0.316   6.896
  458SOL     OW 2272   3.041   1.561   3.236
  458SOL    HW1 2273   2.985   1.479   3.223
  458SOL    HW2 2274   3.138   1.536   3.231
  459SOL     OW 2275   3.560   0.034   3.941
  459SOL    HW1 2276   3.526   0.128   3.930
  459SOL    HW2 2277   3.658   0.037   3.961
  460SOL     OW 2278   1.237   1.287   6.165
  460SOL    HW1 2279   1.209   1.201   6.208
  460SOL    HW2 2280   1.202   1.291   6.072
  461SOL     OW 2281   0.971   5.256   5.711
  461SOL    HW1 2282   1.037   5.323   5.743
  461SOL    HW2 2283   0.990   5.167   5.754
  462SOL     OW 2284   2.890   3.880   5.035
  462SOL    HW1 2285   2.904   3.842   4.943
  462SOL    HW2 2286   2.928   3.972   5.039
  463SOL     OW 2287   5.185   7.022   2.786
  463SOL    HW1 2288   5.101   0.046   2.816
  463SOL    HW2 2289   5.189   6.930   2.826
  464SOL     OW 2290   4.147   5.207   6.403
  464SOL    HW1 2291   4.137   5.123   6.457
  464SOL    HW2 2292   4.058   5.252   6.395
  465SOL     OW 2293   1.072   3.643   1.531
  465SOL    HW1 2294   1.154   3.692   1.504
  465SOL    HW2 2295   0.991   3.692   1.498
  466SOL     OW 2296   3.742   5.306   4.620
  466SOL    HW1 2297   3.664   5.363   4.593
  466SOL    HW2 2298   3.827   5.355   4.599
  467SOL     OW 2299   6.401   6.951   1.867
  467SOL    HW1 2300   6.493   6.980   1.895
  467SOL    HW2 2301   6.338   0.007   1.874
  468SOL     OW 2302   2.973   6.996   6.368
  468SOL    HW1 2303   2.912   7.008   6.290
  468SOL    HW2 2304   2.919   6.974   6.449
  469SOL     OW 2305   3.445   4.821   5.900
  469SOL    HW1 2306   3.393   4.736   5.900
  469SOL    HW2 2307   3.388   4.894   5.938
  470SOL     OW 2308   2.067   5.203   2.840
  470SOL    HW1 2309   2.075   5.105   2.859
  470SOL    HW2 2310   2.129   5.254   2.900
  471SOL     OW 2311   1.721   2.329   4.109
  471SOL    HW1 2312   1.676   2.349   4.022
  471SOL    HW2 2313   1.779   2.248   4.099
  472SOL     OW 2314   5.704   3.430   6.251
  472SOL    HW1 2315   5.707   3.407   6.348
  472SOL    HW2 2316   5.665   3.353   6.200
  473SOL     OW 2317   6.516   2.606   2.163
  473SOL    HW1 2318   6.504   2.703   2.143
  473SOL    HW2 2319   6.614   2.584   2.163
  474SOL     OW 2320   5.055   6.159   3.791
  474SOL    HW1 2321   4.965   6.169   3.747
  474SOL    HW2 2322   5.043   6.134   3.887
  475SOL     OW 2323   6.048   1.847   0.670
  475SOL    HW1 2324   5.987   1.853   0.749
  475SOL    HW2 2325   6.011   1.901   0.595
  476SOL     OW 2326   1.147   4.616   1.574
  476SOL    HW1 2327   1.082   4.687   1.601
  476SOL    HW2 2328   1.098   4.532   1.553
  477SOL     OW 2329   1.640   4.592   3.813
  477SOL    HW1 2330   1.735   4.595   3.847
  477SOL    HW2 2331   1.588   4.666   3.856
  478SOL     OW 2332   4.939   5.695   2.077
  478SOL    HW1 2333   4.885   5.640   2.014
  478SOL    HW2 2334   4.919   5.667   2.171
  479SOL     OW 2335   3.497   4.175   3.860
  479SOL    HW1 2336   3.422   4.241   3.870
  479SOL    HW2 2337   3.460   4.083   3.850
  480SOL     OW 2338   1.612   0.776   3.003
  480SOL    HW1 2339   1.542   0.824   3.056
  480SOL    HW2 2340   1.690   0.837   2.986
  481SOL     OW 2341   0.137   0.018   0.658
  481SOL    HW1 2342   0.157   0.079   0.581
  481SOL    HW2 2343   0.212   0.020   0.723
  482SOL     OW 2344   3.921   4.975   1.393
  482SOL    HW1 2345   3.927   4.904   1.323
  482SOL    HW2 2346   3.935   4.935   1.483
  483SOL     OW 2347   5.500   2.078   3.740
  483SOL    HW1 2348   5.576   2.013   3.739
  483SOL    HW2 2349   5.453   2.076   3.652
  484SOL     OW 2350   2.369   4.633   4.668
  484SOL    HW1 2351   2.465   4.623   4.696
  484SOL    HW2 2352   2.326   4.703   4.724
  485SOL     OW 2353   5.448   3.275   1.784
  485SOL    HW1 2354   5.417   3.289   1.878
  485SOL    HW2 2355   5.449   3.177   1.763
  486SOL     OW 2356   6.047   5.954   6.686
  486SOL    HW1 2357   5.975   5.899   6.643
  486SOL    HW2 2358   6.027   6.051   6.676
  487SOL     OW 2359   6.706   0.013   6.004
  487SOL    HW1 2360   6.683   6.940   5.980
  487SOL    HW2 2361   6.717   0.021   6.103
  488SOL     OW 2362   1.723   6.210   2.775
  488SOL    HW1 2363   1.798   6.189   2.838
  488SOL    HW2 2364   1.692   6.303   2.789
  489SOL     OW 2365   1.207   5.863   6.553
  489SOL    HW1 2366   1.294   5.855   6.603
  489SOL    HW2 2367   1.131   5.838   6.613
  490SOL     OW 2368   1.224   4.183   4.429
  490SOL    HW1 2369   1.175   4.218   4.349
  490SOL    HW2 2370   1.320   4.213   4.424
  491SOL     OW 2371   0.402   2.918   1.163
  491SOL    HW1 2372   0.329   2.945   1.100
  491SOL    HW2 2373   0.448   2.836   1.129
  492SOL     OW 2374   1.053   2.517   5.785
  492SOL    HW1 2375   1.102   2.450   5.840
  492SOL    HW2 2376   1.007   2.582   5.845
  493SOL     OW 2377   2.309   5.704   4.840
  493SOL    HW1 2378   2.320   5.700   4.740
  493SOL    HW2 2379   2.314   5.611   4.877
  494SOL     OW 2380   2.362   6.608   5.048
  494SOL    HW1 2381   2.316   6.528   5.010
  494SOL    HW2 2382   2.297   6.683   5.056
  495SOL     OW 2383   3.717   3.612   6.148
  495SOL    HW1 2384   3.755   3.673   6.217
  495SOL    HW2 2385   3.695   3.665   6.066
  496SOL     OW 2386   4.772   1.401   3.241
  496SOL    HW1 2387   4.789   1.500   3.234
  496SOL    HW2 2388   4.816   1.365   3.323
  497SOL     OW 2389   3.973   1.833   0.187
  497SOL    HW1 2390   4.064   1.792   0.190
  497SOL    HW2 2391   3.953   1.879   0.273
  498SOL     OW 2392   0.846   6.899   1.577
  498SOL    HW1 2393   0.884   6.980   1.622
  498SOL    HW2 2394   0.888   6.888   1.487
  499SOL     OW 2395   3.032   6.221   6.936
  499SOL    HW1 2396   3.022   6.183   0.006
  499SOL    HW2 2397   3.061   6.148   6.873
  500SOL     OW 2398   5.993   1.882   0.359
  500SOL    HW1 2399   5.903   1.923   0.342
  500SOL    HW2 2400   6.060   1.955   0.373
  501SOL     OW 2401   0.953   1.324   4.103
  501SOL    HW1 2402   0.993   1.354   4.189
  501SOL    HW2 2403   1.015   1.347   4.028
  502SOL     OW 2404   1.905   4.927   6.559
  502SOL    HW1 2405   1.856   4.844   6.585
  502SOL    HW2 2406   1.920   4.984   6.640
  503SOL     OW 2407   4.102   4.973   0.365
  503SOL    HW1 2408   4.026   4.981   0.301
  503SOL    HW2 2409   4.095   5.044   0.435
  504SOL     OW 2410   6.040   6.248   1.588
  504SOL    HW1 2411   6.037   6.304   1.671
  504SOL    HW2 2412   6.018   6.153   1.611
  505SOL     OW 2413   4.314   6.037   4.749
  505SOL    HW1 2414   4.412   6.039   4.729
  505SOL    HW2 2415   4.264   6.023   4.663
  506SOL     OW 2416   4.497   4.877   2.153
  506SOL    HW1 2417   4.483   4.784   2.187
  506SOL    HW2 2418   4.411   4.928   2.160
  507SOL     OW 2419   2.583   0.913   0.681
  507SOL    HW1 2420   2.559   0.817   0.664
  507SOL    HW2 2421   2.658   0.939   0.620
  508SOL     OW 2422   7.015   4.259   3.452
  508SOL    HW1 2423   0.013   4.329   3.384
  508SOL    HW2 2424   0.048   4.277   3.534
  509SOL     OW 2425   4.517   6.818   6.475
  509SOL    HW1 2426   4.572   6.832   6.557
  509SOL    HW2 2427   4.566   6.854   6.396
  510SOL     OW 2428   6.751   3.744   0.303
  510SOL    HW1 2429   6.674   3.680   0.299
  510SOL    HW2 2430   6.737   3.808   0.380
  511SOL     OW 2431   0.779   2.442   0.729
  511SOL    HW1 2432   0.727   2.494   0.797
  511SOL    HW2 2433   0.718   2.412   0.656
  512SOL     OW 2434   0.084   2.199   5.101
  512SOL    HW1 2435   7.022   2.173   5.149
  512SOL    HW2 2436   0.088   2.299   5.093
  513SOL     OW 2437   5.630   0.928   3.315
  513SOL    HW1 2438   5.544   0.882   3.293
  513SOL    HW2 2439   5.692   0.863   3.360
  514SOL     OW 2440   6.224   0.051   4.687
  514SOL    HW1 2441   6.270   7.007   4.627
  514SOL    HW2 2442   6.273   0.057   4.774
  515SOL     OW 2443   4.117   0.419   5.600
  515SOL    HW1 2444   4.096   0.476   5.520
  515SOL    HW2 2445   4.137   0.326   5.570
  516SOL     OW 2446   2.406   6.154   1.665
  516SOL    HW1 2447   2.419   6.220   1.739
  516SOL    HW2 2448   2.431   6.195   1.578
  517SOL     OW 2449   3.875   5.508   1.020
  517SOL    HW1 2450   3.935   5.585   1.042
  517SOL    HW2 2451   3.797   5.540   0.967
  518SOL     OW 2452   2.054   3.437   3.807
  518SOL    HW1 2453   2.093   3.522   3.772
  518SOL    HW2 2454   2.037   3.374   3.731
  519SOL     OW 2455   0.301   0.251   2.506
  519SOL    HW1 2456   0.395   0.255   2.540
  519SOL    HW2 2457   0.297   0.289   2.414
  520SOL     OW 2458   1.294   3.455   0.749
  520SOL    HW1 2459   1.323   3.360   0.736
  520SOL    HW2 2460   1.346   3.514   0.687
  521SOL     OW 2461   6.486   6.481   4.819
  521SOL    HW1 2462   6.525   6.389   4.830
  521SOL    HW2 2463   6.472   6.500   4.722
  522SOL     OW 2464   3.643   3.981   1.472
  522SOL    HW1 2465   3.607   3.904   1.525
  522SOL    HW2 2466   3.743   3.974   1.468
  523SOL     OW 2467   1.014   0.249   1.135
  523SOL    HW1 2468   0.990   0.176   1.200
  523SOL    HW2 2469   0.981   0.224   1.044
  524SOL     OW 2470   6.935   2.454   1.759
  524SOL    HW1 2471   6.951   2.484   1.665
  524SOL    HW2 2472   0.000   2.450   1.808
  525SOL     OW 2473   1.164   3.709   5.471
  525SOL    HW1 2474   1.235   3.690   5.539
  525SOL    HW2 2475   1.136   3.624   5.427
  526SOL     OW 2476   3.290   7.010   3.905
  526SOL    HW1 2477   3.387   0.006   3.886
  526SOL    HW2 2478   3.281   6.961   3.992
  527SOL     OW 2479   0.133   0.757   0.632
  527SOL    HW1 2480   0.122   0.751   0.731
  527SOL    HW2 2481   0.219   0.805   0.610
  528SOL     OW 2482   6.890   3.302   3.952
  528SOL    HW1 2483   6.891   3.401   3.964
  528SOL    HW2 2484   6.839   3.260   4.028
  529SOL     OW 2485   1.764   0.965   0.319
  529SOL    HW1 2486   1.778   1.005   0.409
  529SOL    HW2 2487   1.849   0.924   0.287
  530SOL     OW 2488   3.825   4.013   0.906
  530SOL    HW1 2489   3.766   3.940   0.869
  530SOL    HW2 2490   3.881   3.976   0.980
  531SOL     OW 2491   1.343   0.869   1.108
  531SOL    HW1 2492   1.271   0.801   1.091
  531SOL    HW2 2493   1.358   0.876   1.207
  532SOL     OW 2494   1.745   2.385   0.006
  532SOL    HW1 2495   1.774   2.391   0.102
  532SOL    HW2 2496   1.780   2.464   6.978
  533SOL     OW 2497   3.737   0.426   4.524
  533SOL    HW1 2498   3.754   0.523   4.544
  533SOL    HW2 2499   3.823   0.382   4.501
  534SOL     OW 2500   1.488   4.924   1.305
  534SOL    HW1 2501   1.447   4.839   1.336
  534SOL    HW2 2502   1.416   4.984   1.269
  535SOL     OW 2503   5.456   3.564   3.730
  535SOL    HW1 2504   5.367   3.608   3.717
  535SOL    HW2 2505   5.442   3.475   3.773
  536SOL     OW 2506   6.914   6.874   2.322
  536SOL    HW1 2507   6.871   6.812   2.256
  536SOL    HW2 2508   7.004   6.900   2.287
  537SOL     OW 2509   4.137   1.881   4.587
  537SOL    HW1 2510   4.189   1.955   4.543
  537SOL    HW2 2511   4.201   1.815   4.627
  538SOL     OW 2512   3.127   4.779   5.556
  538SOL    HW1 2513   3.051   4.801   5.495
  538SOL    HW2 2514   3.179   4.862   5.577
  539SOL     OW 2515   1.091   0.202   0.026
  539SOL    HW1 2516   1.166   0.259   0.059
  539SOL    HW2 2517   1.054   0.148   0.102
  540SOL     OW 2518   0.866   0.407   4.039
  540SOL    HW1 2519   0.926   0.462   3.981
  540SOL    HW2 2520   0.820   0.467   4.105
  541SOL     OW 2521   4.288   5.419   4.467
  541SOL    HW1 2522   4.351   5.357   4.513
  541SOL    HW2 2523   4.311   5.423   4.370
  542SOL     OW 2524   3.533   0.664   5.875
  542SOL    HW1 2525   3.583   0.691   5.792
  542SOL    HW2 2526   3.481   0.581   5.856
  543SOL     OW 2527   6.358   2.327   4.640
  543SOL    HW1 2528   6.363   2.416   4.685
  543SOL    HW2 2529   6.289   2.330   4.567
  544SOL     OW 2530   1.662   3.829   1.116
  544SOL    HW1 2531   1.656   3.914   1.168
  544SOL    HW2 2532   1.725   3.766   1.163
  545SOL     OW 2533   5.771   1.074   1.231
  545SOL    HW1 2534   5.824   1.142   1.281
  545SOL    HW2 2535   5.701   1.035   1.291
  546SOL     OW 2536   0.192   4.275   2.841
  546SOL    HW1 2537   0.187   4.210   2.765
  546SOL    HW2 2538   0.104   4.280   2.888
  547SOL     OW 2539   4.502   1.094   6.182
  547SOL    HW1 2540   4.536   1.183   6.214
  547SOL    HW2 2541   4.578   1.040   6.146
  548SOL     OW 2542   3.519   2.309   6.877
  548SOL    HW1 2543   3.451   2.265   6.819
  548SOL    HW2 2544   3.599   2.334   6.822
  549SOL     OW 2545   6.290   1.564   1.585
  549SOL    HW1 2546   6.307   1.467   1.603
  549SOL    HW2 2547   6.337   1.590   1.500
  550SOL     OW 2548   6.863   5.367   3.415
  550SOL    HW1 2549   6.907   5.293   3.466
  550SOL    HW2 2550   6.930   5.411   3.356
  551SOL     OW 2551   6.577   0.694   0.527
  551SOL    HW1 2552   6.558   0.604   0.567
  551SOL    HW2 2553   6.657   0.734   0.572
  552SOL     OW 2554   6.385   5.108   5.502
  552SOL    HW1 2555   6.328   5.032   5.469
  552SOL    HW2 2556   6.327   5.183   5.533
  553SOL     OW 2557   2.778   0.856   6.366
  553SOL    HW1 2558   2.777   0.952   6.339
  553SOL    HW2 2559   2.710   0.806   6.313
  554SOL     OW 2560   5.823   6.411   1.442
  554SOL    HW1 2561   5.853   6.494   1.395
  554SOL    HW2 2562   5.900   6.370   1.489
  555SOL     OW 2563   1.374   3.817   5.980
  555SOL    HW1 2564   1.283   3.857   5.986
  555SOL    HW2 2565   1.382   3.764   5.895
  556SOL     OW 2566   5.386   0.222   4.063
  556SOL    HW1 2567   5.348   0.234   4.155
  556SOL    HW2 2568   5.352   0.296   4.004
  557SOL     OW 2569   6.448   4.297   6.705
  557SOL    HW1 2570   6.386   4.375   6.697
  557SOL    HW2 2571   6.537   4.329   6.738
  558SOL     OW 2572   3.113   4.054   2.399
  558SOL    HW1 2573   3.102   4.082   2.304
  558SOL    HW2 2574   3.188   4.105   2.440
  559SOL     OW 2575   5.914   6.697   5.688
  559SOL    HW1 2576   5.971   6.745   5.754
  559SOL    HW2 2577   5.929   6.598   5.697
  560SOL     OW 2578   6.293   3.259   3.045
  560SOL    HW1 2579   6.282   3.196   3.122
  560SOL    HW2 2580   6.280   3.209   2.960
  561SOL     OW 2581   0.716   3.172   0.086
  561SOL    HW1 2582   0.681   3.262   0.059
  561SOL    HW2 2583   0.801   3.153   0.037
  562SOL     OW 2584   4.097   0.153   5.464
  562SOL    HW1 2585   4.018   0.133   5.406
  562SOL    HW2 2586   4.178   0.164   5.407
  563SOL     OW 2587   2.209   1.735   4.245
  563SOL    HW1 2588   2.130   1.684   4.211
  563SOL    HW2 2589   2.262   1.678   4.307
  564SOL     OW 2590   6.878   1.989   5.766
  564SOL    HW1 2591   6.857   2.078   5.807
  564SOL    HW2 2592   6.948   2.001   5.695
  565SOL     OW 2593   4.107   3.426   3.323
  565SOL    HW1 2594   4.151   3.459   3.406
  565SOL    HW2 2595   4.070   3.334   3.339
  566SOL     OW 2596   3.457   6.802   2.948
  566SOL    HW1 2597   3.525   6.740   2.909
  566SOL    HW2 2598   3.455   6.791   3.047
  567SOL     OW 2599   1.745   3.292   6.551
  567SOL    HW1 2600   1.663   3.263   6.601
  567SOL    HW2 2601   1.720   3.356   6.479
  568SOL     OW 2602   6.767   6.358   0.625
  568SOL    HW1 2603   6.729   6.282   0.572
  568SOL    HW2 2604   6.773   6.440   0.568
  569SOL     OW 2605   6.494   2.233   0.569
  569SOL    HW1 2606   6.519   2.330   0.561
  569SOL    HW2 2607   6.479   2.210   0.665
  570SOL     OW 2608   2.220   1.066   5.750
  570SOL    HW1 2609   2.242   1.144   5.692
  570SOL    HW2 2610   2.194   0.988   5.692
  571SOL     OW 2611   2.130   5.348   2.342
  571SOL    HW1 2612   2.178   5.311   2.421
  571SOL    HW2 2613   2.186   5.419   2.299
  572SOL     OW 2614   2.686   0.001   3.975
  572SOL    HW1 2615   2.672   0.038   3.884
  572SOL    HW2 2616   2.645   0.063   4.043
  573SOL     OW 2617   0.279   1.098   5.508
  573SOL    HW1 2618   0.276   1.072   5.411
  573SOL    HW2 2619   0.186   1.098   5.545
  574SOL     OW 2620   2.358   2.165   5.619
  574SOL    HW1 2621   2.331   2.261   5.610
  574SOL    HW2 2622   2.276   2.110   5.635
  575SOL     OW 2623   3.280   3.047   0.312
  575SOL    HW1 2624   3.269   3.106   0.392
  575SOL    HW2 2625   3.367   2.999   0.316
  576SOL     OW 2626   2.101   3.222   2.971
  576SOL    HW1 2627   2.021   3.269   3.008
  576SOL    HW2 2628   2.083   3.124   2.966
  577SOL     OW 2629   1.011   1.521   2.038
  577SOL    HW1 2630   1.020   1.618   2.063
  577SOL    HW2 2631   0.914   1.500   2.022
  578SOL     OW 2632   2.067   6.397   6.683
  578SOL    HW1 2633   2.029   6.424   6.594
  578SOL    HW2 2634   2.109   6.476   6.727
  579SOL     OW 2635   2.260   4.581   1.676
  579SOL    HW1 2636   2.338   4.586   1.738
  579SOL    HW2 2637   2.221   4.489   1.678
  580SOL     OW 2638   4.176   5.058   4.377
  580SOL    HW1 2639   4.206   4.963   4.380
  580SOL    HW2 2640   4.093   5.069   4.431
  581SOL     OW 2641   1.906   2.782   4.451
  581SOL    HW1 2642   1.890   2.709   4.385
  581SOL    HW2 2643   1.996   2.823   4.434
  582SOL     OW 2644   5.855   5.778   3.802
  582SOL    HW1 2645   5.934   5.828   3.837
  582SOL    HW2 2646   5.782   5.778   3.871
  583SOL     OW 2647   3.834   5.410   5.922
  583SOL    HW1 2648   3.904   5.426   5.992
  583SOL    HW2 2649   3.750   5.459   5.947
  584SOL     OW 2650   4.245   0.865   5.708
  584SOL    HW1 2651   4.281   0.910   5.789
  584SOL    HW2 2652   4.242   0.766   5.723
  585SOL     OW 2653   2.976   6.988   1.856
  585SOL    HW1 2654   2.933   7.015   1.770
  585SOL    HW2 2655   3.046   6.918   1.838
  586SOL     OW 2656   4.618   0.188   0.664
  586SOL    HW1 2657   4.532   0.233   0.688
  586SOL    HW2 2658   4.693   0.232   0.715
  587SOL     OW 2659   5.136   1.868   2.073
  587SOL    HW1 2660   5.043   1.861   2.108
  587SOL    HW2 2661   5.163   1.781   2.032
  588SOL     OW 2662   1.264   5.203   2.451
  588SOL    HW1 2663   1.209   5.219   2.533
  588SOL    HW2 2664   1.232   5.121   2.405
  589SOL     OW 2665   3.200   5.908   1.170
  589SOL    HW1 2666   3.282   5.904   1.228
  589SOL    HW2 2667   3.209   5.985   1.106
  590SOL     OW 2668   4.745   1.674   0.556
  590SOL    HW1 2669   4.773   1.590   0.603
  590SOL    HW2 2670   4.647   1.690   0.573
  591SOL     OW 2671   3.668   5.935   4.617
  591SOL    HW1 2672   3.709   5.976   4.699
  591SOL    HW2 2673   3.626   5.848   4.640
  592SOL     OW 2674   4.579   2.389   3.919
  592SOL    HW1 2675   4.592   2.333   4.001
  592SOL    HW2 2676   4.527   2.337   3.851
  593SOL     OW 2677   3.115   1.455   6.186
  593SOL    HW1 2678   3.110   1.476   6.088
  593SOL    HW2 2679   3.201   1.409   6.206
  594SOL     OW 2680   5.323   1.544   1.717
  594SOL    HW1 2681   5.350   1.508   1.627
  594SOL    HW2 2682   5.224   1.552   1.722
  595SOL     OW 2683   5.342   5.998   2.342
  595SOL    HW1 2684   5.284   6.054   2.282
  595SOL    HW2 2685   5.397   6.059   2.400
  596SOL     OW 2686   6.503   4.810   3.946
  596SOL    HW1 2687   6.602   4.824   3.953
  596SOL    HW2 2688   6.482   4.713   3.959
  597SOL     OW 2689   2.966   0.283   6.130
  597SOL    HW1 2690   3.006   0.194   6.106
  597SOL    HW2 2691   3.037   0.344   6.163
  598SOL     OW 2692   3.033   3.247   4.433
  598SOL    HW1 2693   3.072   3.163   4.471
  598SOL    HW2 2694   2.997   3.304   4.507
  599SOL     OW 2695   1.359   5.993   1.936
  599SOL    HW1 2696   1.360   5.921   2.006
  599SOL    HW2 2697   1.282   5.978   1.874
  600SOL     OW 2698   6.914   3.730   4.678
  600SOL    HW1 2699   6.986   3.777   4.628
  600SOL    HW2 2700   6.886   3.648   4.627
  601SOL     OW 2701   1.755   6.886   4.979
  601SOL    HW1 2702   1.762   6.845   5.070
  601SOL    HW2 2703   1.776   6.817   4.910
  602SOL     OW 2704   2.842   6.222   4.049
  602SOL    HW1 2705   2.783   6.157   4.097
  602SOL    HW2 2706   2.818   6.224   3.952
  603SOL     OW 2707   1.712   1.538   5.496
  603SOL    HW1 2708   1.651   1.459   5.499
  603SOL    HW2 2709   1.807   1.506   5.487
  604SOL     OW 2710   6.554   2.758   1.699
  604SOL    HW1 2711   6.615   2.694   1.746
  604SOL    HW2 2712   6.466   2.715   1.684
  605SOL     OW 2713   0.319   5.712   2.237
  605SOL    HW1 2714   0.220   5.713   2.227
  605SOL    HW2 2715   0.343   5.693   2.333
  606SOL     OW 2716   3.463   6.470   4.701
  606SOL    HW1 2717   3.542   6.521   4.732
  606SOL    HW2 2718   3.490   6.376   4.681
  607SOL     OW 2719   0.623   4.724   6.379
  607SOL    HW1 2720   0.594   4.751   6.287
  607SOL    HW2 2721   0.721   4.745   6.391
  608SOL     OW 2722   2.984   1.295   5.396
  608SOL    HW1 2723   2.980   1.196   5.384
  608SOL    HW2 2724   2.899   1.336   5.363
  609SOL     OW 2725   3.232   2.846   1.935
  609SOL    HW1 2726   3.217   2.811   2.027
  609SOL    HW2 2727   3.150   2.831   1.880
  610SOL     OW 2728   4.673   3.267   0.678
  610SOL    HW1 2729   4.717   3.311   0.600
  610SOL    HW2 2730   4.605   3.329   0.717
  611SOL     OW 2731   3.983   0.202   2.601
  611SOL    HW1 2732   3.979   0.215   2.700
  611SOL    HW2 2733   4.069   0.239   2.566
  612SOL     OW 2734   4.120   4.412   5.970
  612SOL    HW1 2735   4.138   4.510   5.969
  612SOL    HW2 2736   4.090   4.383   5.879
  613SOL     OW 2737   4.316   5.282   5.282
  613SOL    HW1 2738   4.248   5.224   5.328
  613SOL    HW2 2739   4.407   5.245   5.299
  614SOL     OW 2740   4.150   5.316   5.755
  614SOL    HW1 2741   4.146   5.410   5.789
  614SOL    HW2 2742   4.079   5.262   5.798
  615SOL     OW 2743   0.744   5.281   1.931
  615SOL    HW1 2744   0.801   5.354   1.894
  615SOL    HW2 2745   0.651   5.290   1.897
  616SOL     OW 2746   5.745   3.733   3.054
  616SOL    HW1 2747   5.734   3.692   3.144
  616SOL    HW2 2748   5.784   3.666   2.991
  617SOL     OW 2749   2.844   5.444   6.536
  617SOL    HW1 2750   2.803   5.395   6.459
  617SOL    HW2 2751   2.809   5.538   6.539
  618SOL     OW 2752   1.496   1.177   2.222
  618SOL    HW1 2753   1.430   1.240   2.264
  618SOL    HW2 2754   1.460   1.083   2.228
  619SOL     OW 2755   1.070   1.163   6.740
  619SOL    HW1 2756   1.017   1.083   6.712
  619SOL    HW2 2757   1.127   1.140   6.818
  620SOL     OW 2758   4.857   3.672   0.482
  620SOL    HW1 2759   4.760   3.682   0.460
  620SOL    HW2 2760   4.868   3.658   0.580
  621SOL     OW 2761   0.344   4.673   1.994
  621SOL    HW1 2762   0.422   4.732   1.973
  621SOL    HW2 2763   0.348   4.646   2.090
  622SOL     OW 2764   1.686   1.320   0.103
  622SOL    HW1 2765   1.740   1.303   0.020
  622SOL    HW2 2766   1.685   1.418   0.122
  623SOL     OW 2767   0.580   4.441   6.826
  623SOL    HW1 2768   0.582   4.508   6.752
  623SOL    HW2 2769   0.667   4.442   6.875
  624SOL     OW 2770   0.631   2.613   3.186
  624SOL    HW1 2771   0.603   2.704   3.157
  624SOL    HW2 2772   0.638   2.553   3.106
  625SOL     OW 2773   2.582   1.790   2.042
  625SOL    HW1 2774   2.637   1.718   2.084
  625SOL    HW2 2775   2.507   1.748   1.991
  626SOL     OW 2776   2.738   6.257   4.560
  626SOL    HW1 2777   2.751   6.340   4.506
  626SOL    HW2 2778   2.772   6.272   4.653
  627SOL     OW 2779   5.576   0.936   6.882
  627SOL    HW1 2780   5.493   0.954   6.829
  627SOL    HW2 2781   5.582   1.001   6.958
  628SOL     OW 2782   4.808   3.926   3.682
  628SOL    HW1 2783   4.765   3.841   3.651
  628SOL    HW2 2784   4.814   3.990   3.605
  629SOL     OW 2785   0.963   0.556   1.239
  629SOL    HW1 2786   0.867   0.576   1.218
  629SOL    HW2 2787   0.986   0.466   1.204
  630SOL     OW 2788   4.095   1.860   1.090
  630SOL    HW1 2789   4.051   1.867   1.179
  630SOL    HW2 2790   4.168   1.928   1.083
  631SOL     OW 2791   2.178   0.318   5.269
  631SOL    HW1 2792   2.266   0.358   5.244
  631SOL    HW2 2793   2.123   0.305   5.186
  632SOL     OW 2794   2.121   1.358   0.835
  632SOL    HW1 2795   2.073   1.367   0.748
  632SOL    HW2 2796   2.054   1.345   0.909
  633SOL     OW 2797   2.485   6.890   5.940
  633SOL    HW1 2798   2.402   6.921   5.987
  633SOL    HW2 2799   2.553   6.861   6.007
  634SOL     OW 2800   3.601   5.805   0.766
  634SOL    HW1 2801   3.632   5.880   0.707
  634SOL    HW2 2802   3.517   5.766   0.727
  635SOL     OW 2803   2.915   0.475   2.645
  635SOL    HW1 2804   2.835   0.525   2.679
  635SOL    HW2 2805   2.912   0.381   2.679
  636SOL     OW 2806   5.118   5.115   0.446
  636SOL    HW1 2807   5.163   5.162   0.370
  636SOL    HW2 2808   5.026   5.151   0.459
  637SOL     OW 2809   4.601   4.468   1.071
  637SOL    HW1 2810   4.579   4.565   1.083
  637SOL    HW2 2811   4.551   4.432   0.992
  638SOL     OW 2812   4.862   1.294   2.577
  638SOL    HW1 2813   4.865   1.381   2.528
  638SOL    HW2 2814   4.780   1.291   2.635
  639SOL     OW 2815   4.424   4.558   1.911
  639SOL    HW1 2816   4.464   4.471   1.941
  639SOL    HW2 2817   4.379   4.546   1.823
  640SOL     OW 2818   3.041   4.267   5.274
  640SOL    HW1 2819   3.113   4.286   5.342
  640SOL    HW2 2820   3.009   4.353   5.234
  641SOL     OW 2821   0.235   6.166   4.748
  641SOL    HW1 2822   0.187   6.106   4.813
  641SOL    HW2 2823   0.325   6.189   4.784
  642SOL     OW 2824   0.859   5.157   4.865
  642SOL    HW1 2825   0.863   5.080   4.802
  642SOL    HW2 2826   0.853   5.242   4.814
  643SOL     OW 2827   5.954   5.652   5.651
  643SOL    HW1 2828   6.036   5.652   5.593
  643SOL    HW2 2829   5.874   5.628   5.596
  644SOL     OW 2830   1.227   6.498   2.320
  644SOL    HW1 2831   1.204   6.418   2.264
  644SOL    HW2 2832   1.185   6.579   2.280
  645SOL     OW 2833   5.783   2.810   3.564
  645SOL    HW1 2834   5.868   2.758   3.577
  645SOL    HW2 2835   5.712   2.748   3.529
  646SOL     OW 2836   2.074   1.810   4.659
  646SOL    HW1 2837   2.114   1.898   4.638
  646SOL    HW2 2838   1.989   1.823   4.710
  647SOL     OW 2839   6.313   3.352   0.493
  647SOL    HW1 2840   6.224   3.394   0.473
  647SOL    HW2 2841   6.336   3.287   0.421
  648SOL     OW 2842   6.120   3.393   1.713
  648SOL    HW1 2843   6.085   3.360   1.801
  648SOL    HW2 2844   6.097   3.328   1.641
  649SOL     OW 2845   4.346   4.651   1.001
  649SOL    HW1 2846   4.326   4.733   0.948
  649SOL    HW2 2847   4.405   4.675   1.079
  650SOL     OW 2848   4.914   4.770   0.480
  650SOL    HW1 2849   4.994   4.773   0.421
  650SOL    HW2 2850   4.831   4.768   0.423
  651SOL     OW 2851   0.980   6.112   6.883
  651SOL    HW1 2852   0.957   6.205   6.911
  651SOL    HW2 2853   1.077   6.107   6.862
  652SOL     OW 2854   3.928   1.192   2.426
  652SOL    HW1 2855   3.877   1.222   2.346
  652SOL    HW2 2856   3.938   1.093   2.424
  653SOL     OW 2857   3.596   5.110   3.384
  653SOL    HW1 2858   3.523   5.162   3.341
  653SOL    HW2 2859   3.598   5.130   3.482
  654SOL     OW 2860   6.654   4.138   0.181
  654SOL    HW1 2861   6.639   4.235   0.161
  654SOL    HW2 2862   6.576   4.085   0.150
  655SOL     OW 2863   0.742   0.690   1.147
  655SOL    HW1 2864   0.802   0.694   1.067
  655SOL    HW2 2865   0.695   0.778   1.158
  656SOL     OW 2866   2.926   6.572   1.731
  656SOL    HW1 2867   2.930   6.573   1.831
  656SOL    HW2 2868   2.869   6.648   1.699
  657SOL     OW 2869   3.176   1.684   6.967
  657SOL    HW1 2870   3.148   1.779   6.980
  657SOL    HW2 2871   3.096   1.627   6.951
  658SOL     OW 2872   3.360   4.381   6.313
  658SOL    HW1 2873   3.301   4.355   6.236
  658SOL    HW2 2874   3.455   4.385   6.282
  659SOL     OW 2875   2.057   6.860   6.716
  659SOL    HW1 2876   2.061   6.873   6.617
  659SOL    HW2 2877   2.106   6.775   6.740
  660SOL     OW 2878   3.768   5.334   2.584
  660SOL    HW1 2879   3.759   5.302   2.490
  660SOL    HW2 2880   3.800   5.429   2.583
  661SOL     OW 2881   4.954   5.608   2.856
  661SOL    HW1 2882   4.968   5.520   2.809
  661SOL    HW2 2883   4.999   5.606   2.945
  662SOL     OW 2884   3.493   1.300   6.888
  662SOL    HW1 2885   3.434   1.354   6.829
  662SOL    HW2 2886   3.475   1.323   6.984
  663SOL     OW 2887   2.337   4.316   5.188
  663SOL    HW1 2888   2.394   4.369   5.251
  663SOL    HW2 2889   2.322   4.225   5.227
  664SOL     OW 2890   6.200   0.612   6.777
  664SOL    HW1 2891   6.202   0.710   6.794
  664SOL    HW2 2892   6.215   0.563   6.864
  665SOL     OW 2893   2.144   5.838   3.055
  665SOL    HW1 2894   2.235   5.872   3.030
  665SOL    HW2 2895   2.118   5.764   2.992
  666SOL     OW 2896   4.356   0.753   2.380
  666SOL    HW1 2897   4.389   0.798   2.297
  666SOL    HW2 2898   4.262   0.721   2.367
  667SOL     OW 2899   0.740   6.873   2.711
  667SOL    HW1 2900   0.767   6.869   2.807
  667SOL    HW2 2901   0.811   6.830   2.655
  668SOL     OW 2902   5.579   3.717   6.964
  668SOL    HW1 2903   5.666   3.707   6.915
  668SOL    HW2 2904   5.509   3.750   6.900
  669SOL     OW 2905   4.948   1.548   2.789
  669SOL    HW1 2906   4.926   1.455   2.819
  669SOL    HW2 2907   4.882   1.612   2.827
  670SOL     OW 2908   2.034   2.268   3.426
  670SOL    HW1 2909   2.119   2.320   3.423
  670SOL    HW2 2910   2.055   2.170   3.424
  671SOL     OW 2911   2.914   6.687   1.427
  671SOL    HW1 2912   2.999   6.684   1.374
  671SOL    HW2 2913   2.849   6.621   1.389
  672SOL     OW 2914   0.909   6.724   2.529
  672SOL    HW1 2915   0.885   6.628   2.538
  672SOL    HW2 2916   1.001   6.739   2.567
  673SOL     OW 2917   5.136   6.959   0.559
  673SOL    HW1 2918   5.128   0.037   0.556
  673SOL    HW2 2919   5.142   6.924   0.466
  674SOL     OW 2920   0.414   0.686   4.458
  674SOL    HW1 2921   0.410   0.635   4.544
  674SOL    HW2 2922   0.509   0.703   4.434
  675SOL     OW 2923   6.336   3.024   2.607
  675SOL    HW1 2924   6.297   3.097   2.551
  675SOL    HW2 2925   6.283   3.015   2.691
  676SOL     OW 2926   2.108   6.099   5.939
  676SOL    HW1 2927   2.178   6.158   5.977
  676SOL    HW2 2928   2.123   6.004   5.967
  677SOL     OW 2929   4.524   0.902   0.570
  677SOL    HW1 2930   4.458   0.954   0.624
  677SOL    HW2 2931   4.579   0.964   0.514
  678SOL     OW 2932   1.827   4.670   4.990
  678SOL    HW1 2933   1.910   4.708   4.950
  678SOL    HW2 2934   1.782   4.610   4.924
  679SOL     OW 2935   5.063   2.153   5.309
  679SOL    HW1 2936   5.046   2.056   5.331
  679SOL    HW2 2937   4.976   2.201   5.301
  680SOL     OW 2938   4.050   6.951   4.369
  680SOL    HW1 2939   4.052   6.888   4.292
  680SOL    HW2 2940   4.107   0.008   4.350
  681SOL     OW 2941   5.043   5.122   2.361
  681SOL    HW1 2942   5.006   5.211   2.335
  681SOL    HW2 2943   5.026   5.057   2.287
  682SOL     OW 2944   0.921   0.844   3.596
  682SOL    HW1 2945   0.950   0.749   3.583
  682SOL    HW2 2946   1.001   0.900   3.619
  683SOL     OW 2947   4.241   3.415   1.359
  683SOL    HW1 2948   4.189   3.400   1.443
  683SOL    HW2 2949   4.181   3.454   1.289
  684SOL     OW 2950   6.381   0.410   5.940
  684SOL    HW1 2951   6.418   0.497   5.972
  684SOL    HW2 2952   6.339   0.422   5.850
  685SOL     OW 2953   3.594   0.250   3.103
  685SOL    HW1 2954   3.570   0.296   3.188
  685SOL    HW2 2955   3.516   0.253   3.040
  686SOL     OW 2956   4.248   0.912   4.821
  686SOL    HW1 2957   4.250   0.890   4.919
  686SOL    HW2 2958   4.274   0.831   4.769
  687SOL     OW 2959   1.641   1.790   4.222
  687SOL    HW1 2960   1.687   1.811   4.308
  687SOL    HW2 2961   1.653   1.693   4.200
  688SOL     OW 2962   6.040   1.447   6.954
  688SOL    HW1 2963   5.978   1.398   6.894
  688SOL    HW2 2964   5.996   1.463   0.021
  689SOL     OW 2965   1.685   5.470   5.896
  689SOL    HW1 2966   1.720   5.380   5.870
  689SOL    HW2 2967   1.752   5.516   5.954
  690SOL     OW 2968   5.608   3.480   2.457
  690SOL    HW1 2969   5.587   3.436   2.544
  690SOL    HW2 2970   5.692   3.441   2.420
  691SOL     OW 2971   4.477   1.416   6.912
  691SOL    HW1 2972   4.406   1.373   6.967
  691SOL    HW2 2973   4.443   1.433   6.820
  692SOL     OW 2974   2.910   1.001   4.674
  692SOL    HW1 2975   2.997   1.041   4.702
  692SOL    HW2 2976   2.884   1.038   4.585
  693SOL     OW 2977   5.328   6.061   3.845
  693SOL    HW1 2978   5.363   6.116   3.922
  693SOL    HW2 2979   5.230   6.075   3.837
  694SOL     OW 2980   4.259   5.392   5.025
  694SOL    HW1 2981   4.204   5.475   5.034
  694SOL    HW2 2982   4.291   5.363   5.115
  695SOL     OW 2983   3.123   0.096   4.401
  695SOL    HW1 2984   3.191   0.117   4.472
  695SOL    HW2 2985   3.032   0.090   4.443
  696SOL     OW 2986   4.764   4.597   3.142
  696SOL    HW1 2987   4.717   4.683   3.163
  696SOL    HW2 2988   4.835   4.613   3.074
  697SOL     OW 2989   0.248   5.060   2.351
  697SOL    HW1 2990   0.306   5.141   2.341
  697SOL    HW2 2991   0.229   5.021   2.260
  698SOL     OW 2992   5.800   0.259   1.111
  698SOL    HW1 2993   5.768   0.234   1.020
  698SOL    HW2 2994   5.760   0.347   1.138
  699SOL     OW 2995   2.411   2.184   0.978
  699SOL    HW1 2996   2.443   2.166   0.885
  699SOL    HW2 2997   2.366   2.103   1.015
  700SOL     OW 2998   3.807   6.725   2.699
  700SOL    HW1 2999   3.884   6.684   2.651
  700SOL    HW2 3000   3.837   6.807   2.748
  701SOL     OW 3001   6.341   5.353   1.026
  701SOL    HW1 3002   6.317   5.449   1.011
  701SOL    HW2 3003   6.259   5.297   1.022
  702SOL     OW 3004   3.087   0.970   3.802
  702SOL    HW1 3005   3.089   0.873   3.826
  702SOL    HW2 3006   3.166   1.016   3.843
  703SOL     OW 3007   3.075   2.523   6.262
  703SOL    HW1 3008   3.170   2.532   6.234
  703SOL    HW2 3009   3.030   2.612   6.257
  704SOL     OW 3010   1.257   2.990   6.004
  704SOL    HW1 3011   1.244   3.047   6.084
  704SOL    HW2 3012   1.279   2.896   6.033
  705SOL     OW 3013   0.084   6.338   4.583
  705SOL    HW1 3014   0.130   6.269   4.639
  705SOL    HW2 3015   0.151   6.404   4.549
  706SOL     OW 3016   4.632   0.971   4.962
  706SOL    HW1 3017   4.635   1.066   4.929
  706SOL    HW2 3018   4.708   0.956   5.026
  707SOL     OW 3019   3.349   5.116   3.196
  707SOL    HW1 3020   3.293   5.052   3.248
  707SOL    HW2 3021   3.295   5.156   3.122
  708SOL     OW 3022   3.355   0.703   3.655
  708SOL    HW1 3023   3.360   0.606   3.633
  708SOL    HW2 3024   3.402   0.756   3.584
  709SOL     OW 3025   2.330   0.070   1.373
  709SOL    HW1 3026   2.250   0.095   1.427
  709SOL    HW2 3027   2.327   6.994   1.352
  710SOL     OW 3028   4.822   2.854   1.768
  710SOL    HW1 3029   4.894   2.919   1.747
  710SOL    HW2 3030   4.738   2.903   1.791
  711SOL     OW 3031   0.261   2.287   5.776
  711SOL    HW1 3032   0.241   2.347   5.698
  711SOL    HW2 3033   0.258   2.191   5.746
  712SOL     OW 3034   5.227   3.467   0.351
  712SOL    HW1 3035   5.320   3.504   0.352
  712SOL    HW2 3036   5.223   3.386   0.409
  713SOL     OW 3037   3.969   2.619   5.429
  713SOL    HW1 3038   3.885   2.592   5.383
  713SOL    HW2 3039   4.009   2.698   5.382
  714SOL     OW 3040   5.223   5.186   3.345
  714SOL    HW1 3041   5.173   5.139   3.271
  714SOL    HW2 3042   5.314   5.211   3.312
  715SOL     OW 3043   6.242   5.343   5.561
  715SOL    HW1 3044   6.192   5.322   5.645
  715SOL    HW2 3045   6.239   5.441   5.544
  716SOL     OW 3046   1.807   1.387   2.645
  716SOL    HW1 3047   1.785   1.463   2.707
  716SOL    HW2 3048   1.877   1.416   2.580
  717SOL     OW 3049   5.348   5.081   3.883
  717SOL    HW1 3050   5.289   5.104   3.805
  717SOL    HW2 3051   5.436   5.126   3.873
  718SOL     OW 3052   5.602   1.895   4.201
  718SOL    HW1 3053   5.606   1.815   4.262
  718SOL    HW2 3054   5.508   1.929   4.198
  719SOL     OW 3055   5.609   0.444   3.605
  719SOL    HW1 3056   5.559   0.442   3.692
  719SOL    HW2 3057   5.623   0.350   3.573
  720SOL     OW 3058   2.081   0.922   6.771
  720SOL    HW1 3059   2.129   0.835   6.760
  720SOL    HW2 3060   2.030   0.921   6.857
  721SOL     OW 3061   0.037   2.510   2.951
  721SOL    HW1 3062   6.984   2.533   2.889
  721SOL    HW2 3063   0.107   2.581   2.947
  722SOL     OW 3064   4.273   6.685   0.233
  722SOL    HW1 3065   4.240   6.725   0.319
  722SOL    HW2 3066   4.333   6.608   0.254
  723SOL     OW 3067   2.530   5.687   3.865
  723SOL    HW1 3068   2.619   5.731   3.875
  723SOL    HW2 3069   2.484   5.724   3.785
  724SOL     OW 3070   1.337   1.152   3.649
  724SOL    HW1 3071   1.262   1.094   3.617
  724SOL    HW2 3072   1.376   1.201   3.571
  725SOL     OW 3073   1.652   3.922   2.403
  725SOL    HW1 3074   1.554   3.939   2.408
  725SOL    HW2 3075   1.700   4.004   2.371
  726SOL     OW 3076   2.128   4.174   0.580
  726SOL    HW1 3077   2.101   4.188   0.484
  726SOL    HW2 3078   2.186   4.093   0.586
  727SOL     OW 3079   4.214   5.127   4.973
  727SOL    HW1 3080   4.161   5.089   5.049
  727SOL    HW2 3081   4.243   5.220   4.995
  728SOL     OW 3082   6.748   3.135   4.130
  728SOL    HW1 3083   6.677   3.187   4.177
  728SOL    HW2 3084   6.708   3.054   4.088
  729SOL     OW 3085   0.270   4.195   1.497
  729SOL    HW1 3086   0.367   4.176   1.483
  729SOL    HW2 3087   0.258   4.253   1.577
  730SOL     OW 3088   5.165   0.593   3.771
  730SOL    HW1 3089   5.234   0.625   3.706
  730SOL    HW2 3090   5.098   0.666   3.787
  731SOL     OW 3091   4.250   4.064   6.223
  731SOL    HW1 3092   4.317   4.125   6.266
  731SOL    HW2 3093   4.168   4.117   6.201
  732SOL     OW 3094   4.943   1.665   3.578
  732SOL    HW1 3095   4.987   1.579   3.556
  732SOL    HW2 3096   5.013   1.734   3.598
  733SOL     OW 3097   6.115   6.721   3.257
  733SOL    HW1 3098   6.089   6.677   3.342
  733SOL    HW2 3099   6.090   6.818   3.260
  734SOL     OW 3100   5.275   6.181   2.649
  734SOL    HW1 3101   5.365   6.181   2.606
  734SOL    HW2 3102   5.246   6.086   2.665
  735SOL     OW 3103   4.974   0.809   2.224
  735SOL    HW1 3104   4.949   0.903   2.245
  735SOL    HW2 3105   5.073   0.801   2.218
  736SOL     OW 3106   1.084   1.355   4.338
  736SOL    HW1 3107   1.158   1.288   4.348
  736SOL    HW2 3108   1.121   1.446   4.355
  737SOL     OW 3109   5.269   1.253   6.564
  737SOL    HW1 3110   5.328   1.331   6.546
  737SOL    HW2 3111   5.198   1.279   6.629
  738SOL     OW 3112   2.581   4.362   1.253
  738SOL    HW1 3113   2.621   4.278   1.216
  738SOL    HW2 3114   2.594   4.437   1.189
  739SOL     OW 3115   2.601   6.728   4.994
  739SOL    HW1 3116   2.516   6.676   4.995
  739SOL    HW2 3117   2.625   6.753   5.088
  740SOL     OW 3118   5.422   3.112   3.232
  740SOL    HW1 3119   5.411   3.087   3.136
  740SOL    HW2 3120   5.408   3.210   3.244
  741SOL     OW 3121   2.809   0.596   3.216
  741SOL    HW1 3122   2.878   0.592   3.288
  741SOL    HW2 3123   2.839   0.542   3.137
  742SOL     OW 3124   2.069   0.106   1.481
  742SOL    HW1 3125   2.034   0.137   1.570
  742SOL    HW2 3126   2.024   0.157   1.408
  743SOL     OW 3127   0.838   6.406   3.537
  743SOL    HW1 3128   0.743   6.437   3.541
  743SOL    HW2 3129   0.899   6.479   3.568
  744SOL     OW 3130   4.669   1.413   0.618
  744SOL    HW1 3131   4.659   1.392   0.521
  744SOL    HW2 3132   4.587   1.383   0.667
  745SOL     OW 3133   2.913   6.245   5.123
  745SOL    HW1 3134   2.813   6.248   5.125
  745SOL    HW2 3135   2.943   6.193   5.044
  746SOL     OW 3136   5.894   4.221   5.666
  746SOL    HW1 3137   5.852   4.193   5.752
  746SOL    HW2 3138   5.834   4.286   5.619
  747SOL     OW 3139   5.583   5.710   2.961
  747SOL    HW1 3140   5.501   5.701   3.018
  747SOL    HW2 3141   5.629   5.796   2.982
  748SOL     OW 3142   5.557   5.435   2.230
  748SOL    HW1 3143   5.550   5.372   2.153
  748SOL    HW2 3144   5.465   5.455   2.264
  749SOL     OW 3145   5.129   3.938   3.499
  749SOL    HW1 3146   5.164   3.905   3.411
  749SOL    HW2 3147   5.037   3.976   3.486
  750SOL     OW 3148   2.239   1.962   1.839
  750SOL    HW1 3149   2.164   2.028   1.828
  750SOL    HW2 3150   2.324   2.010   1.859
  751SOL     OW 3151   4.881   0.143   6.804
  751SOL    HW1 3152   4.816   0.091   6.859
  751SOL    HW2 3153   4.846   0.155   6.712
  752SOL     OW 3154   3.430   2.540   5.486
  752SOL    HW1 3155   3.475   2.622   5.521
  752SOL    HW2 3156   3.331   2.557   5.480
  753SOL     OW 3157   3.987   3.997   5.053
  753SOL    HW1 3158   3.889   3.977   5.051
  753SOL    HW2 3159   4.008   4.070   4.989
  754SOL     OW 3160   5.666   0.621   6.616
  754SOL    HW1 3161   5.663   0.714   6.578
  754SOL    HW2 3162   5.667   0.626   6.715
  755SOL     OW 3163   4.127   4.603   5.358
  755SOL    HW1 3164   4.154   4.510   5.332
  755SOL    HW2 3165   4.136   4.613   5.457
  756SOL     OW 3166   2.202   4.782   6.067
  756SOL    HW1 3167   2.262   4.718   6.115
  756SOL    HW2 3168   2.127   4.732   6.025
  757SOL     OW 3169   2.423   6.931   2.618
  757SOL    HW1 3170   2.374   6.935   2.705
  757SOL    HW2 3171   2.357   6.926   2.543
  758SOL     OW 3172   3.324   1.792   3.865
  758SOL    HW1 3173   3.396   1.741   3.914
  758SOL    HW2 3174   3.275   1.849   3.930
  759SOL     OW 3175   0.308   3.042   4.645
  759SOL    HW1 3176   0.350   3.131   4.662
  759SOL    HW2 3177   0.244   3.049   4.569
  760SOL     OW 3178   6.741   6.273   3.758
  760SOL    HW1 3179   6.644   6.269   3.780
  760SOL    HW2 3180   6.768   6.191   3.707
  761SOL     OW 3181   4.743   3.543   5.570
  761SOL    HW1 3182   4.664   3.604   5.563
  761SOL    HW2 3183   4.765   3.505   5.481
  762SOL     OW 3184   3.249   5.846   4.627
  762SOL    HW1 3185   3.189   5.788   4.572
  762SOL    HW2 3186   3.285   5.920   4.570
  763SOL     OW 3187   5.578   0.449   0.013
  763SOL    HW1 3188   5.625   0.537   0.017
  763SOL    HW2 3189   5.490   0.460   6.989
  764SOL     OW 3190   5.239   6.944   4.990
  764SOL    HW1 3191   5.337   6.935   4.972
  764SOL    HW2 3192   5.217   0.018   5.009
  765SOL     OW 3193   0.156   6.723   0.789
  765SOL    HW1 3194   0.066   6.682   0.803
  765SOL    HW2 3195   0.146   6.812   0.746
  766SOL     OW 3196   1.888   2.327   5.500
  766SOL    HW1 3197   1.961   2.387   5.466
  766SOL    HW2 3198   1.908   2.233   5.476
  767SOL     OW 3199   0.430   6.700   4.353
  767SOL    HW1 3200   0.461   6.696   4.448
  767SOL    HW2 3201   0.501   6.744   4.297
  768SOL     OW 3202   2.566   5.448   1.991
  768SOL    HW1 3203   2.553   5.450   1.892
  768SOL    HW2 3204   2.624   5.370   2.016
  769SOL     OW 3205   2.973   2.219   4.803
  769SOL    HW1 3206   2.890   2.260   4.841
  769SOL    HW2 3207   3.052   2.248   4.858
  770SOL     OW 3208   1.861   4.985   5.030
  770SOL    HW1 3209   1.771   4.947   5.007
  770SOL    HW2 3210   1.871   4.988   5.130
  771SOL     OW 3211   1.253   6.092   3.259
  771SOL    HW1 3212   1.353   6.089   3.262
  771SOL    HW2 3213   1.224   6.162   3.194
  772SOL     OW 3214   5.650   4.450   0.346
  772SOL    HW1 3215   5.678   4.499   0.429
  772SOL    HW2 3216   5.551   4.436   0.348
  773SOL     OW 3217   0.358   3.848   3.694
  773SOL    HW1 3218   0.300   3.790   3.636
  773SOL    HW2 3219   0.438   3.796   3.724
  774SOL     OW 3220   2.332   0.576   2.994
  774SOL    HW1 3221   2.285   0.489   3.006
  774SOL    HW2 3222   2.282   0.633   2.929
  775SOL     OW 3223   1.932   4.366   3.554
  775SOL    HW1 3224   1.875   4.357   3.635
  775SOL    HW2 3225   2.027   4.348   3.577
  776SOL     OW 3226   2.569   5.320   6.629
  776SOL    HW1 3227   2.568   5.376   6.547
  776SOL    HW2 3228   2.511   5.240   6.616
  777SOL     OW 3229   1.655   3.674   0.310
  777SOL    HW1 3230   1.606   3.698   0.226
  777SOL    HW2 3231   1.634   3.579   0.334
  778SOL     OW 3232   2.911   0.148   1.247
  778SOL    HW1 3233   2.855   0.217   1.293
  778SOL    HW2 3234   2.872   0.057   1.264
  779SOL     OW 3235   0.324   1.852   3.637
  779SOL    HW1 3236   0.386   1.869   3.560
  779SOL    HW2 3237   0.338   1.921   3.707
  780SOL     OW 3238   1.055   1.570   4.710
  780SOL    HW1 3239   0.998   1.573   4.793
  780SOL    HW2 3240   1.037   1.652   4.656
  781SOL     OW 3241   0.945   4.259   0.823
  781SOL    HW1 3242   0.903   4.346   0.850
  781SOL    HW2 3243   0.877   4.186   0.827
  782SOL     OW 3244   1.926   3.445   5.642
  782SOL    HW1 3245   2.000   3.503   5.676
  782SOL    HW2 3246   1.958   3.391   5.564
  783SOL     OW 3247   5.994   4.770   6.821
  783SOL    HW1 3248   5.966   4.703   6.752
  783SOL    HW2 3249   5.922   4.778   6.890
  784SOL     OW 3250   2.919   6.866   0.672
  784SOL    HW1 3251   2.889   6.868   0.577
  784SOL    HW2 3252   2.999   6.806   0.681
  785SOL     OW 3253   1.499   6.671   4.743
  785SOL    HW1 3254   1.505   6.600   4.673
  785SOL    HW2 3255   1.475   6.629   4.831
  786SOL     OW 3256   6.972   1.427   3.310
  786SOL    HW1 3257   0.022   1.496   3.299
  786SOL    HW2 3258   7.013   1.336   3.308
  787SOL     OW 3259   2.711   0.574   0.669
  787SOL    HW1 3260   2.808   0.585   0.647
  787SOL    HW2 3261   2.656   0.624   0.602
  788SOL     OW 3262   3.434   2.678   1.467
  788SOL    HW1 3263   3.481   2.591   1.452
  788SOL    HW2 3264   3.432   2.700   1.564
  789SOL     OW 3265   4.152   5.189   1.284
  789SOL    HW1 3266   4.154   5.278   1.238
  789SOL    HW2 3267   4.135   5.117   1.216
  790SOL     OW 3268   1.088   2.478   2.884
  790SOL    HW1 3269   1.073   2.385   2.919
  790SOL    HW2 3270   1.009   2.535   2.907
  791SOL     OW 3271   3.173   5.136   5.069
  791SOL    HW1 3272   3.265   5.172   5.085
  791SOL    HW2 3273   3.105   5.203   5.099
  792SOL     OW 3274   1.304   0.864   1.416
  792SOL    HW1 3275   1.395   0.825   1.400
  792SOL    HW2 3276   1.242   0.793   1.450
  793SOL     OW 3277   3.368   5.991   4.039
  793SOL    HW1 3278   3.461   6.015   4.014
  793SOL    HW2 3279   3.360   5.891   4.046
  794SOL     OW 3280   3.523   3.571   3.282
  794SOL    HW1 3281   3.443   3.539   3.231
  794SOL    HW2 3282   3.495   3.601   3.373
  795SOL     OW 3283   3.925   6.731   6.378
  795SOL    HW1 3284   3.952   6.764   6.287
  795SOL    HW2 3285   3.953   6.635   6.388
  796SOL     OW 3286   0.696   3.129   6.769
  796SOL    HW1 3287   0.601   3.109   6.792
  796SOL    HW2 3288   0.747   3.149   6.853
  797SOL     OW 3289   5.256   6.555   1.047
  797SOL    HW1 3290   5.225   6.460   1.043
  797SOL    HW2 3291   5.332   6.562   1.111
  798SOL     OW 3292   3.596   6.456   0.724
  798SOL    HW1 3293   3.616   6.538   0.778
  798SOL    HW2 3294   3.564   6.483   0.633
  799SOL     OW 3295   1.191   2.276   5.946
  799SOL    HW1 3296   1.141   2.291   6.031
  799SOL    HW2 3297   1.273   2.222   5.965
  800SOL     OW 3298   6.132   2.577   1.812
  800SOL    HW1 3299   6.046   2.526   1.813
  800SOL    HW2 3300   6.144   2.623   1.900
  801SOL     OW 3301   2.275   5.266   5.888
  801SOL    HW1 3302   2.230   5.294   5.803
  801SOL    HW2 3303   2.261   5.336   5.958
  802SOL     OW 3304   5.542   2.639   6.830
  802SOL    HW1 3305   5.603   2.567   6.863
  802SOL    HW2 3306   5.556   2.722   6.884
  803SOL     OW 3307   2.490   1.534   5.384
  803SOL    HW1 3308   2.583   1.567   5.372
  803SOL    HW2 3309   2.436   1.555   5.303
  804SOL     OW 3310   6.199   1.051   2.287
  804SOL    HW1 3311   6.295   1.077   2.279
  804SOL    HW2 3312   6.148   1.125   2.330
  805SOL     OW 3313   3.624   0.470   3.702
  805SOL    HW1 3314   3.634   0.546   3.767
  805SOL    HW2 3315   3.623   0.507   3.608
  806SOL     OW 3316   2.108   6.044   5.487
  806SOL    HW1 3317   2.176   6.105   5.448
  806SOL    HW2 3318   2.112   5.955   5.441
  807SOL     OW 3319   0.455   5.856   5.810
  807SOL    HW1 3320   0.370   5.908   5.823
  807SOL    HW2 3321   0.470   5.841   5.712
  808SOL     OW 3322   5.317   2.622   6.690
  808SOL    HW1 3323   5.319   2.702   6.630
  808SOL    HW2 3324   5.399   2.621   6.747
  809SOL     OW 3325   2.135   4.554   0.118
  809SOL    HW1 3326   2.120   4.555   0.217
  809SOL    HW2 3327   2.138   4.460   0.086
  810SOL     OW 3328   3.648   3.461   0.214
  810SOL    HW1 3329   3.730   3.484   0.266
  810SOL    HW2 3330   3.613   3.372   0.244
  811SOL     OW 3331   5.051   4.700   4.116
  811SOL    HW1 3332   5.107   4.760   4.060
  811SOL    HW2 3333   5.024   4.747   4.200
  812SOL     OW 3334   0.474   2.754   2.160
  812SOL    HW1 3335   0.556   2.723   2.111
  812SOL    HW2 3336   0.428   2.824   2.107
  813SOL     OW 3337   0.976   1.847   4.608
  813SOL    HW1 3338   0.982   1.921   4.676
  813SOL    HW2 3339   1.006   1.882   4.519
  814SOL     OW 3340   1.205   5.241   3.158
  814SOL    HW1 3341   1.190   5.164   3.220
  814SOL    HW2 3342   1.274   5.302   3.198
  815SOL     OW 3343   4.594   1.611   3.785
  815SOL    HW1 3344   4.672   1.673   3.792
  815SOL    HW2 3345   4.559   1.590   3.876
  816SOL     OW 3346   5.526   4.257   6.975
  816SOL    HW1 3347   5.610   4.307   6.997
  816SOL    HW2 3348   5.495   4.281   6.883
  817SOL     OW 3349   0.802   4.438   6.968
  817SOL    HW1 3350   0.861   4.385   6.907
  817SOL    HW2 3351   0.813   4.406   0.040
  818SOL     OW 3352   6.263   2.978   4.424
  818SOL    HW1 3353   6.255   2.889   4.469
  818SOL    HW2 3354   6.265   3.050   4.493
  819SOL     OW 3355   5.404   2.758   2.327
  819SOL    HW1 3356   5.352   2.839   2.301
  819SOL    HW2 3357   5.379   2.682   2.267
  820SOL     OW 3358   1.951   1.952   5.170
  820SOL    HW1 3359   1.917   1.859   5.164
  820SOL    HW2 3360   2.000   1.975   5.085
  821SOL     OW 3361   5.988   3.631   5.339
  821SOL    HW1 3362   6.029   3.622   5.249
  821SOL    HW2 3363   5.980   3.540   5.381
  822SOL     OW 3364   0.747   4.120   3.219
  822SOL    HW1 3365   0.653   4.089   3.204
  822SOL    HW2 3366   0.762   4.133   3.317
  823SOL     OW 3367   0.826   3.950   5.512
  823SOL    HW1 3368   0.736   3.944   5.469
  823SOL    HW2 3369   0.854   3.859   5.543
  824SOL     OW 3370   5.594   1.472   5.757
  824SOL    HW1 3371   5.639   1.476   5.668
  824SOL    HW2 3372   5.574   1.565   5.789
  825SOL     OW 3373   6.749   5.808   1.007
  825SOL    HW1 3374   6.848   5.802   0.996
  825SOL    HW2 3375   6.721   5.904   1.009
  826SOL     OW 3376   3.673   1.210   5.718
  826SOL    HW1 3377   3.610   1.132   5.717
  826SOL    HW2 3378   3.757   1.185   5.767
  827SOL     OW 3379   3.852   4.093   4.819
  827SOL    HW1 3380   3.783   4.023   4.836
  827SOL    HW2 3381   3.909   4.066   4.741
  828SOL     OW 3382   6.473   5.868   5.258
  828SOL    HW1 3383   6.389   5.838   5.214
  828SOL    HW2 3384   6.520   5.788   5.297
  829SOL     OW 3385   3.116   3.160   2.850
  829SOL    HW1 3386   3.053   3.173   2.774
  829SOL    HW2 3387   3.171   3.078   2.835
  830SOL     OW 3388   6.569   4.407   0.016
  830SOL    HW1 3389   6.650   4.387   6.983
  830SOL    HW2 3390   6.504   4.459   6.983
  831SOL     OW 3391   5.161   6.496   1.481
  831SOL    HW1 3392   5.121   6.421   1.533
  831SOL    HW2 3393   5.106   6.513   1.399
  832SOL     OW 3394   3.316   2.138   4.534
  832SOL    HW1 3395   3.415   2.145   4.544
  832SOL    HW2 3396   3.283   2.061   4.589
  833SOL     OW 3397   2.077   2.878   6.459
  833SOL    HW1 3398   2.124   2.928   6.385
  833SOL    HW2 3399   2.063   2.783   6.431
  834SOL     OW 3400   5.303   3.813   0.024
  834SOL    HW1 3401   5.252   3.864   0.093
  834SOL    HW2 3402   5.378   3.763   0.068
  835SOL     OW 3403   0.762   6.870   4.520
  835SOL    HW1 3404   0.704   6.864   4.601
  835SOL    HW2 3405   0.829   6.943   4.532
  836SOL     OW 3406   3.543   1.493   4.733
  836SOL    HW1 3407   3.576   1.402   4.756
  836SOL    HW2 3408   3.608   1.538   4.671
  837SOL     OW 3409   1.371   0.614   0.815
  837SOL    HW1 3410   1.433   0.689   0.791
  837SOL    HW2 3411   1.309   0.643   0.887
  838SOL     OW 3412   2.099   5.895   3.312
  838SOL    HW1 3413   2.111   5.798   3.330
  838SOL    HW2 3414   2.089   5.910   3.213
  839SOL     OW 3415   1.382   2.154   0.235
  839SOL    HW1 3416   1.413   2.177   0.143
  839SOL    HW2 3417   1.388   2.055   0.249
  840SOL     OW 3418   5.114   5.563   6.902
  840SOL    HW1 3419   5.129   5.503   6.823
  840SOL    HW2 3420   5.043   5.524   6.961
  841SOL     OW 3421   3.972   4.643   6.339
  841SOL    HW1 3422   3.954   4.668   6.244
  841SOL    HW2 3423   3.960   4.544   6.350
  842SOL     OW 3424   3.285   0.032   6.761
  842SOL    HW1 3425   3.198   7.007   6.749
  842SOL    HW2 3426   3.311   0.077   6.676
  843SOL     OW 3427   1.337   1.463   2.334
  843SOL    HW1 3428   1.282   1.380   2.343
  843SOL    HW2 3429   1.421   1.453   2.387
  844SOL     OW 3430   6.071   0.372   1.341
  844SOL    HW1 3431   6.097   0.365   1.437
  844SOL    HW2 3432   6.152   0.362   1.283
  845SOL     OW 3433   3.549   1.497   2.489
  845SOL    HW1 3434   3.529   1.584   2.533
  845SOL    HW2 3435   3.614   1.511   2.414
  846SOL     OW 3436   2.718   2.321   0.291
  846SOL    HW1 3437   2.734   2.224   0.308
  846SOL    HW2 3438   2.676   2.362   0.372
  847SOL     OW 3439   2.450   4.643   1.457
  847SOL    HW1 3440   2.420   4.548   1.458
  847SOL    HW2 3441   2.444   4.681   1.550
  848SOL     OW 3442   6.913   5.567   6.929
  848SOL    HW1 3443   6.897   5.477   6.890
  848SOL    HW2 3444   6.890   5.638   6.863
  849SOL     OW 3445   6.177   3.474   6.871
  849SOL    HW1 3446   6.213   3.386   6.902
  849SOL    HW2 3447   6.238   3.547   6.900
  850SOL     OW 3448   0.369   0.675   5.365
  850SOL    HW1 3449   0.387   0.636   5.456
  850SOL    HW2 3450   0.400   0.611   5.295
  851SOL     OW 3451   6.719   3.247   6.129
  851SOL    HW1 3452   6.661   3.292   6.061
  851SOL    HW2 3453   6.730   3.151   6.105
  852SOL     OW 3454   0.675   4.011   2.285
  852SOL    HW1 3455   0.698   4.103   2.314
  852SOL    HW2 3456   0.710   3.996   2.192
  853SOL     OW 3457   2.792   3.923   0.021
  853SOL    HW1 3458   2.737   3.841   0.029
  853SOL    HW2 3459   2.808   3.962   0.111
  854SOL     OW 3460   5.476   6.308   6.600
  854SOL    HW1 3461   5.489   6.209   6.606
  854SOL    HW2 3462   5.455   6.333   6.505
  855SOL     OW 3463   6.205   1.132   0.125
  855SOL    HW1 3464   6.175   1.224   0.153
  855SOL    HW2 3465   6.195   1.069   0.202
  856SOL     OW 3466   1.958   6.310   0.308
  856SOL    HW1 3467   2.015   6.228   0.318
  856SOL    HW2 3468   1.875   6.287   0.258
  857SOL     OW 3469   6.259   5.088   5.196
  857SOL    HW1 3470   6.195   5.129   5.132
  857SOL    HW2 3471   6.209   5.040   5.267
  858SOL     OW 3472   3.869   3.493   0.367
  858SOL    HW1 3473   3.879   3.512   0.465
  858SOL    HW2 3474   3.939   3.428   0.338
  859SOL     OW 3475   4.374   6.450   5.702
  859SOL    HW1 3476   4.302   6.392   5.738
  859SOL    HW2 3477   4.335   6.539   5.677
  860SOL     OW 3478   5.946   3.277   5.991
  860SOL    HW1 3479   5.939   3.372   6.022
  860SOL    HW2 3480   6.037   3.242   6.014
  861SOL     OW 3481   2.588   6.269   2.366
  861SOL    HW1 3482   2.506   6.325   2.376
  861SOL    HW2 3483   2.632   6.289   2.278
  862SOL     OW 3484   1.116   4.708   3.642
  862SOL    HW1 3485   1.194   4.752   3.598
  862SOL    HW2 3486   1.047   4.686   3.574
  863SOL     OW 3487   6.853   0.618   6.757
  863SOL    HW1 3488   6.837   0.716   6.773
  863SOL    HW2 3489   6.941   0.606   6.711
  864SOL     OW 3490   5.562   0.400   4.752
  864SOL    HW1 3491   5.593   0.495   4.757
  864SOL    HW2 3492   5.641   0.340   4.741
  865SOL     OW 3493   2.162   6.432   4.344
  865SOL    HW1 3494   2.189   6.377   4.423
  865SOL    HW2 3495   2.072   6.472   4.360
  866SOL     OW 3496   2.990   6.292   2.070
  866SOL    HW1 3497   3.019   6.253   2.157
  866SOL    HW2 3498   3.053   6.264   1.998
  867SOL     OW 3499   5.921   2.027   0.075
  867SOL    HW1 3500   5.870   1.990   7.019
  867SOL    HW2 3501   5.870   2.012   0.159
  868SOL     OW 3502   0.219   2.204   2.414
  868SOL    HW1 3503   0.182   2.293   2.440
  868SOL    HW2 3504   0.316   2.213   2.393
  869SOL     OW 3505   6.758   4.034   3.489
  869SOL    HW1 3506   6.711   4.030   3.401
  869SOL    HW2 3507   6.700   4.081   3.555
  870SOL     OW 3508   3.495   5.081   1.751
  870SOL    HW1 3509   3.499   5.181   1.753
  870SOL    HW2 3510   3.422   5.049   1.811
  871SOL     OW 3511   4.448   1.939   3.647
  871SOL    HW1 3512   4.372   1.910   3.706
  871SOL    HW2 3513   4.431   1.907   3.554
  872SOL     OW 3514   7.006   2.964   4.453
  872SOL    HW1 3515   6.966   2.985   4.364
  872SOL    HW2 3516   7.018   2.865   4.461
  873SOL     OW 3517   4.562   6.340   6.253
  873SOL    HW1 3518   4.569   6.436   6.227
  873SOL    HW2 3519   4.646   6.292   6.229
  874SOL     OW 3520   5.182   4.274   0.503
  874SOL    HW1 3521   5.116   4.338   0.462
  874SOL    HW2 3522   5.133   4.204   0.554
  875SOL     OW 3523   4.966   5.753   0.459
  875SOL    HW1 3524   4.995   5.666   0.419
  875SOL    HW2 3525   5.003   5.761   0.552
  876SOL     OW 3526   0.049   6.408   1.849
  876SOL    HW1 3527   0.100   6.367   1.925
  876SOL    HW2 3528   7.006   6.341   1.813
  877SOL     OW 3529   2.852   4.093   6.807
  877SOL    HW1 3530   2.832   4.191   6.800
  877SOL    HW2 3531   2.833   4.061   6.900
  878SOL     OW 3532   4.045   6.433   4.558
  878SOL    HW1 3533   4.072   6.520   4.597
  878SOL    HW2 3534   3.945   6.426   4.557
  879SOL     OW 3535   6.091   0.505   0.755
  879SOL    HW1 3536   6.021   0.575   0.766
  879SOL    HW2 3537   6.180   0.542   0.784
  880SOL     OW 3538   3.113   3.867   3.207
  880SOL    HW1 3539   3.154   3.953   3.236
  880SOL    HW2 3540   3.123   3.857   3.108
  881SOL     OW 3541   4.577   2.053   6.320
  881SOL    HW1 3542   4.511   2.004   6.377
  881SOL    HW2 3543   4.541   2.062   6.227
  882SOL     OW 3544   0.806   3.703   4.641
  882SOL    HW1 3545   0.899   3.668   4.628
  882SOL    HW2 3546   0.763   3.654   4.717
  883SOL     OW 3547   2.868   0.208   2.699
  883SOL    HW1 3548   2.894   0.121   2.658
  883SOL    HW2 3549   2.807   0.192   2.776
  884SOL     OW 3550   4.551   2.722   5.000
  884SOL    HW1 3551   4.472   2.767   4.960
  884SOL    HW2 3552   4.597   2.784   5.064
  885SOL     OW 3553   3.476   1.782   6.661
  885SOL    HW1 3554   3.536   1.716   6.615
  885SOL    HW2 3555   3.522   1.870   6.667
  886SOL     OW 3556   3.232   0.641   0.403
  886SOL    HW1 3557   3.257   0.612   0.310
  886SOL    HW2 3558   3.264   0.734   0.418
  887SOL     OW 3559   4.276   0.992   3.859
  887SOL    HW1 3560   4.265   1.029   3.767
  887SOL    HW2 3561   4.186   0.974   3.899
  888SOL     OW 3562   0.366   0.610   3.237
  888SOL    HW1 3563   0.267   0.605   3.248
  888SOL    HW2 3564   0.402   0.520   3.212
  889SOL     OW 3565   0.486   3.940   6.947
  889SOL    HW1 3566   0.532   3.859   6.910
  889SOL    HW2 3567   0.387   3.924   6.947
  890SOL     OW 3568   2.242   5.882   3.995
  890SOL    HW1 3569   2.142   5.884   4.000
  890SOL    HW2 3570   2.274   5.789   4.015
  891SOL     OW 3571   5.715   5.961   0.880
  891SOL    HW1 3572   5.620   5.982   0.858
  891SOL    HW2 3573   5.769   5.962   0.795
  892SOL     OW 3574   2.798   3.807   5.975
  892SOL    HW1 3575   2.896   3.807   5.956
  892SOL    HW2 3576   2.748   3.784   5.892
  893SOL     OW 3577   2.832   6.574   2.655
  893SOL    HW1 3578   2.795   6.603   2.567
  893SOL    HW2 3579   2.818   6.647   2.723
  894SOL     OW 3580   1.480   4.141   1.641
  894SOL    HW1 3581   1.468   4.130   1.740
  894SOL    HW2 3582   1.537   4.066   1.607
  895SOL     OW 3583   0.312   6.137   3.445
  895SOL    HW1 3584   0.303   6.235   3.426
  895SOL    HW2 3585   0.404   6.106   3.420
  896SOL     OW 3586   6.365   6.087   6.280
  896SOL    HW1 3587   6.394   6.048   6.193
  896SOL    HW2 3588   6.433   6.152   6.313
  897SOL     OW 3589   5.345   1.085   6.774
  897SOL    HW1 3590   5.337   1.152   6.701
  897SOL    HW2 3591   5.254   1.064   6.810
  898SOL     OW 3592   3.239   5.562   3.026
  898SOL    HW1 3593   3.150   5.527   3.054
  898SOL    HW2 3594   3.310   5.496   3.051
  899SOL     OW 3595   0.560   5.050   6.004
  899SOL    HW1 3596   0.463   5.033   6.022
  899SOL    HW2 3597   0.572   5.078   5.909
  900SOL     OW 3598   5.899   6.990   0.650
  900SOL    HW1 3599   5.913   6.996   0.551
  900SOL    HW2 3600   5.924   0.055   0.693
  901SOL     OW 3601   1.946   1.164   2.273
  901SOL    HW1 3602   1.972   1.232   2.340
  901SOL    HW2 3603   1.889   1.094   2.316
  902SOL     OW 3604   6.087   4.071   1.290
  902SOL    HW1 3605   6.043   3.990   1.251
  902SOL    HW2 3606   6.098   4.058   1.389
  903SOL     OW 3607   6.750   1.841   0.383
  903SOL    HW1 3608   6.673   1.898   0.413
  903SOL    HW2 3609   6.832   1.865   0.436
  904SOL     OW 3610   3.538   2.109   3.601
  904SOL    HW1 3611   3.461   2.142   3.547
  904SOL    HW2 3612   3.510   2.097   3.696
  905SOL     OW 3613   5.991   2.681   0.222
  905SOL    HW1 3614   5.897   2.665   0.192
  905SOL    HW2 3615   6.052   2.615   0.178
  906SOL     OW 3616   0.120   2.670   5.332
  906SOL    HW1 3617   0.207   2.710   5.363
  906SOL    HW2 3618   0.054   2.672   5.408
  907SOL     OW 3619   4.823   3.372   0.157
  907SOL    HW1 3620   4.918   3.385   0.130
  907SOL    HW2 3621   4.764   3.433   0.104
  908SOL     OW 3622   2.675   4.711   2.072
  908SOL    HW1 3623   2.596   4.660   2.108
  908SOL    HW2 3624   2.728   4.652   2.011
  909SOL     OW 3625   4.625   4.779   6.264
  909SOL    HW1 3626   4.573   4.705   6.220
  909SOL    HW2 3627   4.601   4.866   6.220
  910SOL     OW 3628   2.759   2.865   1.659
  910SOL    HW1 3629   2.696   2.933   1.697
  910SOL    HW2 3630   2.722   2.774   1.674
  911SOL     OW 3631   1.868   5.654   6.022
  911SOL    HW1 3632   1.880   5.707   5.938
  911SOL    HW2 3633   1.955   5.650   6.071
  912SOL     OW 3634   4.779   2.479   3.321
  912SOL    HW1 3635   4.719   2.559   3.327
  912SOL    HW2 3636   4.844   2.480   3.397
  913SOL     OW 3637   5.133   6.684   3.326
  913SOL    HW1 3638   5.097   6.590   3.335
  913SOL    HW2 3639   5.206   6.698   3.392
  914SOL     OW 3640   2.713   0.365   6.586
  914SOL    HW1 3641   2.752   0.435   6.527
  914SOL    HW2 3642   2.620   0.343   6.556
  915SOL     OW 3643   5.821   5.891   0.615
  915SOL    HW1 3644   5.895   5.874   0.679
  915SOL    HW2 3645   5.780   5.804   0.586
  916SOL     OW 3646   1.024   2.344   2.368
  916SOL    HW1 3647   1.014   2.322   2.465
  916SOL    HW2 3648   1.000   2.440   2.353
  917SOL     OW 3649   0.472   0.346   0.597
  917SOL    HW1 3650   0.441   0.338   0.692
  917SOL    HW2 3651   0.398   0.316   0.536
  918SOL     OW 3652   1.651   6.246   0.748
  918SOL    HW1 3653   1.748   6.226   0.734
  918SOL    HW2 3654   1.636   6.345   0.746
  919SOL     OW 3655   5.914   1.863   3.538
  919SOL    HW1 3656   5.989   1.810   3.497
  919SOL    HW2 3657   5.830   1.810   3.534
  920SOL     OW 3658   2.632   5.022   2.075
  920SOL    HW1 3659   2.567   4.997   2.003
  920SOL    HW2 3660   2.627   4.955   2.149
  921SOL     OW 3661   4.980   5.674   4.571
  921SOL    HW1 3662   5.057   5.675   4.636
  921SOL    HW2 3663   5.007   5.623   4.489
  922SOL     OW 3664   4.083   3.644   3.867
  922SOL    HW1 3665   4.031   3.719   3.827
  922SOL    HW2 3666   4.116   3.669   3.958
  923SOL     OW 3667   2.268   2.707   5.504
  923SOL    HW1 3668   2.304   2.721   5.412
  923SOL    HW2 3669   2.180   2.753   5.513
  924SOL     OW 3670   6.842   3.827   2.456
  924SOL    HW1 3671   6.845   3.769   2.537
  924SOL    HW2 3672   6.750   3.865   2.445
  925SOL     OW 3673   5.867   1.628   0.369
  925SOL    HW1 3674   5.769   1.641   0.381
  925SOL    HW2 3675   5.914   1.716   0.372
  926SOL     OW 3676   0.739   1.527   1.963
  926SOL    HW1 3677   0.648   1.531   2.003
  926SOL    HW2 3678   0.744   1.451   1.897
  927SOL     OW 3679   5.801   4.080   3.715
  927SOL    HW1 3680   5.714   4.035   3.696
  927SOL    HW2 3681   5.796   4.129   3.802
  928SOL     OW 3682   3.122   5.975   6.837
  928SOL    HW1 3683   3.031   5.938   6.850
  928SOL    HW2 3684   3.174   5.918   6.774
  929SOL     OW 3685   6.641   1.309   5.714
  929SOL    HW1 3686   6.553   1.355   5.724
  929SOL    HW2 3687   6.675   1.322   5.620
  930SOL     OW 3688   4.966   5.082   6.810
  930SOL    HW1 3689   4.880   5.032   6.800
  930SOL    HW2 3690   5.022   5.068   6.728
  931SOL     OW 3691   6.459   2.732   3.213
  931SOL    HW1 3692   6.528   2.661   3.225
  931SOL    HW2 3693   6.368   2.689   3.206
  932SOL     OW 3694   3.974   0.857   3.633
  932SOL    HW1 3695   3.893   0.905   3.666
  932SOL    HW2 3696   4.014   0.804   3.708
  933SOL     OW 3697   1.369   5.014   2.704
  933SOL    HW1 3698   1.425   5.031   2.623
  933SOL    HW2 3699   1.277   5.049   2.690
  934SOL     OW 3700   1.711   5.101   6.411
  934SOL    HW1 3701   1.730   5.164   6.336
  934SOL    HW2 3702   1.744   5.010   6.388
  935SOL     OW 3703   5.368   3.771   3.289
  935SOL    HW1 3704   5.282   3.738   3.250
  935SOL    HW2 3705   5.410   3.699   3.344
  936SOL     OW 3706   1.504   0.435   6.765
  936SOL    HW1 3707   1.405   0.446   6.776
  936SOL    HW2 3708   1.549   0.522   6.782
  937SOL     OW 3709   4.993   1.344   5.430
  937SOL    HW1 3710   5.034   1.260   5.465
  937SOL    HW2 3711   5.050   1.422   5.456
  938SOL     OW 3712   5.847   5.386   4.559
  938SOL    HW1 3713   5.860   5.469   4.613
  938SOL    HW2 3714   5.788   5.407   4.480
  939SOL     OW 3715   0.426   6.897   5.118
  939SOL    HW1 3716   0.475   6.863   5.199
  939SOL    HW2 3717   0.353   6.959   5.147
  940SOL     OW 3718   2.101   5.040   0.327
  940SOL    HW1 3719   2.089   4.965   0.391
  940SOL    HW2 3720   2.108   5.126   0.377
  941SOL     OW 3721   3.762   0.128   6.686
  941SOL    HW1 3722   3.819   0.207   6.711
  941SOL    HW2 3723   3.666   0.156   6.682
  942SOL     OW 3724   0.237   5.432   0.525
  942SOL    HW1 3725   0.324   5.383   0.529
  942SOL    HW2 3726   0.251   5.527   0.553
  943SOL     OW 3727   2.987   4.882   3.049
  943SOL    HW1 3728   3.043   4.862   2.968
  943SOL    HW2 3729   2.897   4.914   3.020
  944SOL     OW 3730   0.840   6.571   4.531
  944SOL    HW1 3731   0.787   6.534   4.455
  944SOL    HW2 3732   0.830   6.670   4.533
  945SOL     OW 3733   0.565   5.161   6.367
  945SOL    HW1 3734   0.603   5.152   6.459
  945SOL    HW2 3735   0.638   5.149   6.300
  946SOL     OW 3736   5.031   3.514   3.511
  946SOL    HW1 3737   5.007   3.436   3.569
  946SOL    HW2 3738   4.957   3.531   3.446
  947SOL     OW 3739   4.083   3.738   4.762
  947SOL    HW1 3740   4.086   3.733   4.662
  947SOL    HW2 3741   4.167   3.781   4.796
  948SOL     OW 3742   4.782   1.095   2.815
  948SOL    HW1 3743   4.708   1.136   2.762
  948SOL    HW2 3744   4.798   1.149   2.898
  949SOL     OW 3745   2.987   6.482   6.744
  949SOL    HW1 3746   2.963   6.448   6.835
  949SOL    HW2 3747   2.922   6.552   6.716
  950SOL     OW 3748   0.402   6.476   2.109
  950SOL    HW1 3749   0.461   6.440   2.181
  950SOL    HW2 3750   0.458   6.517   2.038
  951SOL     OW 3751   2.050   6.732   3.114
  951SOL    HW1 3752   1.990   6.802   3.075
  951SOL    HW2 3753   2.014   6.702   3.202
  952SOL     OW 3754   3.355   1.408   1.898
  952SOL    HW1 3755   3.452   1.403   1.873
  952SOL    HW2 3756   3.346   1.444   1.990
  953SOL     OW 3757   6.490   5.091   5.010
  953SOL    HW1 3758   6.410   5.039   5.039
  953SOL    HW2 3759   6.516   5.155   5.081
  954SOL     OW 3760   4.855   6.066   2.603
  954SOL    HW1 3761   4.855   6.008   2.684
  954SOL    HW2 3762   4.909   6.148   2.621
  955SOL     OW 3763   1.739   4.307   0.446
  955SOL    HW1 3764   1.740   4.296   0.347
  955SOL    HW2 3765   1.647   4.288   0.481
  956SOL     OW 3766   6.240   0.579   1.800
  956SOL    HW1 3767   6.221   0.614   1.708
  956SOL    HW2 3768   6.339   0.577   1.815
  957SOL     OW 3769   6.222   2.505   4.060
  957SOL    HW1 3770   6.280   2.540   3.986
  957SOL    HW2 3771   6.127   2.530   4.042
  958SOL     OW 3772   5.446   0.463   1.760
  958SOL    HW1 3773   5.382   0.509   1.821
  958SOL    HW2 3774   5.538   0.465   1.799
  959SOL     OW 3775   3.813   6.681   4.320
  959SOL    HW1 3776   3.783   6.768   4.360
  959SOL    HW2 3777   3.764   6.666   4.234
  960SOL     OW 3778   0.898   0.347   6.956
  960SOL    HW1 3779   0.810   0.299   6.954
  960SOL    HW2 3780   0.972   0.282   6.969
  961SOL     OW 3781   3.352   6.679   2.667
  961SOL    HW1 3782   3.300   6.599   2.636
  961SOL    HW2 3783   3.295   6.761   2.657
  962SOL     OW 3784   6.786   0.321   4.716
  962SOL    HW1 3785   6.762   0.343   4.622
  962SOL    HW2 3786   6.743   0.386   4.778
  963SOL     OW 3787   4.791   2.773   1.092
  963SOL    HW1 3788   4.837   2.689   1.122
  963SOL    HW2 3789   4.787   2.775   0.992
  964SOL     OW 3790   4.554   4.349   5.225
  964SOL    HW1 3791   4.595   4.264   5.191
  964SOL    HW2 3792   4.456   4.348   5.206
  965SOL     OW 3793   5.796   2.706   3.869
  965SOL    HW1 3794   5.839   2.636   3.811
  965SOL    HW2 3795   5.830   2.697   3.962
  966SOL     OW 3796   5.203   1.913   4.135
  966SOL    HW1 3797   5.108   1.936   4.116
  966SOL    HW2 3798   5.263   1.982   4.095
  967SOL     OW 3799   5.687   4.147   6.391
  967SOL    HW1 3800   5.675   4.164   6.489
  967SOL    HW2 3801   5.651   4.057   6.368
  968SOL     OW 3802   3.729   0.432   1.833
  968SOL    HW1 3803   3.649   0.378   1.861
  968SOL    HW2 3804   3.697   0.515   1.787
  969SOL     OW 3805   3.685   3.773   5.906
  969SOL    HW1 3806   3.655   3.868   5.896
  969SOL    HW2 3807   3.765   3.757   5.849
  970SOL     OW 3808   5.581   0.425   6.029
  970SOL    HW1 3809   5.665   0.372   6.030
  970SOL    HW2 3810   5.597   0.514   6.071
  971SOL     OW 3811   5.621   4.116   2.878
  971SOL    HW1 3812   5.548   4.183   2.865
  971SOL    HW2 3813   5.688   4.124   2.804
  972SOL     OW 3814   0.173   2.927   0.987
  972SOL    HW1 3815   0.100   2.992   0.967
  972SOL    HW2 3816   0.160   2.845   0.931
  973SOL     OW 3817   6.979   3.421   6.107
  973SOL    HW1 3818   6.899   3.365   6.085
  973SOL    HW2 3819   7.000   3.482   6.031
  974SOL     OW 3820   6.898   5.689   4.201
  974SOL    HW1 3821   6.826   5.758   4.202
  974SOL    HW2 3822   6.976   5.722   4.148
  975SOL     OW 3823   2.630   6.612   2.091
  975SOL    HW1 3824   2.619   6.651   2.182
  975SOL    HW2 3825   2.644   6.685   2.024
  976SOL     OW 3826   6.596   3.918   2.381
  976SOL    HW1 3827   6.519   3.861   2.350
  976SOL    HW2 3828   6.589   4.008   2.339
  977SOL     OW 3829   6.991   1.077   2.625
  977SOL    HW1 3830   6.987   1.150   2.693
  977SOL    HW2 3831   6.912   1.017   2.635
  978SOL     OW 3832   5.475   2.723   1.942
  978SOL    HW1 3833   5.458   2.647   2.004
  978SOL    HW2 3834   5.547   2.782   1.979
  979SOL     OW 3835   0.005   3.624   7.019
  979SOL    HW1 3836   6.954   3.556   0.003
  979SOL    HW2 3837   0.032   3.637   6.924
  980SOL     OW 3838   3.539   1.703   5.006
  980SOL    HW1 3839   3.484   1.784   4.988
  980SOL    HW2 3840   3.511   1.629   4.945
  981SOL     OW 3841   6.656   6.672   5.432
  981SOL    HW1 3842   6.736   6.694   5.377
  981SOL    HW2 3843   6.578   6.652   5.372
  982SOL     OW 3844   6.877   1.252   5.221
  982SOL    HW1 3845   6.810   1.307   5.272
  982SOL    HW2 3846   6.836   1.222   5.135
  983SOL     OW 3847   0.041   4.376   4.188
  983SOL    HW1 3848   0.002   4.468   4.194
  983SOL    HW2 3849   0.086   4.353   4.274
  984SOL     OW 3850   1.134   2.011   2.728
  984SOL    HW1 3851   1.136   1.934   2.793
  984SOL    HW2 3852   1.195   1.992   2.652
  985SOL     OW 3853   6.626   3.920   4.604
  985SOL    HW1 3854   6.713   3.931   4.651
  985SOL    HW2 3855   6.596   4.008   4.567
  986SOL     OW 3856   5.539   4.859   1.018
  986SOL    HW1 3857   5.617   4.797   1.031
  986SOL    HW2 3858   5.505   4.888   1.108
  987SOL     OW 3859   5.545   5.262   3.853
  987SOL    HW1 3860   5.637   5.293   3.826
  987SOL    HW2 3861   5.476   5.310   3.799
  988SOL     OW 3862   3.052   4.122   1.434
  988SOL    HW1 3863   3.073   4.146   1.529
  988SOL    HW2 3864   3.035   4.206   1.382
  989SOL     OW 3865   0.413   1.429   1.232
  989SOL    HW1 3866   0.403   1.330   1.225
  989SOL    HW2 3867   0.344   1.465   1.295
  990SOL     OW 3868   4.112   6.995   3.363
  990SOL    HW1 3869   4.153   0.064   3.357
  990SOL    HW2 3870   4.013   7.005   3.375
  991SOL     OW 3871   6.990   4.818   4.009
  991SOL    HW1 3872   7.012   4.872   3.928
  991SOL    HW2 3873   0.049   4.765   4.037
  992SOL     OW 3874   0.235   2.489   1.536
  992SOL    HW1 3875   0.206   2.396   1.512
  992SOL    HW2 3876   0.319   2.484   1.589
  993SOL     OW 3877   1.784   5.254   0.601
  993SOL    HW1 3878   1.709   5.305   0.557
  993SOL    HW2 3879   1.782   5.272   0.699
  994SOL     OW 3880   2.829   6.898   0.417
  994SOL    HW1 3881   2.904   6.893   0.351
  994SOL    HW2 3882   2.797   6.993   0.425
  995SOL     OW 3883   5.827   2.938   5.873
  995SOL    HW1 3884   5.926   2.920   5.872
  995SOL    HW2 3885   5.792   2.930   5.780
  996SOL     OW 3886   3.935   6.055   5.860
  996SOL    HW1 3887   4.003   6.052   5.787
  996SOL    HW2 3888   3.843   6.053   5.820
  997SOL     OW 3889   1.722   5.682   3.989
  997SOL    HW1 3890   1.769   5.628   4.059
  997SOL    HW2 3891   1.743   5.646   3.898
  998SOL     OW 3892   6.105   6.937   6.318
  998SOL    HW1 3893   6.044   7.016   6.306
  998SOL    HW2 3894   6.163   6.953   6.398
  999SOL     OW 3895   4.801   3.721   1.842
  999SOL    HW1 3896   4.829   3.635   1.883
  999SOL    HW2 3897   4.730   3.704   1.774
 1000SOL     OW 3898   4.277   1.911   1.542
 1000SOL    HW1 3899   4.332   1.895   1.624
 1000SOL    HW2 3900   4.227   1.827   1.519
 1001SOL     OW 3901   2.906   6.597   2.044
 1001SOL    HW1 3902   2.811   6.605   2.074
 1001SOL    HW2 3903   2.945   6.512   2.081
 1002SOL     OW 3904   5.631   2.598   1.356
 1002SOL    HW1 3905   5.556   2.660   1.376
 1002SOL    HW2 3906   5.717   2.650   1.348
 1003SOL     OW 3907   0.282   6.828   3.026
 1003SOL    HW1 3908   0.314   6.733   3.027
 1003SOL    HW2 3909   0.297   6.868   2.936
 1004SOL     OW 3910   5.327   1.358   3.618
 1004SOL    HW1 3911   5.387   1.280   3.597
 1004SOL    HW2 3912   5.263   1.332   3.690
 1005SOL     OW 3913   1.233   4.477   3.762
 1005SOL    HW1 3914   1.236   4.504   3.858
 1005SOL    HW2 3915   1.190   4.550   3.708
 1006SOL     OW 3916   2.646   3.303   1.020
 1006SOL    HW1 3917   2.673   3.374   1.085
 1006SOL    HW2 3918   2.715   3.297   0.948
 1007SOL     OW 3919   4.719   1.076   6.441
 1007SOL    HW1 3920   4.628   1.061   6.481
 1007SOL    HW2 3921   4.771   1.139   6.498
 1008SOL     OW 3922   0.082   4.950   4.958
 1008SOL    HW1 3923   0.116   4.864   4.920
 1008SOL    HW2 3924   0.025   4.996   4.890
 1009SOL     OW 3925   6.583   5.245   6.485
 1009SOL    HW1 3926   6.583   5.172   6.416
 1009SOL    HW2 3927   6.493   5.289   6.488
 1010SOL     OW 3928   2.375   3.240   1.472
 1010SOL    HW1 3929   2.299   3.178   1.494
 1010SOL    HW2 3930   2.429   3.202   1.397
 1011SOL     OW 3931   0.119   5.120   2.742
 1011SOL    HW1 3932   0.151   5.112   2.837
 1011SOL    HW2 3933   0.168   5.054   2.685
 1012SOL     OW 3934   5.368   0.264   2.473
 1012SOL    HW1 3935   5.325   0.353   2.487
 1012SOL    HW2 3936   5.459   0.264   2.513
 1013SOL     OW 3937   6.565   0.653   6.381
 1013SOL    HW1 3938   6.560   0.720   6.455
 1013SOL    HW2 3939   6.657   0.613   6.379
 1014SOL     OW 3940   1.648   4.882   4.777
 1014SOL    HW1 3941   1.594   4.966   4.783
 1014SOL    HW2 3942   1.727   4.897   4.718
 1015SOL     OW 3943   3.480   6.180   6.944
 1015SOL    HW1 3944   3.480   6.276   6.971
 1015SOL    HW2 3945   3.409   6.131   6.996
 1016SOL     OW 3946   5.648   4.234   1.839
 1016SOL    HW1 3947   5.659   4.313   1.900
 1016SOL    HW2 3948   5.690   4.256   1.750
 1017SOL     OW 3949   2.192   1.573   2.656
 1017SOL    HW1 3950   2.199   1.647   2.724
 1017SOL    HW2 3951   2.179   1.486   2.702
 1018SOL     OW 3952   0.463   5.142   3.218
 1018SOL    HW1 3953   0.467   5.239   3.194
 1018SOL    HW2 3954   0.368   5.112   3.222
 1019SOL     OW 3955   0.124   5.129   1.117
 1019SOL    HW1 3956   0.089   5.167   1.031
 1019SOL    HW2 3957   0.054   5.140   1.188
 1020SOL     OW 3958   6.911   6.983   0.718
 1020SOL    HW1 3959   7.007   7.012   0.715
 1020SOL    HW2 3960   6.858   0.013   0.650
 1021SOL     OW 3961   6.208   5.991   1.457
 1021SOL    HW1 3962   6.151   6.003   1.538
 1021SOL    HW2 3963   6.288   5.936   1.480
 1022SOL     OW 3964   2.562   6.473   6.249
 1022SOL    HW1 3965   2.558   6.373   6.240
 1022SOL    HW2 3966   2.478   6.506   6.293
 1023SOL     OW 3967   0.685   1.877   3.653
 1023SOL    HW1 3968   0.748   1.951   3.675
 1023SOL    HW2 3969   0.701   1.846   3.559
 1024SOL     OW 3970   1.144   2.037   5.016
 1024SOL    HW1 3971   1.190   1.996   4.937
 1024SOL    HW2 3972   1.171   2.133   5.024
 1025SOL     OW 3973   4.816   3.372   0.448
 1025SOL    HW1 3974   4.828   3.336   0.356
 1025SOL    HW2 3975   4.873   3.454   0.459
 1026SOL     OW 3976   2.800   2.612   1.288
 1026SOL    HW1 3977   2.720   2.564   1.324
 1026SOL    HW2 3978   2.786   2.710   1.296
 1027SOL     OW 3979   0.325   6.313   1.031
 1027SOL    HW1 3980   0.414   6.355   1.046
 1027SOL    HW2 3981   0.260   6.383   1.002
 1028SOL     OW 3982   0.869   6.130   2.774
 1028SOL    HW1 3983   0.940   6.155   2.708
 1028SOL    HW2 3984   0.788   6.188   2.760
 1029SOL     OW 3985   1.396   1.556   6.198
 1029SOL    HW1 3986   1.417   1.638   6.145
 1029SOL    HW2 3987   1.375   1.481   6.136
 1030SOL     OW 3988   3.221   3.612   1.469
 1030SOL    HW1 3989   3.184   3.520   1.482
 1030SOL    HW2 3990   3.155   3.667   1.418
 1031SOL     OW 3991   3.099   3.353   1.521
 1031SOL    HW1 3992   3.067   3.278   1.464
 1031SOL    HW2 3993   3.025   3.382   1.582
 1032SOL     OW 3994   1.980   1.810   6.265
 1032SOL    HW1 3995   1.907   1.877   6.270
 1032SOL    HW2 3996   2.000   1.789   6.169
 1033SOL     OW 3997   0.606   6.205   1.759
 1033SOL    HW1 3998   0.674   6.273   1.732
 1033SOL    HW2 3999   0.585   6.216   1.856
 1034SOL     OW 4000   3.190   6.614   4.786
 1034SOL    HW1 4001   3.275   6.567   4.766
 1034SOL    HW2 4002   3.195   6.655   4.877
 1035SOL     OW 4003   0.668   2.253   5.919
 1035SOL    HW1 4004   0.646   2.333   5.975
 1035SOL    HW2 4005   0.764   2.257   5.891
 1036SOL     OW 4006   5.086   1.431   0.908
 1036SOL    HW1 4007   5.108   1.363   0.977
 1036SOL    HW2 4008   5.017   1.395   0.846
 1037SOL     OW 4009   1.297   2.613   3.134
 1037SOL    HW1 4010   1.359   2.649   3.203
 1037SOL    HW2 4011   1.323   2.649   3.044
 1038SOL     OW 4012   3.001   6.898   0.163
 1038SOL    HW1 4013   2.988   6.994   0.187
 1038SOL    HW2 4014   3.098   6.874   0.175
 1039SOL     OW 4015   3.716   3.018   3.334
 1039SOL    HW1 4016   3.707   2.945   3.401
 1039SOL    HW2 4017   3.651   3.091   3.355
 1040SOL     OW 4018   4.248   0.880   3.000
 1040SOL    HW1 4019   4.191   0.875   2.918
 1040SOL    HW2 4020   4.307   0.961   2.993
 1041SOL     OW 4021   6.700   6.293   6.026
 1041SOL    HW1 4022   6.617   6.237   6.028
 1041SOL    HW2 4023   6.684   6.377   6.078
 1042SOL     OW 4024   5.358   4.865   2.327
 1042SOL    HW1 4025   5.394   4.838   2.238
 1042SOL    HW2 4026   5.285   4.932   2.315
 1043SOL     OW 4027   3.539   1.749   4.071
 1043SOL    HW1 4028   3.572   1.812   4.142
 1043SOL    HW2 4029   3.617   1.705   4.028
 1044SOL     OW 4030   5.889   5.094   1.566
 1044SOL    HW1 4031   5.829   5.067   1.491
 1044SOL    HW2 4032   5.838   5.150   1.632
 1045SOL     OW 4033   2.301   0.477   3.614
 1045SOL    HW1 4034   2.252   0.560   3.588
 1045SOL    HW2 4035   2.300   0.412   3.538
 1046SOL     OW 4036   2.875   1.172   0.811
 1046SOL    HW1 4037   2.889   1.094   0.751
 1046SOL    HW2 4038   2.783   1.168   0.851
 1047SOL     OW 4039   3.714   6.649   2.932
 1047SOL    HW1 4040   3.754   6.683   2.847
 1047SOL    HW2 4041   3.783   6.649   3.004
 1048SOL     OW 4042   1.520   6.205   1.980
 1048SOL    HW1 4043   1.464   6.124   1.966
 1048SOL    HW2 4044   1.615   6.185   1.956
 1049SOL     OW 4045   4.241   6.442   5.275
 1049SOL    HW1 4046   4.284   6.488   5.198
 1049SOL    HW2 4047   4.312   6.403   5.334
 1050SOL     OW 4048   3.310   5.475   3.496
 1050SOL    HW1 4049   3.230   5.448   3.442
 1050SOL    HW2 4050   3.384   5.501   3.435
 1051SOL     OW 4051   0.131   0.350   0.310
 1051SOL    HW1 4052   0.207   0.363   0.247
 1051SOL    HW2 4053   0.103   0.438   0.347
 1052SOL     OW 4054   3.864   0.353   6.744
 1052SOL    HW1 4055   3.794   0.344   6.814
 1052SOL    HW2 4056   3.822   0.385   6.659
 1053SOL     OW 4057   5.999   3.251   2.634
 1053SOL    HW1 4058   5.991   3.160   2.594
 1053SOL    HW2 4059   6.076   3.299   2.593
 1054SOL     OW 4060   3.054   4.443   0.104
 1054SOL    HW1 4061   3.041   4.533   0.145
 1054SOL    HW2 4062   3.108   4.452   0.020
 1055SOL     OW 4063   4.543   5.814   6.826
 1055SOL    HW1 4064   4.597   5.896   6.847
 1055SOL    HW2 4065   4.559   5.745   6.896
 1056SOL     OW 4066   2.695   3.925   6.639
 1056SOL    HW1 4067   2.731   3.993   6.703
 1056SOL    HW2 4068   2.754   3.845   6.639
 1057SOL     OW 4069   3.343   1.647   1.523
 1057SOL    HW1 4070   3.284   1.719   1.559
 1057SOL    HW2 4071   3.289   1.566   1.503
 1058SOL     OW 4072   2.367   2.286   2.610
 1058SOL    HW1 4073   2.332   2.220   2.676
 1058SOL    HW2 4074   2.405   2.365   2.659
 1059SOL     OW 4075   2.510   6.299   1.470
 1059SOL    HW1 4076   2.559   6.374   1.514
 1059SOL    HW2 4077   2.568   6.259   1.399
 1060SOL     OW 4078   6.523   6.351   5.534
 1060SOL    HW1 4079   6.620   6.375   5.544
 1060SOL    HW2 4080   6.516   6.255   5.506
 1061SOL     OW 4081   6.847   3.945   0.102
 1061SOL    HW1 4082   6.784   4.015   0.133
 1061SOL    HW2 4083   6.836   3.863   0.158
 1062SOL     OW 4084   3.508   6.407   5.606
 1062SOL    HW1 4085   3.608   6.416   5.598
 1062SOL    HW2 4086   3.470   6.381   5.517
 1063SOL     OW 4087   1.739   6.498   5.854
 1063SOL    HW1 4088   1.745   6.558   5.775
 1063SOL    HW2 4089   1.740   6.402   5.824
 1064SOL     OW 4090   1.240   4.531   0.386
 1064SOL    HW1 4091   1.312   4.511   0.452
 1064SOL    HW2 4092   1.186   4.609   0.417
 1065SOL     OW 4093   4.714   0.359   4.396
 1065SOL    HW1 4094   4.623   0.340   4.357
 1065SOL    HW2 4095   4.758   0.432   4.343
 1066SOL     OW 4096   4.906   0.334   2.024
 1066SOL    HW1 4097   4.808   0.333   2.046
 1066SOL    HW2 4098   4.951   0.406   2.076
 1067SOL     OW 4099   2.700   0.856   0.198
 1067SOL    HW1 4100   2.666   0.763   0.207
 1067SOL    HW2 4101   2.759   0.862   0.118
 1068SOL     OW 4102   5.967   3.034   1.334
 1068SOL    HW1 4103   5.973   3.080   1.246
 1068SOL    HW2 4104   5.871   3.014   1.355
 1069SOL     OW 4105   6.534   3.941   1.836
 1069SOL    HW1 4106   6.580   4.029   1.833
 1069SOL    HW2 4107   6.600   3.869   1.859
 1070SOL     OW 4108   1.348   0.595   2.247
 1070SOL    HW1 4109   1.333   0.598   2.148
 1070SOL    HW2 4110   1.317   0.506   2.283
 1071SOL     OW 4111   6.534   2.529   5.376
 1071SOL    HW1 4112   6.504   2.591   5.448
 1071SOL    HW2 4113   6.593   2.578   5.312
 1072SOL     OW 4114   2.875   1.438   2.456
 1072SOL    HW1 4115   2.955   1.394   2.416
 1072SOL    HW2 4116   2.886   1.537   2.451
 1073SOL     OW 4117   5.136   1.485   3.459
 1073SOL    HW1 4118   5.192   1.495   3.377
 1073SOL    HW2 4119   5.192   1.445   3.533
 1074SOL     OW 4120   2.841   4.994   1.906
 1074SOL    HW1 4121   2.893   4.912   1.931
 1074SOL    HW2 4122   2.781   5.020   1.981
 1075SOL     OW 4123   5.814   3.291   5.207
 1075SOL    HW1 4124   5.798   3.210   5.263
 1075SOL    HW2 4125   5.884   3.348   5.251
 1076SOL     OW 4126   2.164   3.730   5.118
 1076SOL    HW1 4127   2.236   3.793   5.089
 1076SOL    HW2 4128   2.120   3.691   5.038
 1077SOL     OW 4129   0.012   6.888   0.177
 1077SOL    HW1 4130   0.095   6.944   0.186
 1077SOL    HW2 4131   0.038   6.794   0.154
 1078SOL     OW 4132   6.684   5.984   3.886
 1078SOL    HW1 4133   6.622   6.019   3.817
 1078SOL    HW2 4134   6.779   5.993   3.854
 1079SOL     OW 4135   0.746   5.891   2.640
 1079SOL    HW1 4136   0.733   5.973   2.584
 1079SOL    HW2 4137   0.841   5.885   2.668
 1080SOL     OW 4138   1.858   4.892   6.085
 1080SOL    HW1 4139   1.952   4.917   6.112
 1080SOL    HW2 4140   1.861   4.841   5.999
 1081SOL     OW 4141   6.172   5.757   4.404
 1081SOL    HW1 4142   6.266   5.771   4.375
 1081SOL    HW2 4143   6.170   5.693   4.481
 1082SOL     OW 4144   5.541   0.002   6.332
 1082SOL    HW1 4145   5.445   0.002   6.360
 1082SOL    HW2 4146   5.546   7.011   6.233
 1083SOL     OW 4147   5.455   4.619   0.799
 1083SOL    HW1 4148   5.491   4.699   0.752
 1083SOL    HW2 4149   5.359   4.605   0.774
 1084SOL     OW 4150   0.672   7.002   6.253
 1084SOL    HW1 4151   0.589   6.955   6.224
 1084SOL    HW2 4152   0.677   0.071   6.210
 1085SOL     OW 4153   1.989   4.008   3.941
 1085SOL    HW1 4154   1.911   4.041   3.994
 1085SOL    HW2 4155   2.052   3.960   4.002
 1086SOL     OW 4156   6.261   4.886   0.264
 1086SOL    HW1 4157   6.180   4.850   0.218
 1086SOL    HW2 4158   6.343   4.859   0.213
 1087SOL     OW 4159   2.084   0.859   5.228
 1087SOL    HW1 4160   2.049   0.945   5.192
 1087SOL    HW2 4161   2.018   0.820   5.292
 1088SOL     OW 4162   6.897   4.547   3.507
 1088SOL    HW1 4163   6.884   4.566   3.409
 1088SOL    HW2 4164   6.900   4.448   3.521
 1089SOL     OW 4165   6.459   4.236   4.681
 1089SOL    HW1 4166   6.494   4.292   4.757
 1089SOL    HW2 4167   6.415   4.154   4.718
 1090SOL     OW 4168   5.247   1.504   4.455
 1090SOL    HW1 4169   5.311   1.526   4.529
 1090SOL    HW2 4170   5.179   1.577   4.448
 1091SOL     OW 4171   2.270   2.857   3.286
 1091SOL    HW1 4172   2.338   2.807   3.233
 1091SOL    HW2 4173   2.248   2.806   3.369
 1092SOL     OW 4174   0.777   5.123   0.540
 1092SOL    HW1 4175   0.740   5.041   0.583
 1092SOL    HW2 4176   0.728   5.142   0.455
 1093SOL     OW 4177   2.407   6.869   1.234
 1093SOL    HW1 4178   2.426   6.806   1.309
 1093SOL    HW2 4179   2.465   6.847   1.156
 1094SOL     OW 4180   1.393   0.365   2.944
 1094SOL    HW1 4181   1.340   0.307   2.882
 1094SOL    HW2 4182   1.386   0.460   2.915
 1095SOL     OW 4183   0.327   3.481   0.453
 1095SOL    HW1 4184   0.336   3.384   0.475
 1095SOL    HW2 4185   0.315   3.533   0.538
 1096SOL     OW 4186   3.260   5.357   1.568
 1096SOL    HW1 4187   3.322   5.323   1.639
 1096SOL    HW2 4188   3.180   5.398   1.612
 1097SOL     OW 4189   2.793   5.162   3.550
 1097SOL    HW1 4190   2.760   5.246   3.593
 1097SOL    HW2 4191   2.794   5.088   3.618
 1098SOL     OW 4192   6.616   4.998   0.191
 1098SOL    HW1 4193   6.569   4.992   0.103
 1098SOL    HW2 4194   6.566   5.061   0.251
 1099SOL     OW 4195   4.687   0.886   6.188
 1099SOL    HW1 4196   4.682   0.852   6.281
 1099SOL    HW2 4197   4.772   0.938   6.176
 1100SOL     OW 4198   3.533   1.392   3.985
 1100SOL    HW1 4199   3.475   1.459   4.031
 1100SOL    HW2 4200   3.522   1.400   3.886
 1101SOL     OW 4201   6.532   2.775   5.816
 1101SOL    HW1 4202   6.434   2.765   5.832
 1101SOL    HW2 4203   6.581   2.700   5.859
 1102SOL     OW 4204   2.576   1.007   4.308
 1102SOL    HW1 4205   2.545   1.102   4.296
 1102SOL    HW2 4206   2.575   0.983   4.405
 1103SOL     OW 4207   3.337   0.717   6.849
 1103SOL    HW1 4208   3.316   0.807   6.812
 1103SOL    HW2 4209   3.437   0.705   6.853
 1104SOL     OW 4210   0.183   3.625   3.646
 1104SOL    HW1 4211   0.134   3.540   3.629
 1104SOL    HW2 4212   0.206   3.632   3.743
 1105SOL     OW 4213   5.124   1.129   4.758
 1105SOL    HW1 4214   5.043   1.079   4.728
 1105SOL    HW2 4215   5.171   1.168   4.679
 1106SOL     OW 4216   0.418   1.661   0.670
 1106SOL    HW1 4217   0.473   1.701   0.597
 1106SOL    HW2 4218   0.332   1.628   0.632
 1107SOL     OW 4219   0.910   0.992   0.316
 1107SOL    HW1 4220   0.969   1.008   0.238
 1107SOL    HW2 4221   0.815   1.013   0.291
 1108SOL     OW 4222   2.599   6.352   4.245
 1108SOL    HW1 4223   2.650   6.266   4.240
 1108SOL    HW2 4224   2.503   6.333   4.262
 1109SOL     OW 4225   5.427   1.638   4.644
 1109SOL    HW1 4226   5.367   1.715   4.670
 1109SOL    HW2 4227   5.518   1.654   4.681
 1110SOL     OW 4228   3.444   0.911   2.326
 1110SOL    HW1 4229   3.400   0.858   2.399
 1110SOL    HW2 4230   3.494   0.849   2.266
 1111SOL     OW 4231   4.945   3.675   6.144
 1111SOL    HW1 4232   4.965   3.764   6.103
 1111SOL    HW2 4233   4.849   3.671   6.170
 1112SOL     OW 4234   5.445   0.584   2.143
 1112SOL    HW1 4235   5.394   0.658   2.098
 1112SOL    HW2 4236   5.400   0.497   2.127
 1113SOL     OW 4237   5.962   4.520   2.622
 1113SOL    HW1 4238   5.935   4.494   2.715
 1113SOL    HW2 4239   5.897   4.588   2.587
 1114SOL     OW 4240   4.341   3.260   5.393
 1114SOL    HW1 4241   4.388   3.348   5.387
 1114SOL    HW2 4242   4.392   3.191   5.342
 1115SOL     OW 4243   3.279   4.313   5.819
 1115SOL    HW1 4244   3.205   4.253   5.850
 1115SOL    HW2 4245   3.258   4.348   5.728
 1116SOL     OW 4246   4.977   0.362   6.335
 1116SOL    HW1 4247   5.014   0.329   6.248
 1116SOL    HW2 4248   5.046   0.350   6.407
 1117SOL     OW 4249   1.206   2.930   1.933
 1117SOL    HW1 4250   1.226   2.972   1.845
 1117SOL    HW2 4251   1.127   2.976   1.975
 1118SOL     OW 4252   2.952   4.891   6.767
 1118SOL    HW1 4253   3.044   4.854   6.753
 1118SOL    HW2 4254   2.915   4.921   6.679
 1119SOL     OW 4255   3.577   5.131   3.657
 1119SOL    HW1 4256   3.535   5.049   3.696
 1119SOL    HW2 4257   3.669   5.142   3.693
 1120SOL     OW 4258   6.834   5.366   0.910
 1120SOL    HW1 4259   6.927   5.375   0.874
 1120SOL    HW2 4260   6.833   5.391   1.007
 1121SOL     OW 4261   0.038   5.092   4.717
 1121SOL    HW1 4262   0.043   5.042   4.631
 1121SOL    HW2 4263   0.004   5.184   4.700
 1122SOL     OW 4264   5.667   2.520   1.897
 1122SOL    HW1 4265   5.603   2.596   1.904
 1122SOL    HW2 4266   5.617   2.437   1.873
 1123SOL     OW 4267   4.126   2.235   3.244
 1123SOL    HW1 4268   4.032   2.220   3.272
 1123SOL    HW2 4269   4.186   2.173   3.294
 1124SOL     OW 4270   2.193   3.105   4.841
 1124SOL    HW1 4271   2.269   3.054   4.883
 1124SOL    HW2 4272   2.151   3.165   4.909
 1125SOL     OW 4273   1.074   4.020   3.902
 1125SOL    HW1 4274   1.081   3.957   3.980
 1125SOL    HW2 4275   1.086   3.969   3.817
 1126SOL     OW 4276   3.574   5.148   5.349
 1126SOL    HW1 4277   3.644   5.121   5.283
 1126SOL    HW2 4278   3.607   5.224   5.405
 1127SOL     OW 4279   5.713   6.468   3.053
 1127SOL    HW1 4280   5.615   6.475   3.068
 1127SOL    HW2 4281   5.740   6.529   2.979
 1128SOL     OW 4282   6.247   1.789   3.647
 1128SOL    HW1 4283   6.187   1.738   3.709
 1128SOL    HW2 4284   6.197   1.808   3.562
 1129SOL     OW 4285   1.753   0.587   1.220
 1129SOL    HW1 4286   1.757   0.557   1.124
 1129SOL    HW2 4287   1.845   0.610   1.251
 1130SOL     OW 4288   2.037   5.593   2.908
 1130SOL    HW1 4289   2.059   5.598   2.811
 1130SOL    HW2 4290   2.113   5.547   2.956
 1131SOL     OW 4291   1.732   6.311   4.485
 1131SOL    HW1 4292   1.664   6.241   4.507
 1131SOL    HW2 4293   1.800   6.273   4.423
 1132SOL     OW 4294   3.561   1.426   2.766
 1132SOL    HW1 4295   3.491   1.471   2.821
 1132SOL    HW2 4296   3.520   1.392   2.681
 1133SOL     OW 4297   1.507   6.678   5.199
 1133SOL    HW1 4298   1.444   6.618   5.249
 1133SOL    HW2 4299   1.454   6.745   5.146
 1134SOL     OW 4300   4.606   0.403   1.335
 1134SOL    HW1 4301   4.639   0.357   1.417
 1134SOL    HW2 4302   4.519   0.448   1.355
 1135SOL     OW 4303   1.959   5.913   4.067
 1135SOL    HW1 4304   1.896   5.990   4.076
 1135SOL    HW2 4305   1.937   5.844   4.135
 1136SOL     OW 4306   2.769   5.919   1.854
 1136SOL    HW1 4307   2.769   5.829   1.811
 1136SOL    HW2 4308   2.680   5.935   1.897
 1137SOL     OW 4309   0.352   5.499   6.088
 1137SOL    HW1 4310   0.322   5.465   5.999
 1137SOL    HW2 4311   0.438   5.549   6.078
 1138SOL     OW 4312   1.961   2.985   4.738
 1138SOL    HW1 4313   1.998   2.908   4.790
 1138SOL    HW2 4314   2.032   3.054   4.727
 1139SOL     OW 4315   2.896   5.178   4.059
 1139SOL    HW1 4316   2.944   5.196   4.145
 1139SOL    HW2 4317   2.909   5.256   3.997
 1140SOL     OW 4318   1.585   1.555   1.617
 1140SOL    HW1 4319   1.520   1.482   1.595
 1140SOL    HW2 4320   1.562   1.594   1.706
 1141SOL     OW 4321   6.394   4.188   6.338
 1141SOL    HW1 4322   6.478   4.165   6.387
 1141SOL    HW2 4323   6.338   4.106   6.326
 1142SOL     OW 4324   2.687   0.247   2.901
 1142SOL    HW1 4325   2.721   0.166   2.949
 1142SOL    HW2 4326   2.625   0.298   2.962
 1143SOL     OW 4327   1.041   3.687   1.813
 1143SOL    HW1 4328   1.055   3.677   1.714
 1143SOL    HW2 4329   0.963   3.632   1.842
 1144SOL     OW 4330   5.360   4.373   2.156
 1144SOL    HW1 4331   5.403   4.321   2.230
 1144SOL    HW2 4332   5.274   4.413   2.188
 1145SOL     OW 4333   0.458   1.500   0.379
 1145SOL    HW1 4334   0.447   1.448   0.294
 1145SOL    HW2 4335   0.374   1.551   0.398
 1146SOL     OW 4336   0.816   1.379   1.288
 1146SOL    HW1 4337   0.735   1.437   1.279
 1146SOL    HW2 4338   0.881   1.422   1.349
 1147SOL     OW 4339   3.209   6.763   0.953
 1147SOL    HW1 4340   3.211   6.858   0.983
 1147SOL    HW2 4341   3.302   6.733   0.930
 1148SOL     OW 4342   3.708   5.727   2.505
 1148SOL    HW1 4343   3.706   5.825   2.527
 1148SOL    HW2 4344   3.649   5.678   2.570
 1149SOL     OW 4345   5.092   2.089   1.652
 1149SOL    HW1 4346   5.166   2.156   1.666
 1149SOL    HW2 4347   5.018   2.108   1.717
 1150SOL     OW 4348   1.769   4.265   0.187
 1150SOL    HW1 4349   1.684   4.271   0.135
 1150SOL    HW2 4350   1.846   4.248   0.124
 1151SOL     OW 4351   6.487   5.469   3.783
 1151SOL    HW1 4352   6.471   5.568   3.777
 1151SOL    HW2 4353   6.408   5.421   3.745
 1152SOL     OW 4354   4.691   6.896   6.726
 1152SOL    HW1 4355   4.669   6.984   6.766
 1152SOL    HW2 4356   4.779   6.902   6.679
 1153SOL     OW 4357   6.370   0.537   1.350
 1153SOL    HW1 4358   6.426   0.567   1.427
 1153SOL    HW2 4359   6.390   0.441   1.330
 1154SOL     OW 4360   1.736   3.089   1.917
 1154SOL    HW1 4361   1.653   3.114   1.867
 1154SOL    HW2 4362   1.750   3.152   1.993
 1155SOL     OW 4363   2.417   6.272   4.813
 1155SOL    HW1 4364   2.465   6.186   4.793
 1155SOL    HW2 4365   2.461   6.317   4.891
 1156SOL     OW 4366   3.926   2.194   4.544
 1156SOL    HW1 4367   3.934   2.096   4.527
 1156SOL    HW2 4368   3.949   2.213   4.640
 1157SOL     OW 4369   3.661   0.739   5.651
 1157SOL    HW1 4370   3.760   0.734   5.638
 1157SOL    HW2 4371   3.615   0.703   5.570
 1158SOL     OW 4372   5.949   6.327   2.950
 1158SOL    HW1 4373   5.900   6.344   2.864
 1158SOL    HW2 4374   5.889   6.346   3.027
 1159SOL     OW 4375   6.339   6.358   2.378
 1159SOL    HW1 4376   6.414   6.362   2.444
 1159SOL    HW2 4377   6.363   6.296   2.304
 1160SOL     OW 4378   4.743   0.615   0.537
 1160SOL    HW1 4379   4.769   0.653   0.626
 1160SOL    HW2 4380   4.668   0.669   0.499
 1161SOL     OW 4381   0.548   5.482   6.659
 1161SOL    HW1 4382   0.453   5.453   6.645
 1161SOL    HW2 4383   0.555   5.531   6.746
 1162SOL     OW 4384   1.994   2.807   5.121
 1162SOL    HW1 4385   1.938   2.763   5.190
 1162SOL    HW2 4386   2.035   2.890   5.159
 1163SOL     OW 4387   6.136   3.909   1.936
 1163SOL    HW1 4388   6.192   3.968   1.879
 1163SOL    HW2 4389   6.052   3.885   1.888
 1164SOL     OW 4390   4.861   1.720   4.420
 1164SOL    HW1 4391   4.822   1.723   4.328
 1164SOL    HW2 4392   4.959   1.737   4.415
 1165SOL     OW 4393   3.838   6.185   3.456
 1165SOL    HW1 4394   3.902   6.205   3.530
 1165SOL    HW2 4395   3.827   6.086   3.448
 1166SOL     OW 4396   2.323   5.897   6.780
 1166SOL    HW1 4397   2.417   5.891   6.748
 1166SOL    HW2 4398   2.262   5.857   6.712
 1167SOL     OW 4399   5.501   4.794   2.579
 1167SOL    HW1 4400   5.523   4.878   2.628
 1167SOL    HW2 4401   5.446   4.816   2.498
 1168SOL     OW 4402   6.124   2.381   2.991
 1168SOL    HW1 4403   6.190   2.319   2.948
 1168SOL    HW2 4404   6.048   2.328   3.028
 1169SOL     OW 4405   5.584   0.708   4.737
 1169SOL    HW1 4406   5.486   0.693   4.753
 1169SOL    HW2 4407   5.598   0.801   4.704
 1170SOL     OW 4408   4.728   7.015   3.628
 1170SOL    HW1 4409   4.661   0.067   3.618
 1170SOL    HW2 4410   4.821   0.031   3.627
 1171SOL     OW 4411   1.390   0.581   1.514
 1171SOL    HW1 4412   1.424   0.670   1.542
 1171SOL    HW2 4413   1.460   0.535   1.458
 1172SOL     OW 4414   6.874   3.486   6.604
 1172SOL    HW1 4415   6.947   3.421   6.624
 1172SOL    HW2 4416   6.874   3.507   6.506
 1173SOL     OW 4417   2.979   1.734   1.164
 1173SOL    HW1 4418   2.945   1.754   1.072
 1173SOL    HW2 4419   3.060   1.675   1.157
 1174SOL     OW 4420   3.853   3.826   1.148
 1174SOL    HW1 4421   3.774   3.886   1.158
 1174SOL    HW2 4422   3.862   3.770   1.230
 1175SOL     OW 4423   3.472   3.398   4.854
 1175SOL    HW1 4424   3.555   3.422   4.905
 1175SOL    HW2 4425   3.478   3.435   4.761
 1176SOL     OW 4426   5.373   4.090   6.163
 1176SOL    HW1 4427   5.382   4.185   6.130
 1176SOL    HW2 4428   5.294   4.047   6.120
 1177SOL     OW 4429   6.361   2.574   4.751
 1177SOL    HW1 4430   6.380   2.562   4.849
 1177SOL    HW2 4431   6.405   2.657   4.718
 1178SOL     OW 4432   2.760   4.728   0.162
 1178SOL    HW1 4433   2.845   4.764   0.123
 1178SOL    HW2 4434   2.750   4.632   0.136
 1179SOL     OW 4435   2.678   5.086   0.735
 1179SOL    HW1 4436   2.704   5.182   0.724
 1179SOL    HW2 4437   2.713   5.034   0.657
 1180SOL     OW 4438   2.777   5.642   0.644
 1180SOL    HW1 4439   2.789   5.561   0.586
 1180SOL    HW2 4440   2.781   5.615   0.740
 1181SOL     OW 4441   0.126   5.650   6.454
 1181SOL    HW1 4442   0.095   5.571   6.401
 1181SOL    HW2 4443   0.086   5.733   6.416
 1182SOL     OW 4444   3.972   5.181   2.700
 1182SOL    HW1 4445   4.048   5.194   2.637
 1182SOL    HW2 4446   3.892   5.229   2.666
 1183SOL     OW 4447   2.121   3.714   6.286
 1183SOL    HW1 4448   2.024   3.704   6.263
 1183SOL    HW2 4449   2.171   3.745   6.206
 1184SOL     OW 4450   1.656   0.249   4.869
 1184SOL    HW1 4451   1.619   0.342   4.869
 1184SOL    HW2 4452   1.666   0.217   4.775
 1185SOL     OW 4453   6.896   1.054   6.875
 1185SOL    HW1 4454   6.949   1.094   6.801
 1185SOL    HW2 4455   6.818   1.112   6.897
 1186SOL     OW 4456   4.907   6.067   4.528
 1186SOL    HW1 4457   4.830   6.105   4.476
 1186SOL    HW2 4458   4.875   5.991   4.585
 1187SOL     OW 4459   6.529   0.048   5.766
 1187SOL    HW1 4460   6.556   6.986   5.718
 1187SOL    HW2 4461   6.584   0.058   5.849
 1188SOL     OW 4462   2.756   6.420   4.942
 1188SOL    HW1 4463   2.799   6.333   4.914
 1188SOL    HW2 4464   2.810   6.496   4.907
 1189SOL     OW 4465   6.396   3.524   3.059
 1189SOL    HW1 4466   6.346   3.446   3.095
 1189SOL    HW2 4467   6.461   3.557   3.128
 1190SOL     OW 4468   2.141   6.258   2.914
 1190SOL    HW1 4469   2.198   6.227   2.990
 1190SOL    HW2 4470   2.074   6.187   2.892
 1191SOL     OW 4471   4.332   5.358   3.318
 1191SOL    HW1 4472   4.272   5.401   3.250
 1191SOL    HW2 4473   4.297   5.266   3.340
 1192SOL     OW 4474   4.090   5.838   2.637
 1192SOL    HW1 4475   4.158   5.800   2.699
 1192SOL    HW2 4476   4.009   5.780   2.637
 1193SOL     OW 4477   6.064   5.060   4.235
 1193SOL    HW1 4478   6.129   5.011   4.177
 1193SOL    HW2 4479   6.109   5.139   4.276
 1194SOL     OW 4480   5.247   0.387   1.385
 1194SOL    HW1 4481   5.178   0.323   1.350
 1194SOL    HW2 4482   5.203   0.452   1.448
 1195SOL     OW 4483   6.209   3.674   2.075
 1195SOL    HW1 4484   6.257   3.594   2.041
 1195SOL    HW2 4485   6.201   3.742   2.002
 1196SOL     OW 4486   6.641   6.525   3.685
 1196SOL    HW1 4487   6.722   6.469   3.669
 1196SOL    HW2 4488   6.605   6.508   3.777
 1197SOL     OW 4489   3.575   6.860   0.346
 1197SOL    HW1 4490   3.652   6.806   0.381
 1197SOL    HW2 4491   3.569   6.849   0.247
 1198SOL     OW 4492   1.694   2.197   0.756
 1198SOL    HW1 4493   1.777   2.243   0.788
 1198SOL    HW2 4494   1.627   2.264   0.727
 1199SOL     OW 4495   5.213   5.120   1.413
 1199SOL    HW1 4496   5.257   5.184   1.350
 1199SOL    HW2 4497   5.186   5.037   1.364
 1200SOL     OW 4498   3.001   3.261   2.596
 1200SOL    HW1 4499   2.984   3.227   2.504
 1200SOL    HW2 4500   2.967   3.355   2.604
 1201SOL     OW 4501   1.241   1.633   4.900
 1201SOL    HW1 4502   1.190   1.599   4.821
 1201SOL    HW2 4503   1.322   1.575   4.914
 1202SOL     OW 4504   0.700   5.246   6.606
 1202SOL    HW1 4505   0.787   5.255   6.558
 1202SOL    HW2 4506   0.658   5.336   6.618
 1203SOL     OW 4507   4.806   6.129   5.930
 1203SOL    HW1 4508   4.774   6.034   5.918
 1203SOL    HW2 4509   4.800   6.154   6.026
 1204SOL     OW 4510   2.508   0.793   1.875
 1204SOL    HW1 4511   2.417   0.765   1.906
 1204SOL    HW2 4512   2.510   0.794   1.775
 1205SOL     OW 4513   5.277   3.887   1.546
 1205SOL    HW1 4514   5.185   3.906   1.511
 1205SOL    HW2 4515   5.341   3.881   1.469
 1206SOL     OW 4516   2.920   3.442   4.635
 1206SOL    HW1 4517   2.872   3.482   4.714
 1206SOL    HW2 4518   3.018   3.454   4.646
 1207SOL     OW 4519   2.270   6.604   1.553
 1207SOL    HW1 4520   2.322   6.596   1.637
 1207SOL    HW2 4521   2.234   6.515   1.527
 1208SOL     OW 4522   3.544   3.462   0.562
 1208SOL    HW1 4523   3.456   3.474   0.608
 1208SOL    HW2 4524   3.575   3.368   0.574
 1209SOL     OW 4525   3.903   0.114   5.686
 1209SOL    HW1 4526   3.987   0.157   5.651
 1209SOL    HW2 4527   3.920   0.017   5.702
 1210SOL     OW 4528   3.049   0.077   3.230
 1210SOL    HW1 4529   3.146   0.088   3.251
 1210SOL    HW2 4530   3.001   0.046   3.312
 1211SOL     OW 4531   0.984   3.959   1.065
 1211SOL    HW1 4532   1.054   3.894   1.036
 1211SOL    HW2 4533   0.918   3.972   0.990
 1212SOL     OW 4534   0.268   0.140   6.884
 1212SOL    HW1 4535   0.197   0.202   6.852
 1212SOL    HW2 4536   0.284   0.070   6.814
 1213SOL     OW 4537   5.690   2.713   0.795
 1213SOL    HW1 4538   5.767   2.696   0.734
 1213SOL    HW2 4539   5.720   2.773   0.870
 1214SOL     OW 4540   6.617   1.977   1.159
 1214SOL    HW1 4541   6.652   1.965   1.252
 1214SOL    HW2 4542   6.663   1.911   1.099
 1215SOL     OW 4543   1.358   4.869   4.605
 1215SOL    HW1 4544   1.421   4.792   4.612
 1215SOL    HW2 4545   1.332   4.882   4.509
 1216SOL     OW 4546   4.455   0.367   6.337
 1216SOL    HW1 4547   4.481   0.464   6.338
 1216SOL    HW2 4548   4.424   0.340   6.429
 1217SOL     OW 4549   2.293   4.598   0.625
 1217SOL    HW1 4550   2.311   4.502   0.605
 1217SOL    HW2 4551   2.341   4.624   0.709
 1218SOL     OW 4552   1.306   4.609   4.040
 1218SOL    HW1 4553   1.352   4.534   4.086
 1218SOL    HW2 4554   1.374   4.673   4.004
 1219SOL     OW 4555   4.326   6.390   1.799
 1219SOL    HW1 4556   4.250   6.399   1.863
 1219SOL    HW2 4557   4.302   6.433   1.712
 1220SOL     OW 4558   1.164   4.904   3.065
 1220SOL    HW1 4559   1.125   4.992   3.037
 1220SOL    HW2 4560   1.218   4.917   3.149
 1221SOL     OW 4561   6.116   2.842   5.578
 1221SOL    HW1 4562   6.195   2.878   5.530
 1221SOL    HW2 4563   6.035   2.897   5.557
 1222SOL     OW 4564   6.433   6.382   6.822
 1222SOL    HW1 4565   6.476   6.423   6.902
 1222SOL    HW2 4566   6.481   6.412   6.740
 1223SOL     OW 4567   3.259   0.301   0.813
 1223SOL    HW1 4568   3.263   0.358   0.731
 1223SOL    HW2 4569   3.351   0.266   0.834
 1224SOL     OW 4570   2.349   0.531   1.004
 1224SOL    HW1 4571   2.273   0.481   1.044
 1224SOL    HW2 4572   2.314   0.602   0.943
 1225SOL     OW 4573   3.368   4.220   6.553
 1225SOL    HW1 4574   3.434   4.147   6.534
 1225SOL    HW2 4575   3.364   4.283   6.476
 1226SOL     OW 4576   2.211   5.221   1.306
 1226SOL    HW1 4577   2.134   5.173   1.346
 1226SOL    HW2 4578   2.231   5.182   1.215
 1227SOL     OW 4579   7.010   3.767   6.682
 1227SOL    HW1 4580   6.984   3.777   6.586
 1227SOL    HW2 4581   6.956   3.831   6.738
 1228SOL     OW 4582   3.689   2.504   6.179
 1228SOL    HW1 4583   3.766   2.544   6.229
 1228SOL    HW2 4584   3.605   2.552   6.203
 1229SOL     OW 4585   4.155   4.406   6.592
 1229SOL    HW1 4586   4.088   4.406   6.518
 1229SOL    HW2 4587   4.234   4.460   6.565
 1230SOL     OW 4588   4.219   6.483   3.497
 1230SOL    HW1 4589   4.156   6.431   3.439
 1230SOL    HW2 4590   4.198   6.581   3.489
 1231SOL     OW 4591   2.021   3.230   4.995
 1231SOL    HW1 4592   1.921   3.227   4.995
 1231SOL    HW2 4593   2.056   3.170   5.068
 1232SOL     OW 4594   1.414   2.568   5.335
 1232SOL    HW1 4595   1.356   2.583   5.415
 1232SOL    HW2 4596   1.421   2.470   5.317
 1233SOL     OW 4597   0.744   3.043   5.570
 1233SOL    HW1 4598   0.717   3.081   5.659
 1233SOL    HW2 4599   0.735   2.943   5.573
 1234SOL     OW 4600   6.054   4.439   4.757
 1234SOL    HW1 4601   6.118   4.434   4.680
 1234SOL    HW2 4602   6.021   4.533   4.766
 1235SOL     OW 4603   6.368   5.967   3.327
 1235SOL    HW1 4604   6.424   5.897   3.284
 1235SOL    HW2 4605   6.306   5.925   3.393
 1236SOL     OW 4606   5.694   0.699   6.937
 1236SOL    HW1 4607   5.680   0.798   6.930
 1236SOL    HW2 4608   5.781   0.681   6.983
 1237SOL     OW 4609   2.756   4.365   6.816
 1237SOL    HW1 4610   2.660   4.349   6.841
 1237SOL    HW2 4611   2.770   4.463   6.801
 1238SOL     OW 4612   1.902   1.647   0.591
 1238SOL    HW1 4613   1.881   1.721   0.655
 1238SOL    HW2 4614   1.853   1.564   0.619
 1239SOL     OW 4615   6.760   6.128   6.882
 1239SOL    HW1 4616   6.690   6.120   6.811
 1239SOL    HW2 4617   6.725   6.091   6.967
 1240SOL     OW 4618   5.013   5.914   1.954
 1240SOL    HW1 4619   4.948   5.989   1.945
 1240SOL    HW2 4620   4.971   5.838   2.003
 1241SOL     OW 4621   6.678   3.841   4.265
 1241SOL    HW1 4622   6.705   3.820   4.359
 1241SOL    HW2 4623   6.601   3.783   4.239
 1242SOL     OW 4624   1.813   3.728   0.534
 1242SOL    HW1 4625   1.780   3.713   0.627
 1242SOL    HW2 4626   1.740   3.704   0.469
 1243SOL     OW 4627   2.109   5.361   5.666
 1243SOL    HW1 4628   2.039   5.295   5.638
 1243SOL    HW2 4629   2.115   5.433   5.598
 1244SOL     OW 4630   0.470   0.944   3.284
 1244SOL    HW1 4631   0.530   0.958   3.363
 1244SOL    HW2 4632   0.503   0.867   3.231
 1245SOL     OW 4633   3.183   3.669   0.208
 1245SOL    HW1 4634   3.271   3.638   0.243
 1245SOL    HW2 4635   3.129   3.591   0.177
 1246SOL     OW 4636   2.084   6.382   2.060
 1246SOL    HW1 4637   2.166   6.360   2.007
 1246SOL    HW2 4638   2.037   6.297   2.084
 1247SOL     OW 4639   2.280   6.403   5.844
 1247SOL    HW1 4640   2.304   6.498   5.824
 1247SOL    HW2 4641   2.362   6.346   5.844
 1248SOL     OW 4642   1.857   5.481   3.139
 1248SOL    HW1 4643   1.774   5.531   3.117
 1248SOL    HW2 4644   1.917   5.478   3.059
 1249SOL     OW 4645   5.678   3.595   3.301
 1249SOL    HW1 4646   5.682   3.503   3.261
 1249SOL    HW2 4647   5.590   3.609   3.345
 1250SOL     OW 4648   0.955   4.924   3.929
 1250SOL    HW1 4649   0.907   4.894   3.847
 1250SOL    HW2 4650   1.051   4.895   3.925
 1251SOL     OW 4651   3.734   0.488   4.847
 1251SOL    HW1 4652   3.706   0.582   4.832
 1251SOL    HW2 4653   3.813   0.467   4.789
 1252SOL     OW 4654   3.060   4.059   5.599
 1252SOL    HW1 4655   3.126   4.111   5.546
 1252SOL    HW2 4656   3.062   3.963   5.571
 1253SOL     OW 4657   4.119   5.126   2.413
 1253SOL    HW1 4658   4.146   5.052   2.473
 1253SOL    HW2 4659   4.146   5.214   2.453
 1254SOL     OW 4660   6.283   1.974   3.028
 1254SOL    HW1 4661   6.188   1.954   3.002
 1254SOL    HW2 4662   6.298   1.947   3.123
 1255SOL     OW 4663   0.036   6.860   5.952
 1255SOL    HW1 4664   0.113   6.924   5.953
 1255SOL    HW2 4665   7.007   6.868   6.037
 1256SOL     OW 4666   6.157   0.135   3.418
 1256SOL    HW1 4667   6.168   0.081   3.501
 1256SOL    HW2 4668   6.244   0.142   3.370
 1257SOL     OW 4669   6.878   0.780   3.751
 1257SOL    HW1 4670   6.909   0.782   3.656
 1257SOL    HW2 4671   6.932   0.844   3.805
 1258SOL     OW 4672   0.567   6.790   3.428
 1258SOL    HW1 4673   0.607   6.730   3.359
 1258SOL    HW2 4674   0.566   6.884   3.394
 1259SOL     OW 4675   3.993   2.003   4.958
 1259SOL    HW1 4676   4.068   2.011   5.024
 1259SOL    HW2 4677   4.002   2.075   4.889
 1260SOL     OW 4678   0.980   1.312   0.107
 1260SOL    HW1 4679   1.015   1.218   0.113
 1260SOL    HW2 4680   1.053   1.372   0.073
 1261SOL     OW 4681   0.133   5.140   0.230
 1261SOL    HW1 4682   0.037   5.114   0.224
 1261SOL    HW2 4683   0.141   5.240   0.232
 1262SOL     OW 4684   5.481   5.592   1.665
 1262SOL    HW1 4685   5.464   5.538   1.748
 1262SOL    HW2 4686   5.577   5.621   1.663
 1263SOL     OW 4687   1.496   2.397   3.698
 1263SOL    HW1 4688   1.554   2.472   3.731
 1263SOL    HW2 4689   1.421   2.383   3.762
 1264SOL     OW 4690   0.873   2.563   4.967
 1264SOL    HW1 4691   0.854   2.659   4.945
 1264SOL    HW2 4692   0.798   2.506   4.935
 1265SOL     OW 4693   6.063   6.306   4.999
 1265SOL    HW1 4694   6.126   6.375   5.036
 1265SOL    HW2 4695   5.973   6.346   4.986
 1266SOL     OW 4696   1.706   0.548   4.665
 1266SOL    HW1 4697   1.733   0.524   4.758
 1266SOL    HW2 4698   1.622   0.602   4.668
 1267SOL     OW 4699   4.454   0.158   2.479
 1267SOL    HW1 4700   4.419   0.201   2.396
 1267SOL    HW2 4701   4.553   0.174   2.486
 1268SOL     OW 4702   4.358   2.478   5.366
 1268SOL    HW1 4703   4.439   2.537   5.356
 1268SOL    HW2 4704   4.296   2.494   5.289
 1269SOL     OW 4705   6.272   2.693   4.329
 1269SOL    HW1 4706   6.367   2.697   4.360
 1269SOL    HW2 4707   6.268   2.644   4.241
 1270SOL     OW 4708   0.345   4.870   3.159
 1270SOL    HW1 4709   0.325   4.772   3.155
 1270SOL    HW2 4710   0.445   4.883   3.158
 1271SOL     OW 4711   1.392   1.347   1.635
 1271SOL    HW1 4712   1.373   1.262   1.585
 1271SOL    HW2 4713   1.308   1.377   1.681
 1272SOL     OW 4714   6.772   4.169   0.424
 1272SOL    HW1 4715   6.713   4.147   0.347
 1272SOL    HW2 4716   6.717   4.179   0.507
 1273SOL     OW 4717   1.713   4.590   5.240
 1273SOL    HW1 4718   1.683   4.495   5.231
 1273SOL    HW2 4719   1.755   4.620   5.155
 1274SOL     OW 4720   0.888   5.030   2.538
 1274SOL    HW1 4721   0.901   5.110   2.479
 1274SOL    HW2 4722   0.900   4.946   2.485
 1275SOL     OW 4723   2.988   0.909   2.692
 1275SOL    HW1 4724   2.953   0.960   2.614
 1275SOL    HW2 4725   3.037   0.971   2.753
 1276SOL     OW 4726   5.144   4.441   4.109
 1276SOL    HW1 4727   5.105   4.533   4.115
 1276SOL    HW2 4728   5.085   4.383   4.053
 1277SOL     OW 4729   0.369   6.260   0.415
 1277SOL    HW1 4730   0.446   6.206   0.381
 1277SOL    HW2 4731   0.333   6.317   0.342
 1278SOL     OW 4732   1.378   5.960   2.651
 1278SOL    HW1 4733   1.385   6.035   2.586
 1278SOL    HW2 4734   1.342   5.994   2.738
 1279SOL     OW 4735   2.494   2.121   6.728
 1279SOL    HW1 4736   2.483   2.024   6.750
 1279SOL    HW2 4737   2.465   2.138   6.634
 1280SOL     OW 4738   2.437   1.843   3.103
 1280SOL    HW1 4739   2.438   1.860   3.005
 1280SOL    HW2 4740   2.528   1.816   3.134
 1281SOL     OW 4741   4.102   5.619   4.145
 1281SOL    HW1 4742   4.075   5.601   4.050
 1281SOL    HW2 4743   4.201   5.635   4.149
 1282SOL     OW 4744   0.381   2.524   1.260
 1282SOL    HW1 4745   0.321   2.545   1.337
 1282SOL    HW2 4746   0.377   2.600   1.194
 1283SOL     OW 4747   6.706   3.032   5.032
 1283SOL    HW1 4748   6.716   2.997   4.939
 1283SOL    HW2 4749   6.716   3.131   5.032
 1284SOL     OW 4750   4.187   1.632   1.589
 1284SOL    HW1 4751   4.096   1.632   1.548
 1284SOL    HW2 4752   4.207   1.540   1.623
 1285SOL     OW 4753   3.434   1.281   5.039
 1285SOL    HW1 4754   3.452   1.186   5.017
 1285SOL    HW2 4755   3.512   1.320   5.088
 1286SOL     OW 4756   4.469   2.137   1.958
 1286SOL    HW1 4757   4.463   2.074   1.880
 1286SOL    HW2 4758   4.433   2.092   2.039
 1287SOL     OW 4759   6.591   4.379   4.868
 1287SOL    HW1 4760   6.613   4.365   4.965
 1287SOL    HW2 4761   6.542   4.466   4.858
 1288SOL     OW 4762   4.473   4.200   6.367
 1288SOL    HW1 4763   4.526   4.280   6.398
 1288SOL    HW2 4764   4.536   4.133   6.327
 1289SOL     OW 4765   0.121   0.654   1.666
 1289SOL    HW1 4766   0.177   0.686   1.743
 1289SOL    HW2 4767   0.119   0.554   1.666
 1290SOL     OW 4768   1.297   6.912   6.766
 1290SOL    HW1 4769   1.228   6.981   6.788
 1290SOL    HW2 4770   1.270   6.864   6.682
 1291SOL     OW 4771   6.494   5.133   3.143
 1291SOL    HW1 4772   6.494   5.054   3.205
 1291SOL    HW2 4773   6.413   5.129   3.085
 1292SOL     OW 4774   1.037   6.136   2.298
 1292SOL    HW1 4775   1.131   6.150   2.265
 1292SOL    HW2 4776   1.000   6.052   2.259
 1293SOL     OW 4777   3.202   1.309   6.814
 1293SOL    HW1 4778   3.145   1.322   6.895
 1293SOL    HW2 4779   3.259   1.390   6.800
 1294SOL     OW 4780   2.224   3.894   5.599
 1294SOL    HW1 4781   2.253   3.853   5.513
 1294SOL    HW2 4782   2.303   3.931   5.648
 1295SOL     OW 4783   6.445   3.997   0.676
 1295SOL    HW1 4784   6.397   3.959   0.755
 1295SOL    HW2 4785   6.384   4.059   0.626
 1296SOL     OW 4786   5.365   6.485   5.562
 1296SOL    HW1 4787   5.424   6.526   5.492
 1296SOL    HW2 4788   5.416   6.477   5.648
 1297SOL     OW 4789   0.653   0.303   2.055
 1297SOL    HW1 4790   0.583   0.331   1.989
 1297SOL    HW2 4791   0.728   0.369   2.053
 1298SOL     OW 4792   5.691   5.821   2.407
 1298SOL    HW1 4793   5.770   5.822   2.345
 1298SOL    HW2 4794   5.612   5.783   2.359
 1299SOL     OW 4795   1.818   3.494   4.446
 1299SOL    HW1 4796   1.787   3.477   4.352
 1299SOL    HW2 4797   1.760   3.444   4.510
 1300SOL     OW 4798   1.428   4.502   1.758
 1300SOL    HW1 4799   1.382   4.586   1.729
 1300SOL    HW2 4800   1.384   4.423   1.716
 1301SOL     OW 4801   1.216   0.881   1.912
 1301SOL    HW1 4802   1.162   0.951   1.959
 1301SOL    HW2 4803   1.265   0.921   1.835
 1302SOL     OW 4804   5.584   6.518   5.358
 1302SOL    HW1 4805   5.662   6.549   5.302
 1302SOL    HW2 4806   5.580   6.573   5.442
 1303SOL     OW 4807   4.322   6.666   1.327
 1303SOL    HW1 4808   4.372   6.751   1.311
 1303SOL    HW2 4809   4.232   6.671   1.286
 1304SOL     OW 4810   0.394   1.409   0.894
 1304SOL    HW1 4811   0.322   1.453   0.841
 1304SOL    HW2 4812   0.415   1.464   0.975
 1305SOL     OW 4813   5.338   4.395   0.110
 1305SOL    HW1 4814   5.416   4.338   0.083
 1305SOL    HW2 4815   5.263   4.382   0.045
 1306SOL     OW 4816   2.200   5.213   4.299
 1306SOL    HW1 4817   2.296   5.232   4.316
 1306SOL    HW2 4818   2.159   5.169   4.379
 1307SOL     OW 4819   2.192   2.429   4.156
 1307SOL    HW1 4820   2.283   2.458   4.125
 1307SOL    HW2 4821   2.122   2.482   4.109
 1308SOL     OW 4822   6.733   5.361   6.097
 1308SOL    HW1 4823   6.802   5.360   6.024
 1308SOL    HW2 4824   6.775   5.395   6.181
 1309SOL     OW 4825   4.976   4.622   6.531
 1309SOL    HW1 4826   5.042   4.687   6.492
 1309SOL    HW2 4827   4.937   4.567   6.457
 1310SOL     OW 4828   1.103   4.254   3.701
 1310SOL    HW1 4829   1.148   4.335   3.738
 1310SOL    HW2 4830   1.106   4.180   3.767
 1311SOL     OW 4831   6.719   5.742   0.405
 1311SOL    HW1 4832   6.621   5.727   0.392
 1311SOL    HW2 4833   6.765   5.655   0.425
 1312SOL     OW 4834   1.848   0.715   5.871
 1312SOL    HW1 4835   1.829   0.618   5.854
 1312SOL    HW2 4836   1.810   0.769   5.796
 1313SOL     OW 4837   6.300   5.406   3.392
 1313SOL    HW1 4838   6.265   5.370   3.479
 1313SOL    HW2 4839   6.400   5.410   3.397
 1314SOL     OW 4840   2.646   1.759   4.806
 1314SOL    HW1 4841   2.709   1.836   4.813
 1314SOL    HW2 4842   2.617   1.733   4.898
 1315SOL     OW 4843   5.914   0.955   4.874
 1315SOL    HW1 4844   5.970   1.036   4.860
 1315SOL    HW2 4845   5.852   0.943   4.797
 1316SOL     OW 4846   4.321   0.505   4.793
 1316SOL    HW1 4847   4.349   0.580   4.733
 1316SOL    HW2 4848   4.380   0.503   4.873
 1317SOL     OW 4849   2.622   3.029   5.747
 1317SOL    HW1 4850   2.699   3.017   5.684
 1317SOL    HW2 4851   2.559   3.096   5.710
 1318SOL     OW 4852   1.589   2.811   6.529
 1318SOL    HW1 4853   1.617   2.774   6.618
 1318SOL    HW2 4854   1.656   2.879   6.499
 1319SOL     OW 4855   6.936   6.620   0.870
 1319SOL    HW1 4856   6.877   6.548   0.908
 1319SOL    HW2 4857   6.886   6.669   0.799
 1320SOL     OW 4858   3.148   2.659   5.960
 1320SOL    HW1 4859   3.103   2.694   6.043
 1320SOL    HW2 4860   3.088   2.672   5.881
 1321SOL     OW 4861   5.782   2.402   6.697
 1321SOL    HW1 4862   5.778   2.496   6.729
 1321SOL    HW2 4863   5.877   2.374   6.686
 1322SOL     OW 4864   3.259   1.690   0.422
 1322SOL    HW1 4865   3.280   1.786   0.405
 1322SOL    HW2 4866   3.242   1.644   0.334
 1323SOL     OW 4867   3.779   0.308   0.507
 1323SOL    HW1 4868   3.739   0.223   0.474
 1323SOL    HW2 4869   3.767   0.315   0.606
 1324SOL     OW 4870   1.189   3.737   0.035
 1324SOL    HW1 4871   1.131   3.730   6.976
 1324SOL    HW2 4872   1.206   3.646   0.072
 1325SOL     OW 4873   3.243   4.939   6.297
 1325SOL    HW1 4874   3.262   4.845   6.327
 1325SOL    HW2 4875   3.325   4.995   6.310
 1326SOL     OW 4876   4.912   3.850   4.177
 1326SOL    HW1 4877   4.904   3.753   4.197
 1326SOL    HW2 4878   4.852   3.902   4.238
 1327SOL     OW 4879   0.165   6.566   1.036
 1327SOL    HW1 4880   0.142   6.596   1.128
 1327SOL    HW2 4881   0.081   6.557   0.982
 1328SOL     OW 4882   0.857   3.584   6.030
 1328SOL    HW1 4883   0.922   3.658   6.044
 1328SOL    HW2 4884   0.905   3.503   5.998
 1329SOL     OW 4885   0.441   3.085   3.348
 1329SOL    HW1 4886   0.536   3.109   3.329
 1329SOL    HW2 4887   0.431   2.986   3.352
 1330SOL     OW 4888   6.327   2.819   0.945
 1330SOL    HW1 4889   6.382   2.735   0.940
 1330SOL    HW2 4890   6.292   2.831   1.038
 1331SOL     OW 4891   4.496   1.684   3.061
 1331SOL    HW1 4892   4.439   1.683   3.144
 1331SOL    HW2 4893   4.439   1.707   2.982
 1332SOL     OW 4894   1.476   6.890   0.715
 1332SOL    HW1 4895   1.470   6.990   0.710
 1332SOL    HW2 4896   1.501   6.864   0.809
 1333SOL     OW 4897   3.216   4.116   2.767
 1333SOL    HW1 4898   3.162   4.190   2.808
 1333SOL    HW2 4899   3.224   4.131   2.669
 1334SOL     OW 4900   6.723   2.358   2.250
 1334SOL    HW1 4901   6.710   2.401   2.339
 1334SOL    HW2 4902   6.814   2.380   2.215
 1335SOL     OW 4903   1.571   3.667   2.240
 1335SOL    HW1 4904   1.601   3.737   2.304
 1335SOL    HW2 4905   1.548   3.583   2.290
 1336SOL     OW 4906   3.563   0.352   5.160
 1336SOL    HW1 4907   3.605   0.290   5.094
 1336SOL    HW2 4908   3.630   0.376   5.231
 1337SOL     OW 4909   6.567   1.603   3.801
 1337SOL    HW1 4910   6.620   1.634   3.722
 1337SOL    HW2 4911   6.481   1.563   3.769
 1338SOL     OW 4912   5.757   4.020   4.832
 1338SOL    HW1 4913   5.707   4.069   4.904
 1338SOL    HW2 4914   5.820   4.083   4.786
 1339SOL     OW 4915   0.414   0.356   6.938
 1339SOL    HW1 4916   0.376   0.271   6.902
 1339SOL    HW2 4917   0.402   0.429   6.871
 1340SOL     OW 4918   5.316   1.983   1.913
 1340SOL    HW1 4919   5.243   1.942   1.967
 1340SOL    HW2 4920   5.325   1.934   1.826
 1341SOL     OW 4921   4.768   6.602   6.625
 1341SOL    HW1 4922   4.811   6.658   6.695
 1341SOL    HW2 4923   4.814   6.615   6.538
 1342SOL     OW 4924   2.914   6.176   1.066
 1342SOL    HW1 4925   2.991   6.118   1.041
 1342SOL    HW2 4926   2.946   6.269   1.082
 1343SOL     OW 4927   5.740   5.739   2.738
 1343SOL    HW1 4928   5.680   5.754   2.659
 1343SOL    HW2 4929   5.686   5.709   2.816
 1344SOL     OW 4930   0.235   6.972   4.721
 1344SOL    HW1 4931   0.140   6.942   4.710
 1344SOL    HW2 4932   0.286   6.901   4.768
 1345SOL     OW 4933   0.588   5.671   1.606
 1345SOL    HW1 4934   0.590   5.763   1.645
 1345SOL    HW2 4935   0.507   5.622   1.640
 1346SOL     OW 4936   2.462   5.073   6.084
 1346SOL    HW1 4937   2.481   5.145   6.016
 1346SOL    HW2 4938   2.529   5.000   6.074
 1347SOL     OW 4939   1.229   0.397   6.787
 1347SOL    HW1 4940   1.190   0.374   6.877
 1347SOL    HW2 4941   1.196   0.332   6.719
 1348SOL     OW 4942   0.101   5.955   5.765
 1348SOL    HW1 4943   0.108   5.967   5.864
 1348SOL    HW2 4944   0.048   5.872   5.746
 1349SOL     OW 4945   5.196   3.898   4.268
 1349SOL    HW1 4946   5.098   3.877   4.265
 1349SOL    HW2 4947   5.244   3.841   4.201
 1350SOL     OW 4948   2.791   3.525   0.665
 1350SOL    HW1 4949   2.776   3.600   0.601
 1350SOL    HW2 4950   2.857   3.553   0.735
 1351SOL     OW 4951   6.780   2.713   5.245
 1351SOL    HW1 4952   6.748   2.806   5.226
 1351SOL    HW2 4953   6.834   2.680   5.168
 1352SOL     OW 4954   6.895   6.952   2.603
 1352SOL    HW1 4955   6.878   6.906   2.516
 1352SOL    HW2 4956   6.977   7.008   2.596
 1353SOL     OW 4957   0.732   1.262   0.840
 1353SOL    HW1 4958   0.688   1.330   0.782
 1353SOL    HW2 4959   0.708   1.170   0.808
 1354SOL     OW 4960   5.928   4.361   1.929
 1354SOL    HW1 4961   5.905   4.453   1.959
 1354SOL    HW2 4962   5.975   4.313   2.004
 1355SOL     OW 4963   6.332   3.702   4.862
 1355SOL    HW1 4964   6.422   3.726   4.897
 1355SOL    HW2 4965   6.332   3.606   4.833
 1356SOL     OW 4966   3.498   3.444   1.509
 1356SOL    HW1 4967   3.436   3.369   1.485
 1356SOL    HW2 4968   3.458   3.499   1.582
 1357SOL     OW 4969   6.655   2.900   5.623
 1357SOL    HW1 4970   6.609   2.863   5.704
 1357SOL    HW2 4971   6.613   2.987   5.598
 1358SOL     OW 4972   1.133   6.526   0.123
 1358SOL    HW1 4973   1.170   6.568   0.039
 1358SOL    HW2 4974   1.200   6.536   0.197
 1359SOL     OW 4975   6.289   4.090   1.778
 1359SOL    HW1 4976   6.312   4.167   1.718
 1359SOL    HW2 4977   6.370   4.063   1.831
 1360SOL     OW 4978   2.707   2.447   6.444
 1360SOL    HW1 4979   2.717   2.527   6.385
 1360SOL    HW2 4980   2.790   2.390   6.437
 1361SOL     OW 4981   6.885   4.861   4.335
 1361SOL    HW1 4982   6.870   4.806   4.417
 1361SOL    HW2 4983   6.799   4.868   4.284
 1362SOL     OW 4984   3.295   2.929   3.075
 1362SOL    HW1 4985   3.225   2.993   3.108
 1362SOL    HW2 4986   3.355   2.904   3.150
 1363SOL     OW 4987   0.610   5.630   5.235
 1363SOL    HW1 4988   0.530   5.691   5.233
 1363SOL    HW2 4989   0.622   5.596   5.328
 1364SOL     OW 4990   4.265   4.019   0.773
 1364SOL    HW1 4991   4.341   4.061   0.724
 1364SOL    HW2 4992   4.299   3.972   0.854
 1365SOL     OW 4993   0.743   3.747   7.000
 1365SOL    HW1 4994   0.685   3.738   6.919
 1365SOL    HW2 4995   0.819   3.809   6.980
 1366SOL     OW 4996   2.166   0.021   4.833
 1366SOL    HW1 4997   2.137   6.948   4.815
 1366SOL    HW2 4998   2.086   0.080   4.841
 1367SOL     OW 4999   2.595   1.184   2.763
 1367SOL    HW1 5000   2.521   1.133   2.809
 1367SOL    HW2 5001   2.562   1.218   2.675
 1368SOL     OW 5002   6.113   6.615   4.800
 1368SOL    HW1 5003   6.123   6.521   4.767
 1368SOL    HW2 5004   6.199   6.645   4.840
 1369SOL     OW 5005   1.122   0.563   3.038
 1369SOL    HW1 5006   1.075   0.623   3.103
 1369SOL    HW2 5007   1.218   0.590   3.032
 1370SOL     OW 5008   2.917   1.146   1.134
 1370SOL    HW1 5009   3.010   1.170   1.108
 1370SOL    HW2 5010   2.865   1.122   1.052
 1371SOL     OW 5011   3.533   0.747   6.129
 1371SOL    HW1 5012   3.526   0.704   6.039
 1371SOL    HW2 5013   3.578   0.835   6.120
 1372SOL     OW 5014   3.400   1.799   2.179
 1372SOL    HW1 5015   3.337   1.772   2.106
 1372SOL    HW2 5016   3.435   1.891   2.160
 1373SOL     OW 5017   1.040   6.213   0.836
 1373SOL    HW1 5018   1.010   6.172   0.750
 1373SOL    HW2 5019   1.139   6.202   0.847
 1374SOL     OW 5020   4.621   2.310   0.535
 1374SOL    HW1 5021   4.682   2.248   0.585
 1374SOL    HW2 5022   4.562   2.357   0.601
 1375SOL     OW 5023   0.369   4.399   5.957
 1375SOL    HW1 5024   0.319   4.419   6.041
 1375SOL    HW2 5025   0.362   4.301   5.937
 1376SOL     OW 5026   4.977   2.153   2.743
 1376SOL    HW1 5027   4.915   2.229   2.723
 1376SOL    HW2 5028   4.978   2.090   2.665
 1377SOL     OW 5029   6.978   5.703   4.790
 1377SOL    HW1 5030   6.990   5.624   4.851
 1377SOL    HW2 5031   0.014   5.691   4.710
 1378SOL     OW 5032   1.620   1.946   0.862
 1378SOL    HW1 5033   1.655   2.027   0.814
 1378SOL    HW2 5034   1.521   1.940   0.850
 1379SOL     OW 5035   3.993   6.281   1.716
 1379SOL    HW1 5036   3.966   6.263   1.811
 1379SOL    HW2 5037   4.058   6.211   1.685
 1380SOL     OW 5038   6.352   6.634   2.237
 1380SOL    HW1 5039   6.349   6.538   2.262
 1380SOL    HW2 5040   6.388   6.644   2.144
 1381SOL     OW 5041   6.083   1.700   1.399
 1381SOL    HW1 5042   6.141   1.621   1.378
 1381SOL    HW2 5043   6.017   1.674   1.470
 1382SOL     OW 5044   5.861   4.589   6.628
 1382SOL    HW1 5045   5.780   4.639   6.595
 1382SOL    HW2 5046   5.839   4.492   6.639
 1383SOL     OW 5047   2.567   0.612   0.283
 1383SOL    HW1 5048   2.469   0.602   0.265
 1383SOL    HW2 5049   2.619   0.555   0.219
 1384SOL     OW 5050   3.424   2.010   2.903
 1384SOL    HW1 5051   3.423   2.051   2.812
 1384SOL    HW2 5052   3.465   1.918   2.898
 1385SOL     OW 5053   6.525   3.222   2.681
 1385SOL    HW1 5054   6.567   3.205   2.770
 1385SOL    HW2 5055   6.453   3.156   2.664
 1386SOL     OW 5056   2.164   2.283   4.382
 1386SOL    HW1 5057   2.246   2.301   4.437
 1386SOL    HW2 5058   2.172   2.326   4.293
 1387SOL     OW 5059   2.334   0.600   4.983
 1387SOL    HW1 5060   2.245   0.571   4.949
 1387SOL    HW2 5061   2.330   0.697   5.007
 1388SOL     OW 5062   6.505   1.107   4.849
 1388SOL    HW1 5063   6.589   1.094   4.796
 1388SOL    HW2 5064   6.456   1.020   4.855
 1389SOL     OW 5065   6.336   0.576   4.761
 1389SOL    HW1 5066   6.282   0.575   4.846
 1389SOL    HW2 5067   6.303   0.504   4.700
 1390SOL     OW 5068   4.640   2.577   2.822
 1390SOL    HW1 5069   4.685   2.612   2.739
 1390SOL    HW2 5070   4.683   2.618   2.902
 1391SOL     OW 5071   5.416   0.878   4.997
 1391SOL    HW1 5072   5.398   0.806   4.930
 1391SOL    HW2 5073   5.417   0.839   5.089
 1392SOL     OW 5074   4.397   5.411   6.191
 1392SOL    HW1 5075   4.359   5.504   6.187
 1392SOL    HW2 5076   4.341   5.351   6.133
 1393SOL     OW 5077   5.943   0.368   6.963
 1393SOL    HW1 5078   5.896   0.370   6.876
 1393SOL    HW2 5079   6.015   0.439   6.963
 1394SOL     OW 5080   4.199   6.968   3.887
 1394SOL    HW1 5081   4.195   6.868   3.894
 1394SOL    HW2 5082   4.281   6.995   3.837
 1395SOL     OW 5083   0.939   5.270   2.401
 1395SOL    HW1 5084   0.863   5.322   2.363
 1395SOL    HW2 5085   1.022   5.327   2.401
 1396SOL     OW 5086   2.073   1.623   3.828
 1396SOL    HW1 5087   2.156   1.604   3.775
 1396SOL    HW2 5088   2.081   1.714   3.870
 1397SOL     OW 5089   0.300   5.469   5.060
 1397SOL    HW1 5090   0.330   5.382   5.098
 1397SOL    HW2 5091   0.222   5.455   5.000
 1398SOL     OW 5092   0.568   0.134   0.407
 1398SOL    HW1 5093   0.531   0.188   0.482
 1398SOL    HW2 5094   0.594   0.196   0.332
 1399SOL     OW 5095   4.398   0.095   0.454
 1399SOL    HW1 5096   4.454   0.012   0.446
 1399SOL    HW2 5097   4.331   0.096   0.381
 1400SOL     OW 5098   0.028   0.264   5.077
 1400SOL    HW1 5099   6.953   0.247   5.063
 1400SOL    HW2 5100   0.044   0.287   5.173
 1401SOL     OW 5101   5.649   0.199   3.500
 1401SOL    HW1 5102   5.674   0.115   3.549
 1401SOL    HW2 5103   5.719   0.221   3.432
 1402SOL     OW 5104   6.880   4.711   2.354
 1402SOL    HW1 5105   6.823   4.649   2.299
 1402SOL    HW2 5106   6.891   4.798   2.305
 1403SOL     OW 5107   3.479   3.168   6.518
 1403SOL    HW1 5108   3.394   3.145   6.472
 1403SOL    HW2 5109   3.466   3.251   6.573
 1404SOL     OW 5110   4.057   6.835   0.423
 1404SOL    HW1 5111   4.123   6.808   0.493
 1404SOL    HW2 5112   4.059   6.935   0.411
 1405SOL     OW 5113   1.371   3.826   1.403
 1405SOL    HW1 5114   1.378   3.873   1.491
 1405SOL    HW2 5115   1.275   3.817   1.376
 1406SOL     OW 5116   2.451   3.034   0.638
 1406SOL    HW1 5117   2.434   2.943   0.601
 1406SOL    HW2 5118   2.430   3.036   0.735
 1407SOL     OW 5119   0.277   3.406   1.288
 1407SOL    HW1 5120   0.345   3.350   1.240
 1407SOL    HW2 5121   0.185   3.382   1.255
 1408SOL     OW 5122   5.670   6.613   0.993
 1408SOL    HW1 5123   5.644   6.628   0.898
 1408SOL    HW2 5124   5.625   6.681   1.051
 1409SOL     OW 5125   6.541   1.771   5.949
 1409SOL    HW1 5126   6.484   1.694   5.978
 1409SOL    HW2 5127   6.607   1.740   5.880
 1410SOL     OW 5128   3.980   0.687   6.104
 1410SOL    HW1 5129   3.962   0.722   6.013
 1410SOL    HW2 5130   4.071   0.645   6.107
 1411SOL     OW 5131   3.862   5.353   0.172
 1411SOL    HW1 5132   3.862   5.314   0.080
 1411SOL    HW2 5133   3.805   5.436   0.173
 1412SOL     OW 5134   2.093   3.006   0.313
 1412SOL    HW1 5135   2.177   2.978   0.266
 1412SOL    HW2 5136   2.097   3.104   0.334
 1413SOL     OW 5137   1.359   1.380   4.492
 1413SOL    HW1 5138   1.373   1.466   4.444
 1413SOL    HW2 5139   1.292   1.393   4.565
 1414SOL     OW 5140   0.841   4.118   2.763
 1414SOL    HW1 5141   0.893   4.099   2.846
 1414SOL    HW2 5142   0.903   4.145   2.689
 1415SOL     OW 5143   2.382   1.802   4.605
 1415SOL    HW1 5144   2.428   1.889   4.623
 1415SOL    HW2 5145   2.290   1.805   4.643
 1416SOL     OW 5146   4.424   0.760   4.634
 1416SOL    HW1 5147   4.521   0.769   4.654
 1416SOL    HW2 5148   4.404   0.799   4.544
 1417SOL     OW 5149   3.477   3.214   5.662
 1417SOL    HW1 5150   3.445   3.217   5.567
 1417SOL    HW2 5151   3.399   3.209   5.723
 1418SOL     OW 5152   4.012   4.386   5.712
 1418SOL    HW1 5153   3.918   4.396   5.677
 1418SOL    HW2 5154   4.073   4.446   5.661
 1419SOL     OW 5155   1.685   5.538   2.428
 1419SOL    HW1 5156   1.626   5.458   2.420
 1419SOL    HW2 5157   1.663   5.588   2.511
 1420SOL     OW 5158   2.776   6.770   2.870
 1420SOL    HW1 5159   2.843   6.767   2.944
 1420SOL    HW2 5160   2.684   6.764   2.909
 1421SOL     OW 5161   1.442   4.871   5.640
 1421SOL    HW1 5162   1.378   4.927   5.691
 1421SOL    HW2 5163   1.396   4.831   5.561
 1422SOL     OW 5164   2.268   3.337   6.123
 1422SOL    HW1 5165   2.329   3.325   6.045
 1422SOL    HW2 5166   2.217   3.422   6.112
 1423SOL     OW 5167   4.620   0.545   4.615
 1423SOL    HW1 5168   4.655   0.499   4.534
 1423SOL    HW2 5169   4.526   0.574   4.599
 1424SOL     OW 5170   6.105   3.172   0.279
 1424SOL    HW1 5171   6.204   3.185   0.281
 1424SOL    HW2 5172   6.083   3.092   0.222
 1425SOL     OW 5173   5.197   6.768   3.827
 1425SOL    HW1 5174   5.130   6.804   3.892
 1425SOL    HW2 5175   5.224   6.840   3.763
 1426SOL     OW 5176   3.277   2.125   0.022
 1426SOL    HW1 5177   3.224   2.163   0.097
 1426SOL    HW2 5178   3.345   2.061   0.058
 1427SOL     OW 5179   1.931   0.068   3.719
 1427SOL    HW1 5180   1.901   6.997   3.741
 1427SOL    HW2 5181   2.026   0.081   3.749
 1428SOL     OW 5182   0.749   2.878   3.952
 1428SOL    HW1 5183   0.709   2.858   3.863
 1428SOL    HW2 5184   0.844   2.848   3.954
 1429SOL     OW 5185   6.520   1.140   1.518
 1429SOL    HW1 5186   6.604   1.172   1.475
 1429SOL    HW2 5187   6.500   1.047   1.486
 1430SOL     OW 5188   2.031   3.648   4.303
 1430SOL    HW1 5189   2.043   3.591   4.222
 1430SOL    HW2 5190   2.070   3.601   4.382
 1431SOL     OW 5191   2.901   1.294   6.714
 1431SOL    HW1 5192   2.847   1.373   6.686
 1431SOL    HW2 5193   2.926   1.241   6.633
 1432SOL     OW 5194   3.314   0.792   1.816
 1432SOL    HW1 5195   3.267   0.869   1.859
 1432SOL    HW2 5196   3.391   0.826   1.763
 1433SOL     OW 5197   2.592   0.176   3.773
 1433SOL    HW1 5198   2.527   0.208   3.841
 1433SOL    HW2 5199   2.611   0.250   3.708
 1434SOL     OW 5200   0.168   3.356   0.870
 1434SOL    HW1 5201   0.240   3.421   0.845
 1434SOL    HW2 5202   0.099   3.354   0.798
 1435SOL     OW 5203   1.924   6.882   4.033
 1435SOL    HW1 5204   1.914   6.803   4.093
 1435SOL    HW2 5205   1.883   6.862   3.943
 1436SOL     OW 5206   5.080   1.311   6.746
 1436SOL    HW1 5207   5.087   1.366   6.829
 1436SOL    HW2 5208   5.075   1.214   6.770
 1437SOL     OW 5209   3.981   0.269   6.337
 1437SOL    HW1 5210   3.992   0.262   6.238
 1437SOL    HW2 5211   3.937   0.186   6.371
 1438SOL     OW 5212   2.618   0.564   1.642
 1438SOL    HW1 5213   2.572   0.488   1.688
 1438SOL    HW2 5214   2.714   0.567   1.670
 1439SOL     OW 5215   0.098   4.391   0.052
 1439SOL    HW1 5216   0.128   4.391   6.979
 1439SOL    HW2 5217   0.110   4.300   0.092
 1440SOL     OW 5218   3.553   3.158   3.098
 1440SOL    HW1 5219   3.538   3.090   3.027
 1440SOL    HW2 5220   3.649   3.184   3.100
 1441SOL     OW 5221   6.495   3.182   3.602
 1441SOL    HW1 5222   6.483   3.085   3.624
 1441SOL    HW2 5223   6.458   3.237   3.677
 1442SOL     OW 5224   6.009   6.150   6.944
 1442SOL    HW1 5225   6.076   6.147   6.869
 1442SOL    HW2 5226   6.043   6.098   7.022
 1443SOL     OW 5227   1.061   2.912   3.774
 1443SOL    HW1 5228   1.046   2.823   3.731
 1443SOL    HW2 5229   1.153   2.945   3.753
 1444SOL     OW 5230   5.310   1.050   4.242
 1444SOL    HW1 5231   5.274   1.121   4.302
 1444SOL    HW2 5232   5.241   1.025   4.175
 1445SOL     OW 5233   6.067   2.472   0.979
 1445SOL    HW1 5234   6.076   2.441   1.074
 1445SOL    HW2 5235   6.051   2.392   0.920
 1446SOL     OW 5236   4.633   0.748   1.204
 1446SOL    HW1 5237   4.664   0.731   1.111
 1446SOL    HW2 5238   4.562   0.818   1.203
 1447SOL     OW 5239   5.497   1.094   5.543
 1447SOL    HW1 5240   5.499   1.102   5.444
 1447SOL    HW2 5241   5.453   1.007   5.569
 1448SOL     OW 5242   5.576   0.170   6.685
 1448SOL    HW1 5243   5.653   0.233   6.687
 1448SOL    HW2 5244   5.596   0.090   6.741
 1449SOL     OW 5245   4.699   5.613   0.755
 1449SOL    HW1 5246   4.756   5.642   0.832
 1449SOL    HW2 5247   4.603   5.624   0.780
 1450SOL     OW 5248   5.546   2.669   3.753
 1450SOL    HW1 5249   5.535   2.570   3.746
 1450SOL    HW2 5250   5.638   2.689   3.789
 1451SOL     OW 5251   1.571   6.830   2.514
 1451SOL    HW1 5252   1.620   6.917   2.508
 1451SOL    HW2 5253   1.637   6.755   2.523
 1452SOL     OW 5254   4.451   0.780   4.998
 1452SOL    HW1 5255   4.411   0.776   5.089
 1452SOL    HW2 5256   4.527   0.845   4.997
 1453SOL     OW 5257   4.580   4.507   4.088
 1453SOL    HW1 5258   4.635   4.555   4.020
 1453SOL    HW2 5259   4.604   4.540   4.179
 1454SOL     OW 5260   4.374   3.961   1.320
 1454SOL    HW1 5261   4.349   3.871   1.285
 1454SOL    HW2 5262   4.471   3.963   1.342
 1455SOL     OW 5263   1.988   2.792   1.464
 1455SOL    HW1 5264   2.051   2.714   1.462
 1455SOL    HW2 5265   1.897   2.761   1.491
 1456SOL     OW 5266   6.804   5.452   4.082
 1456SOL    HW1 5267   6.842   5.364   4.111
 1456SOL    HW2 5268   6.864   5.526   4.114
 1457SOL     OW 5269   1.979   0.040   3.002
 1457SOL    HW1 5270   1.967   0.090   2.916
 1457SOL    HW2 5271   1.955   0.100   3.079
 1458SOL     OW 5272   6.374   5.355   6.874
 1458SOL    HW1 5273   6.402   5.435   6.820
 1458SOL    HW2 5274   6.339   5.284   6.812
 1459SOL     OW 5275   2.277   6.918   0.754
 1459SOL    HW1 5276   2.227   6.999   0.785
 1459SOL    HW2 5277   2.222   6.871   0.685
 1460SOL     OW 5278   0.553   6.262   6.998
 1460SOL    HW1 5279   0.461   6.300   6.991
 1460SOL    HW2 5280   0.620   6.330   6.970
 1461SOL     OW 5281   4.978   4.952   1.577
 1461SOL    HW1 5282   4.896   4.947   1.521
 1461SOL    HW2 5283   5.006   5.048   1.587
 1462SOL     OW 5284   5.388   0.228   6.009
 1462SOL    HW1 5285   5.359   0.218   5.914
 1462SOL    HW2 5286   5.456   0.300   6.016
 1463SOL     OW 5287   0.433   0.934   5.332
 1463SOL    HW1 5288   0.425   0.836   5.351
 1463SOL    HW2 5289   0.526   0.964   5.350
 1464SOL     OW 5290   7.007   6.841   1.522
 1464SOL    HW1 5291   6.994   6.900   1.602
 1464SOL    HW2 5292   0.082   6.835   1.499
 1465SOL     OW 5293   0.602   0.003   4.689
 1465SOL    HW1 5294   0.543   0.006   4.608
 1465SOL    HW2 5295   0.545   7.021   4.771
 1466SOL     OW 5296   5.711   5.512   4.054
 1466SOL    HW1 5297   5.629   5.566   4.072
 1466SOL    HW2 5298   5.697   5.456   3.972
 1467SOL     OW 5299   6.766   3.622   2.669
 1467SOL    HW1 5300   6.755   3.549   2.602
 1467SOL    HW2 5301   6.720   3.596   2.754
 1468SOL     OW 5302   5.317   6.425   2.525
 1468SOL    HW1 5303   5.269   6.341   2.549
 1468SOL    HW2 5304   5.291   6.453   2.433
 1469SOL     OW 5305   0.277   0.826   2.851
 1469SOL    HW1 5306   0.324   0.898   2.799
 1469SOL    HW2 5307   0.326   0.740   2.840
 1470SOL     OW 5308   0.229   0.907   3.454
 1470SOL    HW1 5309   0.304   0.904   3.387
 1470SOL    HW2 5310   0.265   0.935   3.542
 1471SOL     OW 5311   6.529   0.449   0.222
 1471SOL    HW1 5312   6.474   0.524   0.259
 1471SOL    HW2 5313   6.474   0.366   0.221
 1472SOL     OW 5314   4.362   7.016   5.167
 1472SOL    HW1 5315   4.301   6.937   5.171
 1472SOL    HW2 5316   4.373   0.023   5.072
 1473SOL     OW 5317   6.072   4.346   4.106
 1473SOL    HW1 5318   6.096   4.325   4.011
 1473SOL    HW2 5319   6.117   4.430   4.134
 1474SOL     OW 5320   4.880   5.119   3.454
 1474SOL    HW1 5321   4.830   5.139   3.539
 1474SOL    HW2 5322   4.898   5.204   3.405
 1475SOL     OW 5323   6.817   0.623   3.047
 1475SOL    HW1 5324   6.862   0.691   2.990
 1475SOL    HW2 5325   6.777   0.669   3.127
 1476SOL     OW 5326   6.332   2.307   1.286
 1476SOL    HW1 5327   6.337   2.207   1.281
 1476SOL    HW2 5328   6.407   2.341   1.343
 1477SOL     OW 5329   3.052   6.361   2.980
 1477SOL    HW1 5330   3.109   6.423   2.927
 1477SOL    HW2 5331   2.958   6.396   2.982
 1478SOL     OW 5332   6.589   4.468   1.787
 1478SOL    HW1 5333   6.679   4.506   1.804
 1478SOL    HW2 5334   6.525   4.541   1.765
 1479SOL     OW 5335   1.571   5.638   0.581
 1479SOL    HW1 5336   1.524   5.585   0.651
 1479SOL    HW2 5337   1.561   5.592   0.492
 1480SOL     OW 5338   2.867   0.862   6.970
 1480SOL    HW1 5339   2.949   0.916   6.950
 1480SOL    HW2 5340   2.790   0.897   6.917
 1481SOL     OW 5341   6.745   2.328   6.342
 1481SOL    HW1 5342   6.832   2.365   6.310
 1481SOL    HW2 5343   6.700   2.395   6.401
 1482SOL     OW 5344   5.958   0.691   6.461
 1482SOL    HW1 5345   5.979   0.617   6.525
 1482SOL    HW2 5346   5.874   0.737   6.489
 1483SOL     OW 5347   6.051   2.640   6.474
 1483SOL    HW1 5348   5.995   2.700   6.531
 1483SOL    HW2 5349   5.994   2.601   6.401
 1484SOL     OW 5350   6.213   6.326   2.719
 1484SOL    HW1 5351   6.171   6.370   2.639
 1484SOL    HW2 5352   6.224   6.393   2.792
 1485SOL     OW 5353   5.878   2.983   4.179
 1485SOL    HW1 5354   5.920   2.996   4.089
 1485SOL    HW2 5355   5.804   3.049   4.191
 1486SOL     OW 5356   4.801   2.359   2.650
 1486SOL    HW1 5357   4.806   2.459   2.643
 1486SOL    HW2 5358   4.727   2.333   2.711
 1487SOL     OW 5359   6.378   1.305   5.503
 1487SOL    HW1 5360   6.357   1.208   5.500
 1487SOL    HW2 5361   6.361   1.346   5.413
 1488SOL     OW 5362   3.984   1.827   2.764
 1488SOL    HW1 5363   3.920   1.833   2.686
 1488SOL    HW2 5364   4.050   1.901   2.758
 1489SOL     OW 5365   3.877   5.078   4.501
 1489SOL    HW1 5366   3.856   4.981   4.507
 1489SOL    HW2 5367   3.848   5.124   4.584
 1490SOL     OW 5368   1.908   2.627   0.616
 1490SOL    HW1 5369   1.975   2.675   0.559
 1490SOL    HW2 5370   1.944   2.536   0.639
 1491SOL     OW 5371   6.844   2.443   5.291
 1491SOL    HW1 5372   6.838   2.543   5.285
 1491SOL    HW2 5373   6.867   2.406   5.201
 1492SOL     OW 5374   5.439   2.792   2.621
 1492SOL    HW1 5375   5.522   2.848   2.626
 1492SOL    HW2 5376   5.422   2.765   2.526
 1493SOL     OW 5377   5.391   0.518   5.023
 1493SOL    HW1 5378   5.295   0.531   5.049
 1493SOL    HW2 5379   5.449   0.574   5.081
 1494SOL     OW 5380   4.960   2.946   4.859
 1494SOL    HW1 5381   4.949   2.911   4.952
 1494SOL    HW2 5382   5.049   2.918   4.823
 1495SOL     OW 5383   1.979   2.959   2.859
 1495SOL    HW1 5384   2.027   2.914   2.935
 1495SOL    HW2 5385   1.884   2.928   2.858
 1496SOL     OW 5386   0.973   1.134   2.924
 1496SOL    HW1 5387   0.884   1.110   2.885
 1496SOL    HW2 5388   1.023   1.192   2.858
 1497SOL     OW 5389   4.988   4.653   5.404
 1497SOL    HW1 5390   4.967   4.556   5.406
 1497SOL    HW2 5391   5.087   4.666   5.402
 1498SOL     OW 5392   2.205   5.967   0.539
 1498SOL    HW1 5393   2.214   5.874   0.503
 1498SOL    HW2 5394   2.126   6.012   0.498
 1499SOL     OW 5395   0.647   4.724   5.410
 1499SOL    HW1 5396   0.693   4.684   5.489
 1499SOL    HW2 5397   0.715   4.766   5.350
 1500SOL     OW 5398   4.447   6.736   5.600
 1500SOL    HW1 5399   4.449   6.807   5.530
 1500SOL    HW2 5400   4.536   6.730   5.644
 1501SOL     OW 5401   4.256   6.914   6.530
 1501SOL    HW1 5402   4.331   6.848   6.519
 1501SOL    HW2 5403   4.173   6.865   6.555
 1502SOL     OW 5404   6.215   6.225   0.355
 1502SOL    HW1 5405   6.206   6.247   0.452
 1502SOL    HW2 5406   6.311   6.230   0.328
 1503SOL     OW 5407   3.226   3.539   5.880
 1503SOL    HW1 5408   3.206   3.476   5.955
 1503SOL    HW2 5409   3.325   3.548   5.869
 1504SOL     OW 5410   2.812   5.949   4.298
 1504SOL    HW1 5411   2.895   6.004   4.297
 1504SOL    HW2 5412   2.771   5.953   4.390
 1505SOL     OW 5413   4.584   5.428   1.030
 1505SOL    HW1 5414   4.636   5.349   0.998
 1505SOL    HW2 5415   4.524   5.400   1.105
 1506SOL     OW 5416   0.467   6.272   2.970
 1506SOL    HW1 5417   0.538   6.260   3.039
 1506SOL    HW2 5418   0.451   6.370   2.956
 1507SOL     OW 5419   1.988   1.221   5.979
 1507SOL    HW1 5420   1.901   1.177   5.997
 1507SOL    HW2 5421   2.051   1.203   6.055
 1508SOL     OW 5422   4.824   6.993   0.371
 1508SOL    HW1 5423   4.834   0.060   0.325
 1508SOL    HW2 5424   4.729   6.962   0.363
 1509SOL     OW 5425   5.087   1.765   0.104
 1509SOL    HW1 5426   5.092   1.754   0.203
 1509SOL    HW2 5427   5.177   1.749   0.063
 1510SOL     OW 5428   0.416   1.386   3.805
 1510SOL    HW1 5429   0.402   1.480   3.833
 1510SOL    HW2 5430   0.339   1.357   3.747
 1511SOL     OW 5431   2.390   2.442   0.806
 1511SOL    HW1 5432   2.381   2.345   0.829
 1511SOL    HW2 5433   2.486   2.468   0.804
 1512SOL     OW 5434   5.954   0.512   2.594
 1512SOL    HW1 5435   5.908   0.439   2.544
 1512SOL    HW2 5436   6.040   0.534   2.548
 1513SOL     OW 5437   3.843   1.197   2.131
 1513SOL    HW1 5438   3.805   1.111   2.095
 1513SOL    HW2 5439   3.769   1.255   2.165
 1514SOL     OW 5440   5.328   1.691   5.393
 1514SOL    HW1 5441   5.327   1.608   5.448
 1514SOL    HW2 5442   5.402   1.686   5.326
 1515SOL     OW 5443   6.529   4.975   4.753
 1515SOL    HW1 5444   6.520   5.025   4.839
 1515SOL    HW2 5445   6.456   4.907   4.746
 1516SOL     OW 5446   0.828   1.711   1.228
 1516SOL    HW1 5447   0.874   1.684   1.144
 1516SOL    HW2 5448   0.751   1.648   1.245
 1517SOL     OW 5449   3.861   5.322   3.187
 1517SOL    HW1 5450   3.768   5.286   3.179
 1517SOL    HW2 5451   3.927   5.248   3.176
 1518SOL     OW 5452   0.978   4.955   1.223
 1518SOL    HW1 5453   0.912   4.881   1.237
 1518SOL    HW2 5454   0.946   5.038   1.269
 1519SOL     OW 5455   6.750   4.592   1.051
 1519SOL    HW1 5456   6.786   4.646   0.976
 1519SOL    HW2 5457   6.810   4.601   1.130
 1520SOL     OW 5458   1.315   3.257   3.513
 1520SOL    HW1 5459   1.335   3.317   3.435
 1520SOL    HW2 5460   1.354   3.297   3.596
 1521SOL     OW 5461   2.411   4.238   6.069
 1521SOL    HW1 5462   2.377   4.228   5.975
 1521SOL    HW2 5463   2.345   4.199   6.133
 1522SOL     OW 5464   6.758   2.343   6.675
 1522SOL    HW1 5465   6.727   2.248   6.665
 1522SOL    HW2 5466   6.838   2.345   6.735
 1523SOL     OW 5467   6.673   1.249   0.892
 1523SOL    HW1 5468   6.706   1.154   0.896
 1523SOL    HW2 5469   6.616   1.261   0.811
 1524SOL     OW 5470   6.486   1.228   2.545
 1524SOL    HW1 5471   6.512   1.132   2.535
 1524SOL    HW2 5472   6.568   1.284   2.552
 1525SOL     OW 5473   4.326   1.844   6.139
 1525SOL    HW1 5474   4.381   1.828   6.057
 1525SOL    HW2 5475   4.243   1.893   6.115
 1526SOL     OW 5476   0.004   1.984   1.533
 1526SOL    HW1 5477   6.935   1.958   1.565
 1526SOL    HW2 5478   0.072   1.919   1.566
 1527SOL     OW 5479   2.948   1.583   5.651
 1527SOL    HW1 5480   2.853   1.567   5.677
 1527SOL    HW2 5481   2.976   1.674   5.681
 1528SOL     OW 5482   4.980   6.476   3.417
 1528SOL    HW1 5483   5.037   6.431   3.487
 1528SOL    HW2 5484   4.885   6.448   3.429
 1529SOL     OW 5485   3.228   0.387   5.620
 1529SOL    HW1 5486   3.189   0.385   5.527
 1529SOL    HW2 5487   3.159   0.354   5.685
 1530SOL     OW 5488   3.752   6.668   1.719
 1530SOL    HW1 5489   3.758   6.668   1.819
 1530SOL    HW2 5490   3.833   6.712   1.681
 1531SOL     OW 5491   7.000   0.183   4.835
 1531SOL    HW1 5492   0.012   0.208   4.926
 1531SOL    HW2 5493   6.939   0.254   4.801
 1532SOL     OW 5494   3.055   1.995   4.980
 1532SOL    HW1 5495   3.076   2.092   4.986
 1532SOL    HW2 5496   3.136   1.941   5.002
 1533SOL     OW 5497   5.592   3.122   6.568
 1533SOL    HW1 5498   5.680   3.167   6.561
 1533SOL    HW2 5499   5.581   3.056   6.494
 1534SOL     OW 5500   0.470   6.863   1.267
 1534SOL    HW1 5501   0.452   6.819   1.178
 1534SOL    HW2 5502   0.551   6.821   1.308
 1535SOL     OW 5503   5.233   5.410   4.559
 1535SOL    HW1 5504   5.134   5.417   4.546
 1535SOL    HW2 5505   5.280   5.478   4.503
 1536SOL     OW 5506   2.799   5.813   3.862
 1536SOL    HW1 5507   2.827   5.746   3.793
 1536SOL    HW2 5508   2.879   5.855   3.904
 1537SOL     OW 5509   2.469   5.304   4.349
 1537SOL    HW1 5510   2.527   5.241   4.401
 1537SOL    HW2 5511   2.460   5.390   4.398
 1538SOL     OW 5512   2.537   5.076   6.473
 1538SOL    HW1 5513   2.471   5.088   6.399
 1538SOL    HW2 5514   2.620   5.034   6.437
 1539SOL     OW 5515   2.969   4.838   1.559
 1539SOL    HW1 5516   2.881   4.796   1.583
 1539SOL    HW2 5517   2.958   4.893   1.476
 1540SOL     OW 5518   0.048   6.918   5.132
 1540SOL    HW1 5519   6.996   6.930   5.066
 1540SOL    HW2 5520   0.105   7.000   5.134
 1541SOL     OW 5521   5.360   2.213   1.301
 1541SOL    HW1 5522   5.330   2.308   1.311
 1541SOL    HW2 5523   5.367   2.171   1.391
 1542SOL     OW 5524   0.772   6.385   0.825
 1542SOL    HW1 5525   0.821   6.462   0.786
 1542SOL    HW2 5526   0.838   6.314   0.852
 1543SOL     OW 5527   3.291   4.128   4.432
 1543SOL    HW1 5528   3.368   4.137   4.495
 1543SOL    HW2 5529   3.323   4.141   4.338
 1544SOL     OW 5530   3.505   3.784   2.900
 1544SOL    HW1 5531   3.588   3.753   2.948
 1544SOL    HW2 5532   3.517   3.878   2.870
 1545SOL     OW 5533   6.159   0.865   5.023
 1545SOL    HW1 5534   6.071   0.868   4.975
 1545SOL    HW2 5535   6.173   0.952   5.071
 1546SOL     OW 5536   0.463   6.477   5.914
 1546SOL    HW1 5537   0.441   6.455   6.009
 1546SOL    HW2 5538   0.500   6.396   5.868
 1547SOL     OW 5539   3.973   5.800   7.020
 1547SOL    HW1 5540   3.970   5.900   0.003
 1547SOL    HW2 5541   4.056   5.767   0.044
 1548SOL     OW 5542   6.125   4.607   4.177
 1548SOL    HW1 5543   6.159   4.599   4.270
 1548SOL    HW2 5544   6.037   4.655   4.177
 1549SOL     OW 5545   6.872   1.646   1.516
 1549SOL    HW1 5546   6.853   1.562   1.566
 1549SOL    HW2 5547   6.874   1.723   1.579
 1550SOL     OW 5548   2.622   5.647   4.279
 1550SOL    HW1 5549   2.672   5.732   4.298
 1550SOL    HW2 5550   2.672   5.592   4.213
 1551SOL     OW 5551   1.291   3.083   0.658
 1551SOL    HW1 5552   1.226   3.012   0.684
 1551SOL    HW2 5553   1.338   3.117   0.739
 1552SOL     OW 5554   0.634   0.295   0.200
 1552SOL    HW1 5555   0.715   0.354   0.200
 1552SOL    HW2 5556   0.604   0.278   0.106
 1553SOL     OW 5557   5.871   1.394   6.523
 1553SOL    HW1 5558   5.867   1.493   6.531
 1553SOL    HW2 5559   5.899   1.368   6.431
 1554SOL     OW 5560   3.186   1.578   1.060
 1554SOL    HW1 5561   3.209   1.513   1.132
 1554SOL    HW2 5562   3.154   1.529   0.979
 1555SOL     OW 5563   4.628   0.992   5.737
 1555SOL    HW1 5564   4.581   1.008   5.650
 1555SOL    HW2 5565   4.578   1.038   5.810
 1556SOL     OW 5566   3.597   1.706   0.180
 1556SOL    HW1 5567   3.538   1.745   0.110
 1556SOL    HW2 5568   3.647   1.628   0.142
 1557SOL     OW 5569   1.718   2.776   0.427
 1557SOL    HW1 5570   1.652   2.714   0.470
 1557SOL    HW2 5571   1.808   2.733   0.425
 1558SOL     OW 5572   5.568   2.811   6.429
 1558SOL    HW1 5573   5.474   2.821   6.397
 1558SOL    HW2 5574   5.625   2.779   6.354
 1559SOL     OW 5575   2.437   5.023   3.749
 1559SOL    HW1 5576   2.403   5.108   3.789
 1559SOL    HW2 5577   2.528   5.003   3.786
 1560SOL     OW 5578   3.864   1.832   0.939
 1560SOL    HW1 5579   3.960   1.845   0.964
 1560SOL    HW2 5580   3.818   1.778   1.008
 1561SOL     OW 5581   6.309   5.959   0.831
 1561SOL    HW1 5582   6.395   5.933   0.787
 1561SOL    HW2 5583   6.327   5.986   0.925
 1562SOL     OW 5584   3.745   6.508   2.286
 1562SOL    HW1 5585   3.698   6.481   2.202
 1562SOL    HW2 5586   3.729   6.438   2.357
 1563SOL     OW 5587   3.404   2.154   4.281
 1563SOL    HW1 5588   3.367   2.151   4.374
 1563SOL    HW2 5589   3.489   2.206   4.281
 1564SOL     OW 5590   1.249   1.758   3.633
 1564SOL    HW1 5591   1.310   1.809   3.693
 1564SOL    HW2 5592   1.163   1.807   3.622
 1565SOL     OW 5593   3.810   1.543   4.626
 1565SOL    HW1 5594   3.886   1.497   4.674
 1565SOL    HW2 5595   3.793   1.631   4.669
 1566SOL     OW 5596   4.868   4.833   3.475
 1566SOL    HW1 5597   4.854   4.929   3.451
 1566SOL    HW2 5598   4.965   4.816   3.490
 1567SOL     OW 5599   5.334   0.665   4.806
 1567SOL    HW1 5600   5.245   0.679   4.849
 1567SOL    HW2 5601   5.368   0.574   4.831
 1568SOL     OW 5602   2.738   5.101   1.598
 1568SOL    HW1 5603   2.782   5.043   1.666
 1568SOL    HW2 5604   2.807   5.140   1.537
 1569SOL     OW 5605   3.206   0.428   2.923
 1569SOL    HW1 5606   3.138   0.422   2.850
 1569SOL    HW2 5607   3.266   0.506   2.907
 1570SOL     OW 5608   3.197   5.877   6.148
 1570SOL    HW1 5609   3.187   5.873   6.247
 1570SOL    HW2 5610   3.294   5.870   6.124
 1571SOL     OW 5611   0.603   2.512   4.106
 1571SOL    HW1 5612   0.566   2.420   4.093
 1571SOL    HW2 5613   0.702   2.508   4.115
 1572SOL     OW 5614   2.341   5.305   2.066
 1572SOL    HW1 5615   2.437   5.327   2.046
 1572SOL    HW2 5616   2.281   5.368   2.016
 1573SOL     OW 5617   5.763   6.145   0.497
 1573SOL    HW1 5618   5.796   6.056   0.527
 1573SOL    HW2 5619   5.761   6.147   0.397
 1574SOL     OW 5620   6.538   3.867   3.653
 1574SOL    HW1 5621   6.516   3.771   3.668
 1574SOL    HW2 5622   6.637   3.881   3.658
 1575SOL     OW 5623   6.550   1.643   0.291
 1575SOL    HW1 5624   6.458   1.681   0.285
 1575SOL    HW2 5625   6.616   1.716   0.309
 1576SOL     OW 5626   1.138   0.621   1.912
 1576SOL    HW1 5627   1.147   0.719   1.898
 1576SOL    HW2 5628   1.226   0.576   1.896
 1577SOL     OW 5629   3.960   5.375   5.358
 1577SOL    HW1 5630   3.952   5.351   5.262
 1577SOL    HW2 5631   4.026   5.314   5.403
 1578SOL     OW 5632   4.836   1.320   1.324
 1578SOL    HW1 5633   4.935   1.333   1.320
 1578SOL    HW2 5634   4.801   1.357   1.410
 1579SOL     OW 5635   1.919   2.605   1.105
 1579SOL    HW1 5636   1.915   2.670   1.030
 1579SOL    HW2 5637   2.014   2.580   1.123
 1580SOL     OW 5638   3.325   3.377   2.758
 1580SOL    HW1 5639   3.328   3.321   2.675
 1580SOL    HW2 5640   3.240   3.358   2.808
 1581SOL     OW 5641   6.290   4.415   6.258
 1581SOL    HW1 5642   6.315   4.332   6.308
 1581SOL    HW2 5643   6.341   4.418   6.172
 1582SOL     OW 5644   4.426   6.353   5.445
 1582SOL    HW1 5645   4.519   6.365   5.412
 1582SOL    HW2 5646   4.415   6.403   5.531
 1583SOL     OW 5647   1.296   5.155   5.114
 1583SOL    HW1 5648   1.220   5.113   5.066
 1583SOL    HW2 5649   1.376   5.096   5.109
 1584SOL     OW 5650   0.117   4.637   0.510
 1584SOL    HW1 5651   0.113   4.666   0.415
 1584SOL    HW2 5652   0.166   4.705   0.564
 1585SOL     OW 5653   3.914   6.611   3.131
 1585SOL    HW1 5654   4.005   6.652   3.128
 1585SOL    HW2 5655   3.896   6.576   3.223
 1586SOL     OW 5656   3.523   5.702   3.500
 1586SOL    HW1 5657   3.570   5.722   3.586
 1586SOL    HW2 5658   3.447   5.765   3.488
 1587SOL     OW 5659   2.721   5.976   6.507
 1587SOL    HW1 5660   2.811   5.956   6.469
 1587SOL    HW2 5661   2.652   5.966   6.436
 1588SOL     OW 5662   6.373   1.469   3.656
 1588SOL    HW1 5663   6.397   1.439   3.564
 1588SOL    HW2 5664   6.308   1.405   3.697
 1589SOL     OW 5665   6.140   4.802   4.384
 1589SOL    HW1 5666   6.088   4.887   4.397
 1589SOL    HW2 5667   6.199   4.811   4.304
 1590SOL     OW 5668   6.432   2.508   3.401
 1590SOL    HW1 5669   6.436   2.417   3.443
 1590SOL    HW2 5670   6.522   2.533   3.366
 1591SOL     OW 5671   1.592   6.821   1.823
 1591SOL    HW1 5672   1.661   6.764   1.869
 1591SOL    HW2 5673   1.628   6.914   1.811
 1592SOL     OW 5674   0.058   4.069   6.193
 1592SOL    HW1 5675   0.092   4.113   6.110
 1592SOL    HW2 5676   7.021   3.992   6.169
 1593SOL     OW 5677   3.350   0.585   0.186
 1593SOL    HW1 5678   3.412   0.658   0.158
 1593SOL    HW2 5679   3.301   0.550   0.106
 1594SOL     OW 5680   6.251   0.122   2.506
 1594SOL    HW1 5681   6.179   0.053   2.511
 1594SOL    HW2 5682   6.290   0.123   2.414
 1595SOL     OW 5683   0.496   4.092   0.494
 1595SOL    HW1 5684   0.527   3.998   0.508
 1595SOL    HW2 5685   0.397   4.097   0.506
 1596SOL     OW 5686   4.600   4.791   2.777
 1596SOL    HW1 5687   4.573   4.732   2.853
 1596SOL    HW2 5688   4.520   4.844   2.747
 1597SOL     OW 5689   3.728   6.069   6.857
 1597SOL    HW1 5690   3.794   6.136   6.823
 1597SOL    HW2 5691   3.643   6.115   6.881
 1598SOL     OW 5692   1.723   4.949   0.098
 1598SOL    HW1 5693   1.758   4.856   0.084
 1598SOL    HW2 5694   1.724   4.970   0.196
 1599SOL     OW 5695   4.689   5.599   3.424
 1599SOL    HW1 5696   4.644   5.563   3.506
 1599SOL    HW2 5697   4.629   5.588   3.345
 1600SOL     OW 5698   4.526   6.968   2.195
 1600SOL    HW1 5699   4.459   0.020   2.191
 1600SOL    HW2 5700   4.510   6.912   2.276
 1601SOL     OW 5701   6.808   7.009   4.525
 1601SOL    HW1 5702   6.898   0.029   4.535
 1601SOL    HW2 5703   6.752   0.042   4.464
 1602SOL     OW 5704   3.305   5.342   3.919
 1602SOL    HW1 5705   3.379   5.355   3.852
 1602SOL    HW2 5706   3.344   5.341   4.011
 1603SOL     OW 5707   3.157   5.265   2.714
 1603SOL    HW1 5708   3.185   5.170   2.705
 1603SOL    HW2 5709   3.058   5.272   2.700
 1604SOL     OW 5710   4.146   5.311   1.838
 1604SOL    HW1 5711   4.096   5.302   1.924
 1604SOL    HW2 5712   4.242   5.331   1.858
 1605SOL     OW 5713   4.854   5.744   1.038
 1605SOL    HW1 5714   4.843   5.808   0.962
 1605SOL    HW2 5715   4.786   5.764   1.109
 1606SOL     OW 5716   3.444   6.148   4.836
 1606SOL    HW1 5717   3.353   6.191   4.841
 1606SOL    HW2 5718   3.483   6.163   4.745
 1607SOL     OW 5719   4.765   5.788   3.090
 1607SOL    HW1 5720   4.774   5.715   3.157
 1607SOL    HW2 5721   4.841   5.852   3.101
 1608SOL     OW 5722   5.794   1.092   3.484
 1608SOL    HW1 5723   5.803   1.049   3.574
 1608SOL    HW2 5724   5.808   1.024   3.412
 1609SOL     OW 5725   2.557   6.906   0.232
 1609SOL    HW1 5726   2.481   6.969   0.216
 1609SOL    HW2 5727   2.544   6.860   0.320
 1610SOL     OW 5728   5.571   0.596   0.690
 1610SOL    HW1 5729   5.570   0.657   0.611
 1610SOL    HW2 5730   5.488   0.540   0.690
 1611SOL     OW 5731   1.394   4.301   1.435
 1611SOL    HW1 5732   1.424   4.256   1.519
 1611SOL    HW2 5733   1.371   4.232   1.367
 1612SOL     OW 5734   3.704   0.153   2.093
 1612SOL    HW1 5735   3.640   0.225   2.064
 1612SOL    HW2 5736   3.700   0.143   2.193
 1613SOL     OW 5737   6.695   5.424   2.490
 1613SOL    HW1 5738   6.620   5.463   2.437
 1613SOL    HW2 5739   6.751   5.498   2.527
 1614SOL     OW 5740   6.549   1.546   6.294
 1614SOL    HW1 5741   6.600   1.626   6.326
 1614SOL    HW2 5742   6.542   1.548   6.194
 1615SOL     OW 5743   1.056   4.512   6.341
 1615SOL    HW1 5744   1.072   4.551   6.250
 1615SOL    HW2 5745   1.143   4.495   6.386
 1616SOL     OW 5746   1.961   1.587   4.575
 1616SOL    HW1 5747   2.027   1.659   4.595
 1616SOL    HW2 5748   1.951   1.527   4.655
 1617SOL     OW 5749   5.556   6.210   3.161
 1617SOL    HW1 5750   5.653   6.199   3.141
 1617SOL    HW2 5751   5.534   6.308   3.168
 1618SOL     OW 5752   2.927   5.453   2.925
 1618SOL    HW1 5753   2.844   5.473   2.873
 1618SOL    HW2 5754   2.924   5.358   2.958
 1619SOL     OW 5755   1.039   4.538   6.658
 1619SOL    HW1 5756   1.004   4.629   6.680
 1619SOL    HW2 5757   1.133   4.545   6.625
 1620SOL     OW 5758   3.799   5.066   6.345
 1620SOL    HW1 5759   3.729   5.033   6.408
 1620SOL    HW2 5760   3.797   5.166   6.342
 1621SOL     OW 5761   4.989   5.852   1.274
 1621SOL    HW1 5762   4.963   5.774   1.331
 1621SOL    HW2 5763   4.964   5.834   1.179
 1622SOL     OW 5764   0.605   4.930   4.364
 1622SOL    HW1 5765   0.671   5.002   4.342
 1622SOL    HW2 5766   0.647   4.864   4.425
 1623SOL     OW 5767   0.743   2.268   4.003
 1623SOL    HW1 5768   0.803   2.289   3.926
 1623SOL    HW2 5769   0.772   2.319   4.083
 1624SOL     OW 5770   4.247   1.769   0.733
 1624SOL    HW1 5771   4.163   1.721   0.758
 1624SOL    HW2 5772   4.240   1.865   0.761
 1625SOL     OW 5773   0.841   5.751   0.779
 1625SOL    HW1 5774   0.799   5.716   0.863
 1625SOL    HW2 5775   0.771   5.791   0.720
 1626SOL     OW 5776   2.801   2.008   1.348
 1626SOL    HW1 5777   2.888   1.960   1.354
 1626SOL    HW2 5778   2.810   2.100   1.385
 1627SOL     OW 5779   4.079   1.586   4.976
 1627SOL    HW1 5780   4.002   1.642   4.948
 1627SOL    HW2 5781   4.163   1.622   4.936
 1628SOL     OW 5782   5.609   6.630   0.324
 1628SOL    HW1 5783   5.707   6.636   0.342
 1628SOL    HW2 5784   5.569   6.562   0.385
 1629SOL     OW 5785   1.928   0.192   3.459
 1629SOL    HW1 5786   1.929   0.148   3.548
 1629SOL    HW2 5787   1.871   0.274   3.462
 1630SOL     OW 5788   0.207   3.816   6.988
 1630SOL    HW1 5789   0.210   3.861   0.055
 1630SOL    HW2 5790   0.138   3.743   6.990
 1631SOL     OW 5791   0.080   3.346   0.355
 1631SOL    HW1 5792   0.011   3.418   0.364
 1631SOL    HW2 5793   0.168   3.387   0.329
 1632SOL     OW 5794   6.883   5.349   2.807
 1632SOL    HW1 5795   6.823   5.426   2.787
 1632SOL    HW2 5796   6.834   5.284   2.865
 1633SOL     OW 5797   5.377   3.320   3.868
 1633SOL    HW1 5798   5.324   3.281   3.793
 1633SOL    HW2 5799   5.413   3.246   3.925
 1634SOL     OW 5800   6.240   0.940   4.559
 1634SOL    HW1 5801   6.323   0.901   4.517
 1634SOL    HW2 5802   6.249   0.938   4.658
 1635SOL     OW 5803   3.593   5.990   3.374
 1635SOL    HW1 5804   3.606   5.998   3.275
 1635SOL    HW2 5805   3.540   6.068   3.407
 1636SOL     OW 5806   5.998   6.427   1.790
 1636SOL    HW1 5807   6.087   6.429   1.836
 1636SOL    HW2 5808   5.926   6.448   1.856
 1637SOL     OW 5809   0.747   0.049   1.868
 1637SOL    HW1 5810   0.692   0.102   1.932
 1637SOL    HW2 5811   0.785   0.109   1.797
 1638SOL     OW 5812   6.015   3.226   1.534
 1638SOL    HW1 5813   5.960   3.180   1.604
 1638SOL    HW2 5814   6.030   3.163   1.458
 1639SOL     OW 5815   5.354   2.523   2.652
 1639SOL    HW1 5816   5.257   2.545   2.644
 1639SOL    HW2 5817   5.408   2.607   2.645
 1640SOL     OW 5818   6.430   0.423   6.670
 1640SOL    HW1 5819   6.473   0.352   6.726
 1640SOL    HW2 5820   6.368   0.477   6.727
 1641SOL     OW 5821   6.671   2.556   3.302
 1641SOL    HW1 5822   6.726   2.480   3.269
 1641SOL    HW2 5823   6.730   2.623   3.347
 1642SOL     OW 5824   6.406   2.518   6.004
 1642SOL    HW1 5825   6.342   2.561   6.067
 1642SOL    HW2 5826   6.499   2.546   6.026
 1643SOL     OW 5827   2.253   6.155   3.437
 1643SOL    HW1 5828   2.181   6.111   3.492
 1643SOL    HW2 5829   2.334   6.171   3.495
 1644SOL     OW 5830   6.153   2.897   1.462
 1644SOL    HW1 5831   6.229   2.961   1.452
 1644SOL    HW2 5832   6.073   2.932   1.413
 1645SOL     OW 5833   1.927   1.064   5.604
 1645SOL    HW1 5834   1.878   1.103   5.682
 1645SOL    HW2 5835   1.988   0.991   5.636
 1646SOL     OW 5836   1.253   5.190   1.018
 1646SOL    HW1 5837   1.320   5.239   1.073
 1646SOL    HW2 5838   1.202   5.255   0.963
 1647SOL     OW 5839   5.918   3.009   3.906
 1647SOL    HW1 5840   5.859   2.928   3.909
 1647SOL    HW2 5841   5.986   2.998   3.833
 1648SOL     OW 5842   5.404   5.746   1.446
 1648SOL    HW1 5843   5.349   5.683   1.390
 1648SOL    HW2 5844   5.427   5.703   1.533
 1649SOL     OW 5845   3.607   0.619   3.471
 1649SOL    HW1 5846   3.569   0.708   3.448
 1649SOL    HW2 5847   3.707   0.624   3.469
 1650SOL     OW 5848   3.202   4.127   6.740
 1650SOL    HW1 5849   3.128   4.077   6.694
 1650SOL    HW2 5850   3.249   4.185   6.674
 1651SOL     OW 5851   0.851   2.651   3.332
 1651SOL    HW1 5852   0.757   2.652   3.298
 1651SOL    HW2 5853   0.899   2.733   3.301
 1652SOL     OW 5854   0.780   2.636   1.798
 1652SOL    HW1 5855   0.877   2.612   1.808
 1652SOL    HW2 5856   0.733   2.565   1.746
 1653SOL     OW 5857   0.059   4.441   3.271
 1653SOL    HW1 5858   0.075   4.385   3.189
 1653SOL    HW2 5859   0.136   4.503   3.285
 1654SOL     OW 5860   0.218   3.231   2.112
 1654SOL    HW1 5861   0.131   3.249   2.158
 1654SOL    HW2 5862   0.214   3.269   2.019
 1655SOL     OW 5863   7.015   6.858   4.636
 1655SOL    HW1 5864   0.020   6.887   4.545
 1655SOL    HW2 5865   6.928   6.809   4.632
 1656SOL     OW 5866   2.229   4.572   3.338
 1656SOL    HW1 5867   2.316   4.613   3.365
 1656SOL    HW2 5868   2.206   4.498   3.401
 1657SOL     OW 5869   1.219   6.543   5.558
 1657SOL    HW1 5870   1.168   6.546   5.644
 1657SOL    HW2 5871   1.194   6.461   5.507
 1658SOL     OW 5872   6.547   0.130   6.486
 1658SOL    HW1 5873   6.566   0.169   6.576
 1658SOL    HW2 5874   6.516   0.202   6.424
 1659SOL     OW 5875   4.539   6.506   6.735
 1659SOL    HW1 5876   4.631   6.536   6.710
 1659SOL    HW2 5877   4.482   6.502   6.653
 1660SOL     OW 5878   2.614   0.331   2.316
 1660SOL    HW1 5879   2.537   0.351   2.255
 1660SOL    HW2 5880   2.581   0.278   2.395
 1661SOL     OW 5881   4.269   4.795   2.400
 1661SOL    HW1 5882   4.318   4.708   2.390
 1661SOL    HW2 5883   4.231   4.822   2.312
 1662SOL     OW 5884   0.111   1.439   4.967
 1662SOL    HW1 5885   0.016   1.457   4.941
 1662SOL    HW2 5886   0.114   1.357   5.025
 1663SOL     OW 5887   4.699   4.549   0.641
 1663SOL    HW1 5888   4.729   4.470   0.695
 1663SOL    HW2 5889   4.631   4.600   0.692
 1664SOL     OW 5890   1.226   6.903   5.665
 1664SOL    HW1 5891   1.155   6.973   5.662
 1664SOL    HW2 5892   1.247   6.873   5.572
 1665SOL     OW 5893   2.603   3.881   0.325
 1665SOL    HW1 5894   2.582   3.873   0.423
 1665SOL    HW2 5895   2.661   3.961   0.310
 1666SOL     OW 5896   5.650   6.629   6.221
 1666SOL    HW1 5897   5.661   6.680   6.307
 1666SOL    HW2 5898   5.675   6.533   6.235
 1667SOL     OW 5899   0.826   6.164   1.410
 1667SOL    HW1 5900   0.751   6.107   1.375
 1667SOL    HW2 5901   0.909   6.144   1.358
 1668SOL     OW 5902   5.262   4.702   3.281
 1668SOL    HW1 5903   5.241   4.799   3.268
 1668SOL    HW2 5904   5.280   4.660   3.191
 1669SOL     OW 5905   6.530   3.293   5.171
 1669SOL    HW1 5906   6.601   3.304   5.101
 1669SOL    HW2 5907   6.557   3.341   5.254
 1670SOL     OW 5908   1.734   5.268   6.177
 1670SOL    HW1 5909   1.822   5.310   6.155
 1670SOL    HW2 5910   1.703   5.215   6.098
 1671SOL     OW 5911   5.871   2.148   1.015
 1671SOL    HW1 5912   5.935   2.144   1.091
 1671SOL    HW2 5913   5.779   2.167   1.049
 1672SOL     OW 5914   0.756   4.035   0.356
 1672SOL    HW1 5915   0.707   3.997   0.435
 1672SOL    HW2 5916   0.845   4.068   0.385
 1673SOL     OW 5917   2.249   1.313   4.554
 1673SOL    HW1 5918   2.206   1.321   4.644
 1673SOL    HW2 5919   2.179   1.290   4.486
 1674SOL     OW 5920   4.860   2.046   2.995
 1674SOL    HW1 5921   4.909   2.083   2.916
 1674SOL    HW2 5922   4.839   2.121   3.059
 1675SOL     OW 5923   5.299   0.629   1.272
 1675SOL    HW1 5924   5.354   0.661   1.349
 1675SOL    HW2 5925   5.280   0.531   1.283
 1676SOL     OW 5926   0.858   1.844   2.737
 1676SOL    HW1 5927   0.767   1.813   2.765
 1676SOL    HW2 5928   0.918   1.847   2.816
 1677SOL     OW 5929   4.072   3.720   3.012
 1677SOL    HW1 5930   4.045   3.804   3.060
 1677SOL    HW2 5931   4.038   3.641   3.063
 1678SOL     OW 5932   0.959   0.143   0.887
 1678SOL    HW1 5933   0.954   0.043   0.896
 1678SOL    HW2 5934   1.051   0.169   0.858
 1679SOL     OW 5935   1.058   2.935   5.851
 1679SOL    HW1 5936   1.027   2.843   5.875
 1679SOL    HW2 5937   1.141   2.957   5.902
 1680SOL     OW 5938   5.196   2.409   3.824
 1680SOL    HW1 5939   5.147   2.456   3.750
 1680SOL    HW2 5940   5.290   2.441   3.827
 1681SOL     OW 5941   2.351   5.966   4.232
 1681SOL    HW1 5942   2.300   5.944   4.315
 1681SOL    HW2 5943   2.304   5.928   4.153
 1682SOL     OW 5944   3.261   6.904   4.641
 1682SOL    HW1 5945   3.180   6.881   4.695
 1682SOL    HW2 5946   3.254   6.998   4.608
 1683SOL     OW 5947   5.783   4.774   2.729
 1683SOL    HW1 5948   5.842   4.828   2.668
 1683SOL    HW2 5949   5.702   4.744   2.679
 1684SOL     OW 5950   2.538   4.539   1.819
 1684SOL    HW1 5951   2.535   4.443   1.794
 1684SOL    HW2 5952   2.612   4.555   1.885
 1685SOL     OW 5953   0.130   1.213   5.179
 1685SOL    HW1 5954   0.147   1.115   5.187
 1685SOL    HW2 5955   0.032   1.231   5.187
 1686SOL     OW 5956   4.887   5.863   2.800
 1686SOL    HW1 5957   4.943   5.789   2.836
 1686SOL    HW2 5958   4.864   5.927   2.874
 1687SOL     OW 5959   5.696   4.009   2.608
 1687SOL    HW1 5960   5.678   3.932   2.546
 1687SOL    HW2 5961   5.794   4.031   2.605
 1688SOL     OW 5962   1.772   1.431   3.085
 1688SOL    HW1 5963   1.830   1.423   3.166
 1688SOL    HW2 5964   1.750   1.527   3.069
 1689SOL     OW 5965   4.666   1.006   1.435
 1689SOL    HW1 5966   4.567   1.018   1.442
 1689SOL    HW2 5967   4.689   0.968   1.345
 1690SOL     OW 5968   0.703   4.631   4.193
 1690SOL    HW1 5969   0.736   4.540   4.218
 1690SOL    HW2 5970   0.776   4.698   4.205
 1691SOL     OW 5971   4.700   2.839   5.405
 1691SOL    HW1 5972   4.714   2.931   5.443
 1691SOL    HW2 5973   4.606   2.810   5.424
 1692SOL     OW 5974   5.741   5.045   1.306
 1692SOL    HW1 5975   5.743   5.141   1.278
 1692SOL    HW2 5976   5.650   5.007   1.290
 1693SOL     OW 5977   5.178   6.757   5.591
 1693SOL    HW1 5978   5.278   6.756   5.578
 1693SOL    HW2 5979   5.148   6.666   5.619
 1694SOL     OW 5980   5.274   1.353   5.222
 1694SOL    HW1 5981   5.228   1.434   5.186
 1694SOL    HW2 5982   5.340   1.320   5.154
 1695SOL     OW 5983   3.950   0.560   6.373
 1695SOL    HW1 5984   3.937   0.461   6.362
 1695SOL    HW2 5985   3.940   0.604   6.284
 1696SOL     OW 5986   5.238   5.990   0.580
 1696SOL    HW1 5987   5.162   5.952   0.632
 1696SOL    HW2 5988   5.324   5.952   0.614
 1697SOL     OW 5989   5.695   2.285   2.260
 1697SOL    HW1 5990   5.637   2.327   2.330
 1697SOL    HW2 5991   5.790   2.313   2.275
 1698SOL     OW 5992   4.165   0.909   1.393
 1698SOL    HW1 5993   4.185   0.870   1.303
 1698SOL    HW2 5994   4.066   0.917   1.404
 1699SOL     OW 5995   2.708   0.048   0.030
 1699SOL    HW1 5996   2.639   0.094   0.086
 1699SOL    HW2 5997   2.729   6.980   0.069
 1700SOL     OW 5998   6.585   2.907   2.654
 1700SOL    HW1 5999   6.500   2.951   2.623
 1700SOL    HW2 6000   6.612   2.838   2.587
 1701SOL     OW 6001   0.460   6.240   4.849
 1701SOL    HW1 6002   0.427   6.195   4.932
 1701SOL    HW2 6003   0.559   6.231   4.843
 1702SOL     OW 6004   1.958   2.254   6.282
 1702SOL    HW1 6005   1.915   2.317   6.347
 1702SOL    HW2 6006   1.894   2.181   6.259
 1703SOL     OW 6007   3.066   1.958   0.740
 1703SOL    HW1 6008   3.067   2.035   0.676
 1703SOL    HW2 6009   3.159   1.930   0.760
 1704SOL     OW 6010   3.004   2.218   0.893
 1704SOL    HW1 6011   2.937   2.149   0.867
 1704SOL    HW2 6012   3.059   2.184   0.969
 1705SOL     OW 6013   4.153   2.022   0.130
 1705SOL    HW1 6014   4.183   2.039   0.036
 1705SOL    HW2 6015   4.068   1.969   0.129
 1706SOL     OW 6016   4.366   2.195   6.893
 1706SOL    HW1 6017   4.412   2.207   6.805
 1706SOL    HW2 6018   4.414   2.125   6.946
 1707SOL     OW 6019   4.463   2.297   2.404
 1707SOL    HW1 6020   4.421   2.323   2.491
 1707SOL    HW2 6021   4.395   2.307   2.331
 1708SOL     OW 6022   3.243   4.975   1.735
 1708SOL    HW1 6023   3.277   4.881   1.737
 1708SOL    HW2 6024   3.146   4.974   1.711
 1709SOL     OW 6025   4.640   5.205   0.735
 1709SOL    HW1 6026   4.697   5.138   0.687
 1709SOL    HW2 6027   4.608   5.273   0.669
 1710SOL     OW 6028   4.007   5.096   3.519
 1710SOL    HW1 6029   3.967   5.009   3.490
 1710SOL    HW2 6030   4.047   5.143   3.440
 1711SOL     OW 6031   4.036   4.217   6.146
 1711SOL    HW1 6032   3.944   4.195   6.115
 1711SOL    HW2 6033   4.080   4.278   6.080
 1712SOL     OW 6034   0.147   1.608   3.267
 1712SOL    HW1 6035   0.181   1.696   3.236
 1712SOL    HW2 6036   0.167   1.538   3.198
 1713SOL     OW 6037   4.021   0.652   3.050
 1713SOL    HW1 6038   4.047   0.598   3.130
 1713SOL    HW2 6039   3.971   0.733   3.079
 1714SOL     OW 6040   4.030   3.031   0.633
 1714SOL    HW1 6041   4.054   3.093   0.708
 1714SOL    HW2 6042   3.954   3.070   0.581
 1715SOL     OW 6043   1.949   6.897   2.434
 1715SOL    HW1 6044   1.941   6.819   2.495
 1715SOL    HW2 6045   1.873   6.896   2.368
 1716SOL     OW 6046   5.254   0.903   3.872
 1716SOL    HW1 6047   5.188   0.976   3.850
 1716SOL    HW2 6048   5.341   0.923   3.827
 1717SOL     OW 6049   3.363   6.021   5.793
 1717SOL    HW1 6050   3.345   6.119   5.782
 1717SOL    HW2 6051   3.328   5.991   5.882
 1718SOL     OW 6052   1.686   2.861   1.614
 1718SOL    HW1 6053   1.612   2.929   1.609
 1718SOL    HW2 6054   1.767   2.904   1.654
 1719SOL     OW 6055   1.163   5.339   2.227
 1719SOL    HW1 6056   1.213   5.305   2.306
 1719SOL    HW2 6057   1.173   5.275   2.151
 1720SOL     OW 6058   0.306   3.084   5.701
 1720SOL    HW1 6059   0.324   3.085   5.799
 1720SOL    HW2 6060   0.342   3.168   5.660
 1721SOL     OW 6061   1.387   2.100   0.661
 1721SOL    HW1 6062   1.453   2.044   0.612
 1721SOL    HW2 6063   1.421   2.195   0.665
 1722SOL     OW 6064   2.486   2.543   3.357
 1722SOL    HW1 6065   2.460   2.568   3.451
 1722SOL    HW2 6066   2.563   2.479   3.360
 1723SOL     OW 6067   5.274   3.213   0.500
 1723SOL    HW1 6068   5.226   3.126   0.491
 1723SOL    HW2 6069   5.369   3.202   0.471
 1724SOL     OW 6070   6.449   2.327   1.536
 1724SOL    HW1 6071   6.367   2.341   1.591
 1724SOL    HW2 6072   6.461   2.230   1.517
 1725SOL     OW 6073   1.195   5.846   6.969
 1725SOL    HW1 6074   1.209   5.937   6.931
 1725SOL    HW2 6075   1.165   5.854   0.043
 1726SOL     OW 6076   5.404   4.269   3.213
 1726SOL    HW1 6077   5.437   4.360   3.189
 1726SOL    HW2 6078   5.323   4.247   3.159
 1727SOL     OW 6079   3.103   3.606   4.029
 1727SOL    HW1 6080   3.037   3.664   3.981
 1727SOL    HW2 6081   3.061   3.517   4.048
 1728SOL     OW 6082   4.875   2.157   4.203
 1728SOL    HW1 6083   4.784   2.199   4.193
 1728SOL    HW2 6084   4.929   2.210   4.268
 1729SOL     OW 6085   1.561   3.282   2.522
 1729SOL    HW1 6086   1.500   3.204   2.508
 1729SOL    HW2 6087   1.651   3.260   2.486
 1730SOL     OW 6088   2.490   4.859   5.028
 1730SOL    HW1 6089   2.553   4.937   5.035
 1730SOL    HW2 6090   2.428   4.859   5.106
 1731SOL     OW 6091   6.257   4.515   3.805
 1731SOL    HW1 6092   6.165   4.548   3.783
 1731SOL    HW2 6093   6.312   4.514   3.722
 1732SOL     OW 6094   2.091   3.918   5.847
 1732SOL    HW1 6095   2.142   3.908   5.762
 1732SOL    HW2 6096   2.007   3.863   5.842
 1733SOL     OW 6097   2.549   3.529   6.477
 1733SOL    HW1 6098   2.556   3.619   6.434
 1733SOL    HW2 6099   2.507   3.465   6.412
 1734SOL     OW 6100   7.002   2.857   1.919
 1734SOL    HW1 6101   7.021   2.942   1.869
 1734SOL    HW2 6102   0.047   2.846   1.992
 1735SOL     OW 6103   3.995   5.031   6.164
 1735SOL    HW1 6104   3.944   5.053   6.247
 1735SOL    HW2 6105   3.974   4.937   6.135
 1736SOL     OW 6106   5.123   2.945   0.809
 1736SOL    HW1 6107   5.101   2.931   0.906
 1736SOL    HW2 6108   5.053   3.001   0.766
 1737SOL     OW 6109   4.727   1.826   5.524
 1737SOL    HW1 6110   4.819   1.865   5.510
 1737SOL    HW2 6111   4.730   1.728   5.507
 1738SOL     OW 6112   1.609   3.336   3.979
 1738SOL    HW1 6113   1.649   3.409   3.924
 1738SOL    HW2 6114   1.606   3.363   4.075
 1739SOL     OW 6115   5.815   0.297   3.950
 1739SOL    HW1 6116   5.902   0.263   3.984
 1739SOL    HW2 6117   5.822   0.315   3.852
 1740SOL     OW 6118   6.254   3.171   4.615
 1740SOL    HW1 6119   6.203   3.238   4.561
 1740SOL    HW2 6120   6.321   3.219   4.673
 1741SOL     OW 6121   0.753   1.792   4.429
 1741SOL    HW1 6122   0.737   1.695   4.447
 1741SOL    HW2 6123   0.838   1.821   4.474
 1742SOL     OW 6124   5.780   6.756   6.020
 1742SOL    HW1 6125   5.752   6.717   6.108
 1742SOL    HW2 6126   5.851   6.825   6.036
 1743SOL     OW 6127   1.554   1.194   2.719
 1743SOL    HW1 6128   1.646   1.164   2.746
 1743SOL    HW2 6129   1.555   1.292   2.701
 1744SOL     OW 6130   3.634   1.856   4.600
 1744SOL    HW1 6131   3.559   1.806   4.556
 1744SOL    HW2 6132   3.601   1.899   4.684
 1745SOL     OW 6133   6.388   6.663   1.448
 1745SOL    HW1 6134   6.345   6.587   1.497
 1745SOL    HW2 6135   6.418   6.732   1.513
 1746SOL     OW 6136   2.185   4.379   4.076
 1746SOL    HW1 6137   2.120   4.448   4.108
 1746SOL    HW2 6138   2.155   4.344   3.988
 1747SOL     OW 6139   4.377   0.170   2.742
 1747SOL    HW1 6140   4.395   0.173   2.643
 1747SOL    HW2 6141   4.350   0.261   2.773
 1748SOL     OW 6142   6.701   2.945   4.779
 1748SOL    HW1 6143   6.794   2.907   4.781
 1748SOL    HW2 6144   6.689   2.998   4.695
 1749SOL     OW 6145   1.677   4.523   0.974
 1749SOL    HW1 6146   1.581   4.544   0.991
 1749SOL    HW2 6147   1.719   4.596   0.921
 1750SOL     OW 6148   3.523   6.834   5.652
 1750SOL    HW1 6149   3.567   6.746   5.669
 1750SOL    HW2 6150   3.488   6.872   5.737
 1751SOL     OW 6151   5.017   2.853   5.109
 1751SOL    HW1 6152   5.006   2.819   5.203
 1751SOL    HW2 6153   5.029   2.776   5.047
 1752SOL     OW 6154   6.944   0.570   1.887
 1752SOL    HW1 6155   0.006   0.537   1.931
 1752SOL    HW2 6156   6.967   0.642   1.822
 1753SOL     OW 6157   6.327   1.717   1.826
 1753SOL    HW1 6158   6.319   1.662   1.743
 1753SOL    HW2 6159   6.285   1.806   1.811
 1754SOL     OW 6160   2.834   5.532   4.134
 1754SOL    HW1 6161   2.860   5.483   4.051
 1754SOL    HW2 6162   2.910   5.533   4.198
 1755SOL     OW 6163   6.591   6.714   4.920
 1755SOL    HW1 6164   6.520   6.752   4.979
 1755SOL    HW2 6165   6.562   6.624   4.886
 1756SOL     OW 6166   4.567   6.589   6.143
 1756SOL    HW1 6167   4.634   6.656   6.110
 1756SOL    HW2 6168   4.475   6.620   6.119
 1757SOL     OW 6169   2.327   4.813   5.253
 1757SOL    HW1 6170   2.327   4.807   5.353
 1757SOL    HW2 6171   2.253   4.756   5.216
 1758SOL     OW 6172   2.065   5.929   4.374
 1758SOL    HW1 6173   2.044   5.907   4.469
 1758SOL    HW2 6174   2.037   5.854   4.315
 1759SOL     OW 6175   1.654   0.005   0.363
 1759SOL    HW1 6176   1.679   7.013   0.459
 1759SOL    HW2 6177   1.568   0.056   0.357
 1760SOL     OW 6178   6.811   0.623   4.630
 1760SOL    HW1 6179   6.778   0.617   4.724
 1760SOL    HW2 6180   6.891   0.682   4.626
 1761SOL     OW 6181   6.040   1.647   2.745
 1761SOL    HW1 6182   5.955   1.597   2.762
 1761SOL    HW2 6183   6.117   1.594   2.782
 1762SOL     OW 6184   0.570   1.511   5.951
 1762SOL    HW1 6185   0.633   1.572   5.903
 1762SOL    HW2 6186   0.583   1.520   6.049
 1763SOL     OW 6187   0.326   4.085   3.851
 1763SOL    HW1 6188   0.368   4.004   3.809
 1763SOL    HW2 6189   0.394   4.158   3.856
 1764SOL     OW 6190   1.063   5.391   2.843
 1764SOL    HW1 6191   1.098   5.376   2.936
 1764SOL    HW2 6192   1.131   5.442   2.790
 1765SOL     OW 6193   5.570   3.297   2.187
 1765SOL    HW1 6194   5.538   3.371   2.128
 1765SOL    HW2 6195   5.652   3.326   2.236
 1766SOL     OW 6196   4.399   4.584   3.714
 1766SOL    HW1 6197   4.490   4.546   3.730
 1766SOL    HW2 6198   4.395   4.679   3.746
 1767SOL     OW 6199   0.946   4.387   2.594
 1767SOL    HW1 6200   0.941   4.445   2.512
 1767SOL    HW2 6201   0.872   4.411   2.656
 1768SOL     OW 6202   5.208   6.415   2.276
 1768SOL    HW1 6203   5.299   6.412   2.235
 1768SOL    HW2 6204   5.152   6.483   2.227
 1769SOL     OW 6205   5.821   0.713   0.561
 1769SOL    HW1 6206   5.811   0.645   0.633
 1769SOL    HW2 6207   5.738   0.715   0.505
 1770SOL     OW 6208   2.072   5.546   0.042
 1770SOL    HW1 6209   2.036   5.627   7.018
 1770SOL    HW2 6210   2.149   5.572   0.100
 1771SOL     OW 6211   1.403   3.166   5.842
 1771SOL    HW1 6212   1.356   3.086   5.878
 1771SOL    HW2 6213   1.448   3.142   5.755
 1772SOL     OW 6214   2.124   4.523   3.085
 1772SOL    HW1 6215   2.171   4.443   3.048
 1772SOL    HW2 6216   2.168   4.551   3.170
 1773SOL     OW 6217   1.381   6.369   6.450
 1773SOL    HW1 6218   1.386   6.298   6.380
 1773SOL    HW2 6219   1.449   6.440   6.430
 1774SOL     OW 6220   4.845   5.471   0.554
 1774SOL    HW1 6221   4.945   5.477   0.560
 1774SOL    HW2 6222   4.805   5.527   0.627
 1775SOL     OW 6223   2.126   5.717   6.680
 1775SOL    HW1 6224   2.081   5.732   6.768
 1775SOL    HW2 6225   2.073   5.650   6.627
 1776SOL     OW 6226   4.851   2.072   5.574
 1776SOL    HW1 6227   4.825   2.154   5.523
 1776SOL    HW2 6228   4.836   2.087   5.672
 1777SOL     OW 6229   4.967   6.239   6.590
 1777SOL    HW1 6230   4.992   6.332   6.616
 1777SOL    HW2 6231   4.946   6.186   6.672
 1778SOL     OW 6232   5.518   6.986   4.291
 1778SOL    HW1 6233   5.531   0.016   4.376
 1778SOL    HW2 6234   5.429   7.010   4.251
 1779SOL     OW 6235   5.691   6.200   4.677
 1779SOL    HW1 6236   5.598   6.164   4.671
 1779SOL    HW2 6237   5.691   6.283   4.734
 1780SOL     OW 6238   2.418   6.010   4.699
 1780SOL    HW1 6239   2.318   6.010   4.696
 1780SOL    HW2 6240   2.453   6.062   4.621
 1781SOL     OW 6241   4.213   0.600   4.145
 1781SOL    HW1 6242   4.194   0.686   4.192
 1781SOL    HW2 6243   4.233   0.529   4.213
 1782SOL     OW 6244   0.139   1.583   2.691
 1782SOL    HW1 6245   0.122   1.675   2.657
 1782SOL    HW2 6246   0.064   1.555   2.751
 1783SOL     OW 6247   2.274   3.866   6.559
 1783SOL    HW1 6248   2.243   3.800   6.491
 1783SOL    HW2 6249   2.339   3.929   6.517
 1784SOL     OW 6250   2.614   0.186   1.327
 1784SOL    HW1 6251   2.640   0.244   1.250
 1784SOL    HW2 6252   2.521   0.151   1.313
 1785SOL     OW 6253   1.535   6.522   4.965
 1785SOL    HW1 6254   1.478   6.440   4.966
 1785SOL    HW2 6255   1.529   6.568   5.053
 1786SOL     OW 6256   0.925   6.599   0.749
 1786SOL    HW1 6257   1.016   6.581   0.713
 1786SOL    HW2 6258   0.867   6.637   0.677
 1787SOL     OW 6259   3.089   3.541   6.451
 1787SOL    HW1 6260   3.097   3.454   6.403
 1787SOL    HW2 6261   3.048   3.610   6.390
 1788SOL     OW 6262   4.817   3.827   1.441
 1788SOL    HW1 6263   4.797   3.898   1.509
 1788SOL    HW2 6264   4.911   3.795   1.453
 1789SOL     OW 6265   5.733   3.797   1.747
 1789SOL    HW1 6266   5.775   3.869   1.802
 1789SOL    HW2 6267   5.656   3.836   1.695
 1790SOL     OW 6268   2.430   2.088   4.679
 1790SOL    HW1 6269   2.337   2.062   4.650
 1790SOL    HW2 6270   2.426   2.128   4.770
 1791SOL     OW 6271   4.995   0.152   3.608
 1791SOL    HW1 6272   5.040   0.230   3.652
 1791SOL    HW2 6273   4.958   0.180   3.519
 1792SOL     OW 6274   0.304   1.391   5.307
 1792SOL    HW1 6275   0.244   1.334   5.251
 1792SOL    HW2 6276   0.283   1.376   5.404
 1793SOL     OW 6277   0.320   0.959   5.735
 1793SOL    HW1 6278   0.330   1.002   5.646
 1793SOL    HW2 6279   0.271   1.021   5.797
 1794SOL     OW 6280   1.073   0.166   6.342
 1794SOL    HW1 6281   1.017   0.093   6.302
 1794SOL    HW2 6282   1.169   0.149   6.320
 1795SOL     OW 6283   5.767   4.511   1.229
 1795SOL    HW1 6284   5.698   4.479   1.293
 1795SOL    HW2 6285   5.843   4.446   1.227
 1796SOL     OW 6286   0.516   0.479   6.578
 1796SOL    HW1 6287   0.600   0.479   6.525
 1796SOL    HW2 6288   0.473   0.569   6.573
 1797SOL     OW 6289   1.661   5.071   5.993
 1797SOL    HW1 6290   1.729   5.007   6.029
 1797SOL    HW2 6291   1.683   5.093   5.898
 1798SOL     OW 6292   2.818   3.459   5.204
 1798SOL    HW1 6293   2.894   3.394   5.208
 1798SOL    HW2 6294   2.854   3.552   5.213
 1799SOL     OW 6295   3.062   1.603   0.588
 1799SOL    HW1 6296   3.143   1.632   0.536
 1799SOL    HW2 6297   3.034   1.512   0.558
 1800SOL     OW 6298   6.153   3.641   5.117
 1800SOL    HW1 6299   6.203   3.555   5.106
 1800SOL    HW2 6300   6.201   3.713   5.068
 1801SOL     OW 6301   1.221   0.917   3.251
 1801SOL    HW1 6302   1.233   0.849   3.179
 1801SOL    HW2 6303   1.229   0.873   3.341
 1802SOL     OW 6304   0.016   4.800   3.592
 1802SOL    HW1 6305   6.988   4.719   3.560
 1802SOL    HW2 6306   0.095   4.816   3.533
 1803SOL     OW 6307   0.342   0.053   3.154
 1803SOL    HW1 6308   0.326   6.990   3.103
 1803SOL    HW2 6309   0.348   0.032   3.252
 1804SOL     OW 6310   2.223   3.281   5.705
 1804SOL    HW1 6311   2.137   3.277   5.755
 1804SOL    HW2 6312   2.300   3.271   5.768
 1805SOL     OW 6313   0.298   5.491   0.026
 1805SOL    HW1 6314   0.274   5.444   0.111
 1805SOL    HW2 6315   0.342   5.578   0.048
 1806SOL     OW 6316   0.277   1.804   1.882
 1806SOL    HW1 6317   0.262   1.756   1.969
 1806SOL    HW2 6318   0.213   1.880   1.875
 1807SOL     OW 6319   0.289   2.634   3.006
 1807SOL    HW1 6320   0.287   2.726   2.968
 1807SOL    HW2 6321   0.361   2.581   2.962
 1808SOL     OW 6322   4.572   2.035   6.002
 1808SOL    HW1 6323   4.582   2.101   5.927
 1808SOL    HW2 6324   4.660   1.991   6.019
 1809SOL     OW 6325   4.515   0.507   4.975
 1809SOL    HW1 6326   4.509   0.605   4.958
 1809SOL    HW2 6327   4.569   0.491   5.058
 1810SOL     OW 6328   0.667   0.589   4.144
 1810SOL    HW1 6329   0.599   0.519   4.163
 1810SOL    HW2 6330   0.704   0.624   4.230
 1811SOL     OW 6331   4.049   5.445   1.595
 1811SOL    HW1 6332   4.047   5.402   1.686
 1811SOL    HW2 6333   4.127   5.507   1.589
 1812SOL     OW 6334   4.828   6.210   6.179
 1812SOL    HW1 6335   4.834   6.132   6.241
 1812SOL    HW2 6336   4.910   6.266   6.189
 1813SOL     OW 6337   4.864   4.409   2.205
 1813SOL    HW1 6338   4.930   4.475   2.239
 1813SOL    HW2 6339   4.911   4.331   2.165
 1814SOL     OW 6340   6.734   6.063   0.570
 1814SOL    HW1 6341   6.781   6.077   0.657
 1814SOL    HW2 6342   6.797   6.019   0.505
 1815SOL     OW 6343   5.544   6.456   1.492
 1815SOL    HW1 6344   5.641   6.445   1.515
 1815SOL    HW2 6345   5.503   6.366   1.478
 1816SOL     OW 6346   3.855   4.720   5.323
 1816SOL    HW1 6347   3.905   4.802   5.353
 1816SOL    HW2 6348   3.920   4.646   5.308
 1817SOL     OW 6349   7.001   2.103   3.748
 1817SOL    HW1 6350   7.008   2.032   3.678
 1817SOL    HW2 6351   0.041   2.178   3.724
 1818SOL     OW 6352   2.315   1.171   6.999
 1818SOL    HW1 6353   2.327   1.107   6.923
 1818SOL    HW2 6354   2.319   1.265   6.964
 1819SOL     OW 6355   1.891   4.856   3.079
 1819SOL    HW1 6356   1.856   4.948   3.062
 1819SOL    HW2 6357   1.829   4.808   3.141
 1820SOL     OW 6358   3.470   6.872   5.211
 1820SOL    HW1 6359   3.459   6.916   5.300
 1820SOL    HW2 6360   3.496   6.942   5.143
 1821SOL     OW 6361   3.579   2.067   2.540
 1821SOL    HW1 6362   3.489   2.096   2.573
 1821SOL    HW2 6363   3.648   2.089   2.609
 1822SOL     OW 6364   0.009   3.273   2.304
 1822SOL    HW1 6365   6.966   3.331   2.254
 1822SOL    HW2 6366   0.019   3.308   2.397
 1823SOL     OW 6367   4.246   6.120   2.160
 1823SOL    HW1 6368   4.284   6.040   2.114
 1823SOL    HW2 6369   4.291   6.202   2.126
 1824SOL     OW 6370   4.553   2.939   1.603
 1824SOL    HW1 6371   4.485   3.005   1.573
 1824SOL    HW2 6372   4.574   2.953   1.700
 1825SOL     OW 6373   1.261   1.965   4.755
 1825SOL    HW1 6374   1.327   2.038   4.740
 1825SOL    HW2 6375   1.290   1.884   4.704
 1826SOL     OW 6376   3.732   2.098   1.718
 1826SOL    HW1 6377   3.725   2.184   1.768
 1826SOL    HW2 6378   3.757   2.025   1.782
 1827SOL     OW 6379   5.578   5.474   0.853
 1827SOL    HW1 6380   5.619   5.548   0.907
 1827SOL    HW2 6381   5.626   5.388   0.872
 1828SOL     OW 6382   1.524   3.357   5.160
 1828SOL    HW1 6383   1.476   3.442   5.179
 1828SOL    HW2 6384   1.585   3.370   5.082
 1829SOL     OW 6385   3.806   0.484   2.650
 1829SOL    HW1 6386   3.793   0.581   2.671
 1829SOL    HW2 6387   3.851   0.475   2.561
 1830SOL     OW 6388   5.246   0.082   5.499
 1830SOL    HW1 6389   5.286   7.012   5.499
 1830SOL    HW2 6390   5.292   0.138   5.430
 1831SOL     OW 6391   3.640   4.500   0.699
 1831SOL    HW1 6392   3.628   4.430   0.629
 1831SOL    HW2 6393   3.720   4.556   0.676
 1832SOL     OW 6394   2.486   3.282   0.276
 1832SOL    HW1 6395   2.420   3.303   0.204
 1832SOL    HW2 6396   2.566   3.341   0.266
 1833SOL     OW 6397   5.994   1.063   6.942
 1833SOL    HW1 6398   6.074   1.076   7.000
 1833SOL    HW2 6399   5.931   1.140   6.955
 1834SOL     OW 6400   0.423   2.752   5.432
 1834SOL    HW1 6401   0.426   2.678   5.365
 1834SOL    HW2 6402   0.514   2.791   5.444
 1835SOL     OW 6403   0.361   6.645   1.668
 1835SOL    HW1 6404   0.404   6.565   1.627
 1835SOL    HW2 6405   0.415   6.727   1.646
 1836SOL     OW 6406   4.884   2.532   2.369
 1836SOL    HW1 6407   4.963   2.490   2.413
 1836SOL    HW2 6408   4.832   2.462   2.320
 1837SOL     OW 6409   2.922   2.385   5.866
 1837SOL    HW1 6410   2.854   2.456   5.886
 1837SOL    HW2 6411   2.940   2.331   5.948
 1838SOL     OW 6412   5.770   0.973   0.667
 1838SOL    HW1 6413   5.786   0.926   0.581
 1838SOL    HW2 6414   5.758   0.905   0.740
 1839SOL     OW 6415   0.177   0.778   0.017
 1839SOL    HW1 6416   0.077   0.786   0.025
 1839SOL    HW2 6417   0.216   0.750   0.105
 1840SOL     OW 6418   4.532   6.152   3.339
 1840SOL    HW1 6419   4.537   6.113   3.431
 1840SOL    HW2 6420   4.502   6.247   3.344
 1841SOL     OW 6421   1.943   0.885   2.546
 1841SOL    HW1 6422   1.971   0.793   2.574
 1841SOL    HW2 6423   1.895   0.881   2.459
 1842SOL     OW 6424   1.422   5.446   0.744
 1842SOL    HW1 6425   1.338   5.474   0.697
 1842SOL    HW2 6426   1.449   5.355   0.713
 1843SOL     OW 6427   2.423   0.974   5.252
 1843SOL    HW1 6428   2.401   1.071   5.247
 1843SOL    HW2 6429   2.343   0.920   5.224
 1844SOL     OW 6430   5.929   2.441   6.230
 1844SOL    HW1 6431   5.994   2.381   6.278
 1844SOL    HW2 6432   5.837   2.424   6.264
 1845SOL     OW 6433   1.397   2.344   3.038
 1845SOL    HW1 6434   1.371   2.438   3.060
 1845SOL    HW2 6435   1.322   2.282   3.062
 1846SOL     OW 6436   3.808   0.951   1.717
 1846SOL    HW1 6437   3.818   0.888   1.794
 1846SOL    HW2 6438   3.714   0.986   1.715
 1847SOL     OW 6439   1.845   5.530   5.056
 1847SOL    HW1 6440   1.856   5.442   5.012
 1847SOL    HW2 6441   1.834   5.517   5.155
 1848SOL     OW 6442   3.125   6.087   3.065
 1848SOL    HW1 6443   3.203   6.060   3.009
 1848SOL    HW2 6444   3.107   6.185   3.052
 1849SOL     OW 6445   4.999   2.746   2.267
 1849SOL    HW1 6446   5.081   2.705   2.225
 1849SOL    HW2 6447   4.951   2.677   2.321
 1850SOL     OW 6448   4.599   1.401   1.154
 1850SOL    HW1 6449   4.571   1.493   1.180
 1850SOL    HW2 6450   4.681   1.376   1.206
 1851SOL     OW 6451   0.756   4.598   5.115
 1851SOL    HW1 6452   0.791   4.689   5.136
 1851SOL    HW2 6453   0.657   4.604   5.100
 1852SOL     OW 6454   0.432   0.253   2.872
 1852SOL    HW1 6455   0.334   0.233   2.867
 1852SOL    HW2 6456   0.482   0.167   2.884
 1853SOL     OW 6457   0.204   2.516   5.644
 1853SOL    HW1 6458   0.298   2.548   5.650
 1853SOL    HW2 6459   0.142   2.594   5.647
 1854SOL     OW 6460   0.593   0.043   3.284
 1854SOL    HW1 6461   0.543   0.111   3.230
 1854SOL    HW2 6462   0.691   0.060   3.278
 1855SOL     OW 6463   5.021   3.158   4.296
 1855SOL    HW1 6464   4.947   3.107   4.340
 1855SOL    HW2 6465   5.095   3.173   4.362
 1856SOL     OW 6466   3.576   2.403   0.795
 1856SOL    HW1 6467   3.627   2.386   0.879
 1856SOL    HW2 6468   3.622   2.474   0.741
 1857SOL     OW 6469   4.173   1.615   0.142
 1857SOL    HW1 6470   4.261   1.609   0.189
 1857SOL    HW2 6471   4.163   1.537   0.081
 1858SOL     OW 6472   4.990   2.508   3.978
 1858SOL    HW1 6473   5.058   2.488   3.907
 1858SOL    HW2 6474   5.011   2.456   4.060
 1859SOL     OW 6475   0.030   1.658   4.264
 1859SOL    HW1 6476   0.113   1.681   4.213
 1859SOL    HW2 6477   0.054   1.611   4.349
 1860SOL     OW 6478   1.929   1.671   5.706
 1860SOL    HW1 6479   1.899   1.578   5.729
 1860SOL    HW2 6480   1.927   1.728   5.789
 1861SOL     OW 6481   6.797   6.894   3.824
 1861SOL    HW1 6482   6.771   6.839   3.745
 1861SOL    HW2 6483   6.875   6.853   3.870
 1862SOL     OW 6484   3.184   5.308   5.896
 1862SOL    HW1 6485   3.147   5.297   5.988
 1862SOL    HW2 6486   3.112   5.288   5.829
 1863SOL     OW 6487   7.002   2.721   0.656
 1863SOL    HW1 6488   0.043   2.679   0.722
 1863SOL    HW2 6489   0.028   2.735   0.570
 1864SOL     OW 6490   4.093   5.668   2.144
 1864SOL    HW1 6491   4.108   5.578   2.185
 1864SOL    HW2 6492   4.088   5.737   2.216
 1865SOL     OW 6493   6.110   1.902   5.537
 1865SOL    HW1 6494   6.011   1.902   5.523
 1865SOL    HW2 6495   6.131   1.864   5.627
 1866SOL     OW 6496   0.824   4.995   3.601
 1866SOL    HW1 6497   0.728   4.990   3.572
 1866SOL    HW2 6498   0.878   4.929   3.550
 1867SOL     OW 6499   1.737   2.481   1.354
 1867SOL    HW1 6500   1.642   2.469   1.325
 1867SOL    HW2 6501   1.785   2.538   1.288
 1868SOL     OW 6502   5.692   3.375   6.572
 1868SOL    HW1 6503   5.598   3.407   6.582
 1868SOL    HW2 6504   5.728   3.349   6.662
 1869SOL     OW 6505   4.154   0.865   4.242
 1869SOL    HW1 6506   4.113   0.936   4.299
 1869SOL    HW2 6507   4.100   0.854   4.158
 1870SOL     OW 6508   6.572   6.184   4.783
 1870SOL    HW1 6509   6.481   6.181   4.741
 1870SOL    HW2 6510   6.575   6.121   4.860
 1871SOL     OW 6511   0.121   6.638   0.113
 1871SOL    HW1 6512   0.177   6.575   0.167
 1871SOL    HW2 6513   0.174   6.672   0.035
 1872SOL     OW 6514   2.588   2.662   1.726
 1872SOL    HW1 6515   2.520   2.623   1.664
 1872SOL    HW2 6516   2.613   2.594   1.795
 1873SOL     OW 6517   6.389   1.551   0.751
 1873SOL    HW1 6518   6.352   1.483   0.814
 1873SOL    HW2 6519   6.470   1.514   0.706
 1874SOL     OW 6520   0.604   5.139   0.331
 1874SOL    HW1 6521   0.599   5.043   0.307
 1874SOL    HW2 6522   0.589   5.195   0.250
 1875SOL     OW 6523   6.894   5.096   0.192
 1875SOL    HW1 6524   6.897   5.131   0.099
 1875SOL    HW2 6525   6.808   5.048   0.207
 1876SOL     OW 6526   0.271   5.577   0.874
 1876SOL    HW1 6527   0.346   5.511   0.877
 1876SOL    HW2 6528   0.249   5.598   0.778
 1877SOL     OW 6529   1.089   1.505   2.530
 1877SOL    HW1 6530   1.109   1.603   2.527
 1877SOL    HW2 6531   1.027   1.482   2.454
 1878SOL     OW 6532   5.936   3.828   3.882
 1878SOL    HW1 6533   5.952   3.854   3.977
 1878SOL    HW2 6534   5.859   3.881   3.846
 1879SOL     OW 6535   4.651   5.705   4.453
 1879SOL    HW1 6536   4.650   5.733   4.549
 1879SOL    HW2 6537   4.709   5.624   4.443
 1880SOL     OW 6538   6.883   2.025   4.380
 1880SOL    HW1 6539   6.871   1.949   4.315
 1880SOL    HW2 6540   6.830   2.006   4.463
 1881SOL     OW 6541   1.874   1.452   3.929
 1881SOL    HW1 6542   1.845   1.380   3.866
 1881SOL    HW2 6543   1.924   1.522   3.879
 1882SOL     OW 6544   1.582   5.451   0.340
 1882SOL    HW1 6545   1.615   5.414   0.254
 1882SOL    HW2 6546   1.482   5.457   0.338
 1883SOL     OW 6547   1.606   2.919   3.130
 1883SOL    HW1 6548   1.600   2.822   3.156
 1883SOL    HW2 6549   1.533   2.970   3.177
 1884SOL     OW 6550   4.033   0.967   7.019
 1884SOL    HW1 6551   4.127   0.934   7.015
 1884SOL    HW2 6552   4.019   1.017   0.083
 1885SOL     OW 6553   0.261   1.983   1.083
 1885SOL    HW1 6554   0.246   2.077   1.114
 1885SOL    HW2 6555   0.327   1.938   1.143
 1886SOL     OW 6556   2.989   2.455   5.622
 1886SOL    HW1 6557   2.974   2.440   5.720
 1886SOL    HW2 6558   3.073   2.410   5.594
 1887SOL     OW 6559   0.917   6.257   5.188
 1887SOL    HW1 6560   0.960   6.347   5.180
 1887SOL    HW2 6561   0.984   6.191   5.223
 1888SOL     OW 6562   2.080   2.009   5.869
 1888SOL    HW1 6563   2.098   1.988   5.773
 1888SOL    HW2 6564   2.148   2.074   5.903
 1889SOL     OW 6565   3.337   2.760   0.067
 1889SOL    HW1 6566   3.327   2.668   0.031
 1889SOL    HW2 6567   3.300   2.763   0.160
 1890SOL     OW 6568   6.244   5.893   6.962
 1890SOL    HW1 6569   6.262   5.906   6.865
 1890SOL    HW2 6570   6.160   5.839   6.974
 1891SOL     OW 6571   5.736   3.862   6.021
 1891SOL    HW1 6572   5.679   3.896   6.096
 1891SOL    HW2 6573   5.827   3.840   6.055
 1892SOL     OW 6574   4.083   6.702   1.871
 1892SOL    HW1 6575   4.040   6.698   1.781
 1892SOL    HW2 6576   4.105   6.610   1.902
 1893SOL     OW 6577   3.204   1.839   5.207
 1893SOL    HW1 6578   3.302   1.857   5.214
 1893SOL    HW2 6579   3.177   1.771   5.275
 1894SOL     OW 6580   4.650   3.419   1.036
 1894SOL    HW1 6581   4.613   3.328   1.018
 1894SOL    HW2 6582   4.669   3.429   1.134
 1895SOL     OW 6583   4.939   1.011   3.093
 1895SOL    HW1 6584   4.944   0.916   3.063
 1895SOL    HW2 6585   4.877   1.019   3.170
 1896SOL     OW 6586   6.078   1.960   5.941
 1896SOL    HW1 6587   6.127   1.919   5.865
 1896SOL    HW2 6588   6.061   1.891   6.011
 1897SOL     OW 6589   5.795   5.081   3.610
 1897SOL    HW1 6590   5.844   5.058   3.526
 1897SOL    HW2 6591   5.782   5.180   3.615
 1898SOL     OW 6592   5.756   6.280   6.996
 1898SOL    HW1 6593   5.761   6.361   6.938
 1898SOL    HW2 6594   5.828   6.216   6.972
 1899SOL     OW 6595   1.170   2.118   3.759
 1899SOL    HW1 6596   1.264   2.098   3.734
 1899SOL    HW2 6597   1.160   2.216   3.777
 1900SOL     OW 6598   2.397   6.216   0.967
 1900SOL    HW1 6599   2.488   6.189   0.936
 1900SOL    HW2 6600   2.396   6.315   0.984
 1901SOL     OW 6601   1.429   1.519   6.471
 1901SOL    HW1 6602   1.393   1.440   6.520
 1901SOL    HW2 6603   1.397   1.518   6.377
 1902SOL     OW 6604   1.716   2.383   5.276
 1902SOL    HW1 6605   1.759   2.339   5.355
 1902SOL    HW2 6606   1.624   2.348   5.263
 1903SOL     OW 6607   6.820   4.368   4.027
 1903SOL    HW1 6608   6.898   4.401   4.079
 1903SOL    HW2 6609   6.773   4.296   4.079
 1904SOL     OW 6610   0.984   0.313   4.968
 1904SOL    HW1 6611   0.926   0.274   4.897
 1904SOL    HW2 6612   0.982   0.413   4.962
 1905SOL     OW 6613   6.330   3.338   4.121
 1905SOL    HW1 6614   6.381   3.356   4.206
 1905SOL    HW2 6615   6.246   3.289   4.142
 1906SOL     OW 6616   2.022   0.154   0.454
 1906SOL    HW1 6617   2.053   0.193   0.367
 1906SOL    HW2 6618   2.012   0.228   0.522
 1907SOL     OW 6619   3.600   5.954   3.016
 1907SOL    HW1 6620   3.531   5.883   3.000
 1907SOL    HW2 6621   3.691   5.918   2.996
 1908SOL     OW 6622   4.967   0.923   6.657
 1908SOL    HW1 6623   5.011   0.860   6.593
 1908SOL    HW2 6624   4.868   0.914   6.649
 1909SOL     OW 6625   4.181   4.771   4.388
 1909SOL    HW1 6626   4.244   4.694   4.376
 1909SOL    HW2 6627   4.163   4.784   4.486
 1910SOL     OW 6628   4.888   2.608   5.023
 1910SOL    HW1 6629   4.931   2.593   5.112
 1910SOL    HW2 6630   4.807   2.664   5.034
 1911SOL     OW 6631   0.196   3.738   6.168
 1911SOL    HW1 6632   0.281   3.791   6.164
 1911SOL    HW2 6633   0.167   3.715   6.075
 1912SOL     OW 6634   3.497   6.198   3.067
 1912SOL    HW1 6635   3.554   6.117   3.054
 1912SOL    HW2 6636   3.530   6.272   3.009
 1913SOL     OW 6637   1.467   4.394   5.402
 1913SOL    HW1 6638   1.403   4.457   5.358
 1913SOL    HW2 6639   1.540   4.371   5.337
 1914SOL     OW 6640   4.640   1.200   5.245
 1914SOL    HW1 6641   4.565   1.180   5.183
 1914SOL    HW2 6642   4.696   1.274   5.207
 1915SOL     OW 6643   3.885   0.207   5.265
 1915SOL    HW1 6644   3.955   0.243   5.203
 1915SOL    HW2 6645   3.846   0.283   5.318
 1916SOL     OW 6646   4.239   6.498   1.533
 1916SOL    HW1 6647   4.146   6.463   1.524
 1916SOL    HW2 6648   4.259   6.558   1.456
 1917SOL     OW 6649   3.270   3.363   4.313
 1917SOL    HW1 6650   3.189   3.320   4.353
 1917SOL    HW2 6651   3.258   3.462   4.312
 1918SOL     OW 6652   5.736   6.781   4.051
 1918SOL    HW1 6653   5.698   6.756   4.140
 1918SOL    HW2 6654   5.662   6.804   3.988
 1919SOL     OW 6655   6.466   6.690   2.002
 1919SOL    HW1 6656   6.512   6.769   1.962
 1919SOL    HW2 6657   6.502   6.606   1.961
 1920SOL     OW 6658   6.559   6.269   4.106
 1920SOL    HW1 6659   6.505   6.229   4.181
 1920SOL    HW2 6660   6.556   6.208   4.027
 1921SOL     OW 6661   0.891   6.656   6.040
 1921SOL    HW1 6662   0.814   6.685   6.096
 1921SOL    HW2 6663   0.941   6.583   6.086
 1922SOL     OW 6664   3.422   4.200   1.031
 1922SOL    HW1 6665   3.421   4.271   1.102
 1922SOL    HW2 6666   3.349   4.134   1.049
 1923SOL     OW 6667   2.140   2.190   0.513
 1923SOL    HW1 6668   2.071   2.144   0.457
 1923SOL    HW2 6669   2.227   2.141   0.505
 1924SOL     OW 6670   0.960   3.811   2.045
 1924SOL    HW1 6671   0.985   3.820   1.949
 1924SOL    HW2 6672   0.962   3.901   2.088
 1925SOL     OW 6673   3.752   4.206   0.327
 1925SOL    HW1 6674   3.747   4.112   0.292
 1925SOL    HW2 6675   3.692   4.265   0.273
 1926SOL     OW 6676   0.466   0.204   3.431
 1926SOL    HW1 6677   0.369   0.188   3.449
 1926SOL    HW2 6678   0.505   0.123   3.386
 1927SOL     OW 6679   4.241   3.703   0.158
 1927SOL    HW1 6680   4.317   3.696   0.093
 1927SOL    HW2 6681   4.162   3.744   0.112
 1928SOL     OW 6682   6.600   4.932   5.492
 1928SOL    HW1 6683   6.611   4.915   5.394
 1928SOL    HW2 6684   6.505   4.956   5.511
 1929SOL     OW 6685   1.439   0.117   2.647
 1929SOL    HW1 6686   1.373   0.191   2.662
 1929SOL    HW2 6687   1.395   0.030   2.667
 1930SOL     OW 6688   6.090   4.776   0.089
 1930SOL    HW1 6689   6.109   4.804   7.016
 1930SOL    HW2 6690   6.114   4.680   0.100
 1931SOL     OW 6691   1.044   2.430   5.143
 1931SOL    HW1 6692   1.076   2.516   5.185
 1931SOL    HW2 6693   0.982   2.451   5.068
 1932SOL     OW 6694   5.827   3.375   2.340
 1932SOL    HW1 6695   5.896   3.401   2.272
 1932SOL    HW2 6696   5.861   3.298   2.394
 1933SOL     OW 6697   2.814   4.360   1.395
 1933SOL    HW1 6698   2.726   4.385   1.355
 1933SOL    HW2 6699   2.799   4.318   1.485
 1934SOL     OW 6700   0.373   6.067   4.393
 1934SOL    HW1 6701   0.326   6.143   4.438
 1934SOL    HW2 6702   0.406   6.097   4.303
 1935SOL     OW 6703   2.269   0.590   3.880
 1935SOL    HW1 6704   2.272   0.547   3.790
 1935SOL    HW2 6705   2.174   0.601   3.909
 1936SOL     OW 6706   6.498   5.731   5.978
 1936SOL    HW1 6707   6.504   5.651   6.038
 1936SOL    HW2 6708   6.438   5.711   5.901
 1937SOL     OW 6709   4.362   6.921   2.428
 1937SOL    HW1 6710   4.426   6.997   2.441
 1937SOL    HW2 6711   4.318   6.900   2.515
 1938SOL     OW 6712   4.889   0.356   3.871
 1938SOL    HW1 6713   4.876   0.327   3.966
 1938SOL    HW2 6714   4.984   0.340   3.844
 1939SOL     OW 6715   2.267   0.012   3.514
 1939SOL    HW1 6716   2.215   6.999   3.437
 1939SOL    HW2 6717   2.364   7.009   3.504
 1940SOL     OW 6718   0.180   4.847   0.067
 1940SOL    HW1 6719   0.190   4.946   0.058
 1940SOL    HW2 6720   0.265   4.803   0.041
 1941SOL     OW 6721   5.093   4.932   3.215
 1941SOL    HW1 6722   5.027   4.910   3.287
 1941SOL    HW2 6723   5.044   4.968   3.136
 1942SOL     OW 6724   5.928   5.776   3.242
 1942SOL    HW1 6725   5.993   5.852   3.243
 1942SOL    HW2 6726   5.843   5.805   3.286
 1943SOL     OW 6727   2.740   5.276   2.477
 1943SOL    HW1 6728   2.692   5.343   2.421
 1943SOL    HW2 6729   2.822   5.245   2.428
 1944SOL     OW 6730   6.941   1.184   1.696
 1944SOL    HW1 6731   6.900   1.114   1.637
 1944SOL    HW2 6732   6.900   1.273   1.675
 1945SOL     OW 6733   3.125   5.355   4.189
 1945SOL    HW1 6734   3.113   5.279   4.253
 1945SOL    HW2 6735   3.125   5.319   4.095
 1946SOL     OW 6736   1.574   0.678   0.034
 1946SOL    HW1 6737   1.489   0.728   0.016
 1946SOL    HW2 6738   1.557   0.606   0.101
 1947SOL     OW 6739   5.669   5.751   4.744
 1947SOL    HW1 6740   5.665   5.655   4.772
 1947SOL    HW2 6741   5.635   5.760   4.650
 1948SOL     OW 6742   5.951   4.533   5.776
 1948SOL    HW1 6743   5.991   4.584   5.851
 1948SOL    HW2 6744   5.890   4.593   5.724
 1949SOL     OW 6745   5.246   4.149   6.665
 1949SOL    HW1 6746   5.173   4.142   6.733
 1949SOL    HW2 6747   5.214   4.113   6.578
 1950SOL     OW 6748   3.050   3.847   0.404
 1950SOL    HW1 6749   3.127   3.852   0.467
 1950SOL    HW2 6750   3.074   3.786   0.328
 1951SOL     OW 6751   6.969   2.173   0.038
 1951SOL    HW1 6752   6.920   2.141   0.120
 1951SOL    HW2 6753   0.044   2.183   0.059
 1952SOL     OW 6754   3.819   1.684   5.760
 1952SOL    HW1 6755   3.842   1.702   5.856
 1952SOL    HW2 6756   3.744   1.617   5.756
 1953SOL     OW 6757   0.145   3.416   5.696
 1953SOL    HW1 6758   0.124   3.328   5.740
 1953SOL    HW2 6759   0.231   3.408   5.647
 1954SOL     OW 6760   3.447   2.074   3.851
 1954SOL    HW1 6761   3.373   2.124   3.895
 1954SOL    HW2 6762   3.443   1.978   3.878
 1955SOL     OW 6763   6.698   6.067   2.719
 1955SOL    HW1 6764   6.717   6.098   2.625
 1955SOL    HW2 6765   6.639   6.134   2.764
 1956SOL     OW 6766   5.861   5.970   2.783
 1956SOL    HW1 6767   5.810   6.013   2.857
 1956SOL    HW2 6768   5.816   5.884   2.757
 1957SOL     OW 6769   1.063   6.945   5.044
 1957SOL    HW1 6770   1.138   6.883   5.067
 1957SOL    HW2 6771   1.028   6.922   4.953
 1958SOL     OW 6772   5.462   3.840   5.840
 1958SOL    HW1 6773   5.454   3.763   5.776
 1958SOL    HW2 6774   5.558   3.856   5.862
 1959SOL     OW 6775   1.333   2.160   6.489
 1959SOL    HW1 6776   1.274   2.171   6.569
 1959SOL    HW2 6777   1.336   2.063   6.464
 1960SOL     OW 6778   5.651   6.187   1.268
 1960SOL    HW1 6779   5.667   6.107   1.325
 1960SOL    HW2 6780   5.691   6.268   1.310
 1961SOL     OW 6781   5.810   4.760   4.178
 1961SOL    HW1 6782   5.781   4.731   4.087
 1961SOL    HW2 6783   5.817   4.860   4.180
 1962SOL     OW 6784   6.763   6.480   2.794
 1962SOL    HW1 6785   6.744   6.389   2.832
 1962SOL    HW2 6786   6.678   6.528   2.777
 1963SOL     OW 6787   1.616   0.138   2.829
 1963SOL    HW1 6788   1.560   0.149   2.747
 1963SOL    HW2 6789   1.663   0.225   2.848
 1964SOL     OW 6790   5.843   3.323   2.855
 1964SOL    HW1 6791   5.905   3.282   2.788
 1964SOL    HW2 6792   5.881   3.409   2.888
 1965SOL     OW 6793   2.018   4.803   3.548
 1965SOL    HW1 6794   1.999   4.752   3.464
 1965SOL    HW2 6795   2.107   4.847   3.540
 1966SOL     OW 6796   6.472   5.465   6.083
 1966SOL    HW1 6797   6.396   5.400   6.095
 1966SOL    HW2 6798   6.559   5.415   6.082
 1967SOL     OW 6799   4.898   2.160   4.873
 1967SOL    HW1 6800   4.945   2.244   4.847
 1967SOL    HW2 6801   4.841   2.128   4.797
 1968SOL     OW 6802   3.295   5.321   6.288
 1968SOL    HW1 6803   3.251   5.382   6.221
 1968SOL    HW2 6804   3.224   5.279   6.345
 1969SOL     OW 6805   6.639   2.825   1.425
 1969SOL    HW1 6806   6.642   2.823   1.525
 1969SOL    HW2 6807   6.561   2.771   1.393
 1970SOL     OW 6808   1.626   0.061   3.655
 1970SOL    HW1 6809   1.565   0.004   3.709
 1970SOL    HW2 6810   1.715   0.067   3.701
 1971SOL     OW 6811   0.341   6.227   6.634
 1971SOL    HW1 6812   0.319   6.238   6.730
 1971SOL    HW2 6813   0.285   6.153   6.595
 1972SOL     OW 6814   0.737   5.134   4.254
 1972SOL    HW1 6815   0.712   5.216   4.306
 1972SOL    HW2 6816   0.741   5.157   4.157
 1973SOL     OW 6817   3.044   2.938   0.551
 1973SOL    HW1 6818   2.957   2.902   0.583
 1973SOL    HW2 6819   3.119   2.900   0.605
 1974SOL     OW 6820   5.465   0.514   4.348
 1974SOL    HW1 6821   5.388   0.485   4.404
 1974SOL    HW2 6822   5.550   0.503   4.399
 1975SOL     OW 6823   3.462   0.376   3.330
 1975SOL    HW1 6824   3.442   0.325   3.413
 1975SOL    HW2 6825   3.470   0.473   3.352
 1976SOL     OW 6826   0.288   4.970   0.383
 1976SOL    HW1 6827   0.370   4.935   0.339
 1976SOL    HW2 6828   0.237   5.027   0.318
 1977SOL     OW 6829   1.513   2.856   5.064
 1977SOL    HW1 6830   1.601   2.891   5.097
 1977SOL    HW2 6831   1.509   2.757   5.079
 1978SOL     OW 6832   6.638   1.312   5.041
 1978SOL    HW1 6833   6.718   1.370   5.025
 1978SOL    HW2 6834   6.559   1.351   4.996
 1979SOL     OW 6835   5.479   4.965   3.413
 1979SOL    HW1 6836   5.402   4.918   3.455
 1979SOL    HW2 6837   5.523   4.905   3.346
 1980SOL     OW 6838   4.248   0.480   1.533
 1980SOL    HW1 6839   4.294   0.568   1.536
 1980SOL    HW2 6840   4.166   0.487   1.476
 1981SOL     OW 6841   4.558   3.256   1.719
 1981SOL    HW1 6842   4.596   3.178   1.770
 1981SOL    HW2 6843   4.467   3.277   1.754
 1982SOL     OW 6844   5.613   6.194   5.061
 1982SOL    HW1 6845   5.526   6.227   5.098
 1982SOL    HW2 6846   5.599   6.108   5.013
 1983SOL     OW 6847   0.545   3.712   3.166
 1983SOL    HW1 6848   0.605   3.660   3.105
 1983SOL    HW2 6849   0.562   3.810   3.154
 1984SOL     OW 6850   4.301   0.489   5.781
 1984SOL    HW1 6851   4.250   0.463   5.699
 1984SOL    HW2 6852   4.238   0.494   5.859
 1985SOL     OW 6853   1.678   0.980   1.550
 1985SOL    HW1 6854   1.619   0.946   1.624
 1985SOL    HW2 6855   1.770   0.994   1.585
 1986SOL     OW 6856   1.436   1.509   5.800
 1986SOL    HW1 6857   1.377   1.453   5.741
 1986SOL    HW2 6858   1.475   1.584   5.747
 1987SOL     OW 6859   2.800   3.044   6.819
 1987SOL    HW1 6860   2.889   2.998   6.816
 1987SOL    HW2 6861   2.793   3.109   6.743
 1988SOL     OW 6862   4.238   3.411   0.829
 1988SOL    HW1 6863   4.314   3.435   0.769
 1988SOL    HW2 6864   4.236   3.475   0.907
 1989SOL     OW 6865   2.370   0.549   4.465
 1989SOL    HW1 6866   2.380   0.556   4.366
 1989SOL    HW2 6867   2.460   0.543   4.508
 1990SOL     OW 6868   2.871   0.638   1.741
 1990SOL    HW1 6869   2.888   0.636   1.840
 1990SOL    HW2 6870   2.955   0.664   1.694
 1991SOL     OW 6871   3.118   5.628   4.450
 1991SOL    HW1 6872   3.186   5.559   4.425
 1991SOL    HW2 6873   3.092   5.680   4.368
 1992SOL     OW 6874   2.045   6.964   5.165
 1992SOL    HW1 6875   2.126   6.966   5.225
 1992SOL    HW2 6876   2.037   0.030   5.118
 1993SOL     OW 6877   3.977   3.216   5.058
 1993SOL    HW1 6878   3.924   3.132   5.045
 1993SOL    HW2 6879   4.005   3.223   5.154
 1994SOL     OW 6880   6.424   2.298   2.403
 1994SOL    HW1 6881   6.467   2.208   2.416
 1994SOL    HW2 6882   6.469   2.345   2.327
 1995SOL     OW 6883   5.458   2.326   1.909
 1995SOL    HW1 6884   5.515   2.246   1.928
 1995SOL    HW2 6885   5.370   2.298   1.872
 1996SOL     OW 6886   3.235   4.309   0.287
 1996SOL    HW1 6887   3.197   4.336   0.376
 1996SOL    HW2 6888   3.204   4.371   0.216
 1997SOL     OW 6889   5.494   0.931   3.749
 1997SOL    HW1 6890   5.525   0.837   3.732
 1997SOL    HW2 6891   5.548   0.971   3.823
 1998SOL     OW 6892   2.981   4.764   5.280
 1998SOL    HW1 6893   3.062   4.800   5.233
 1998SOL    HW2 6894   2.942   4.689   5.226
 1999SOL     OW 6895   2.272   1.043   1.873
 1999SOL    HW1 6896   2.249   0.946   1.873
 1999SOL    HW2 6897   2.295   1.072   1.779
 2000SOL     OW 6898   3.860   1.747   4.892
 2000SOL    HW1 6899   3.808   1.745   4.977
 2000SOL    HW2 6900   3.910   1.833   4.885
 2001SOL     OW 6901   3.118   2.055   1.094
 2001SOL    HW1 6902   3.026   2.016   1.088
 2001SOL    HW2 6903   3.185   1.987   1.066
 2002SOL     OW 6904   2.144   5.066   5.204
 2002SOL    HW1 6905   2.215   4.996   5.216
 2002SOL    HW2 6906   2.056   5.029   5.235
 2003SOL     OW 6907   6.041   6.074   4.073
 2003SOL    HW1 6908   5.964   6.117   4.027
 2003SOL    HW2 6909   6.009   6.026   4.155
 2004SOL     OW 6910   2.707   0.771   5.674
 2004SOL    HW1 6911   2.677   0.739   5.584
 2004SOL    HW2 6912   2.740   0.865   5.666
 2005SOL     OW 6913   2.574   6.080   5.623
 2005SOL    HW1 6914   2.513   6.077   5.543
 2005SOL    HW2 6915   2.587   5.988   5.658
 2006SOL     OW 6916   3.700   5.014   3.968
 2006SOL    HW1 6917   3.787   5.000   3.922
 2006SOL    HW2 6918   3.714   5.016   4.067
 2007SOL     OW 6919   5.439   5.960   0.791
 2007SOL    HW1 6920   5.380   5.887   0.827
 2007SOL    HW2 6921   5.391   6.048   0.797
 2008SOL     OW 6922   0.244   5.637   4.303
 2008SOL    HW1 6923   0.275   5.607   4.212
 2008SOL    HW2 6924   0.197   5.725   4.294
 2009SOL     OW 6925   0.010   0.182   2.204
 2009SOL    HW1 6926   0.083   0.114   2.198
 2009SOL    HW2 6927   0.042   0.269   2.166
 2010SOL     OW 6928   1.527   0.701   0.324
 2010SOL    HW1 6929   1.491   0.782   0.278
 2010SOL    HW2 6930   1.627   0.704   0.323
 2011SOL     OW 6931   0.021   1.873   5.178
 2011SOL    HW1 6932   7.016   1.962   5.214
 2011SOL    HW2 6933   0.023   1.876   5.078
 2012SOL     OW 6934   1.236   3.857   1.043
 2012SOL    HW1 6935   1.313   3.894   0.990
 2012SOL    HW2 6936   1.226   3.760   1.024
 2013SOL     OW 6937   5.070   1.588   2.307
 2013SOL    HW1 6938   5.024   1.507   2.345
 2013SOL    HW2 6939   5.159   1.599   2.350
 2014SOL     OW 6940   2.157   5.614   2.646
 2014SOL    HW1 6941   2.128   5.706   2.618
 2014SOL    HW2 6942   2.092   5.547   2.612
 2015SOL     OW 6943   3.236   0.502   6.981
 2015SOL    HW1 6944   3.239   0.415   6.931
 2015SOL    HW2 6945   3.263   0.576   6.920
 2016SOL     OW 6946   0.311   5.185   4.629
 2016SOL    HW1 6947   0.332   5.172   4.532
 2016SOL    HW2 6948   0.215   5.166   4.645
 2017SOL     OW 6949   2.745   5.735   2.631
 2017SOL    HW1 6950   2.730   5.790   2.549
 2017SOL    HW2 6951   2.761   5.796   2.709
 2018SOL     OW 6952   0.680   5.563   5.472
 2018SOL    HW1 6953   0.756   5.629   5.474
 2018SOL    HW2 6954   0.684   5.506   5.553
 2019SOL     OW 6955   6.234   2.135   2.619
 2019SOL    HW1 6956   6.245   2.227   2.582
 2019SOL    HW2 6957   6.266   2.068   2.552
 2020SOL     OW 6958   2.904   5.959   3.152
 2020SOL    HW1 6959   2.992   5.990   3.115
 2020SOL    HW2 6960   2.830   5.988   3.092
 2021SOL     OW 6961   1.300   0.822   2.395
 2021SOL    HW1 6962   1.234   0.813   2.470
 2021SOL    HW2 6963   1.296   0.741   2.337
 2022SOL     OW 6964   1.953   3.835   1.410
 2022SOL    HW1 6965   1.964   3.785   1.324
 2022SOL    HW2 6966   1.942   3.770   1.485
 2023SOL     OW 6967   6.880   0.930   5.797
 2023SOL    HW1 6968   6.949   0.993   5.761
 2023SOL    HW2 6969   6.924   0.845   5.826
 2024SOL     OW 6970   5.816   1.319   4.035
 2024SOL    HW1 6971   5.722   1.352   4.027
 2024SOL    HW2 6972   5.879   1.395   4.022
 2025SOL     OW 6973   0.104   1.371   1.738
 2025SOL    HW1 6974   0.063   1.422   1.814
 2025SOL    HW2 6975   0.053   1.285   1.724
 2026SOL     OW 6976   1.612   1.630   5.223
 2026SOL    HW1 6977   1.649   1.614   5.315
 2026SOL    HW2 6978   1.674   1.590   5.155
 2027SOL     OW 6979   0.751   1.504   2.852
 2027SOL    HW1 6980   0.716   1.436   2.788
 2027SOL    HW2 6981   0.712   1.593   2.833
 2028SOL     OW 6982   4.044   2.999   0.022
 2028SOL    HW1 6983   4.049   3.002   0.122
 2028SOL    HW2 6984   3.971   3.060   7.012
 2029SOL     OW 6985   0.713   1.366   0.036
 2029SOL    HW1 6986   0.713   1.461   0.067
 2029SOL    HW2 6987   0.802   1.325   0.053
 2030SOL     OW 6988   1.666   1.094   3.356
 2030SOL    HW1 6989   1.666   1.119   3.259
 2030SOL    HW2 6990   1.760   1.086   3.389
 2031SOL     OW 6991   5.903   6.959   1.854
 2031SOL    HW1 6992   5.851   0.012   1.895
 2031SOL    HW2 6993   5.920   6.888   1.921
 2032SOL     OW 6994   5.146   0.058   1.385
 2032SOL    HW1 6995   5.145   0.073   1.484
 2032SOL    HW2 6996   5.056   0.026   1.356
 2033SOL     OW 6997   5.630   5.127   6.693
 2033SOL    HW1 6998   5.599   5.106   6.600
 2033SOL    HW2 6999   5.653   5.224   6.700
 2034SOL     OW 7000   2.009   0.163   2.746
 2034SOL    HW1 7001   2.105   0.182   2.766
 2034SOL    HW2 7002   1.998   0.145   2.648
 2035SOL     OW 7003   1.277   2.519   2.577
 2035SOL    HW1 7004   1.271   2.447   2.646
 2035SOL    HW2 7005   1.282   2.477   2.486
 2036SOL     OW 7006   1.808   4.571   0.431
 2036SOL    HW1 7007   1.781   4.475   0.446
 2036SOL    HW2 7008   1.906   4.575   0.410
 2037SOL     OW 7009   0.073   1.323   5.827
 2037SOL    HW1 7010   0.169   1.341   5.843
 2037SOL    HW2 7011   0.026   1.408   5.804
 2038SOL     OW 7012   0.468   0.809   4.080
 2038SOL    HW1 7013   0.469   0.800   3.981
 2038SOL    HW2 7014   0.543   0.755   4.119
 2039SOL     OW 7015   0.177   4.907   2.151
 2039SOL    HW1 7016   0.176   4.976   2.078
 2039SOL    HW2 7017   0.229   4.828   2.120
 2040SOL     OW 7018   3.938   3.279   4.222
 2040SOL    HW1 7019   3.950   3.192   4.268
 2040SOL    HW2 7020   3.931   3.264   4.123
 2041SOL     OW 7021   6.332   4.108   5.839
 2041SOL    HW1 7022   6.379   4.189   5.804
 2041SOL    HW2 7023   6.293   4.057   5.763
 2042SOL     OW 7024   4.359   5.472   6.952
 2042SOL    HW1 7025   4.418   5.468   0.011
 2042SOL    HW2 7026   4.400   5.420   6.878
 2043SOL     OW 7027   5.796   4.611   2.007
 2043SOL    HW1 7028   5.793   4.708   1.981
 2043SOL    HW2 7029   5.704   4.572   2.002
 2044SOL     OW 7030   6.657   6.862   1.956
 2044SOL    HW1 7031   6.736   6.918   1.981
 2044SOL    HW2 7032   6.683   6.795   1.887
 2045SOL     OW 7033   2.323   5.146   6.298
 2045SOL    HW1 7034   2.228   5.116   6.291
 2045SOL    HW2 7035   2.370   5.129   6.211
 2046SOL     OW 7036   6.619   0.096   4.798
 2046SOL    HW1 7037   6.697   0.136   4.749
 2046SOL    HW2 7038   6.586   0.016   4.749
 2047SOL     OW 7039   5.404   2.502   0.189
 2047SOL    HW1 7040   5.337   2.545   0.128
 2047SOL    HW2 7041   5.461   2.440   0.136
 2048SOL     OW 7042   4.961   0.114   5.815
 2048SOL    HW1 7043   4.969   0.014   5.811
 2048SOL    HW2 7044   4.948   0.142   5.910
 2049SOL     OW 7045   4.581   0.482   0.223
 2049SOL    HW1 7046   4.561   0.388   0.195
 2049SOL    HW2 7047   4.679   0.500   0.213
 2050SOL     OW 7048   5.639   2.968   3.780
 2050SOL    HW1 7049   5.660   2.882   3.732
 2050SOL    HW2 7050   5.696   3.041   3.742
 2051SOL     OW 7051   1.764   5.824   0.491
 2051SOL    HW1 7052   1.783   5.781   0.403
 2051SOL    HW2 7053   1.678   5.789   0.527
 2052SOL     OW 7054   0.989   2.820   0.844
 2052SOL    HW1 7055   1.037   2.751   0.897
 2052SOL    HW2 7056   1.035   2.832   0.755
 2053SOL     OW 7057   6.118   0.565   0.068
 2053SOL    HW1 7058   6.101   0.512   0.152
 2053SOL    HW2 7059   6.201   0.619   0.079
 2054SOL     OW 7060   5.661   2.205   0.406
 2054SOL    HW1 7061   5.673   2.301   0.430
 2054SOL    HW2 7062   5.567   2.189   0.377
 2055SOL     OW 7063   5.539   2.601   4.363
 2055SOL    HW1 7064   5.615   2.666   4.354
 2055SOL    HW2 7065   5.487   2.621   4.446
 2056SOL     OW 7066   2.360   0.539   3.296
 2056SOL    HW1 7067   2.333   0.580   3.209
 2056SOL    HW2 7068   2.306   0.456   3.312
 2057SOL     OW 7069   0.145   3.467   4.116
 2057SOL    HW1 7070   0.224   3.497   4.169
 2057SOL    HW2 7071   0.112   3.379   4.150
 2058SOL     OW 7072   6.785   2.124   2.078
 2058SOL    HW1 7073   6.851   2.071   2.132
 2058SOL    HW2 7074   6.743   2.193   2.136
 2059SOL     OW 7075   1.859   1.691   6.826
 2059SOL    HW1 7076   1.891   1.667   6.734
 2059SOL    HW2 7077   1.769   1.733   6.820
 2060SOL     OW 7078   7.005   5.047   2.371
 2060SOL    HW1 7079   6.987   5.118   2.439
 2060SOL    HW2 7080   0.082   5.038   2.357
 2061SOL     OW 7081   6.682   1.605   2.069
 2061SOL    HW1 7082   6.651   1.700   2.063
 2061SOL    HW2 7083   6.655   1.555   1.987
 2062SOL     OW 7084   4.934   0.455   3.203
 2062SOL    HW1 7085   4.847   0.450   3.253
 2062SOL    HW2 7086   4.976   0.365   3.200
 2063SOL     OW 7087   1.963   2.632   6.322
 2063SOL    HW1 7088   2.024   2.566   6.277
 2063SOL    HW2 7089   1.877   2.587   6.345
 2064SOL     OW 7090   1.128   2.608   0.106
 2064SOL    HW1 7091   1.108   2.674   0.178
 2064SOL    HW2 7092   1.209   2.554   0.131
 2065SOL     OW 7093   6.133   4.000   1.559
 2065SOL    HW1 7094   6.200   4.022   1.630
 2065SOL    HW2 7095   6.043   4.034   1.587
 2066SOL     OW 7096   0.875   0.205   4.269
 2066SOL    HW1 7097   0.856   0.215   4.171
 2066SOL    HW2 7098   0.805   0.255   4.321
 2067SOL     OW 7099   6.807   6.662   1.441
 2067SOL    HW1 7100   6.772   6.693   1.353
 2067SOL    HW2 7101   6.863   6.734   1.482
 2068SOL     OW 7102   1.556   1.862   5.376
 2068SOL    HW1 7103   1.599   1.793   5.318
 2068SOL    HW2 7104   1.489   1.914   5.322
 2069SOL     OW 7105   0.792   2.400   2.071
 2069SOL    HW1 7106   0.887   2.421   2.046
 2069SOL    HW2 7107   0.736   2.482   2.060
 2070SOL     OW 7108   1.284   1.322   2.662
 2070SOL    HW1 7109   1.360   1.340   2.599
 2070SOL    HW2 7110   1.201   1.366   2.627
 2071SOL     OW 7111   1.478   6.840   4.453
 2071SOL    HW1 7112   1.533   6.837   4.370
 2071SOL    HW2 7113   1.480   6.750   4.498
 2072SOL     OW 7114   4.854   5.523   1.871
 2072SOL    HW1 7115   4.789   5.464   1.823
 2072SOL    HW2 7116   4.893   5.590   1.808
 2073SOL     OW 7117   3.001   6.955   6.055
 2073SOL    HW1 7118   2.928   6.954   6.124
 2073SOL    HW2 7119   3.065   6.880   6.073
 2074SOL     OW 7120   6.099   1.542   1.883
 2074SOL    HW1 7121   6.189   1.584   1.875
 2074SOL    HW2 7122   6.088   1.473   1.811
 2075SOL     OW 7123   4.293   3.246   0.594
 2075SOL    HW1 7124   4.238   3.219   0.673
 2075SOL    HW2 7125   4.389   3.249   0.621
 2076SOL     OW 7126   5.555   6.805   1.177
 2076SOL    HW1 7127   5.498   6.887   1.170
 2076SOL    HW2 7128   5.514   6.742   1.243
 2077SOL     OW 7129   5.323   1.111   2.654
 2077SOL    HW1 7130   5.245   1.160   2.615
 2077SOL    HW2 7131   5.360   1.163   2.731
 2078SOL     OW 7132   3.318   4.576   5.908
 2078SOL    HW1 7133   3.308   4.488   5.862
 2078SOL    HW2 7134   3.270   4.573   5.996
 2079SOL     OW 7135   5.335   1.208   3.972
 2079SOL    HW1 7136   5.276   1.259   4.035
 2079SOL    HW2 7137   5.339   1.112   4.000
 2080SOL     OW 7138   2.631   2.335   4.635
 2080SOL    HW1 7139   2.656   2.311   4.729
 2080SOL    HW2 7140   2.533   2.353   4.631
 2081SOL     OW 7141   0.451   6.275   5.300
 2081SOL    HW1 7142   0.397   6.280   5.384
 2081SOL    HW2 7143   0.436   6.357   5.245
 2082SOL     OW 7144   6.073   1.005   1.201
 2082SOL    HW1 7145   6.161   1.018   1.155
 2082SOL    HW2 7146   6.073   1.055   1.287
 2083SOL     OW 7147   3.880   4.741   6.086
 2083SOL    HW1 7148   3.814   4.813   6.065
 2083SOL    HW2 7149   3.913   4.700   6.001
 2084SOL     OW 7150   6.965   2.944   3.150
 2084SOL    HW1 7151   6.947   3.042   3.152
 2084SOL    HW2 7152   6.944   2.908   3.059
 2085SOL     OW 7153   4.945   0.646   5.758
 2085SOL    HW1 7154   4.905   0.587   5.828
 2085SOL    HW2 7155   4.923   0.741   5.778
 2086SOL     OW 7156   2.426   5.227   0.317
 2086SOL    HW1 7157   2.430   5.176   0.402
 2086SOL    HW2 7158   2.439   5.324   0.335
 2087SOL     OW 7159   5.190   0.268   3.351
 2087SOL    HW1 7160   5.257   0.216   3.403
 2087SOL    HW2 7161   5.104   0.216   3.347
 2088SOL     OW 7162   3.511   0.173   0.813
 2088SOL    HW1 7163   3.447   0.112   0.769
 2088SOL    HW2 7164   3.525   0.144   0.908
 2089SOL     OW 7165   4.527   0.617   6.420
 2089SOL    HW1 7166   4.559   0.628   6.514
 2089SOL    HW2 7167   4.442   0.668   6.407
 2090SOL     OW 7168   3.674   3.891   4.845
 2090SOL    HW1 7169   3.644   3.879   4.940
 2090SOL    HW2 7170   3.652   3.809   4.793
 2091SOL     OW 7171   1.968   5.144   1.399
 2091SOL    HW1 7172   1.872   5.167   1.419
 2091SOL    HW2 7173   2.002   5.081   1.468
 2092SOL     OW 7174   6.682   6.230   1.059
 2092SOL    HW1 7175   6.749   6.240   1.133
 2092SOL    HW2 7176   6.681   6.313   1.003
 2093SOL     OW 7177   0.949   3.028   2.056
 2093SOL    HW1 7178   0.968   3.124   2.076
 2093SOL    HW2 7179   0.851   3.012   2.062
 2094SOL     OW 7180   6.039   0.200   2.255
 2094SOL    HW1 7181   6.042   0.113   2.205
 2094SOL    HW2 7182   6.133   0.231   2.273
 2095SOL     OW 7183   5.629   5.501   4.837
 2095SOL    HW1 7184   5.610   5.408   4.803
 2095SOL    HW2 7185   5.643   5.498   4.936
 2096SOL     OW 7186   4.677   4.234   2.369
 2096SOL    HW1 7187   4.584   4.213   2.339
 2096SOL    HW2 7188   4.728   4.274   2.292
 2097SOL     OW 7189   0.249   2.638   0.127
 2097SOL    HW1 7190   0.195   2.721   0.114
 2097SOL    HW2 7191   0.331   2.642   0.070
 2098SOL     OW 7192   4.498   0.222   4.289
 2098SOL    HW1 7193   4.460   0.137   4.326
 2098SOL    HW2 7194   4.491   0.220   4.189
 2099SOL     OW 7195   3.303   1.158   3.821
 2099SOL    HW1 7196   3.249   1.236   3.853
 2099SOL    HW2 7197   3.348   1.115   3.900
 2100SOL     OW 7198   4.841   4.271   6.448
 2100SOL    HW1 7199   4.779   4.201   6.482
 2100SOL    HW2 7200   4.810   4.361   6.478
 2101SOL     OW 7201   0.121   0.264   3.272
 2101SOL    HW1 7202   0.083   0.336   3.214
 2101SOL    HW2 7203   0.194   0.215   3.223
 2102SOL     OW 7204   6.994   5.144   3.535
 2102SOL    HW1 7205   6.959   5.051   3.540
 2102SOL    HW2 7206   0.065   5.143   3.497
 2103SOL     OW 7207   3.509   3.421   6.663
 2103SOL    HW1 7208   3.601   3.455   6.644
 2103SOL    HW2 7209   3.447   3.498   6.677
 2104SOL     OW 7210   1.597   3.223   5.387
 2104SOL    HW1 7211   1.557   3.266   5.307
 2104SOL    HW2 7212   1.679   3.171   5.359
 2105SOL     OW 7213   6.088   6.024   1.953
 2105SOL    HW1 7214   6.090   6.118   1.986
 2105SOL    HW2 7215   6.144   5.967   2.013
 2106SOL     OW 7216   5.124   5.430   6.641
 2106SOL    HW1 7217   5.161   5.424   6.548
 2106SOL    HW2 7218   5.031   5.466   6.637
 2107SOL     OW 7219   4.551   4.051   5.768
 2107SOL    HW1 7220   4.621   4.057   5.840
 2107SOL    HW2 7221   4.512   4.141   5.751
 2108SOL     OW 7222   5.798   5.189   5.465
 2108SOL    HW1 7223   5.844   5.166   5.551
 2108SOL    HW2 7224   5.752   5.108   5.429
 2109SOL     OW 7225   5.478   6.209   2.462
 2109SOL    HW1 7226   5.577   6.221   2.455
 2109SOL    HW2 7227   5.431   6.283   2.414
 2110SOL     OW 7228   2.807   4.157   6.270
 2110SOL    HW1 7229   2.796   4.199   6.360
 2110SOL    HW2 7230   2.771   4.218   6.200
 2111SOL     OW 7231   1.405   2.955   0.220
 2111SOL    HW1 7232   1.414   3.051   0.193
 2111SOL    HW2 7233   1.402   2.949   0.320
 2112SOL     OW 7234   4.873   3.028   1.455
 2112SOL    HW1 7235   4.924   3.076   1.525
 2112SOL    HW2 7236   4.906   2.934   1.448
 2113SOL     OW 7237   0.906   0.531   2.806
 2113SOL    HW1 7238   0.815   0.494   2.821
 2113SOL    HW2 7239   0.945   0.562   2.892
 2114SOL     OW 7240   1.945   3.819   0.115
 2114SOL    HW1 7241   1.963   3.750   0.044
 2114SOL    HW2 7242   1.854   3.856   0.102
 2115SOL     OW 7243   1.927   4.477   2.216
 2115SOL    HW1 7244   1.948   4.438   2.126
 2115SOL    HW2 7245   1.840   4.527   2.210
 2116SOL     OW 7246   0.377   4.488   3.500
 2116SOL    HW1 7247   0.310   4.428   3.543
 2116SOL    HW2 7248   0.357   4.583   3.524
 2117SOL     OW 7249   0.914   5.145   1.023
 2117SOL    HW1 7250   0.920   5.045   1.023
 2117SOL    HW2 7251   0.953   5.181   1.108
 2118SOL     OW 7252   0.243   4.009   2.405
 2118SOL    HW1 7253   0.253   3.910   2.409
 2118SOL    HW2 7254   0.318   4.052   2.456
 2119SOL     OW 7255   2.109   5.805   1.400
 2119SOL    HW1 7256   2.156   5.866   1.464
 2119SOL    HW2 7257   2.109   5.845   1.309
 2120SOL     OW 7258   6.549   4.852   2.241
 2120SOL    HW1 7259   6.545   4.767   2.187
 2120SOL    HW2 7260   6.588   4.832   2.330
 2121SOL     OW 7261   0.153   5.640   5.213
 2121SOL    HW1 7262   0.126   5.591   5.296
 2121SOL    HW2 7263   0.234   5.595   5.173
 2122SOL     OW 7264   4.591   4.391   4.780
 2122SOL    HW1 7265   4.535   4.339   4.844
 2122SOL    HW2 7266   4.539   4.470   4.746
 2123SOL     OW 7267   6.569   4.820   3.000
 2123SOL    HW1 7268   6.500   4.786   2.936
 2123SOL    HW2 7269   6.525   4.869   3.075
 2124SOL     OW 7270   2.222   1.982   1.004
 2124SOL    HW1 7271   2.183   2.006   0.915
 2124SOL    HW2 7272   2.151   1.948   1.064
 2125SOL     OW 7273   2.911   0.778   0.460
 2125SOL    HW1 7274   2.890   0.742   0.370
 2125SOL    HW2 7275   2.955   0.707   0.516
 2126SOL     OW 7276   3.036   0.876   6.417
 2126SOL    HW1 7277   3.051   0.825   6.502
 2126SOL    HW2 7278   2.944   0.858   6.383
 2127SOL     OW 7279   5.664   3.097   4.753
 2127SOL    HW1 7280   5.642   3.093   4.851
 2127SOL    HW2 7281   5.720   3.178   4.735
 2128SOL     OW 7282   0.753   4.745   4.549
 2128SOL    HW1 7283   0.671   4.708   4.593
 2128SOL    HW2 7284   0.827   4.678   4.555
 2129SOL     OW 7285   4.136   1.765   5.805
 2129SOL    HW1 7286   4.092   1.785   5.717
 2129SOL    HW2 7287   4.228   1.805   5.806
 2130SOL     OW 7288   4.428   6.586   2.356
 2130SOL    HW1 7289   4.498   6.645   2.396
 2130SOL    HW2 7290   4.394   6.628   2.272
 2131SOL     OW 7291   6.866   1.303   0.439
 2131SOL    HW1 7292   6.868   1.401   0.457
 2131SOL    HW2 7293   6.948   1.261   0.478
 2132SOL     OW 7294   1.803   3.038   0.479
 2132SOL    HW1 7295   1.858   3.053   0.397
 2132SOL    HW2 7296   1.780   2.941   0.488
 2133SOL     OW 7297   2.635   2.729   5.763
 2133SOL    HW1 7298   2.646   2.828   5.759
 2133SOL    HW2 7299   2.538   2.707   5.767
 2134SOL     OW 7300   0.699   0.993   0.707
 2134SOL    HW1 7301   0.768   0.986   0.635
 2134SOL    HW2 7302   0.608   1.001   0.665
 2135SOL     OW 7303   0.587   3.965   4.374
 2135SOL    HW1 7304   0.581   3.988   4.277
 2135SOL    HW2 7305   0.665   4.013   4.415
 2136SOL     OW 7306   2.369   5.674   1.766
 2136SOL    HW1 7307   2.399   5.755   1.716
 2136SOL    HW2 7308   2.375   5.691   1.864
 2137SOL     OW 7309   2.427   5.382   4.098
 2137SOL    HW1 7310   2.423   5.481   4.093
 2137SOL    HW2 7311   2.472   5.354   4.183
 2138SOL     OW 7312   5.569   1.513   2.372
 2138SOL    HW1 7313   5.616   1.590   2.415
 2138SOL    HW2 7314   5.558   1.440   2.439
 2139SOL     OW 7315   3.209   1.112   5.339
 2139SOL    HW1 7316   3.281   1.143   5.402
 2139SOL    HW2 7317   3.203   1.175   5.262
 2140SOL     OW 7318   2.353   1.284   5.199
 2140SOL    HW1 7319   2.391   1.333   5.120
 2140SOL    HW2 7320   2.349   1.345   5.278
 2141SOL     OW 7321   6.227   4.326   2.019
 2141SOL    HW1 7322   6.234   4.258   1.946
 2141SOL    HW2 7323   6.186   4.283   2.100
 2142SOL     OW 7324   2.021   1.997   3.514
 2142SOL    HW1 7325   2.076   1.968   3.592
 2142SOL    HW2 7326   1.939   2.043   3.546
 2143SOL     OW 7327   2.094   4.507   0.875
 2143SOL    HW1 7328   2.081   4.594   0.923
 2143SOL    HW2 7329   2.154   4.522   0.796
 2144SOL     OW 7330   6.477   6.018   4.469
 2144SOL    HW1 7331   6.443   6.064   4.551
 2144SOL    HW2 7332   6.567   6.055   4.445
 2145SOL     OW 7333   4.240   6.202   3.877
 2145SOL    HW1 7334   4.275   6.143   3.949
 2145SOL    HW2 7335   4.261   6.298   3.898
 2146SOL     OW 7336   2.364   2.967   0.907
 2146SOL    HW1 7337   2.378   2.872   0.879
 2146SOL    HW2 7338   2.284   2.972   0.967
 2147SOL     OW 7339   5.702   1.303   5.283
 2147SOL    HW1 7340   5.734   1.215   5.247
 2147SOL    HW2 7341   5.643   1.346   5.216
 2148SOL     OW 7342   0.170   3.248   0.039
 2148SOL    HW1 7343   0.198   3.181   0.107
 2148SOL    HW2 7344   0.189   3.340   0.073
 2149SOL     OW 7345   0.636   0.223   6.917
 2149SOL    HW1 7346   0.549   0.271   6.933
 2149SOL    HW2 7347   0.619   0.143   6.860
 2150SOL     OW 7348   2.399   3.535   1.394
 2150SOL    HW1 7349   2.396   3.436   1.398
 2150SOL    HW2 7350   2.402   3.564   1.298
 2151SOL     OW 7351   1.276   5.324   7.010
 2151SOL    HW1 7352   1.311   5.418   7.010
 2151SOL    HW2 7353   1.312   5.275   0.067
 2152SOL     OW 7354   4.158   6.002   3.459
 2152SOL    HW1 7355   4.150   6.041   3.367
 2152SOL    HW2 7356   4.084   6.037   3.516
 2153SOL     OW 7357   4.895   1.338   3.466
 2153SOL    HW1 7358   4.914   1.242   3.486
 2153SOL    HW2 7359   4.981   1.388   3.455
 2154SOL     OW 7360   3.086   6.774   2.981
 2154SOL    HW1 7361   3.149   6.820   3.043
 2154SOL    HW2 7362   3.133   6.699   2.934
 2155SOL     OW 7363   4.675   0.026   1.179
 2155SOL    HW1 7364   4.667   0.121   1.146
 2155SOL    HW2 7365   4.584   7.011   1.197
 2156SOL     OW 7366   5.730   1.784   3.977
 2156SOL    HW1 7367   5.700   1.837   4.056
 2156SOL    HW2 7368   5.752   1.846   3.901
 2157SOL     OW 7369   3.468   5.402   3.703
 2157SOL    HW1 7370   3.408   5.430   3.629
 2157SOL    HW2 7371   3.494   5.306   3.690
 2158SOL     OW 7372   3.321   0.903   0.363
 2158SOL    HW1 7373   3.310   0.931   0.267
 2158SOL    HW2 7374   3.417   0.915   0.390
 2159SOL     OW 7375   1.206   0.291   5.904
 2159SOL    HW1 7376   1.260   0.213   5.935
 2159SOL    HW2 7377   1.213   0.365   5.972
 2160SOL     OW 7378   5.524   6.254   0.678
 2160SOL    HW1 7379   5.590   6.195   0.631
 2160SOL    HW2 7380   5.571   6.303   0.752
 2161SOL     OW 7381   1.638   2.843   2.564
 2161SOL    HW1 7382   1.653   2.924   2.621
 2161SOL    HW2 7383   1.674   2.860   2.472
 2162SOL     OW 7384   1.770   0.299   2.642
 2162SOL    HW1 7385   1.777   0.226   2.574
 2162SOL    HW2 7386   1.857   0.309   2.690
 2163SOL     OW 7387   1.487   3.131   1.787
 2163SOL    HW1 7388   1.391   3.111   1.768
 2163SOL    HW2 7389   1.514   3.215   1.741
 2164SOL     OW 7390   1.739   2.556   2.961
 2164SOL    HW1 7391   1.739   2.478   2.899
 2164SOL    HW2 7392   1.712   2.639   2.912
 2165SOL     OW 7393   0.250   1.817   4.173
 2165SOL    HW1 7394   0.205   1.905   4.162
 2165SOL    HW2 7395   0.296   1.791   4.088
 2166SOL     OW 7396   0.052   3.976   3.362
 2166SOL    HW1 7397   0.008   3.918   3.293
 2166SOL    HW2 7398   7.007   4.040   3.400
 2167SOL     OW 7399   2.132   1.981   4.103
 2167SOL    HW1 7400   2.179   1.925   4.172
 2167SOL    HW2 7401   2.034   1.982   4.123
 2168SOL     OW 7402   1.529   1.890   3.106
 2168SOL    HW1 7403   1.626   1.909   3.087
 2168SOL    HW2 7404   1.522   1.818   3.174
 2169SOL     OW 7405   0.212   1.020   2.105
 2169SOL    HW1 7406   0.157   1.010   2.022
 2169SOL    HW2 7407   0.190   1.107   2.149
 2170SOL     OW 7408   0.874   4.332   6.146
 2170SOL    HW1 7409   0.847   4.313   6.240
 2170SOL    HW2 7410   0.861   4.429   6.126
 2171SOL     OW 7411   0.596   5.182   0.894
 2171SOL    HW1 7412   0.666   5.120   0.928
 2171SOL    HW2 7413   0.533   5.132   0.834
 2172SOL     OW 7414   0.624   1.809   5.110
 2172SOL    HW1 7415   0.659   1.869   5.037
 2172SOL    HW2 7416   0.541   1.764   5.078
 2173SOL     OW 7417   5.337   0.376   5.332
 2173SOL    HW1 7418   5.351   0.418   5.421
 2173SOL    HW2 7419   5.421   0.385   5.278
 2174SOL     OW 7420   0.126   6.316   5.282
 2174SOL    HW1 7421   0.129   6.216   5.283
 2174SOL    HW2 7422   0.164   6.351   5.368
 2175SOL     OW 7423   3.214   3.535   5.221
 2175SOL    HW1 7424   3.299   3.584   5.202
 2175SOL    HW2 7425   3.137   3.597   5.209
 2176SOL     OW 7426   5.638   2.159   1.112
 2176SOL    HW1 7427   5.582   2.109   1.178
 2176SOL    HW2 7428   5.593   2.159   1.023
 2177SOL     OW 7429   0.480   0.530   3.543
 2177SOL    HW1 7430   0.452   0.597   3.473
 2177SOL    HW2 7431   0.399   0.488   3.582
 2178SOL     OW 7432   0.743   2.347   2.597
 2178SOL    HW1 7433   0.709   2.349   2.503
 2178SOL    HW2 7434   0.837   2.313   2.599
 2179SOL     OW 7435   1.725   4.392   6.464
 2179SOL    HW1 7436   1.668   4.389   6.546
 2179SOL    HW2 7437   1.806   4.335   6.478
 2180SOL     OW 7438   0.828   5.541   1.794
 2180SOL    HW1 7439   0.763   5.612   1.767
 2180SOL    HW2 7440   0.861   5.559   1.886
 2181SOL     OW 7441   4.138   4.771   3.969
 2181SOL    HW1 7442   4.206   4.712   4.014
 2181SOL    HW2 7443   4.174   4.864   3.963
 2182SOL     OW 7444   0.217   5.560   2.720
 2182SOL    HW1 7445   0.154   5.577   2.796
 2182SOL    HW2 7446   0.182   5.484   2.665
 2183SOL     OW 7447   3.753   2.770   0.225
 2183SOL    HW1 7448   3.848   2.773   0.255
 2183SOL    HW2 7449   3.709   2.858   0.243
 2184SOL     OW 7450   6.380   0.735   0.080
 2184SOL    HW1 7451   6.367   0.735   0.180
 2184SOL    HW2 7452   6.476   0.718   0.059
 2185SOL     OW 7453   0.320   1.428   6.662
 2185SOL    HW1 7454   0.389   1.470   6.721
 2185SOL    HW2 7455   0.329   1.328   6.666
 2186SOL     OW 7456   0.063   5.468   4.916
 2186SOL    HW1 7457   7.012   5.416   4.961
 2186SOL    HW2 7458   0.073   5.436   4.822
 2187SOL     OW 7459   0.679   5.463   3.012
 2187SOL    HW1 7460   0.607   5.485   2.945
 2187SOL    HW2 7461   0.733   5.545   3.030
 2188SOL     OW 7462   1.842   0.434   0.498
 2188SOL    HW1 7463   1.879   0.377   0.571
 2188SOL    HW2 7464   1.845   0.530   0.527
 2189SOL     OW 7465   2.756   1.656   1.513
 2189SOL    HW1 7466   2.714   1.671   1.424
 2189SOL    HW2 7467   2.691   1.678   1.586
 2190SOL     OW 7468   6.313   4.321   2.499
 2190SOL    HW1 7469   6.287   4.245   2.440
 2190SOL    HW2 7470   6.301   4.407   2.449
 2191SOL     OW 7471   2.722   0.648   6.046
 2191SOL    HW1 7472   2.637   0.700   6.057
 2191SOL    HW2 7473   2.736   0.589   6.126
 2192SOL     OW 7474   4.678   0.898   2.025
 2192SOL    HW1 7475   4.596   0.925   2.076
 2192SOL    HW2 7476   4.732   0.835   2.082
 2193SOL     OW 7477   0.096   6.932   6.362
 2193SOL    HW1 7478   0.033   6.921   6.285
 2193SOL    HW2 7479   0.154   6.851   6.370
 2194SOL     OW 7480   0.999   4.758   5.901
 2194SOL    HW1 7481   1.031   4.800   5.816
 2194SOL    HW2 7482   0.913   4.801   5.928
 2195SOL     OW 7483   0.302   4.388   6.534
 2195SOL    HW1 7484   0.351   4.302   6.518
 2195SOL    HW2 7485   0.366   4.456   6.569
 2196SOL     OW 7486   2.863   6.030   5.421
 2196SOL    HW1 7487   2.779   6.075   5.452
 2196SOL    HW2 7488   2.928   6.099   5.388
 2197SOL     OW 7489   2.690   4.730   5.496
 2197SOL    HW1 7490   2.635   4.789   5.554
 2197SOL    HW2 7491   2.650   4.725   5.405
 2198SOL     OW 7492   0.408   0.696   6.316
 2198SOL    HW1 7493   0.394   0.717   6.413
 2198SOL    HW2 7494   0.452   0.606   6.308
 2199SOL     OW 7495   3.911   6.868   4.591
 2199SOL    HW1 7496   3.820   6.879   4.630
 2199SOL    HW2 7497   3.914   6.911   4.501
 2200SOL     OW 7498   2.927   1.587   4.218
 2200SOL    HW1 7499   2.936   1.499   4.266
 2200SOL    HW2 7500   2.845   1.634   4.249
 2201SOL     OW 7501   6.349   3.744   3.969
 2201SOL    HW1 7502   6.340   3.755   4.068
 2201SOL    HW2 7503   6.321   3.827   3.922
 2202SOL     OW 7504   3.898   5.660   1.932
 2202SOL    HW1 7505   3.948   5.702   1.857
 2202SOL    HW2 7506   3.957   5.654   2.013
 2203SOL     OW 7507   2.147   3.628   1.108
 2203SOL    HW1 7508   2.080   3.555   1.121
 2203SOL    HW2 7509   2.104   3.706   1.063
 2204SOL     OW 7510   4.613   2.962   1.194
 2204SOL    HW1 7511   4.646   3.023   1.266
 2204SOL    HW2 7512   4.675   2.884   1.185
 2205SOL     OW 7513   1.768   5.699   0.216
 2205SOL    HW1 7514   1.695   5.766   0.219
 2205SOL    HW2 7515   1.744   5.626   0.152
 2206SOL     OW 7516   2.435   2.984   6.306
 2206SOL    HW1 7517   2.482   2.928   6.375
 2206SOL    HW2 7518   2.487   2.982   6.221
 2207SOL     OW 7519   4.459   5.948   0.846
 2207SOL    HW1 7520   4.376   5.946   0.790
 2207SOL    HW2 7521   4.458   6.029   0.904
 2208SOL     OW 7522   0.687   5.720   3.913
 2208SOL    HW1 7523   0.686   5.644   3.847
 2208SOL    HW2 7524   0.621   5.789   3.883
 2209SOL     OW 7525   2.928   5.351   5.037
 2209SOL    HW1 7526   2.994   5.347   4.962
 2209SOL    HW2 7527   2.969   5.397   5.116
 2210SOL     OW 7528   5.403   6.217   1.386
 2210SOL    HW1 7529   5.452   6.183   1.306
 2210SOL    HW2 7530   5.307   6.233   1.362
 2211SOL     OW 7531   6.662   0.771   0.875
 2211SOL    HW1 7532   6.710   0.721   0.947
 2211SOL    HW2 7533   6.582   0.720   0.847
 2212SOL     OW 7534   2.709   6.215   6.637
 2212SOL    HW1 7535   2.715   6.116   6.621
 2212SOL    HW2 7536   2.798   6.257   6.619
 2213SOL     OW 7537   3.778   2.116   4.245
 2213SOL    HW1 7538   3.804   2.166   4.328
 2213SOL    HW2 7539   3.729   2.033   4.270
 2214SOL     OW 7540   4.315   3.097   5.607
 2214SOL    HW1 7541   4.317   3.174   5.543
 2214SOL    HW2 7542   4.299   3.132   5.699
 2215SOL     OW 7543   4.935   0.491   6.660
 2215SOL    HW1 7544   5.013   0.449   6.613
 2215SOL    HW2 7545   4.910   0.576   6.615
 2216SOL     OW 7546   0.268   6.721   6.369
 2216SOL    HW1 7547   0.249   6.643   6.310
 2216SOL    HW2 7548   0.347   6.701   6.427
 2217SOL     OW 7549   4.064   0.453   2.852
 2217SOL    HW1 7550   4.019   0.480   2.767
 2217SOL    HW2 7551   4.045   0.521   2.923
 2218SOL     OW 7552   0.360   5.219   5.669
 2218SOL    HW1 7553   0.351   5.312   5.707
 2218SOL    HW2 7554   0.277   5.167   5.688
 2219SOL     OW 7555   5.254   1.340   0.341
 2219SOL    HW1 7556   5.352   1.324   0.338
 2219SOL    HW2 7557   5.206   1.253   0.331
 2220SOL     OW 7558   0.884   6.410   5.410
 2220SOL    HW1 7559   0.854   6.396   5.316
 2220SOL    HW2 7560   0.837   6.346   5.470
 2221SOL     OW 7561   0.115   1.034   4.817
 2221SOL    HW1 7562   0.029   1.080   4.792
 2221SOL    HW2 7563   0.181   1.044   4.743
 2222SOL     OW 7564   5.161   6.172   1.245
 2222SOL    HW1 7565   5.148   6.199   1.150
 2222SOL    HW2 7566   5.075   6.137   1.282
 2223SOL     OW 7567   6.720   0.234   5.548
 2223SOL    HW1 7568   6.631   0.214   5.590
 2223SOL    HW2 7569   6.706   0.290   5.466
 2224SOL     OW 7570   5.458   4.029   1.347
 2224SOL    HW1 7571   5.442   3.987   1.258
 2224SOL    HW2 7572   5.513   3.967   1.403
 2225SOL     OW 7573   0.584   6.578   3.241
 2225SOL    HW1 7574   0.520   6.593   3.166
 2225SOL    HW2 7575   0.559   6.494   3.290
 2226SOL     OW 7576   2.392   5.122   0.571
 2226SOL    HW1 7577   2.398   5.201   0.632
 2226SOL    HW2 7578   2.326   5.057   0.609
 2227SOL     OW 7579   4.243   2.304   1.911
 2227SOL    HW1 7580   4.262   2.374   1.843
 2227SOL    HW2 7581   4.322   2.243   1.920
 2228SOL     OW 7582   4.817   4.490   0.251
 2228SOL    HW1 7583   4.827   4.398   0.214
 2228SOL    HW2 7584   4.838   4.557   0.180
 2229SOL     OW 7585   3.424   3.499   4.563
 2229SOL    HW1 7586   3.389   3.579   4.514
 2229SOL    HW2 7587   3.400   3.416   4.512
 2230SOL     OW 7588   5.312   6.606   0.499
 2230SOL    HW1 7589   5.332   6.517   0.456
 2230SOL    HW2 7590   5.339   6.603   0.595
 2231SOL     OW 7591   0.657   1.110   6.960
 2231SOL    HW1 7592   0.632   1.137   6.867
 2231SOL    HW2 7593   0.690   1.190   7.010
 2232SOL     OW 7594   1.390   0.712   5.662
 2232SOL    HW1 7595   1.355   0.684   5.572
 2232SOL    HW2 7596   1.330   0.781   5.702
 2233SOL     OW 7597   3.345   3.119   1.210
 2233SOL    HW1 7598   3.367   3.185   1.281
 2233SOL    HW2 7599   3.258   3.144   1.167
 2234SOL     OW 7600   3.976   1.396   0.174
 2234SOL    HW1 7601   3.998   1.475   0.231
 2234SOL    HW2 7602   4.003   1.312   0.222
 2235SOL     OW 7603   2.692   0.980   2.303
 2235SOL    HW1 7604   2.632   1.055   2.279
 2235SOL    HW2 7605   2.725   0.935   2.220
 2236SOL     OW 7606   1.849   4.064   5.520
 2236SOL    HW1 7607   1.893   4.100   5.439
 2236SOL    HW2 7608   1.897   3.982   5.551
 2237SOL     OW 7609   5.404   4.972   5.097
 2237SOL    HW1 7610   5.378   4.893   5.042
 2237SOL    HW2 7611   5.501   4.993   5.082
 2238SOL     OW 7612   5.038   4.603   2.285
 2238SOL    HW1 7613   5.050   4.701   2.299
 2238SOL    HW2 7614   5.108   4.553   2.336
 2239SOL     OW 7615   3.954   6.716   3.617
 2239SOL    HW1 7616   3.922   6.807   3.591
 2239SOL    HW2 7617   3.950   6.708   3.717
 2240SOL     OW 7618   5.162   6.091   2.915
 2240SOL    HW1 7619   5.218   6.174   2.915
 2240SOL    HW2 7620   5.203   6.023   2.854
 2241SOL     OW 7621   0.546   6.871   1.661
 2241SOL    HW1 7622   0.631   6.925   1.664
 2241SOL    HW2 7623   0.516   6.852   1.754
 2242SOL     OW 7624   4.835   3.061   3.035
 2242SOL    HW1 7625   4.864   2.985   2.977
 2242SOL    HW2 7626   4.812   3.027   3.126
 2243SOL     OW 7627   1.778   6.481   0.561
 2243SOL    HW1 7628   1.856   6.491   0.623
 2243SOL    HW2 7629   1.800   6.415   0.489
 2244SOL     OW 7630   2.249   0.345   0.701
 2244SOL    HW1 7631   2.224   0.441   0.713
 2244SOL    HW2 7632   2.336   0.339   0.652
 2245SOL     OW 7633   0.438   1.203   0.687
 2245SOL    HW1 7634   0.500   1.225   0.611
 2245SOL    HW2 7635   0.436   1.279   0.751
 2246SOL     OW 7636   2.516   0.917   4.882
 2246SOL    HW1 7637   2.462   0.934   4.964
 2246SOL    HW2 7638   2.459   0.871   4.814
 2247SOL     OW 7639   3.348   4.137   2.520
 2247SOL    HW1 7640   3.393   4.205   2.462
 2247SOL    HW2 7641   3.412   4.064   2.542
 2248SOL     OW 7642   5.798   4.270   5.083
 2248SOL    HW1 7643   5.768   4.206   5.154
 2248SOL    HW2 7644   5.893   4.298   5.102
 2249SOL     OW 7645   2.700   6.536   4.086
 2249SOL    HW1 7646   2.680   6.465   4.154
 2249SOL    HW2 7647   2.617   6.556   4.034
 2250SOL     OW 7648   3.909   3.457   6.036
 2250SOL    HW1 7649   3.842   3.518   6.078
 2250SOL    HW2 7650   3.865   3.402   5.966
 2251SOL     OW 7651   5.479   6.412   6.349
 2251SOL    HW1 7652   5.579   6.416   6.346
 2251SOL    HW2 7653   5.441   6.488   6.296
 2252SOL     OW 7654   5.219   1.523   2.695
 2252SOL    HW1 7655   5.130   1.563   2.717
 2252SOL    HW2 7656   5.261   1.576   2.621
 2253SOL     OW 7657   0.529   3.295   0.745
 2253SOL    HW1 7658   0.622   3.258   0.742
 2253SOL    HW2 7659   0.473   3.238   0.805
 2254SOL     OW 7660   3.798   4.051   2.600
 2254SOL    HW1 7661   3.842   4.000   2.674
 2254SOL    HW2 7662   3.849   4.135   2.582
 2255SOL     OW 7663   2.813   4.166   5.404
 2255SOL    HW1 7664   2.791   4.090   5.342
 2255SOL    HW2 7665   2.901   4.205   5.379
 2256SOL     OW 7666   5.147   6.049   2.168
 2256SOL    HW1 7667   5.070   6.080   2.225
 2256SOL    HW2 7668   5.112   5.987   2.097
 2257SOL     OW 7669   0.138   1.618   4.506
 2257SOL    HW1 7670   0.081   1.688   4.550
 2257SOL    HW2 7671   0.225   1.660   4.478
 2258SOL     OW 7672   2.083   6.789   4.848
 2258SOL    HW1 7673   2.137   6.714   4.808
 2258SOL    HW2 7674   1.986   6.766   4.844
 2259SOL     OW 7675   6.566   2.709   4.391
 2259SOL    HW1 7676   6.640   2.649   4.361
 2259SOL    HW2 7677   6.580   2.800   4.352
 2260SOL     OW 7678   0.991   4.046   1.707
 2260SOL    HW1 7679   1.004   4.044   1.608
 2260SOL    HW2 7680   1.079   4.038   1.753
 2261SOL     OW 7681   5.782   3.511   0.246
 2261SOL    HW1 7682   5.835   3.566   0.310
 2261SOL    HW2 7683   5.701   3.562   0.217
 2262SOL     OW 7684   6.517   0.514   4.026
 2262SOL    HW1 7685   6.608   0.532   4.064
 2262SOL    HW2 7686   6.515   0.422   3.987
 2263SOL     OW 7687   1.376   4.829   0.443
 2263SOL    HW1 7688   1.448   4.846   0.511
 2263SOL    HW2 7689   1.291   4.804   0.490
 2264SOL     OW 7690   1.923   6.865   6.434
 2264SOL    HW1 7691   1.916   6.964   6.444
 2264SOL    HW2 7692   1.839   6.830   6.391
 2265SOL     OW 7693   1.366   6.959   3.880
 2265SOL    HW1 7694   1.392   6.934   3.787
 2265SOL    HW2 7695   1.365   6.877   3.938
 2266SOL     OW 7696   5.049   1.570   6.276
 2266SOL    HW1 7697   5.117   1.497   6.280
 2266SOL    HW2 7698   4.992   1.567   6.359
 2267SOL     OW 7699   4.597   2.623   4.762
 2267SOL    HW1 7700   4.624   2.528   4.783
 2267SOL    HW2 7701   4.599   2.677   4.846
 2268SOL     OW 7702   6.650   3.960   6.293
 2268SOL    HW1 7703   6.610   4.005   6.214
 2268SOL    HW2 7704   6.636   4.017   6.374
 2269SOL     OW 7705   1.288   3.184   5.159
 2269SOL    HW1 7706   1.349   3.262   5.174
 2269SOL    HW2 7707   1.207   3.194   5.217
 2270SOL     OW 7708   4.229   3.056   5.902
 2270SOL    HW1 7709   4.159   2.984   5.907
 2270SOL    HW2 7710   4.305   3.033   5.963
 2271SOL     OW 7711   6.008   4.214   6.514
 2271SOL    HW1 7712   5.941   4.267   6.567
 2271SOL    HW2 7713   5.960   4.145   6.460
 2272SOL     OW 7714   6.227   0.926   6.051
 2272SOL    HW1 7715   6.185   0.848   6.004
 2272SOL    HW2 7716   6.299   0.892   6.112
 2273SOL     OW 7717   1.966   2.648   2.609
 2273SOL    HW1 7718   2.062   2.667   2.590
 2273SOL    HW2 7719   1.930   2.717   2.671
 2274SOL     OW 7720   0.438   1.236   0.117
 2274SOL    HW1 7721   0.350   1.258   0.076
 2274SOL    HW2 7722   0.512   1.262   0.054
 2275SOL     OW 7723   5.926   4.892   2.542
 2275SOL    HW1 7724   6.021   4.908   2.569
 2275SOL    HW2 7725   5.887   4.977   2.508
 2276SOL     OW 7726   1.549   1.131   1.353
 2276SOL    HW1 7727   1.556   1.231   1.364
 2276SOL    HW2 7728   1.607   1.086   1.421
 2277SOL     OW 7729   3.711   4.108   3.677
 2277SOL    HW1 7730   3.652   4.042   3.723
 2277SOL    HW2 7731   3.680   4.201   3.698
 2278SOL     OW 7732   0.629   2.904   3.648
 2278SOL    HW1 7733   0.534   2.902   3.618
 2278SOL    HW2 7734   0.680   2.972   3.595
 2279SOL     OW 7735   6.969   5.849   6.355
 2279SOL    HW1 7736   6.944   5.869   6.450
 2279SOL    HW2 7737   6.994   5.933   6.308
 2280SOL     OW 7738   5.022   0.949   5.446
 2280SOL    HW1 7739   4.922   0.949   5.449
 2280SOL    HW2 7740   5.053   0.989   5.360
 2281SOL     OW 7741   4.668   6.375   2.486
 2281SOL    HW1 7742   4.649   6.296   2.429
 2281SOL    HW2 7743   4.660   6.459   2.432
 2282SOL     OW 7744   4.458   5.359   5.556
 2282SOL    HW1 7745   4.464   5.314   5.645
 2282SOL    HW2 7746   4.506   5.305   5.488
 2283SOL     OW 7747   1.602   0.587   3.359
 2283SOL    HW1 7748   1.598   0.669   3.416
 2283SOL    HW2 7749   1.520   0.531   3.376
 2284SOL     OW 7750   0.716   3.209   6.258
 2284SOL    HW1 7751   0.635   3.252   6.217
 2284SOL    HW2 7752   0.740   3.256   6.343
 2285SOL     OW 7753   1.030   3.788   0.332
 2285SOL    HW1 7754   1.090   3.798   0.254
 2285SOL    HW2 7755   1.024   3.875   0.381
 2286SOL     OW 7756   4.969   6.878   3.216
 2286SOL    HW1 7757   5.037   6.808   3.240
 2286SOL    HW2 7758   4.944   6.868   3.120
 2287SOL     OW 7759   2.439   0.805   3.404
 2287SOL    HW1 7760   2.361   0.831   3.462
 2287SOL    HW2 7761   2.430   0.709   3.377
 2288SOL     OW 7762   0.359   5.173   3.597
 2288SOL    HW1 7763   0.275   5.183   3.650
 2288SOL    HW2 7764   0.371   5.253   3.539
 2289SOL     OW 7765   0.512   5.390   1.819
 2289SOL    HW1 7766   0.456   5.430   1.747
 2289SOL    HW2 7767   0.511   5.450   1.899
 2290SOL     OW 7768   1.164   4.649   1.125
 2290SOL    HW1 7769   1.101   4.583   1.166
 2290SOL    HW2 7770   1.127   4.681   1.038
 2291SOL     OW 7771   2.898   1.666   5.984
 2291SOL    HW1 7772   2.867   1.672   6.079
 2291SOL    HW2 7773   2.819   1.657   5.924
 2292SOL     OW 7774   1.333   1.018   4.728
 2292SOL    HW1 7775   1.238   1.043   4.710
 2292SOL    HW2 7776   1.335   0.937   4.788
 2293SOL     OW 7777   5.152   5.168   1.670
 2293SOL    HW1 7778   5.155   5.149   1.572
 2293SOL    HW2 7779   5.217   5.240   1.692
 2294SOL     OW 7780   4.033   6.931   6.961
 2294SOL    HW1 7781   4.117   6.975   6.928
 2294SOL    HW2 7782   4.033   6.933   0.039
 2295SOL     OW 7783   0.097   2.018   1.928
 2295SOL    HW1 7784   0.107   2.067   2.015
 2295SOL    HW2 7785   0.107   2.082   1.852
 2296SOL     OW 7786   3.382   1.034   0.766
 2296SOL    HW1 7787   3.409   0.940   0.750
 2296SOL    HW2 7788   3.297   1.053   0.716
 2297SOL     OW 7789   4.626   4.492   5.439
 2297SOL    HW1 7790   4.547   4.461   5.491
 2297SOL    HW2 7791   4.626   4.449   5.349
 2298SOL     OW 7792   3.447   2.198   1.349
 2298SOL    HW1 7793   3.376   2.148   1.398
 2298SOL    HW2 7794   3.532   2.146   1.351
 2299SOL     OW 7795   5.161   6.119   6.910
 2299SOL    HW1 7796   5.187   6.023   6.913
 2299SOL    HW2 7797   5.220   6.173   6.970
 2300SOL     OW 7798   1.607   5.309   1.527
 2300SOL    HW1 7799   1.627   5.215   1.555
 2300SOL    HW2 7800   1.671   5.338   1.457
 2301SOL     OW 7801   3.182   3.381   3.129
 2301SOL    HW1 7802   3.108   3.417   3.073
 2301SOL    HW2 7803   3.268   3.388   3.079
 2302SOL     OW 7804   3.720   6.095   2.260
 2302SOL    HW1 7805   3.811   6.132   2.242
 2302SOL    HW2 7806   3.705   6.014   2.203
 2303SOL     OW 7807   0.882   3.312   5.221
 2303SOL    HW1 7808   0.851   3.219   5.238
 2303SOL    HW2 7809   0.843   3.346   5.135
 2304SOL     OW 7810   2.379   0.222   3.188
 2304SOL    HW1 7811   2.454   0.284   3.163
 2304SOL    HW2 7812   2.366   0.225   3.287
 2305SOL     OW 7813   3.824   5.623   2.258
 2305SOL    HW1 7814   3.914   5.664   2.273
 2305SOL    HW2 7815   3.765   5.642   2.336
 2306SOL     OW 7816   2.229   4.733   1.890
 2306SOL    HW1 7817   2.149   4.742   1.949
 2306SOL    HW2 7818   2.206   4.681   1.809
 2307SOL     OW 7819   1.189   3.319   3.129
 2307SOL    HW1 7820   1.231   3.370   3.204
 2307SOL    HW2 7821   1.092   3.305   3.148
 2308SOL     OW 7822   0.878   1.006   6.586
 2308SOL    HW1 7823   0.918   0.933   6.531
 2308SOL    HW2 7824   0.832   1.071   6.525
 2309SOL     OW 7825   3.308   5.503   0.236
 2309SOL    HW1 7826   3.351   5.456   0.159
 2309SOL    HW2 7827   3.376   5.519   0.308
 2310SOL     OW 7828   6.173   0.079   1.855
 2310SOL    HW1 7829   6.112   0.036   1.788
 2310SOL    HW2 7830   6.157   0.177   1.856
 2311SOL     OW 7831   2.905   0.005   2.488
 2311SOL    HW1 7832   2.837   6.990   2.552
 2311SOL    HW2 7833   2.858   0.052   2.414
 2312SOL     OW 7834   3.586   0.062   2.755
 2312SOL    HW1 7835   3.593   0.002   2.835
 2312SOL    HW2 7836   3.601   0.157   2.783
 2313SOL     OW 7837   4.993   4.184   2.092
 2313SOL    HW1 7838   5.068   4.201   2.028
 2313SOL    HW2 7839   4.932   4.114   2.055
 2314SOL     OW 7840   5.874   0.580   3.796
 2314SOL    HW1 7841   5.792   0.615   3.842
 2314SOL    HW2 7842   5.929   0.656   3.763
 2315SOL     OW 7843   4.886   3.900   5.952
 2315SOL    HW1 7844   4.934   3.986   5.972
 2315SOL    HW2 7845   4.923   3.860   5.868
 2316SOL     OW 7846   2.654   1.062   5.863
 2316SOL    HW1 7847   2.710   1.004   5.923
 2316SOL    HW2 7848   2.699   1.069   5.774
 2317SOL     OW 7849   6.477   6.176   3.783
 2317SOL    HW1 7850   6.424   6.223   3.712
 2317SOL    HW2 7851   6.425   6.176   3.869
 2318SOL     OW 7852   2.054   3.641   4.759
 2318SOL    HW1 7853   2.102   3.727   4.779
 2318SOL    HW2 7854   2.076   3.574   4.830
 2319SOL     OW 7855   2.670   5.302   4.670
 2319SOL    HW1 7856   2.743   5.262   4.725
 2319SOL    HW2 7857   2.639   5.236   4.602
 2320SOL     OW 7858   1.093   3.209   5.392
 2320SOL    HW1 7859   1.017   3.167   5.342
 2320SOL    HW2 7860   1.116   3.154   5.472
 2321SOL     OW 7861   2.720   4.610   6.478
 2321SOL    HW1 7862   2.811   4.570   6.487
 2321SOL    HW2 7863   2.668   4.560   6.409
 2322SOL     OW 7864   2.115   3.659   2.249
 2322SOL    HW1 7865   2.076   3.568   2.263
 2322SOL    HW2 7866   2.147   3.667   2.155
 2323SOL     OW 7867   3.377   5.193   2.141
 2323SOL    HW1 7868   3.385   5.103   2.099
 2323SOL    HW2 7869   3.319   5.251   2.084
 2324SOL     OW 7870   6.924   6.184   1.757
 2324SOL    HW1 7871   6.884   6.103   1.798
 2324SOL    HW2 7872   6.986   6.157   1.682
 2325SOL     OW 7873   0.020   5.031   1.686
 2325SOL    HW1 7874   0.087   4.982   1.629
 2325SOL    HW2 7875   6.949   5.005   1.659
 2326SOL     OW 7876   1.537   6.013   6.609
 2326SOL    HW1 7877   1.483   5.953   6.669
 2326SOL    HW2 7878   1.584   6.081   6.665
 2327SOL     OW 7879   0.071   0.587   2.883
 2327SOL    HW1 7880   0.021   0.661   2.838
 2327SOL    HW2 7881   0.169   0.608   2.881
 2328SOL     OW 7882   1.451   1.781   2.080
 2328SOL    HW1 7883   1.517   1.857   2.081
 2328SOL    HW2 7884   1.392   1.787   2.160
 2329SOL     OW 7885   0.487   4.321   4.294
 2329SOL    HW1 7886   0.585   4.325   4.313
 2329SOL    HW2 7887   0.464   4.234   4.250
 2330SOL     OW 7888   0.249   2.988   0.590
 2330SOL    HW1 7889   0.310   3.042   0.532
 2330SOL    HW2 7890   0.161   3.034   0.598
 2331SOL     OW 7891   3.384   5.360   0.006
 2331SOL    HW1 7892   3.475   5.356   6.986
 2331SOL    HW2 7893   3.315   5.334   6.960
 2332SOL     OW 7894   5.799   0.027   5.780
 2332SOL    HW1 7895   5.749   6.963   5.763
 2332SOL    HW2 7896   5.808   0.042   5.878
 2333SOL     OW 7897   6.738   5.134   2.909
 2333SOL    HW1 7898   6.764   5.052   2.859
 2333SOL    HW2 7899   6.743   5.116   3.007
 2334SOL     OW 7900   1.321   1.278   6.580
 2334SOL    HW1 7901   1.278   1.193   6.549
 2334SOL    HW2 7902   1.260   1.325   6.644
 2335SOL     OW 7903   5.842   0.944   4.605
 2335SOL    HW1 7904   5.847   1.044   4.602
 2335SOL    HW2 7905   5.918   0.905   4.554
 2336SOL     OW 7906   2.932   1.986   3.667
 2336SOL    HW1 7907   2.930   1.905   3.726
 2336SOL    HW2 7908   2.853   1.986   3.607
 2337SOL     OW 7909   4.203   1.344   1.676
 2337SOL    HW1 7910   4.114   1.298   1.678
 2337SOL    HW2 7911   4.259   1.313   1.753
 2338SOL     OW 7912   0.972   4.046   4.361
 2338SOL    HW1 7913   1.056   3.993   4.369
 2338SOL    HW2 7914   0.905   3.993   4.308
 2339SOL     OW 7915   2.997   3.832   3.641
 2339SOL    HW1 7916   3.082   3.885   3.631
 2339SOL    HW2 7917   2.981   3.780   3.557
 2340SOL     OW 7918   0.342   4.654   6.969
 2340SOL    HW1 7919   0.387   4.575   7.011
 2340SOL    HW2 7920   0.267   4.623   6.911
 2341SOL     OW 7921   2.366   4.678   2.478
 2341SOL    HW1 7922   2.345   4.729   2.394
 2341SOL    HW2 7923   2.316   4.718   2.554
 2342SOL     OW 7924   1.967   6.784   4.486
 2342SOL    HW1 7925   2.064   6.797   4.466
 2342SOL    HW2 7926   1.932   6.863   4.535
 2343SOL     OW 7927   2.616   6.223   2.809
 2343SOL    HW1 7928   2.643   6.168   2.730
 2343SOL    HW2 7929   2.529   6.268   2.790
 2344SOL     OW 7930   6.929   5.498   0.172
 2344SOL    HW1 7931   6.938   5.499   0.073
 2344SOL    HW2 7932   6.836   5.525   0.198
 2345SOL     OW 7933   2.975   5.609   4.709
 2345SOL    HW1 7934   2.943   5.703   4.719
 2345SOL    HW2 7935   3.016   5.597   4.618
 2346SOL     OW 7936   3.891   3.082   5.423
 2346SOL    HW1 7937   3.833   3.118   5.495
 2346SOL    HW2 7938   3.914   3.154   5.358
 2347SOL     OW 7939   1.676   1.995   1.477
 2347SOL    HW1 7940   1.656   1.897   1.475
 2347SOL    HW2 7941   1.775   2.008   1.486
 2348SOL     OW 7942   2.109   6.234   3.983
 2348SOL    HW1 7943   2.110   6.331   3.956
 2348SOL    HW2 7944   2.061   6.181   3.913
 2349SOL     OW 7945   0.841   4.151   6.596
 2349SOL    HW1 7946   0.764   4.186   6.650
 2349SOL    HW2 7947   0.807   4.082   6.532
 2350SOL     OW 7948   6.111   4.153   6.199
 2350SOL    HW1 7949   6.143   4.204   6.119
 2350SOL    HW2 7950   6.017   4.179   6.220
 2351SOL     OW 7951   3.257   4.880   3.931
 2351SOL    HW1 7952   3.321   4.857   3.858
 2351SOL    HW2 7953   3.229   4.976   3.922
 2352SOL     OW 7954   6.689   3.076   3.373
 2352SOL    HW1 7955   6.700   3.131   3.290
 2352SOL    HW2 7956   6.713   3.131   3.453
 2353SOL     OW 7957   4.397   4.606   4.441
 2353SOL    HW1 7958   4.453   4.689   4.435
 2353SOL    HW2 7959   4.410   4.564   4.531
 2354SOL     OW 7960   2.166   2.060   4.565
 2354SOL    HW1 7961   2.139   2.114   4.485
 2354SOL    HW2 7962   2.092   2.061   4.633
 2355SOL     OW 7963   1.890   6.274   5.269
 2355SOL    HW1 7964   1.869   6.370   5.288
 2355SOL    HW2 7965   1.809   6.218   5.286
 2356SOL     OW 7966   0.950   2.912   6.534
 2356SOL    HW1 7967   1.006   2.894   6.453
 2356SOL    HW2 7968   0.946   3.010   6.551
 2357SOL     OW 7969   3.780   0.706   2.001
 2357SOL    HW1 7970   3.873   0.680   1.975
 2357SOL    HW2 7971   3.745   0.642   2.069
 2358SOL     OW 7972   2.743   5.161   5.570
 2358SOL    HW1 7973   2.778   5.110   5.492
 2358SOL    HW2 7974   2.643   5.165   5.565
 2359SOL     OW 7975   0.601   0.978   5.782
 2359SOL    HW1 7976   0.518   0.923   5.770
 2359SOL    HW2 7977   0.681   0.922   5.761
 2360SOL     OW 7978   6.203   3.644   0.657
 2360SOL    HW1 7979   6.258   3.702   0.596
 2360SOL    HW2 7980   6.140   3.701   0.709
 2361SOL     OW 7981   3.283   1.231   6.568
 2361SOL    HW1 7982   3.236   1.255   6.653
 2361SOL    HW2 7983   3.216   1.203   6.500
 2362SOL     OW 7984   2.967   6.176   3.766
 2362SOL    HW1 7985   2.960   6.083   3.730
 2362SOL    HW2 7986   2.922   6.240   3.703
 2363SOL     OW 7987   3.557   1.799   3.577
 2363SOL    HW1 7988   3.492   1.743   3.628
 2363SOL    HW2 7989   3.579   1.881   3.629
 2364SOL     OW 7990   1.769   2.870   2.315
 2364SOL    HW1 7991   1.862   2.835   2.327
 2364SOL    HW2 7992   1.740   2.855   2.220
 2365SOL     OW 7993   6.455   1.879   6.500
 2365SOL    HW1 7994   6.473   1.953   6.434
 2365SOL    HW2 7995   6.423   1.798   6.451
 2366SOL     OW 7996   2.969   5.115   6.970
 2366SOL    HW1 7997   2.917   5.196   6.997
 2366SOL    HW2 7998   2.913   5.057   6.911
 2367SOL     OW 7999   2.101   3.370   0.873
 2367SOL    HW1 8000   2.065   3.341   0.784
 2367SOL    HW2 8001   2.197   3.397   0.863
 2368SOL     OW 8002   5.676   6.559   4.860
 2368SOL    HW1 8003   5.602   6.515   4.808
 2368SOL    HW2 8004   5.742   6.598   4.796
 2369SOL     OW 8005   1.989   0.071   4.483
 2369SOL    HW1 8006   1.898   0.053   4.520
 2369SOL    HW2 8007   1.988   0.160   4.435
 2370SOL     OW 8008   5.566   3.204   0.338
 2370SOL    HW1 8009   5.527   3.112   0.331
 2370SOL    HW2 8010   5.666   3.199   0.334
 2371SOL     OW 8011   2.377   6.817   2.192
 2371SOL    HW1 8012   2.318   6.759   2.135
 2371SOL    HW2 8013   2.322   6.891   2.231
 2372SOL     OW 8014   6.438   2.356   2.108
 2372SOL    HW1 8015   6.463   2.335   2.013
 2372SOL    HW2 8016   6.477   2.445   2.133
 2373SOL     OW 8017   1.299   3.658   5.723
 2373SOL    HW1 8018   1.368   3.592   5.752
 2373SOL    HW2 8019   1.343   3.744   5.698
 2374SOL     OW 8020   6.818   2.390   5.019
 2374SOL    HW1 8021   6.806   2.333   4.938
 2374SOL    HW2 8022   6.843   2.483   4.991
 2375SOL     OW 8023   3.295   5.035   5.967
 2375SOL    HW1 8024   3.301   5.064   6.062
 2375SOL    HW2 8025   3.301   5.116   5.907
 2376SOL     OW 8026   6.182   3.516   3.969
 2376SOL    HW1 8027   6.242   3.445   4.006
 2376SOL    HW2 8028   6.232   3.602   3.961
 2377SOL     OW 8029   3.942   3.880   3.749
 2377SOL    HW1 8030   3.868   3.936   3.712
 2377SOL    HW2 8031   3.954   3.899   3.846
 2378SOL     OW 8032   4.829   1.609   0.305
 2378SOL    HW1 8033   4.800   1.682   0.243
 2378SOL    HW2 8034   4.819   1.640   0.400
 2379SOL     OW 8035   6.661   0.851   0.295
 2379SOL    HW1 8036   6.650   0.763   0.341
 2379SOL    HW2 8037   6.612   0.922   0.346
 2380SOL     OW 8038   6.834   2.500   0.124
 2380SOL    HW1 8039   6.822   2.402   0.143
 2380SOL    HW2 8040   6.747   2.538   0.091
 2381SOL     OW 8041   2.500   5.719   2.876
 2381SOL    HW1 8042   2.466   5.812   2.888
 2381SOL    HW2 8043   2.600   5.719   2.885
 2382SOL     OW 8044   1.836   3.906   4.180
 2382SOL    HW1 8045   1.907   3.940   4.241
 2382SOL    HW2 8046   1.746   3.928   4.217
 2383SOL     OW 8047   6.744   0.331   1.080
 2383SOL    HW1 8048   6.750   0.324   0.981
 2383SOL    HW2 8049   6.662   0.283   1.112
 2384SOL     OW 8050   5.306   1.628   2.412
 2384SOL    HW1 8051   5.395   1.585   2.394
 2384SOL    HW2 8052   5.321   1.718   2.453
 2385SOL     OW 8053   0.017   0.298   6.895
 2385SOL    HW1 8054   0.019   0.262   6.988
 2385SOL    HW2 8055   0.004   0.397   6.897
 2386SOL     OW 8056   5.125   6.069   4.355
 2386SOL    HW1 8057   5.085   5.986   4.317
 2386SOL    HW2 8058   5.059   6.113   4.416
 2387SOL     OW 8059   2.122   1.251   3.867
 2387SOL    HW1 8060   2.122   1.155   3.893
 2387SOL    HW2 8061   2.033   1.276   3.830
 2388SOL     OW 8062   6.793   2.353   3.525
 2388SOL    HW1 8063   6.867   2.420   3.522
 2388SOL    HW2 8064   6.709   2.398   3.555
 2389SOL     OW 8065   4.162   4.782   3.253
 2389SOL    HW1 8066   4.170   4.782   3.153
 2389SOL    HW2 8067   4.240   4.733   3.292
 2390SOL     OW 8068   3.799   2.922   3.058
 2390SOL    HW1 8069   3.786   2.937   3.156
 2390SOL    HW2 8070   3.892   2.948   3.033
 2391SOL     OW 8071   5.675   4.680   6.388
 2391SOL    HW1 8072   5.636   4.727   6.468
 2391SOL    HW2 8073   5.623   4.597   6.370
 2392SOL     OW 8074   3.207   6.737   6.083
 2392SOL    HW1 8075   3.306   6.720   6.082
 2392SOL    HW2 8076   3.165   6.682   6.156
 2393SOL     OW 8077   5.360   3.801   6.556
 2393SOL    HW1 8078   5.329   3.883   6.509
 2393SOL    HW2 8079   5.455   3.782   6.532
 2394SOL     OW 8080   0.500   3.859   4.800
 2394SOL    HW1 8081   0.481   3.892   4.707
 2394SOL    HW2 8082   0.457   3.920   4.867
 2395SOL     OW 8083   5.009   7.016   6.285
 2395SOL    HW1 8084   4.960   7.012   6.372
 2395SOL    HW2 8085   4.946   0.022   6.213
 2396SOL     OW 8086   3.493   4.974   1.106
 2396SOL    HW1 8087   3.564   5.012   1.166
 2396SOL    HW2 8088   3.423   5.043   1.088
 2397SOL     OW 8089   0.662   4.299   4.894
 2397SOL    HW1 8090   0.573   4.344   4.889
 2397SOL    HW2 8091   0.665   4.239   4.974
 2398SOL     OW 8092   4.708   4.115   6.950
 2398SOL    HW1 8093   4.618   4.071   6.944
 2398SOL    HW2 8094   4.779   4.047   6.933
 2399SOL     OW 8095   4.773   0.803   0.746
 2399SOL    HW1 8096   4.790   0.875   0.813
 2399SOL    HW2 8097   4.726   0.843   0.666
 2400SOL     OW 8098   3.048   3.457   0.822
 2400SOL    HW1 8099   3.078   3.488   0.913
 2400SOL    HW2 8100   3.048   3.357   0.819
 2401SOL     OW 8101   5.407   6.375   0.361
 2401SOL    HW1 8102   5.362   6.286   0.362
 2401SOL    HW2 8103   5.503   6.364   0.333
 2402SOL     OW 8104   0.701   0.265   4.601
 2402SOL    HW1 8105   0.762   0.222   4.667
 2402SOL    HW2 8106   0.612   0.219   4.603
 2403SOL     OW 8107   1.464   2.277   6.269
 2403SOL    HW1 8108   1.429   2.215   6.199
 2403SOL    HW2 8109   1.438   2.244   6.360
 2404SOL     OW 8110   2.565   1.130   1.183
 2404SOL    HW1 8111   2.572   1.228   1.201
 2404SOL    HW2 8112   2.609   1.110   1.095
 2405SOL     OW 8113   3.457   3.873   2.598
 2405SOL    HW1 8114   3.549   3.840   2.577
 2405SOL    HW2 8115   3.398   3.794   2.618
 2406SOL     OW 8116   3.339   1.121   1.275
 2406SOL    HW1 8117   3.384   1.048   1.223
 2406SOL    HW2 8118   3.404   1.161   1.339
 2407SOL     OW 8119   5.783   2.175   3.382
 2407SOL    HW1 8120   5.784   2.269   3.348
 2407SOL    HW2 8121   5.874   2.136   3.374
 2408SOL     OW 8122   4.599   4.497   2.162
 2408SOL    HW1 8123   4.554   4.444   2.090
 2408SOL    HW2 8124   4.682   4.449   2.192
 2409SOL     OW 8125   2.238   4.484   2.027
 2409SOL    HW1 8126   2.248   4.583   2.030
 2409SOL    HW2 8127   2.155   4.461   1.975
 2410SOL     OW 8128   3.514   2.895   4.498
 2410SOL    HW1 8129   3.467   2.861   4.580
 2410SOL    HW2 8130   3.553   2.985   4.517
 2411SOL     OW 8131   5.272   6.247   4.901
 2411SOL    HW1 8132   5.293   6.214   4.993
 2411SOL    HW2 8133   5.177   6.225   4.879
 2412SOL     OW 8134   5.408   4.459   1.613
 2412SOL    HW1 8135   5.406   4.360   1.600
 2412SOL    HW2 8136   5.487   4.484   1.668
 2413SOL     OW 8137   6.295   0.894   1.583
 2413SOL    HW1 8138   6.338   0.906   1.493
 2413SOL    HW2 8139   6.241   0.810   1.583
 2414SOL     OW 8140   4.827   4.248   3.563
 2414SOL    HW1 8141   4.829   4.336   3.515
 2414SOL    HW2 8142   4.840   4.263   3.661
 2415SOL     OW 8143   6.055   1.528   3.087
 2415SOL    HW1 8144   6.119   1.516   3.011
 2415SOL    HW2 8145   6.095   1.590   3.155
 2416SOL     OW 8146   5.247   2.370   5.330
 2416SOL    HW1 8147   5.305   2.352   5.410
 2416SOL    HW2 8148   5.187   2.291   5.314
 2417SOL     OW 8149   3.196   3.411   4.722
 2417SOL    HW1 8150   3.192   3.422   4.821
 2417SOL    HW2 8151   3.291   3.399   4.693
 2418SOL     OW 8152   3.327   3.182   3.771
 2418SOL    HW1 8153   3.280   3.214   3.853
 2418SOL    HW2 8154   3.406   3.128   3.797
 2419SOL     OW 8155   0.194   6.613   3.608
 2419SOL    HW1 8156   0.140   6.560   3.673
 2419SOL    HW2 8157   0.265   6.663   3.657
 2420SOL     OW 8158   3.348   0.305   2.192
 2420SOL    HW1 8159   3.253   0.338   2.194
 2420SOL    HW2 8160   3.356   0.230   2.126
 2421SOL     OW 8161   2.075   2.749   4.839
 2421SOL    HW1 8162   2.035   2.676   4.783
 2421SOL    HW2 8163   2.034   2.747   4.930
 2422SOL     OW 8164   4.908   1.327   0.730
 2422SOL    HW1 8165   4.815   1.343   0.697
 2422SOL    HW2 8166   4.957   1.269   0.665
 2423SOL     OW 8167   2.504   6.390   1.998
 2423SOL    HW1 8168   2.585   6.336   2.022
 2423SOL    HW2 8169   2.524   6.487   2.011
 2424SOL     OW 8170   6.382   0.648   0.341
 2424SOL    HW1 8171   6.449   0.688   0.405
 2424SOL    HW2 8172   6.319   0.590   0.392
 2425SOL     OW 8173   5.769   0.041   4.150
 2425SOL    HW1 8174   5.747   0.132   4.186
 2425SOL    HW2 8175   5.709   6.995   4.191
 2426SOL     OW 8176   1.957   5.152   5.598
 2426SOL    HW1 8177   1.933   5.152   5.500
 2426SOL    HW2 8178   1.959   5.058   5.632
 2427SOL     OW 8179   5.910   5.738   4.941
 2427SOL    HW1 8180   5.911   5.819   4.883
 2427SOL    HW2 8181   5.836   5.747   5.009
 2428SOL     OW 8182   0.799   1.017   1.693
 2428SOL    HW1 8183   0.728   1.025   1.623
 2428SOL    HW2 8184   0.844   0.929   1.684
 2429SOL     OW 8185   5.431   5.874   1.879
 2429SOL    HW1 8186   5.466   5.934   1.807
 2429SOL    HW2 8187   5.503   5.855   1.945
 2430SOL     OW 8188   6.080   0.951   2.707
 2430SOL    HW1 8189   6.141   0.874   2.690
 2430SOL    HW2 8190   6.006   0.922   2.768
 2431SOL     OW 8191   4.411   1.163   2.518
 2431SOL    HW1 8192   4.424   1.161   2.419
 2431SOL    HW2 8193   4.322   1.202   2.540
 2432SOL     OW 8194   4.566   6.525   2.047
 2432SOL    HW1 8195   4.522   6.499   1.961
 2432SOL    HW2 8196   4.555   6.624   2.061
 2433SOL     OW 8197   4.440   0.789   6.692
 2433SOL    HW1 8198   4.397   0.814   6.606
 2433SOL    HW2 8199   4.375   0.801   6.767
 2434SOL     OW 8200   3.994   0.657   5.851
 2434SOL    HW1 8201   3.978   0.680   5.755
 2434SOL    HW2 8202   4.016   0.560   5.859
 2435SOL     OW 8203   6.039   5.996   5.332
 2435SOL    HW1 8204   6.009   6.015   5.238
 2435SOL    HW2 8205   5.959   5.992   5.392
 2436SOL     OW 8206   2.171   5.995   6.995
 2436SOL    HW1 8207   2.249   5.986   6.934
 2436SOL    HW2 8208   2.119   6.077   6.972
 2437SOL     OW 8209   6.353   6.772   5.989
 2437SOL    HW1 8210   6.447   6.761   5.956
 2437SOL    HW2 8211   6.354   6.795   6.087
 2438SOL     OW 8212   2.692   2.456   0.777
 2438SOL    HW1 8213   2.771   2.508   0.809
 2438SOL    HW2 8214   2.718   2.360   0.765
 2439SOL     OW 8215   6.675   4.309   6.267
 2439SOL    HW1 8216   6.711   4.380   6.206
 2439SOL    HW2 8217   6.636   4.235   6.212
 2440SOL     OW 8218   5.176   5.210   5.656
 2440SOL    HW1 8219   5.269   5.174   5.661
 2440SOL    HW2 8220   5.176   5.299   5.611
 2441SOL     OW 8221   6.070   2.163   1.182
 2441SOL    HW1 8222   6.078   2.095   1.254
 2441SOL    HW2 8223   6.073   2.255   1.222
 2442SOL     OW 8224   0.937   3.741   5.026
 2442SOL    HW1 8225   0.971   3.761   5.118
 2442SOL    HW2 8226   0.984   3.799   4.959
 2443SOL     OW 8227   3.081   4.054   6.259
 2443SOL    HW1 8228   2.988   4.088   6.266
 2443SOL    HW2 8229   3.101   3.992   6.334
 2444SOL     OW 8230   2.055   4.195   5.925
 2444SOL    HW1 8231   2.057   4.097   5.905
 2444SOL    HW2 8232   2.064   4.209   6.024
 2445SOL     OW 8233   0.495   0.872   0.544
 2445SOL    HW1 8234   0.443   0.909   0.621
 2445SOL    HW2 8235   0.512   0.775   0.559
 2446SOL     OW 8236   6.356   4.774   5.079
 2446SOL    HW1 8237   6.415   4.781   5.159
 2446SOL    HW2 8238   6.297   4.694   5.088
 2447SOL     OW 8239   0.820   1.654   0.618
 2447SOL    HW1 8240   0.828   1.584   0.689
 2447SOL    HW2 8241   0.862   1.739   0.651
 2448SOL     OW 8242   1.079   6.909   4.633
 2448SOL    HW1 8243   1.005   6.872   4.690
 2448SOL    HW2 8244   1.049   6.995   4.591
 2449SOL     OW 8245   0.100   3.600   5.911
 2449SOL    HW1 8246   0.116   3.535   5.837
 2449SOL    HW2 8247   0.045   3.676   5.878
 2450SOL     OW 8248   2.496   4.516   2.650
 2450SOL    HW1 8249   2.504   4.422   2.619
 2450SOL    HW2 8250   2.450   4.571   2.580
 2451SOL     OW 8251   2.559   5.990   3.578
 2451SOL    HW1 8252   2.614   6.035   3.648
 2451SOL    HW2 8253   2.505   5.917   3.620
 2452SOL     OW 8254   1.290   2.989   3.603
 2452SOL    HW1 8255   1.316   3.080   3.571
 2452SOL    HW2 8256   1.245   2.939   3.530
 2453SOL     OW 8257   6.499   4.586   1.516
 2453SOL    HW1 8258   6.593   4.586   1.481
 2453SOL    HW2 8259   6.491   4.654   1.589
 2454SOL     OW 8260   3.118   0.677   1.641
 2454SOL    HW1 8261   3.142   0.581   1.649
 2454SOL    HW2 8262   3.198   0.734   1.658
 2455SOL     OW 8263   5.264   5.728   0.284
 2455SOL    HW1 8264   5.316   5.770   0.210
 2455SOL    HW2 8265   5.193   5.792   0.316
 2456SOL     OW 8266   5.135   5.852   1.717
 2456SOL    HW1 8267   5.096   5.864   1.808
 2456SOL    HW2 8268   5.231   5.880   1.718
 2457SOL     OW 8269   5.377   6.597   1.340
 2457SOL    HW1 8270   5.309   6.541   1.387
 2457SOL    HW2 8271   5.468   6.558   1.356
 2458SOL     OW 8272   1.028   5.119   2.952
 2458SOL    HW1 8273   1.026   5.164   3.042
 2458SOL    HW2 8274   0.946   5.145   2.901
 2459SOL     OW 8275   1.972   0.308   0.682
 2459SOL    HW1 8276   1.954   0.229   0.740
 2459SOL    HW2 8277   2.070   0.327   0.680
 2460SOL     OW 8278   3.089   5.693   1.313
 2460SOL    HW1 8279   3.152   5.756   1.268
 2460SOL    HW2 8280   3.136   5.606   1.332
 2461SOL     OW 8281   5.395   0.743   2.398
 2461SOL    HW1 8282   5.326   0.679   2.432
 2461SOL    HW2 8283   5.430   0.711   2.310
 2462SOL     OW 8284   1.763   5.381   6.536
 2462SOL    HW1 8285   1.687   5.445   6.529
 2462SOL    HW2 8286   1.742   5.297   6.485
 2463SOL     OW 8287   6.056   2.175   3.951
 2463SOL    HW1 8288   6.079   2.225   4.034
 2463SOL    HW2 8289   6.105   2.215   3.873
 2464SOL     OW 8290   1.238   3.243   1.382
 2464SOL    HW1 8291   1.259   3.273   1.289
 2464SOL    HW2 8292   1.259   3.317   1.446
 2465SOL     OW 8293   6.388   5.984   2.926
 2465SOL    HW1 8294   6.315   6.048   2.949
 2465SOL    HW2 8295   6.447   5.971   3.005
 2466SOL     OW 8296   3.523   1.788   2.571
 2466SOL    HW1 8297   3.533   1.885   2.549
 2466SOL    HW2 8298   3.426   1.766   2.579
 2467SOL     OW 8299   6.783   0.902   6.224
 2467SOL    HW1 8300   6.799   0.806   6.246
 2467SOL    HW2 8301   6.844   0.930   6.150
 2468SOL     OW 8302   0.150   5.345   1.410
 2468SOL    HW1 8303   0.174   5.330   1.506
 2468SOL    HW2 8304   0.062   5.392   1.404
 2469SOL     OW 8305   2.371   2.729   5.768
 2469SOL    HW1 8306   2.321   2.725   5.681
 2469SOL    HW2 8307   2.335   2.803   5.824
 2470SOL     OW 8308   5.251   2.748   0.366
 2470SOL    HW1 8309   5.315   2.671   0.373
 2470SOL    HW2 8310   5.158   2.715   0.384
 2471SOL     OW 8311   1.285   0.349   2.621
 2471SOL    HW1 8312   1.380   0.373   2.605
 2471SOL    HW2 8313   1.230   0.432   2.628
 2472SOL     OW 8314   6.113   1.758   3.399
 2472SOL    HW1 8315   6.184   1.689   3.384
 2472SOL    HW2 8316   6.062   1.774   3.314
 2473SOL     OW 8317   0.941   6.151   4.531
 2473SOL    HW1 8318   0.995   6.235   4.544
 2473SOL    HW2 8319   0.948   6.123   4.435
 2474SOL     OW 8320   6.908   4.715   4.933
 2474SOL    HW1 8321   6.904   4.815   4.927
 2474SOL    HW2 8322   6.915   4.688   5.030
 2475SOL     OW 8323   4.562   1.822   0.138
 2475SOL    HW1 8324   4.510   1.757   0.194
 2475SOL    HW2 8325   4.522   1.826   0.046
 2476SOL     OW 8326   1.119   1.989   4.411
 2476SOL    HW1 8327   1.213   1.976   4.441
 2476SOL    HW2 8328   1.084   2.076   4.446
 2477SOL     OW 8329   4.419   4.965   1.178
 2477SOL    HW1 8330   4.321   4.956   1.160
 2477SOL    HW2 8331   4.439   5.058   1.208
 2478SOL     OW 8332   6.696   6.990   3.052
 2478SOL    HW1 8333   6.692   6.963   3.148
 2478SOL    HW2 8334   6.775   0.028   3.037
 2479SOL     OW 8335   0.408   3.219   0.494
 2479SOL    HW1 8336   0.431   3.237   0.590
 2479SOL    HW2 8337   0.492   3.216   0.440
 2480SOL     OW 8338   0.002   3.203   1.413
 2480SOL    HW1 8339   6.964   3.124   1.398
 2480SOL    HW2 8340   0.028   3.243   1.325
 2481SOL     OW 8341   4.729   5.004   2.133
 2481SOL    HW1 8342   4.750   5.015   2.230
 2481SOL    HW2 8343   4.648   4.946   2.124
 2482SOL     OW 8344   4.998   2.168   4.546
 2482SOL    HW1 8345   4.960   2.097   4.606
 2482SOL    HW2 8346   5.065   2.126   4.485
 2483SOL     OW 8347   0.982   1.950   6.408
 2483SOL    HW1 8348   1.028   1.926   6.493
 2483SOL    HW2 8349   0.908   2.014   6.427
 2484SOL     OW 8350   3.226   2.261   6.314
 2484SOL    HW1 8351   3.201   2.233   6.221
 2484SOL    HW2 8352   3.295   2.333   6.309
 2485SOL     OW 8353   0.149   5.956   2.109
 2485SOL    HW1 8354   0.089   5.901   2.051
 2485SOL    HW2 8355   0.167   6.043   2.063
 2486SOL     OW 8356   1.449   5.467   3.250
 2486SOL    HW1 8357   1.376   5.534   3.258
 2486SOL    HW2 8358   1.437   5.396   3.319
 2487SOL     OW 8359   3.437   1.270   0.897
 2487SOL    HW1 8360   3.417   1.189   0.842
 2487SOL    HW2 8361   3.375   1.344   0.872
 2488SOL     OW 8362   2.849   6.430   6.979
 2488SOL    HW1 8363   2.913   6.367   0.001
 2488SOL    HW2 8364   2.817   6.498   0.024
 2489SOL     OW 8365   0.511   5.694   4.424
 2489SOL    HW1 8366   0.502   5.652   4.514
 2489SOL    HW2 8367   0.436   5.665   4.365
 2490SOL     OW 8368   4.854   3.243   1.707
 2490SOL    HW1 8369   4.776   3.305   1.701
 2490SOL    HW2 8370   4.878   3.228   1.803
 2491SOL     OW 8371   1.489   4.418   2.126
 2491SOL    HW1 8372   1.543   4.355   2.070
 2491SOL    HW2 8373   1.456   4.371   2.207
 2492SOL     OW 8374   4.191   3.106   6.474
 2492SOL    HW1 8375   4.249   3.149   6.405
 2492SOL    HW2 8376   4.248   3.064   6.545
 2493SOL     OW 8377   6.629   2.167   3.786
 2493SOL    HW1 8378   6.652   2.073   3.761
 2493SOL    HW2 8379   6.589   2.213   3.707
 2494SOL     OW 8380   5.127   3.540   1.809
 2494SOL    HW1 8381   5.209   3.563   1.861
 2494SOL    HW2 8382   5.107   3.614   1.744
 2495SOL     OW 8383   6.163   1.381   4.685
 2495SOL    HW1 8384   6.259   1.356   4.700
 2495SOL    HW2 8385   6.118   1.395   4.773
 2496SOL     OW 8386   0.726   6.483   6.941
 2496SOL    HW1 8387   0.801   6.418   6.950
 2496SOL    HW2 8388   0.716   6.534   0.004
 2497SOL     OW 8389   5.239   1.930   6.060
 2497SOL    HW1 8390   5.267   1.956   5.968
 2497SOL    HW2 8391   5.290   1.849   6.089
 2498SOL     OW 8392   1.535   3.740   4.690
 2498SOL    HW1 8393   1.506   3.691   4.607
 2498SOL    HW2 8394   1.635   3.745   4.692
 2499SOL     OW 8395   5.948   0.184   5.343
 2499SOL    HW1 8396   5.985   0.271   5.311
 2499SOL    HW2 8397   5.889   0.199   5.422
 2500SOL     OW 8398   4.839   3.198   6.470
 2500SOL    HW1 8399   4.917   3.139   6.448
 2500SOL    HW2 8400   4.833   3.272   6.403
 2501SOL     OW 8401   6.320   4.336   0.144
 2501SOL    HW1 8402   6.312   4.240   0.169
 2501SOL    HW2 8403   6.415   4.358   0.126
 2502SOL     OW 8404   2.100   6.546   2.896
 2502SOL    HW1 8405   2.101   6.605   2.976
 2502SOL    HW2 8406   2.100   6.450   2.925
 2503SOL     OW 8407   4.445   5.465   4.841
 2503SOL    HW1 8408   4.380   5.421   4.903
 2503SOL    HW2 8409   4.409   5.553   4.811
 2504SOL     OW 8410   1.886   4.261   4.019
 2504SOL    HW1 8411   1.889   4.214   4.107
 2504SOL    HW2 8412   1.975   4.253   3.973
 2505SOL     OW 8413   4.560   5.603   3.923
 2505SOL    HW1 8414   4.473   5.644   3.894
 2505SOL    HW2 8415   4.588   5.643   4.010
 2506SOL     OW 8416   0.322   2.210   6.686
 2506SOL    HW1 8417   0.296   2.116   6.706
 2506SOL    HW2 8418   0.240   2.264   6.666
 2507SOL     OW 8419   0.202   5.678   0.625
 2507SOL    HW1 8420   0.253   5.755   0.663
 2507SOL    HW2 8421   0.106   5.704   0.615
 2508SOL     OW 8422   2.347   2.456   2.398
 2508SOL    HW1 8423   2.357   2.390   2.473
 2508SOL    HW2 8424   2.306   2.540   2.433
 2509SOL     OW 8425   5.363   2.158   3.500
 2509SOL    HW1 8426   5.320   2.148   3.410
 2509SOL    HW2 8427   5.407   2.248   3.506
 2510SOL     OW 8428   3.603   5.694   1.153
 2510SOL    HW1 8429   3.611   5.691   1.053
 2510SOL    HW2 8430   3.688   5.729   1.192
 2511SOL     OW 8431   1.701   0.067   4.047
 2511SOL    HW1 8432   1.793   0.029   4.039
 2511SOL    HW2 8433   1.658   0.034   4.131
 2512SOL     OW 8434   4.794   2.868   4.641
 2512SOL    HW1 8435   4.863   2.888   4.710
 2512SOL    HW2 8436   4.735   2.794   4.673
 2513SOL     OW 8437   0.076   3.921   1.103
 2513SOL    HW1 8438   0.085   3.834   1.055
 2513SOL    HW2 8439   7.020   3.972   1.067
 2514SOL     OW 8440   0.998   1.470   3.725
 2514SOL    HW1 8441   1.062   1.496   3.653
 2514SOL    HW2 8442   0.926   1.538   3.733
 2515SOL     OW 8443   1.445   4.926   0.160
 2515SOL    HW1 8444   1.528   4.910   0.107
 2515SOL    HW2 8445   1.451   4.878   0.247
 2516SOL     OW 8446   4.862   6.474   3.881
 2516SOL    HW1 8447   4.916   6.541   3.830
 2516SOL    HW2 8448   4.918   6.437   3.956
 2517SOL     OW 8449   2.271   4.793   0.244
 2517SOL    HW1 8450   2.262   4.833   0.335
 2517SOL    HW2 8451   2.316   4.704   0.251
 2518SOL     OW 8452   2.508   2.295   6.373
 2518SOL    HW1 8453   2.579   2.359   6.402
 2518SOL    HW2 8454   2.424   2.345   6.350
 2519SOL     OW 8455   5.213   3.843   4.615
 2519SOL    HW1 8456   5.120   3.819   4.586
 2519SOL    HW2 8457   5.253   3.907   4.549
 2520SOL     OW 8458   1.997   4.690   2.023
 2520SOL    HW1 8459   1.961   4.757   2.087
 2520SOL    HW2 8460   1.956   4.600   2.041
 2521SOL     OW 8461   5.391   6.766   5.242
 2521SOL    HW1 8462   5.448   6.696   5.197
 2521SOL    HW2 8463   5.304   6.773   5.194
 2522SOL     OW 8464   1.402   2.972   4.546
 2522SOL    HW1 8465   1.401   2.898   4.479
 2522SOL    HW2 8466   1.487   2.970   4.598
 2523SOL     OW 8467   0.449   3.019   6.832
 2523SOL    HW1 8468   0.439   2.927   6.794
 2523SOL    HW2 8469   0.431   3.018   6.930
 2524SOL     OW 8470   1.274   6.479   5.270
 2524SOL    HW1 8471   1.235   6.486   5.178
 2524SOL    HW2 8472   1.207   6.439   5.332
 2525SOL     OW 8473   1.779   4.437   3.341
 2525SOL    HW1 8474   1.858   4.420   3.401
 2525SOL    HW2 8475   1.810   4.451   3.248
 2526SOL     OW 8476   6.656   1.462   5.324
 2526SOL    HW1 8477   6.695   1.520   5.252
 2526SOL    HW2 8478   6.556   1.463   5.317
 2527SOL     OW 8479   6.279   6.733   3.840
 2527SOL    HW1 8480   6.216   6.780   3.901
 2527SOL    HW2 8481   6.373   6.744   3.874
 2528SOL     OW 8482   6.277   5.809   0.270
 2528SOL    HW1 8483   6.211   5.839   0.339
 2528SOL    HW2 8484   6.247   5.722   0.231
 2529SOL     OW 8485   5.150   3.511   4.760
 2529SOL    HW1 8486   5.212   3.537   4.685
 2529SOL    HW2 8487   5.065   3.563   4.752
 2530SOL     OW 8488   0.599   0.120   4.053
 2530SOL    HW1 8489   0.601   0.155   4.147
 2530SOL    HW2 8490   0.506   0.121   4.018
 2531SOL     OW 8491   3.946   0.873   6.477
 2531SOL    HW1 8492   3.985   0.783   6.455
 2531SOL    HW2 8493   3.960   0.891   6.575
 2532SOL     OW 8494   1.573   4.585   6.012
 2532SOL    HW1 8495   1.589   4.643   5.933
 2532SOL    HW2 8496   1.502   4.626   6.069
 2533SOL     OW 8497   5.661   7.017   5.370
 2533SOL    HW1 8498   5.640   0.061   5.299
 2533SOL    HW2 8499   5.724   6.947   5.335
 2534SOL     OW 8500   0.531   1.604   4.137
 2534SOL    HW1 8501   0.563   1.684   4.187
 2534SOL    HW2 8502   0.601   1.533   4.138
 2535SOL     OW 8503   2.546   1.575   2.595
 2535SOL    HW1 8504   2.509   1.489   2.561
 2535SOL    HW2 8505   2.488   1.609   2.669
 2536SOL     OW 8506   6.641   0.741   3.910
 2536SOL    HW1 8507   6.615   0.644   3.909
 2536SOL    HW2 8508   6.714   0.756   3.843
 2537SOL     OW 8509   3.771   5.067   1.131
 2537SOL    HW1 8510   3.809   5.053   1.222
 2537SOL    HW2 8511   3.825   5.136   1.083
 2538SOL     OW 8512   1.892   4.301   5.061
 2538SOL    HW1 8513   1.957   4.376   5.075
 2538SOL    HW2 8514   1.931   4.234   4.997
 2539SOL     OW 8515   2.597   0.338   5.615
 2539SOL    HW1 8516   2.524   0.377   5.558
 2539SOL    HW2 8517   2.591   0.238   5.613
 2540SOL     OW 8518   5.866   1.824   2.248
 2540SOL    HW1 8519   5.848   1.869   2.335
 2540SOL    HW2 8520   5.961   1.792   2.245
 2541SOL     OW 8521   1.129   6.285   5.425
 2541SOL    HW1 8522   1.129   6.185   5.419
 2541SOL    HW2 8523   1.035   6.318   5.436
 2542SOL     OW 8524   3.427   1.829   4.388
 2542SOL    HW1 8525   3.381   1.759   4.442
 2542SOL    HW2 8526   3.359   1.888   4.345
 2543SOL     OW 8527   6.998   1.983   4.903
 2543SOL    HW1 8528   0.022   1.999   4.816
 2543SOL    HW2 8529   7.013   2.062   4.963
 2544SOL     OW 8530   6.256   5.859   2.091
 2544SOL    HW1 8531   6.310   5.809   2.022
 2544SOL    HW2 8532   6.200   5.794   2.142
 2545SOL     OW 8533   6.353   2.032   1.273
 2545SOL    HW1 8534   6.289   1.979   1.218
 2545SOL    HW2 8535   6.441   2.037   1.226
 2546SOL     OW 8536   6.482   4.107   2.770
 2546SOL    HW1 8537   6.498   4.199   2.806
 2546SOL    HW2 8538   6.386   4.098   2.744
 2547SOL     OW 8539   5.880   3.438   1.034
 2547SOL    HW1 8540   5.800   3.381   1.053
 2547SOL    HW2 8541   5.949   3.383   0.987
 2548SOL     OW 8542   0.312   6.629   5.395
 2548SOL    HW1 8543   0.227   6.655   5.349
 2548SOL    HW2 8544   0.290   6.594   5.486
 2549SOL     OW 8545   2.923   2.840   0.044
 2549SOL    HW1 8546   2.980   2.922   0.044
 2549SOL    HW2 8547   2.982   2.759   0.048
 2550SOL     OW 8548   3.827   6.218   6.522
 2550SOL    HW1 8549   3.852   6.225   6.619
 2550SOL    HW2 8550   3.823   6.122   6.495
 2551SOL     OW 8551   3.121   5.546   0.496
 2551SOL    HW1 8552   3.027   5.522   0.474
 2551SOL    HW2 8553   3.179   5.531   0.416
 2552SOL     OW 8554   2.220   5.965   1.593
 2552SOL    HW1 8555   2.182   5.952   1.685
 2552SOL    HW2 8556   2.301   6.024   1.599
 2553SOL     OW 8557   4.357   1.411   6.633
 2553SOL    HW1 8558   4.396   1.466   6.559
 2553SOL    HW2 8559   4.259   1.398   6.617
 2554SOL     OW 8560   1.664   5.724   1.713
 2554SOL    HW1 8561   1.634   5.630   1.726
 2554SOL    HW2 8562   1.712   5.732   1.625
 2555SOL     OW 8563   5.033   6.819   5.099
 2555SOL    HW1 8564   5.099   6.886   5.064
 2555SOL    HW2 8565   5.069   6.727   5.083
 2556SOL     OW 8566   3.983   0.469   0.515
 2556SOL    HW1 8567   3.979   0.503   0.421
 2556SOL    HW2 8568   3.907   0.406   0.531
 2557SOL     OW 8569   3.094   0.219   6.412
 2557SOL    HW1 8570   3.040   0.246   6.492
 2557SOL    HW2 8571   3.057   0.133   6.375
 2558SOL     OW 8572   5.543   3.621   0.169
 2558SOL    HW1 8573   5.486   3.539   0.166
 2558SOL    HW2 8574   5.561   3.652   0.075
 2559SOL     OW 8575   0.870   4.465   4.852
 2559SOL    HW1 8576   0.847   4.539   4.914
 2559SOL    HW2 8577   0.802   4.393   4.859
 2560SOL     OW 8578   4.918   2.090   3.786
 2560SOL    HW1 8579   4.877   2.035   3.713
 2560SOL    HW2 8580   5.012   2.114   3.761
 2561SOL     OW 8581   3.650   0.245   4.929
 2561SOL    HW1 8582   3.718   0.191   4.880
 2561SOL    HW2 8583   3.672   0.342   4.923
 2562SOL     OW 8584   3.088   6.421   3.804
 2562SOL    HW1 8585   3.038   6.467   3.877
 2562SOL    HW2 8586   3.034   6.344   3.769
 2563SOL     OW 8587   3.638   1.969   6.507
 2563SOL    HW1 8588   3.694   2.050   6.495
 2563SOL    HW2 8589   3.541   1.994   6.502
 2564SOL     OW 8590   1.701   1.950   0.209
 2564SOL    HW1 8591   1.631   1.994   0.153
 2564SOL    HW2 8592   1.785   1.940   0.155
 2565SOL     OW 8593   0.615   1.712   0.480
 2565SOL    HW1 8594   0.701   1.687   0.523
 2565SOL    HW2 8595   0.578   1.633   0.431
 2566SOL     OW 8596   2.068   0.806   0.677
 2566SOL    HW1 8597   2.162   0.789   0.705
 2566SOL    HW2 8598   2.052   0.904   0.671
 2567SOL     OW 8599   2.180   0.802   0.080
 2567SOL    HW1 8600   2.097   0.756   0.049
 2567SOL    HW2 8601   2.159   0.896   0.104
 2568SOL     OW 8602   3.014   6.205   0.706
 2568SOL    HW1 8603   3.031   6.174   0.799
 2568SOL    HW2 8604   3.095   6.190   0.650
 2569SOL     OW 8605   1.889   0.362   1.017
 2569SOL    HW1 8606   1.846   0.444   0.979
 2569SOL    HW2 8607   1.880   0.287   0.952
 2570SOL     OW 8608   6.864   6.844   5.770
 2570SOL    HW1 8609   6.908   6.859   5.859
 2570SOL    HW2 8610   6.923   6.788   5.713
 2571SOL     OW 8611   3.654   2.856   3.546
 2571SOL    HW1 8612   3.610   2.908   3.619
 2571SOL    HW2 8613   3.619   2.762   3.548
 2572SOL     OW 8614   1.830   5.871   1.866
 2572SOL    HW1 8615   1.757   5.825   1.815
 2572SOL    HW2 8616   1.882   5.803   1.917
 2573SOL     OW 8617   6.837   2.228   4.805
 2573SOL    HW1 8618   6.739   2.227   4.783
 2573SOL    HW2 8619   6.866   2.138   4.836
 2574SOL     OW 8620   0.801   3.683   2.489
 2574SOL    HW1 8621   0.841   3.668   2.399
 2574SOL    HW2 8622   0.773   3.779   2.497
 2575SOL     OW 8623   5.926   3.689   0.440
 2575SOL    HW1 8624   5.977   3.763   0.397
 2575SOL    HW2 8625   5.877   3.725   0.520
 2576SOL     OW 8626   2.493   6.617   3.891
 2576SOL    HW1 8627   2.442   6.670   3.823
 2576SOL    HW2 8628   2.433   6.549   3.933
 2577SOL     OW 8629   2.869   6.232   1.804
 2577SOL    HW1 8630   2.866   6.137   1.835
 2577SOL    HW2 8631   2.887   6.292   1.882
 2578SOL     OW 8632   4.935   1.968   4.041
 2578SOL    HW1 8633   4.886   2.016   4.113
 2578SOL    HW2 8634   4.954   2.031   3.965
 2579SOL     OW 8635   6.683   1.917   6.133
 2579SOL    HW1 8636   6.626   1.901   6.053
 2579SOL    HW2 8637   6.736   2.001   6.120
 2580SOL     OW 8638   1.325   2.519   6.385
 2580SOL    HW1 8639   1.404   2.467   6.353
 2580SOL    HW2 8640   1.244   2.461   6.383
 2581SOL     OW 8641   6.532   6.817   3.938
 2581SOL    HW1 8642   6.610   6.856   3.888
 2581SOL    HW2 8643   6.561   6.733   3.984
 2582SOL     OW 8644   0.466   5.522   2.841
 2582SOL    HW1 8645   0.414   5.506   2.925
 2582SOL    HW2 8646   0.403   5.550   2.768
 2583SOL     OW 8647   2.002   0.872   0.401
 2583SOL    HW1 8648   1.977   0.947   0.462
 2583SOL    HW2 8649   2.101   0.870   0.390
 2584SOL     OW 8650   5.189   6.621   1.898
 2584SOL    HW1 8651   5.237   6.538   1.869
 2584SOL    HW2 8652   5.094   6.599   1.918
 2585SOL     OW 8653   3.759   1.268   1.711
 2585SOL    HW1 8654   3.736   1.230   1.621
 2585SOL    HW2 8655   3.718   1.359   1.720
 2586SOL     OW 8656   6.784   2.539   4.447
 2586SOL    HW1 8657   6.841   2.461   4.421
 2586SOL    HW2 8658   6.707   2.507   4.502
 2587SOL     OW 8659   5.468   6.410   2.795
 2587SOL    HW1 8660   5.430   6.408   2.702
 2587SOL    HW2 8661   5.397   6.440   2.859
 2588SOL     OW 8662   5.636   0.867   1.407
 2588SOL    HW1 8663   5.668   0.875   1.502
 2588SOL    HW2 8664   5.656   0.775   1.373
 2589SOL     OW 8665   6.543   6.577   1.065
 2589SOL    HW1 8666   6.451   6.554   1.033
 2589SOL    HW2 8667   6.561   6.528   1.151
 2590SOL     OW 8668   3.997   6.186   2.317
 2590SOL    HW1 8669   4.070   6.128   2.282
 2590SOL    HW2 8670   3.997   6.183   2.417
 2591SOL     OW 8671   5.986   0.605   1.805
 2591SOL    HW1 8672   6.085   0.591   1.803
 2591SOL    HW2 8673   5.954   0.629   1.713
 2592SOL     OW 8674   3.908   5.806   1.295
 2592SOL    HW1 8675   3.909   5.898   1.335
 2592SOL    HW2 8676   3.872   5.741   1.361
 2593SOL     OW 8677   3.135   6.521   2.629
 2593SOL    HW1 8678   3.037   6.535   2.615
 2593SOL    HW2 8679   3.153   6.511   2.727
 2594SOL     OW 8680   1.104   6.097   6.372
 2594SOL    HW1 8681   1.123   6.051   6.460
 2594SOL    HW2 8682   1.021   6.057   6.332
 2595SOL     OW 8683   6.306   3.845   4.234
 2595SOL    HW1 8684   6.292   3.943   4.224
 2595SOL    HW2 8685   6.252   3.812   4.312
 2596SOL     OW 8686   3.961   2.149   2.065
 2596SOL    HW1 8687   3.863   2.168   2.059
 2596SOL    HW2 8688   4.000   2.149   1.973
 2597SOL     OW 8689   2.116   3.003   6.714
 2597SOL    HW1 8690   2.079   3.095   6.697
 2597SOL    HW2 8691   2.085   2.941   6.642
 2598SOL     OW 8692   6.612   3.141   2.937
 2598SOL    HW1 8693   6.652   3.195   3.010
 2598SOL    HW2 8694   6.684   3.093   2.887
 2599SOL     OW 8695   4.619   4.583   7.002
 2599SOL    HW1 8696   4.708   4.539   6.990
 2599SOL    HW2 8697   4.553   4.518   0.016
 2600SOL     OW 8698   6.548   3.610   3.262
 2600SOL    HW1 8699   6.642   3.641   3.274
 2600SOL    HW2 8700   6.536   3.521   3.307
 2601SOL     OW 8701   3.804   2.948   5.872
 2601SOL    HW1 8702   3.896   2.941   5.912
 2601SOL    HW2 8703   3.809   2.930   5.774
 2602SOL     OW 8704   6.329   6.152   4.653
 2602SOL    HW1 8705   6.268   6.074   4.666
 2602SOL    HW2 8706   6.276   6.237   4.657
 2603SOL     OW 8707   3.239   2.838   0.722
 2603SOL    HW1 8708   3.202   2.881   0.804
 2603SOL    HW2 8709   3.278   2.749   0.746
 2604SOL     OW 8710   6.100   1.092   1.669
 2604SOL    HW1 8711   6.146   1.003   1.661
 2604SOL    HW2 8712   6.028   1.086   1.739
 2605SOL     OW 8713   4.372   4.914   4.155
 2605SOL    HW1 8714   4.351   4.972   4.077
 2605SOL    HW2 8715   4.361   4.818   4.130
 2606SOL     OW 8716   0.049   4.449   1.411
 2606SOL    HW1 8717   0.025   4.365   1.363
 2606SOL    HW2 8718   7.012   4.459   1.492
 2607SOL     OW 8719   0.794   1.198   4.307
 2607SOL    HW1 8720   0.855   1.180   4.230
 2607SOL    HW2 8721   0.777   1.297   4.314
 2608SOL     OW 8722   5.174   0.776   0.658
 2608SOL    HW1 8723   5.110   0.848   0.631
 2608SOL    HW2 8724   5.137   0.687   0.633
 2609SOL     OW 8725   0.486   2.155   3.973
 2609SOL    HW1 8726   0.431   2.182   4.052
 2609SOL    HW2 8727   0.571   2.208   3.972
 2610SOL     OW 8728   6.205   5.621   4.620
 2610SOL    HW1 8729   6.255   5.695   4.666
 2610SOL    HW2 8730   6.269   5.547   4.598
 2611SOL     OW 8731   4.001   6.446   1.318
 2611SOL    HW1 8732   3.948   6.438   1.235
 2611SOL    HW2 8733   3.956   6.397   1.392
 2612SOL     OW 8734   6.366   6.617   4.153
 2612SOL    HW1 8735   6.357   6.523   4.186
 2612SOL    HW2 8736   6.276   6.661   4.152
 2613SOL     OW 8737   4.017   0.493   1.390
 2613SOL    HW1 8738   3.973   0.581   1.372
 2613SOL    HW2 8739   3.950   0.429   1.427
 2614SOL     OW 8740   6.976   6.282   6.887
 2614SOL    HW1 8741   6.930   6.361   6.928
 2614SOL    HW2 8742   6.909   6.211   6.869
 2615SOL     OW 8743   6.112   4.813   2.057
 2615SOL    HW1 8744   6.130   4.723   2.017
 2615SOL    HW2 8745   6.106   4.881   1.984
 2616SOL     OW 8746   3.677   3.078   2.770
 2616SOL    HW1 8747   3.646   3.016   2.842
 2616SOL    HW2 8748   3.676   3.030   2.683
 2617SOL     OW 8749   4.157   0.295   1.218
 2617SOL    HW1 8750   4.125   0.346   1.299
 2617SOL    HW2 8751   4.170   0.359   1.142
 2618SOL     OW 8752   1.058   0.841   0.976
 2618SOL    HW1 8753   1.022   0.860   1.067
 2618SOL    HW2 8754   0.984   0.807   0.917
 2619SOL     OW 8755   4.744   1.858   1.742
 2619SOL    HW1 8756   4.655   1.833   1.781
 2619SOL    HW2 8757   4.758   1.808   1.657
 2620SOL     OW 8758   1.593   4.031   4.287
 2620SOL    HW1 8759   1.591   4.055   4.384
 2620SOL    HW2 8760   1.624   4.110   4.234
 2621SOL     OW 8761   0.738   5.133   3.946
 2621SOL    HW1 8762   0.663   5.111   3.883
 2621SOL    HW2 8763   0.818   5.078   3.922
 2622SOL     OW 8764   2.794   3.130   6.355
 2622SOL    HW1 8765   2.749   3.152   6.442
 2622SOL    HW2 8766   2.800   3.212   6.299
 2623SOL     OW 8767   2.789   1.036   5.605
 2623SOL    HW1 8768   2.880   0.994   5.595
 2623SOL    HW2 8769   2.732   1.010   5.527
 2624SOL     OW 8770   6.675   2.196   4.047
 2624SOL    HW1 8771   6.654   2.198   3.949
 2624SOL    HW2 8772   6.660   2.104   4.083
 2625SOL     OW 8773   4.100   1.043   5.330
 2625SOL    HW1 8774   4.044   1.014   5.408
 2625SOL    HW2 8775   4.040   1.067   5.254
 2626SOL     OW 8776   2.138   6.667   2.368
 2626SOL    HW1 8777   2.090   6.602   2.428
 2626SOL    HW2 8778   2.164   6.748   2.421
 2627SOL     OW 8779   0.040   6.953   4.356
 2627SOL    HW1 8780   6.969   6.962   4.322
 2627SOL    HW2 8781   0.102   7.008   4.301
 2628SOL     OW 8782   4.017   5.839   6.269
 2628SOL    HW1 8783   3.974   5.749   6.269
 2628SOL    HW2 8784   4.068   5.852   6.184
 2629SOL     OW 8785   3.619   3.932   1.175
 2629SOL    HW1 8786   3.554   3.874   1.125
 2629SOL    HW2 8787   3.591   3.938   1.271
 2630SOL     OW 8788   2.734   2.144   2.555
 2630SOL    HW1 8789   2.790   2.174   2.478
 2630SOL    HW2 8790   2.643   2.118   2.522
 2631SOL     OW 8791   4.694   6.189   4.394
 2631SOL    HW1 8792   4.618   6.142   4.438
 2631SOL    HW2 8793   4.659   6.267   4.342
 2632SOL     OW 8794   4.822   2.267   0.311
 2632SOL    HW1 8795   4.745   2.287   0.372
 2632SOL    HW2 8796   4.820   2.170   0.286
 2633SOL     OW 8797   6.031   2.217   6.762
 2633SOL    HW1 8798   6.096   2.291   6.745
 2633SOL    HW2 8799   6.080   2.136   6.795
 2634SOL     OW 8800   2.517   5.066   0.939
 2634SOL    HW1 8801   2.576   5.061   0.859
 2634SOL    HW2 8802   2.571   5.052   1.022
 2635SOL     OW 8803   5.274   4.338   4.328
 2635SOL    HW1 8804   5.279   4.397   4.409
 2635SOL    HW2 8805   5.239   4.392   4.251
 2636SOL     OW 8806   5.902   0.566   4.978
 2636SOL    HW1 8807   5.952   0.564   4.892
 2636SOL    HW2 8808   5.870   0.474   5.000
 2637SOL     OW 8809   4.850   6.737   2.671
 2637SOL    HW1 8810   4.901   6.653   2.655
 2637SOL    HW2 8811   4.885   6.810   2.613
 2638SOL     OW 8812   5.506   6.201   0.982
 2638SOL    HW1 8813   5.528   6.156   1.068
 2638SOL    HW2 8814   5.576   6.270   0.962
 2639SOL     OW 8815   6.472   6.162   0.430
 2639SOL    HW1 8816   6.553   6.111   0.459
 2639SOL    HW2 8817   6.401   6.155   0.500
 2640SOL     OW 8818   0.011   6.632   5.671
 2640SOL    HW1 8819   0.096   6.590   5.701
 2640SOL    HW2 8820   0.017   6.657   5.574
 2641SOL     OW 8821   5.634   4.933   0.188
 2641SOL    HW1 8822   5.562   4.891   0.132
 2641SOL    HW2 8823   5.592   4.995   0.255
 2642SOL     OW 8824   5.541   6.850   3.880
 2642SOL    HW1 8825   5.516   6.824   3.787
 2642SOL    HW2 8826   5.459   6.870   3.932
 2643SOL     OW 8827   0.972   0.228   2.240
 2643SOL    HW1 8828   0.882   0.192   2.262
 2643SOL    HW2 8829   0.962   0.312   2.187
 2644SOL     OW 8830   0.341   4.694   6.106
 2644SOL    HW1 8831   0.274   4.626   6.077
 2644SOL    HW2 8832   0.316   4.728   6.196
 2645SOL     OW 8833   5.429   5.912   5.624
 2645SOL    HW1 8834   5.498   5.864   5.569
 2645SOL    HW2 8835   5.345   5.858   5.628
 2646SOL     OW 8836   6.452   6.566   0.301
 2646SOL    HW1 8837   6.379   6.628   0.274
 2646SOL    HW2 8838   6.429   6.473   0.273
 2647SOL     OW 8839   3.803   1.647   1.127
 2647SOL    HW1 8840   3.734   1.664   1.197
 2647SOL    HW2 8841   3.810   1.548   1.111
 2648SOL     OW 8842   4.572   0.492   2.302
 2648SOL    HW1 8843   4.611   0.401   2.287
 2648SOL    HW2 8844   4.564   0.508   2.401
 2649SOL     OW 8845   3.158   1.669   5.948
 2649SOL    HW1 8846   3.192   1.750   5.902
 2649SOL    HW2 8847   3.059   1.664   5.940
 2650SOL     OW 8848   0.451   6.061   2.396
 2650SOL    HW1 8849   0.437   6.023   2.304
 2650SOL    HW2 8850   0.548   6.081   2.410
 2651SOL     OW 8851   6.653   0.918   3.172
 2651SOL    HW1 8852   6.702   0.866   3.242
 2651SOL    HW2 8853   6.714   0.986   3.132
 2652SOL     OW 8854   3.039   3.424   2.898
 2652SOL    HW1 8855   3.058   3.327   2.886
 2652SOL    HW2 8856   2.988   3.459   2.819
 2653SOL     OW 8857   6.425   6.566   6.542
 2653SOL    HW1 8858   6.514   6.529   6.568
 2653SOL    HW2 8859   6.420   6.662   6.567
 2654SOL     OW 8860   5.676   2.753   6.000
 2654SOL    HW1 8861   5.728   2.834   5.973
 2654SOL    HW2 8862   5.687   2.682   5.930
 2655SOL     OW 8863   4.585   6.147   4.844
 2655SOL    HW1 8864   4.622   6.057   4.823
 2655SOL    HW2 8865   4.579   6.159   4.943
 2656SOL     OW 8866   5.816   3.261   4.004
 2656SOL    HW1 8867   5.742   3.269   4.071
 2656SOL    HW2 8868   5.830   3.164   3.982
 2657SOL     OW 8869   2.021   3.599   6.558
 2657SOL    HW1 8870   2.028   3.505   6.526
 2657SOL    HW2 8871   2.055   3.661   6.487
 2658SOL     OW 8872   5.986   3.899   6.140
 2658SOL    HW1 8873   5.974   3.866   6.233
 2658SOL    HW2 8874   6.009   3.996   6.142
 2659SOL     OW 8875   6.739   2.823   3.783
 2659SOL    HW1 8876   6.661   2.828   3.721
 2659SOL    HW2 8877   6.773   2.729   3.788
 2660SOL     OW 8878   7.016   2.310   3.125
 2660SOL    HW1 8879   6.924   2.278   3.104
 2660SOL    HW2 8880   0.011   2.397   3.078
 2661SOL     OW 8881   4.180   6.193   0.928
 2661SOL    HW1 8882   4.252   6.181   0.860
 2661SOL    HW2 8883   4.198   6.277   0.980
 2662SOL     OW 8884   3.192   6.895   4.166
 2662SOL    HW1 8885   3.157   6.949   4.243
 2662SOL    HW2 8886   3.275   6.847   4.195
 2663SOL     OW 8887   1.211   4.418   2.593
 2663SOL    HW1 8888   1.112   4.405   2.602
 2663SOL    HW2 8889   1.250   4.436   2.683
 2664SOL     OW 8890   4.073   3.694   2.131
 2664SOL    HW1 8891   4.083   3.620   2.198
 2664SOL    HW2 8892   4.060   3.781   2.178
 2665SOL     OW 8893   3.730   1.376   4.432
 2665SOL    HW1 8894   3.763   1.441   4.501
 2665SOL    HW2 8895   3.797   1.370   4.358
 2666SOL     OW 8896   5.330   5.298   1.230
 2666SOL    HW1 8897   5.426   5.308   1.204
 2666SOL    HW2 8898   5.277   5.267   1.151
 2667SOL     OW 8899   2.054   5.341   3.884
 2667SOL    HW1 8900   2.125   5.283   3.923
 2667SOL    HW2 8901   1.964   5.299   3.898
 2668SOL     OW 8902   0.332   2.805   5.684
 2668SOL    HW1 8903   0.359   2.777   5.592
 2668SOL    HW2 8904   0.304   2.901   5.682
 2669SOL     OW 8905   4.205   4.760   4.919
 2669SOL    HW1 8906   4.245   4.670   4.937
 2669SOL    HW2 8907   4.276   4.830   4.927
 2670SOL     OW 8908   1.463   1.298   6.815
 2670SOL    HW1 8909   1.430   1.269   6.725
 2670SOL    HW2 8910   1.561   1.279   6.822
 2671SOL     OW 8911   1.972   3.277   6.191
 2671SOL    HW1 8912   1.946   3.181   6.178
 2671SOL    HW2 8913   2.014   3.311   6.107
 2672SOL     OW 8914   1.348   5.416   1.430
 2672SOL    HW1 8915   1.423   5.368   1.477
 2672SOL    HW2 8916   1.266   5.413   1.487
 2673SOL     OW 8917   3.798   2.094   2.714
 2673SOL    HW1 8918   3.851   2.090   2.798
 2673SOL    HW2 8919   3.860   2.096   2.635
 2674SOL     OW 8920   4.930   5.015   5.291
 2674SOL    HW1 8921   4.933   5.035   5.390
 2674SOL    HW2 8922   5.011   4.963   5.266
 2675SOL     OW 8923   0.292   4.693   5.617
 2675SOL    HW1 8924   0.359   4.739   5.558
 2675SOL    HW2 8925   0.325   4.694   5.711
 2676SOL     OW 8926   4.052   0.597   2.024
 2676SOL    HW1 8927   4.107   0.583   2.106
 2676SOL    HW2 8928   4.109   0.579   1.943
 2677SOL     OW 8929   2.432   4.922   1.906
 2677SOL    HW1 8930   2.489   4.924   1.824
 2677SOL    HW2 8931   2.392   4.831   1.916
 2678SOL     OW 8932   0.673   4.799   5.794
 2678SOL    HW1 8933   0.655   4.895   5.773
 2678SOL    HW2 8934   0.587   4.751   5.809
 2679SOL     OW 8935   3.012   4.364   0.876
 2679SOL    HW1 8936   3.109   4.363   0.850
 2679SOL    HW2 8937   2.994   4.290   0.940
 2680SOL     OW 8938   1.243   2.008   1.586
 2680SOL    HW1 8939   1.193   1.926   1.557
 2680SOL    HW2 8940   1.338   1.984   1.604
 2681SOL     OW 8941   1.583   2.656   3.155
 2681SOL    HW1 8942   1.642   2.613   3.087
 2681SOL    HW2 8943   1.587   2.605   3.241
 2682SOL     OW 8944   5.531   2.510   2.864
 2682SOL    HW1 8945   5.607   2.534   2.803
 2682SOL    HW2 8946   5.449   2.493   2.809
 2683SOL     OW 8947   1.189   5.997   1.239
 2683SOL    HW1 8948   1.181   6.020   1.337
 2683SOL    HW2 8949   1.273   6.036   1.202
 2684SOL     OW 8950   2.445   6.626   2.648
 2684SOL    HW1 8951   2.526   6.682   2.664
 2684SOL    HW2 8952   2.365   6.684   2.638
 2685SOL     OW 8953   5.454   5.626   5.227
 2685SOL    HW1 8954   5.408   5.587   5.306
 2685SOL    HW2 8955   5.402   5.704   5.192
 2686SOL     OW 8956   2.262   2.917   4.563
 2686SOL    HW1 8957   2.204   2.927   4.643
 2686SOL    HW2 8958   2.302   3.005   4.538
 2687SOL     OW 8959   4.342   5.495   2.727
 2687SOL    HW1 8960   4.300   5.492   2.636
 2687SOL    HW2 8961   4.311   5.417   2.781
 2688SOL     OW 8962   3.964   4.370   6.367
 2688SOL    HW1 8963   3.920   4.328   6.446
 2688SOL    HW2 8964   3.994   4.298   6.304
 2689SOL     OW 8965   7.009   3.654   3.853
 2689SOL    HW1 8966   7.021   3.729   3.788
 2689SOL    HW2 8967   0.077   3.620   3.882
 2690SOL     OW 8968   3.972   3.884   3.455
 2690SOL    HW1 8969   4.020   3.883   3.543
 2690SOL    HW2 8970   3.936   3.793   3.435
 2691SOL     OW 8971   1.772   6.153   1.907
 2691SOL    HW1 8972   1.817   6.207   1.837
 2691SOL    HW2 8973   1.785   6.055   1.888
 2692SOL     OW 8974   0.220   6.510   4.047
 2692SOL    HW1 8975   0.159   6.545   3.975
 2692SOL    HW2 8976   0.190   6.544   4.136
 2693SOL     OW 8977   1.934   4.164   3.060
 2693SOL    HW1 8978   1.856   4.108   3.088
 2693SOL    HW2 8979   1.961   4.138   2.967
 2694SOL     OW 8980   1.851   6.683   3.303
 2694SOL    HW1 8981   1.805   6.619   3.364
 2694SOL    HW2 8982   1.788   6.757   3.279
 2695SOL     OW 8983   4.325   2.114   3.388
 2695SOL    HW1 8984   4.386   2.070   3.322
 2695SOL    HW2 8985   4.260   2.047   3.423
 2696SOL     OW 8986   4.088   3.772   5.474
 2696SOL    HW1 8987   4.109   3.821   5.558
 2696SOL    HW2 8988   4.071   3.838   5.400
 2697SOL     OW 8989   2.906   1.939   4.221
 2697SOL    HW1 8990   2.817   1.956   4.178
 2697SOL    HW2 8991   2.894   1.925   4.319
 2698SOL     OW 8992   1.967   3.468   0.559
 2698SOL    HW1 8993   1.924   3.543   0.509
 2698SOL    HW2 8994   2.067   3.481   0.559
 2699SOL     OW 8995   3.559   6.014   1.697
 2699SOL    HW1 8996   3.578   6.052   1.787
 2699SOL    HW2 8997   3.512   6.082   1.641
 2700SOL     OW 8998   1.997   3.495   2.480
 2700SOL    HW1 8999   2.036   3.425   2.540
 2700SOL    HW2 9000   2.022   3.586   2.514
 2701SOL     OW 9001   4.036   6.821   6.674
 2701SOL    HW1 9002   3.943   6.786   6.661
 2701SOL    HW2 9003   4.046   6.855   6.768
 2702SOL     OW 9004   6.818   0.527   3.675
 2702SOL    HW1 9005   6.833   0.617   3.715
 2702SOL    HW2 9006   6.721   0.515   3.656
 2703SOL     OW 9007   1.684   1.766   2.512
 2703SOL    HW1 9008   1.710   1.678   2.551
 2703SOL    HW2 9009   1.720   1.773   2.419
 2704SOL     OW 9010   2.273   4.885   1.231
 2704SOL    HW1 9011   2.228   4.846   1.312
 2704SOL    HW2 9012   2.326   4.815   1.185
 2705SOL     OW 9013   6.075   5.210   3.567
 2705SOL    HW1 9014   6.015   5.279   3.525
 2705SOL    HW2 9015   6.052   5.120   3.532
 2706SOL     OW 9016   6.795   1.209   1.988
 2706SOL    HW1 9017   6.828   1.212   1.893
 2706SOL    HW2 9018   6.801   1.115   2.022
 2707SOL     OW 9019   2.050   1.421   5.742
 2707SOL    HW1 9020   2.051   1.339   5.799
 2707SOL    HW2 9021   2.141   1.462   5.741
 2708SOL     OW 9022   1.910   3.055   1.352
 2708SOL    HW1 9023   1.949   2.978   1.402
 2708SOL    HW2 9024   1.972   3.133   1.357
 2709SOL     OW 9025   4.342   6.215   0.687
 2709SOL    HW1 9026   4.323   6.126   0.646
 2709SOL    HW2 9027   4.431   6.248   0.656
 2710SOL     OW 9028   6.717   4.070   3.079
 2710SOL    HW1 9029   6.670   4.113   3.156
 2710SOL    HW2 9030   6.706   4.126   2.997
 2711SOL     OW 9031   1.578   0.636   2.397
 2711SOL    HW1 9032   1.578   0.729   2.433
 2711SOL    HW2 9033   1.510   0.629   2.323
 2712SOL     OW 9034   2.828   4.032   0.265
 2712SOL    HW1 9035   2.893   3.985   0.325
 2712SOL    HW2 9036   2.877   4.100   0.210
 2713SOL     OW 9037   2.220   3.178   5.460
 2713SOL    HW1 9038   2.305   3.130   5.439
 2713SOL    HW2 9039   2.225   3.216   5.552
 2714SOL     OW 9040   5.005   6.860   5.792
 2714SOL    HW1 9041   4.994   6.762   5.810
 2714SOL    HW2 9042   5.092   6.877   5.746
 2715SOL     OW 9043   6.111   1.250   6.658
 2715SOL    HW1 9044   6.037   1.315   6.645
 2715SOL    HW2 9045   6.077   1.157   6.645
 2716SOL     OW 9046   0.369   6.599   2.527
 2716SOL    HW1 9047   0.277   6.609   2.490
 2716SOL    HW2 9048   0.425   6.677   2.499
 2717SOL     OW 9049   0.797   0.738   2.582
 2717SOL    HW1 9050   0.713   0.685   2.571
 2717SOL    HW2 9051   0.814   0.754   2.679
 2718SOL     OW 9052   2.281   4.784   3.826
 2718SOL    HW1 9053   2.365   4.831   3.797
 2718SOL    HW2 9054   2.247   4.728   3.751
 2719SOL     OW 9055   4.096   5.116   1.659
 2719SOL    HW1 9056   4.077   5.031   1.709
 2719SOL    HW2 9057   4.120   5.188   1.724
 2720SOL     OW 9058   1.709   6.365   3.797
 2720SOL    HW1 9059   1.637   6.333   3.735
 2720SOL    HW2 9060   1.788   6.303   3.790
 2721SOL     OW 9061   3.832   7.021   3.941
 2721SOL    HW1 9062   3.849   6.938   3.994
 2721SOL    HW2 9063   3.888   0.074   3.977
 2722SOL     OW 9064   1.318   6.155   2.239
 2722SOL    HW1 9065   1.367   6.164   2.152
 2722SOL    HW2 9066   1.384   6.138   2.312
 2723SOL     OW 9067   1.629   1.745   5.955
 2723SOL    HW1 9068   1.597   1.692   5.877
 2723SOL    HW2 9069   1.708   1.801   5.927
 2724SOL     OW 9070   3.932   5.570   6.399
 2724SOL    HW1 9071   4.029   5.557   6.420
 2724SOL    HW2 9072   3.883   5.592   6.484
 2725SOL     OW 9073   3.438   4.913   4.127
 2725SOL    HW1 9074   3.528   4.872   4.114
 2725SOL    HW2 9075   3.384   4.902   4.044
 2726SOL     OW 9076   4.403   5.385   1.886
 2726SOL    HW1 9077   4.449   5.429   1.964
 2726SOL    HW2 9078   4.460   5.311   1.851
 2727SOL     OW 9079   1.945   5.474   2.550
 2727SOL    HW1 9080   1.981   5.439   2.464
 2727SOL    HW2 9081   1.864   5.531   2.531
 2728SOL     OW 9082   3.054   6.890   5.586
 2728SOL    HW1 9083   3.038   6.982   5.549
 2728SOL    HW2 9084   2.979   6.830   5.560
 2729SOL     OW 9085   5.649   5.312   3.005
 2729SOL    HW1 9086   5.666   5.224   2.961
 2729SOL    HW2 9087   5.733   5.346   3.046
 2730SOL     OW 9088   1.694   6.232   1.133
 2730SOL    HW1 9089   1.661   6.169   1.062
 2730SOL    HW2 9090   1.617   6.282   1.172
 2731SOL     OW 9091   3.260   3.875   1.774
 2731SOL    HW1 9092   3.289   3.965   1.807
 2731SOL    HW2 9093   3.270   3.808   1.847
 2732SOL     OW 9094   6.050   1.892   2.549
 2732SOL    HW1 9095   6.055   1.815   2.613
 2732SOL    HW2 9096   6.135   1.896   2.496
 2733SOL     OW 9097   1.592   6.894   6.339
 2733SOL    HW1 9098   1.666   6.834   6.311
 2733SOL    HW2 9099   1.514   6.883   6.277
 2734SOL     OW 9100   2.134   5.483   4.210
 2734SOL    HW1 9101   2.155   5.387   4.225
 2734SOL    HW2 9102   2.219   5.536   4.213
 2735SOL     OW 9103   1.601   5.072   2.493
 2735SOL    HW1 9104   1.535   5.048   2.422
 2735SOL    HW2 9105   1.688   5.026   2.474
 2736SOL     OW 9106   4.147   0.309   5.142
 2736SOL    HW1 9107   4.225   0.290   5.202
 2736SOL    HW2 9108   4.138   0.236   5.075
 2737SOL     OW 9109   4.689   3.928   6.325
 2737SOL    HW1 9110   4.672   3.985   6.405
 2737SOL    HW2 9111   4.621   3.854   6.322
 2738SOL     OW 9112   5.551   5.201   4.347
 2738SOL    HW1 9113   5.561   5.298   4.369
 2738SOL    HW2 9114   5.612   5.178   4.272
 2739SOL     OW 9115   5.936   3.273   0.708
 2739SOL    HW1 9116   5.974   3.325   0.632
 2739SOL    HW2 9117   6.010   3.248   0.771
 2740SOL     OW 9118   5.928   2.525   3.356
 2740SOL    HW1 9119   5.944   2.621   3.381
 2740SOL    HW2 9120   6.015   2.483   3.329
 2741SOL     OW 9121   0.219   2.467   6.283
 2741SOL    HW1 9122   0.232   2.460   6.184
 2741SOL    HW2 9123   0.309   2.469   6.328
 2742SOL     OW 9124   1.989   6.581   6.487
 2742SOL    HW1 9125   1.988   6.550   6.392
 2742SOL    HW2 9126   2.017   6.677   6.489
 2743SOL     OW 9127   5.585   5.066   0.855
 2743SOL    HW1 9128   5.581   4.995   0.926
 2743SOL    HW2 9129   5.653   5.040   0.786
 2744SOL     OW 9130   4.067   1.151   6.066
 2744SOL    HW1 9131   3.987   1.174   6.011
 2744SOL    HW2 9132   4.048   1.070   6.121
 2745SOL     OW 9133   2.657   6.449   0.803
 2745SOL    HW1 9134   2.654   6.548   0.818
 2745SOL    HW2 9135   2.703   6.430   0.716
 2746SOL     OW 9136   1.744   1.979   6.339
 2746SOL    HW1 9137   1.711   2.042   6.410
 2746SOL    HW2 9138   1.684   1.899   6.334
 2747SOL     OW 9139   4.244   6.306   4.409
 2747SOL    HW1 9140   4.184   6.233   4.377
 2747SOL    HW2 9141   4.192   6.370   4.466
 2748SOL     OW 9142   3.809   1.318   3.333
 2748SOL    HW1 9143   3.748   1.268   3.272
 2748SOL    HW2 9144   3.813   1.414   3.304
 2749SOL     OW 9145   4.572   5.522   3.664
 2749SOL    HW1 9146   4.480   5.482   3.668
 2749SOL    HW2 9147   4.591   5.571   3.749
 2750SOL     OW 9148   0.382   5.665   2.506
 2750SOL    HW1 9149   0.339   5.640   2.592
 2750SOL    HW2 9150   0.481   5.677   2.520
 2751SOL     OW 9151   1.579   0.135   6.353
 2751SOL    HW1 9152   1.578   0.157   6.451
 2751SOL    HW2 9153   1.584   0.036   6.341
 2752SOL     OW 9154   6.151   6.213   5.760
 2752SOL    HW1 9155   6.164   6.199   5.661
 2752SOL    HW2 9156   6.084   6.146   5.793
 2753SOL     OW 9157   2.932   5.506   5.862
 2753SOL    HW1 9158   3.006   5.524   5.798
 2753SOL    HW2 9159   2.953   5.424   5.916
 2754SOL     OW 9160   1.323   0.371   4.152
 2754SOL    HW1 9161   1.356   0.457   4.113
 2754SOL    HW2 9162   1.355   0.295   4.095
 2755SOL     OW 9163   3.534   6.297   2.099
 2755SOL    HW1 9164   3.544   6.391   2.067
 2755SOL    HW2 9165   3.468   6.295   2.174
 2756SOL     OW 9166   0.516   3.046   5.983
 2756SOL    HW1 9167   0.445   3.060   6.052
 2756SOL    HW2 9168   0.596   3.005   6.025
 2757SOL     OW 9169   4.381   3.295   6.866
 2757SOL    HW1 9170   4.444   3.218   6.862
 2757SOL    HW2 9171   4.349   3.317   6.774
 2758SOL     OW 9172   6.647   5.917   2.341
 2758SOL    HW1 9173   6.555   5.900   2.307
 2758SOL    HW2 9174   6.704   5.836   2.326
 2759SOL     OW 9175   3.080   3.760   5.968
 2759SOL    HW1 9176   3.134   3.842   5.991
 2759SOL    HW2 9177   3.140   3.691   5.927
 2760SOL     OW 9178   5.266   6.347   2.971
 2760SOL    HW1 9179   5.179   6.395   2.974
 2760SOL    HW2 9180   5.293   6.321   3.064
 2761SOL     OW 9181   1.422   3.030   3.302
 2761SOL    HW1 9182   1.451   3.092   3.374
 2761SOL    HW2 9183   1.353   2.968   3.337
 2762SOL     OW 9184   2.657   2.532   0.515
 2762SOL    HW1 9185   2.638   2.532   0.613
 2762SOL    HW2 9186   2.685   2.623   0.486
 2763SOL     OW 9187   5.639   2.032   4.609
 2763SOL    HW1 9188   5.647   2.130   4.593
 2763SOL    HW2 9189   5.651   2.013   4.707
 2764SOL     OW 9190   0.697   3.457   2.622
 2764SOL    HW1 9191   0.746   3.539   2.593
 2764SOL    HW2 9192   0.704   3.387   2.551
 2765SOL     OW 9193   6.606   6.541   0.023
 2765SOL    HW1 9194   6.575   6.633   0.046
 2765SOL    HW2 9195   6.705   6.538   0.019
 2766SOL     OW 9196   5.116   1.077   6.400
 2766SOL    HW1 9197   5.181   1.153   6.405
 2766SOL    HW2 9198   5.079   1.060   6.492
 2767SOL     OW 9199   6.335   5.356   6.464
 2767SOL    HW1 9200   6.332   5.456   6.477
 2767SOL    HW2 9201   6.289   5.312   6.541
 2768SOL     OW 9202   4.354   0.132   1.116
 2768SOL    HW1 9203   4.263   0.164   1.144
 2768SOL    HW2 9204   4.406   0.208   1.078
 2769SOL     OW 9205   0.714   4.539   6.033
 2769SOL    HW1 9206   0.651   4.475   6.077
 2769SOL    HW2 9207   0.691   4.632   6.061
 2770SOL     OW 9208   3.233   6.755   0.644
 2770SOL    HW1 9209   3.218   6.753   0.743
 2770SOL    HW2 9210   3.331   6.753   0.625
 2771SOL     OW 9211   4.330   6.850   4.719
 2771SOL    HW1 9212   4.396   6.871   4.792
 2771SOL    HW2 9213   4.375   6.794   4.650
 2772SOL     OW 9214   4.545   0.221   3.583
 2772SOL    HW1 9215   4.455   0.212   3.626
 2772SOL    HW2 9216   4.590   0.304   3.616
 2773SOL     OW 9217   5.790   2.788   5.152
 2773SOL    HW1 9218   5.769   2.692   5.135
 2773SOL    HW2 9219   5.706   2.841   5.150
 2774SOL     OW 9220   6.131   2.024   4.416
 2774SOL    HW1 9221   6.127   1.992   4.321
 2774SOL    HW2 9222   6.221   2.005   4.454
 2775SOL     OW 9223   0.436   3.755   4.063
 2775SOL    HW1 9224   0.535   3.769   4.056
 2775SOL    HW2 9225   0.392   3.840   4.091
 2776SOL     OW 9226   4.910   4.476   6.085
 2776SOL    HW1 9227   4.911   4.566   6.128
 2776SOL    HW2 9228   4.851   4.478   6.004
 2777SOL     OW 9229   2.918   2.311   6.339
 2777SOL    HW1 9230   2.974   2.235   6.372
 2777SOL    HW2 9231   2.978   2.384   6.306
 2778SOL     OW 9232   3.143   0.008   5.823
 2778SOL    HW1 9233   3.105   7.005   5.912
 2778SOL    HW2 9234   3.105   6.972   5.752
 2779SOL     OW 9235   5.650   0.542   1.479
 2779SOL    HW1 9236   5.618   0.464   1.425
 2779SOL    HW2 9237   5.572   0.592   1.516
 2780SOL     OW 9238   6.719   1.962   4.584
 2780SOL    HW1 9239   6.641   1.916   4.540
 2780SOL    HW2 9240   6.685   2.023   4.656
 2781SOL     OW 9241   5.581   1.490   3.356
 2781SOL    HW1 9242   5.597   1.524   3.449
 2781SOL    HW2 9243   5.613   1.396   3.349
 2782SOL     OW 9244   5.105   0.316   6.069
 2782SOL    HW1 9245   5.204   0.303   6.060
 2782SOL    HW2 9246   5.082   0.409   6.041
 2783SOL     OW 9247   5.769   4.261   1.599
 2783SOL    HW1 9248   5.732   4.202   1.526
 2783SOL    HW2 9249   5.733   4.353   1.588
 2784SOL     OW 9250   1.377   2.011   1.226
 2784SOL    HW1 9251   1.415   1.938   1.169
 2784SOL    HW2 9252   1.451   2.069   1.260
 2785SOL     OW 9253   5.967   2.840   1.679
 2785SOL    HW1 9254   6.000   2.846   1.584
 2785SOL    HW2 9255   5.904   2.916   1.696
 2786SOL     OW 9256   0.084   6.097   0.099
 2786SOL    HW1 9257   0.067   6.177   0.156
 2786SOL    HW2 9258   0.183   6.085   0.087
 2787SOL     OW 9259   6.223   5.220   6.688
 2787SOL    HW1 9260   6.124   5.210   6.689
 2787SOL    HW2 9261   6.266   5.130   6.702
 2788SOL     OW 9262   3.070   5.974   5.879
 2788SOL    HW1 9263   3.018   6.059   5.870
 2788SOL    HW2 9264   3.105   5.966   5.972
 2789SOL     OW 9265   0.895   2.186   5.168
 2789SOL    HW1 9266   0.953   2.262   5.197
 2789SOL    HW2 9267   0.952   2.108   5.142
 2790SOL     OW 9268   1.701   5.539   2.139
 2790SOL    HW1 9269   1.726   5.556   2.234
 2790SOL    HW2 9270   1.686   5.441   2.125
 2791SOL     OW 9271   0.334   4.237   3.160
 2791SOL    HW1 9272   0.288   4.161   3.113
 2791SOL    HW2 9273   0.322   4.321   3.108
 2792SOL     OW 9274   3.416   1.157   5.949
 2792SOL    HW1 9275   3.493   1.214   5.981
 2792SOL    HW2 9276   3.440   1.116   5.862
 2793SOL     OW 9277   3.720   3.934   0.276
 2793SOL    HW1 9278   3.777   3.867   0.325
 2793SOL    HW2 9279   3.625   3.902   0.275
 2794SOL     OW 9280   1.054   2.791   0.316
 2794SOL    HW1 9281   1.018   2.704   0.350
 2794SOL    HW2 9282   0.977   2.851   0.291
 2795SOL     OW 9283   0.809   5.365   1.527
 2795SOL    HW1 9284   0.774   5.285   1.575
 2795SOL    HW2 9285   0.853   5.427   1.592
 2796SOL     OW 9286   1.999   5.552   6.260
 2796SOL    HW1 9287   1.902   5.559   6.238
 2796SOL    HW2 9288   2.010   5.544   6.359
 2797SOL     OW 9289   5.150   6.111   3.508
 2797SOL    HW1 9290   5.227   6.047   3.501
 2797SOL    HW2 9291   5.137   6.138   3.603
 2798SOL     OW 9292   5.004   0.716   1.894
 2798SOL    HW1 9293   4.990   0.694   1.797
 2798SOL    HW2 9294   4.922   0.692   1.945
 2799SOL     OW 9295   3.626   6.236   5.003
 2799SOL    HW1 9296   3.710   6.261   4.956
 2799SOL    HW2 9297   3.561   6.195   4.938
 2800SOL     OW 9298   6.165   6.763   6.667
 2800SOL    HW1 9299   6.077   6.795   6.632
 2800SOL    HW2 9300   6.151   6.707   6.748
 2801SOL     OW 9301   0.507   4.749   5.006
 2801SOL    HW1 9302   0.496   4.845   5.033
 2801SOL    HW2 9303   0.502   4.741   4.907
 2802SOL     OW 9304   1.597   5.371   5.286
 2802SOL    HW1 9305   1.687   5.381   5.328
 2802SOL    HW2 9306   1.562   5.279   5.303
 2803SOL     OW 9307   3.807   2.017   5.875
 2803SOL    HW1 9308   3.765   1.936   5.915
 2803SOL    HW2 9309   3.744   2.094   5.880
 2804SOL     OW 9310   0.330   2.567   4.054
 2804SOL    HW1 9311   0.239   2.543   4.088
 2804SOL    HW2 9312   0.398   2.542   4.122
 2805SOL     OW 9313   3.698   3.256   1.001
 2805SOL    HW1 9314   3.775   3.209   1.045
 2805SOL    HW2 9315   3.716   3.263   0.902
 2806SOL     OW 9316   0.446   4.141   6.189
 2806SOL    HW1 9317   0.489   4.139   6.279
 2806SOL    HW2 9318   0.419   4.235   6.166
 2807SOL     OW 9319   3.813   0.016   3.670
 2807SOL    HW1 9320   3.799   0.024   3.769
 2807SOL    HW2 9321   3.757   0.084   3.623
 2808SOL     OW 9322   0.302   5.434   5.817
 2808SOL    HW1 9323   0.353   5.492   5.753
 2808SOL    HW2 9324   0.204   5.444   5.800
 2809SOL     OW 9325   6.756   5.656   1.795
 2809SOL    HW1 9326   6.777   5.625   1.702
 2809SOL    HW2 9327   6.746   5.577   1.855
 2810SOL     OW 9328   2.544   6.677   2.991
 2810SOL    HW1 9329   2.459   6.626   2.984
 2810SOL    HW2 9330   2.552   6.716   3.083
 2811SOL     OW 9331   1.247   1.119   1.502
 2811SOL    HW1 9332   1.276   1.028   1.473
 2811SOL    HW2 9333   1.253   1.182   1.425
 2812SOL     OW 9334   0.495   1.977   0.834
 2812SOL    HW1 9335   0.540   1.889   0.849
 2812SOL    HW2 9336   0.407   1.978   0.883
 2813SOL     OW 9337   0.771   2.610   1.167
 2813SOL    HW1 9338   0.720   2.538   1.120
 2813SOL    HW2 9339   0.750   2.607   1.265
 2814SOL     OW 9340   2.397   4.542   0.286
 2814SOL    HW1 9341   2.417   4.462   0.342
 2814SOL    HW2 9342   2.422   4.524   0.191
 2815SOL     OW 9343   0.837   4.863   5.267
 2815SOL    HW1 9344   0.925   4.828   5.235
 2815SOL    HW2 9345   0.820   4.952   5.227
 2816SOL     OW 9346   0.805   6.271   5.992
 2816SOL    HW1 9347   0.720   6.315   5.964
 2816SOL    HW2 9348   0.841   6.216   5.917
 2817SOL     OW 9349   4.362   0.452   2.132
 2817SOL    HW1 9350   4.394   0.496   2.048
 2817SOL    HW2 9351   4.410   0.492   2.211
 2818SOL     OW 9352   1.511   0.445   0.236
 2818SOL    HW1 9353   1.565   0.370   0.275
 2818SOL    HW2 9354   1.509   0.521   0.301
 2819SOL     OW 9355   1.024   0.851   0.534
 2819SOL    HW1 9356   1.021   0.752   0.521
 2819SOL    HW2 9357   0.978   0.896   0.458
 2820SOL     OW 9358   1.932   2.690   0.260
 2820SOL    HW1 9359   1.873   2.611   0.278
 2820SOL    HW2 9360   1.875   2.770   0.241
 2821SOL     OW 9361   3.062   3.168   6.059
 2821SOL    HW1 9362   2.991   3.101   6.039
 2821SOL    HW2 9363   3.143   3.149   6.004
 2822SOL     OW 9364   4.490   2.462   0.716
 2822SOL    HW1 9365   4.409   2.472   0.659
 2822SOL    HW2 9366   4.476   2.388   0.782
 2823SOL     OW 9367   5.254   2.339   1.628
 2823SOL    HW1 9368   5.215   2.339   1.720
 2823SOL    HW2 9369   5.353   2.356   1.634
 2824SOL     OW 9370   1.370   3.375   4.645
 2824SOL    HW1 9371   1.462   3.387   4.608
 2824SOL    HW2 9372   1.320   3.310   4.588
 2825SOL     OW 9373   5.321   2.013   5.812
 2825SOL    HW1 9374   5.261   2.087   5.781
 2825SOL    HW2 9375   5.400   2.052   5.859
 2826SOL     OW 9376   2.556   2.839   6.733
 2826SOL    HW1 9377   2.588   2.822   6.640
 2826SOL    HW2 9378   2.631   2.826   6.797
 2827SOL     OW 9379   5.912   1.085   6.398
 2827SOL    HW1 9380   6.001   1.102   6.357
 2827SOL    HW2 9381   5.924   1.052   6.491
 2828SOL     OW 9382   1.605   3.373   0.873
 2828SOL    HW1 9383   1.675   3.338   0.811
 2828SOL    HW2 9384   1.646   3.389   0.963
 2829SOL     OW 9385   3.082   3.724   2.662
 2829SOL    HW1 9386   3.106   3.798   2.725
 2829SOL    HW2 9387   3.165   3.674   2.637
 2830SOL     OW 9388   3.414   5.451   5.549
 2830SOL    HW1 9389   3.509   5.434   5.521
 2830SOL    HW2 9390   3.412   5.528   5.613
 2831SOL     OW 9391   5.796   1.837   1.961
 2831SOL    HW1 9392   5.842   1.838   2.050
 2831SOL    HW2 9393   5.700   1.863   1.973
 2832SOL     OW 9394   0.652   3.784   2.037
 2832SOL    HW1 9395   0.639   3.851   1.963
 2832SOL    HW2 9396   0.745   3.793   2.074
 2833SOL     OW 9397   2.078   2.677   2.009
 2833SOL    HW1 9398   2.153   2.615   2.028
 2833SOL    HW2 9399   2.104   2.740   1.936
 2834SOL     OW 9400   3.446   5.893   5.535
 2834SOL    HW1 9401   3.410   5.940   5.615
 2834SOL    HW2 9402   3.521   5.947   5.496
 2835SOL     OW 9403   7.003   0.461   0.604
 2835SOL    HW1 9404   6.948   0.395   0.554
 2835SOL    HW2 9405   0.045   0.506   0.541
 2836SOL     OW 9406   3.706   5.845   2.146
 2836SOL    HW1 9407   3.764   5.770   2.178
 2836SOL    HW2 9408   3.616   5.809   2.120
 2837SOL     OW 9409   5.201   4.215   1.930
 2837SOL    HW1 9410   5.227   4.291   1.990
 2837SOL    HW2 9411   5.281   4.160   1.907
 2838SOL     OW 9412   6.013   4.772   6.467
 2838SOL    HW1 9413   6.108   4.740   6.457
 2838SOL    HW2 9414   5.957   4.697   6.500
 2839SOL     OW 9415   6.395   3.287   4.842
 2839SOL    HW1 9416   6.319   3.351   4.831
 2839SOL    HW2 9417   6.365   3.209   4.897
 2840SOL     OW 9418   7.010   6.485   3.882
 2840SOL    HW1 9419   6.978   6.404   3.931
 2840SOL    HW2 9420   6.985   6.478   3.785
 2841SOL     OW 9421   5.955   3.964   2.478
 2841SOL    HW1 9422   5.925   3.903   2.404
 2841SOL    HW2 9423   6.022   3.917   2.535
 2842SOL     OW 9424   1.183   0.079   3.470
 2842SOL    HW1 9425   1.228   0.166   3.493
 2842SOL    HW2 9426   1.117   0.056   3.542
 2843SOL     OW 9427   2.031   2.743   3.792
 2843SOL    HW1 9428   2.060   2.785   3.706
 2843SOL    HW2 9429   2.009   2.814   3.858
 2844SOL     OW 9430   5.067   4.108   0.091
 2844SOL    HW1 9431   5.123   4.063   0.161
 2844SOL    HW2 9432   5.126   4.163   0.032
 2845SOL     OW 9433   3.064   2.108   2.766
 2845SOL    HW1 9434   3.012   2.177   2.817
 2845SOL    HW2 9435   3.017   2.020   2.773
 2846SOL     OW 9436   6.125   0.166   7.016
 2846SOL    HW1 9437   6.058   0.239   0.003
 2846SOL    HW2 9438   6.085   0.080   0.029
 2847SOL     OW 9439   4.408   4.476   1.471
 2847SOL    HW1 9440   4.393   4.447   1.377
 2847SOL    HW2 9441   4.475   4.416   1.514
 2848SOL     OW 9442   0.395   3.963   5.565
 2848SOL    HW1 9443   0.381   3.865   5.582
 2848SOL    HW2 9444   0.468   3.976   5.499
 2849SOL     OW 9445   4.888   0.221   1.783
 2849SOL    HW1 9446   4.910   0.251   1.876
 2849SOL    HW2 9447   4.972   0.206   1.732
 2850SOL     OW 9448   2.049   0.483   2.106
 2850SOL    HW1 9449   2.086   0.512   2.018
 2850SOL    HW2 9450   2.014   0.562   2.156
 2851SOL     OW 9451   3.525   2.954   1.564
 2851SOL    HW1 9452   3.445   2.968   1.624
 2851SOL    HW2 9453   3.547   2.856   1.561
 2852SOL     OW 9454   6.414   4.563   6.887
 2852SOL    HW1 9455   6.464   4.610   6.814
 2852SOL    HW2 9456   6.324   4.536   6.852
 2853SOL     OW 9457   6.915   4.190   5.896
 2853SOL    HW1 9458   7.010   4.161   5.909
 2853SOL    HW2 9459   6.912   4.272   5.838
 2854SOL     OW 9460   4.085   0.543   5.369
 2854SOL    HW1 9461   4.171   0.594   5.377
 2854SOL    HW2 9462   4.056   0.542   5.274
 2855SOL     OW 9463   2.140   2.013   5.609
 2855SOL    HW1 9464   2.120   1.917   5.586
 2855SOL    HW2 9465   2.082   2.073   5.553
 2856SOL     OW 9466   0.883   5.350   4.050
 2856SOL    HW1 9467   0.924   5.413   3.983
 2856SOL    HW2 9468   0.815   5.292   4.004
 2857SOL     OW 9469   6.896   4.051   0.986
 2857SOL    HW1 9470   6.936   4.057   0.894
 2857SOL    HW2 9471   6.797   4.063   0.979
 2858SOL     OW 9472   4.801   4.708   2.144
 2858SOL    HW1 9473   4.783   4.722   2.046
 2858SOL    HW2 9474   4.754   4.625   2.174
 2859SOL     OW 9475   5.382   5.250   0.748
 2859SOL    HW1 9476   5.348   5.332   0.793
 2859SOL    HW2 9477   5.448   5.204   0.808
 2860SOL     OW 9478   0.711   0.147   2.364
 2860SOL    HW1 9479   0.625   0.175   2.320
 2860SOL    HW2 9480   0.726   0.050   2.349
 2861SOL     OW 9481   4.805   5.142   5.916
 2861SOL    HW1 9482   4.759   5.105   5.835
 2861SOL    HW2 9483   4.755   5.222   5.948
 2862SOL     OW 9484   4.002   2.709   0.356
 2862SOL    HW1 9485   3.957   2.706   0.445
 2862SOL    HW2 9486   4.047   2.621   0.338
 2863SOL     OW 9487   6.070   0.411   5.264
 2863SOL    HW1 9488   6.039   0.505   5.279
 2863SOL    HW2 9489   6.064   0.390   5.167
 2864SOL     OW 9490   3.742   4.740   0.381
 2864SOL    HW1 9491   3.696   4.805   0.442
 2864SOL    HW2 9492   3.822   4.703   0.426
 2865SOL     OW 9493   5.523   5.246   4.794
 2865SOL    HW1 9494   5.426   5.226   4.779
 2865SOL    HW2 9495   5.578   5.198   4.725
 2866SOL     OW 9496   4.506   4.122   0.654
 2866SOL    HW1 9497   4.496   4.193   0.725
 2866SOL    HW2 9498   4.586   4.066   0.675
 2867SOL     OW 9499   5.269   6.376   1.805
 2867SOL    HW1 9500   5.279   6.294   1.862
 2867SOL    HW2 9501   5.238   6.349   1.714
 2868SOL     OW 9502   1.204   0.751   5.433
 2868SOL    HW1 9503   1.126   0.709   5.480
 2868SOL    HW2 9504   1.234   0.691   5.358
 2869SOL     OW 9505   6.363   5.417   4.535
 2869SOL    HW1 9506   6.440   5.410   4.599
 2869SOL    HW2 9507   6.396   5.452   4.448
 2870SOL     OW 9508   6.808   2.221   1.819
 2870SOL    HW1 9509   6.825   2.319   1.806
 2870SOL    HW2 9510   6.823   2.198   1.916
 2871SOL     OW 9511   5.707   1.904   2.735
 2871SOL    HW1 9512   5.735   1.953   2.652
 2871SOL    HW2 9513   5.678   1.970   2.805
 2872SOL     OW 9514   3.022   1.999   2.390
 2872SOL    HW1 9515   2.958   2.068   2.358
 2872SOL    HW2 9516   3.038   2.012   2.488
 2873SOL     OW 9517   1.019   6.945   1.355
 2873SOL    HW1 9518   1.113   6.938   1.388
 2873SOL    HW2 9519   0.988   6.856   1.321
 2874SOL     OW 9520   2.903   1.208   2.760
 2874SOL    HW1 9521   2.850   1.160   2.690
 2874SOL    HW2 9522   2.852   1.207   2.846
 2875SOL     OW 9523   2.178   6.726   2.716
 2875SOL    HW1 9524   2.156   6.814   2.759
 2875SOL    HW2 9525   2.167   6.653   2.783
 2876SOL     OW 9526   1.777   0.529   2.228
 2876SOL    HW1 9527   1.715   0.580   2.288
 2876SOL    HW2 9528   1.793   0.583   2.145
 2877SOL     OW 9529   1.345   2.540   6.676
 2877SOL    HW1 9530   1.336   2.533   6.576
 2877SOL    HW2 9531   1.255   2.544   6.717
 2878SOL     OW 9532   3.943   3.223   3.947
 2878SOL    HW1 9533   3.893   3.268   3.873
 2878SOL    HW2 9534   3.928   3.124   3.942
 2879SOL     OW 9535   4.329   3.895   0.340
 2879SOL    HW1 9536   4.300   3.821   0.280
 2879SOL    HW2 9537   4.429   3.903   0.337
 2880SOL     OW 9538   2.350   0.993   3.671
 2880SOL    HW1 9539   2.443   1.022   3.650
 2880SOL    HW2 9540   2.333   1.004   3.769
 2881SOL     OW 9541   4.555   5.683   6.590
 2881SOL    HW1 9542   4.526   5.588   6.600
 2881SOL    HW2 9543   4.541   5.731   6.677
 2882SOL     OW 9544   4.763   6.201   0.326
 2882SOL    HW1 9545   4.762   6.160   0.417
 2882SOL    HW2 9546   4.857   6.210   0.294
 2883SOL     OW 9547   5.928   5.752   4.085
 2883SOL    HW1 9548   5.999   5.769   4.016
 2883SOL    HW2 9549   5.881   5.667   4.064
 2884SOL     OW 9550   6.874   5.125   3.817
 2884SOL    HW1 9551   6.826   5.172   3.744
 2884SOL    HW2 9552   6.851   5.028   3.816
 2885SOL     OW 9553   1.145   2.457   3.853
 2885SOL    HW1 9554   1.090   2.524   3.802
 2885SOL    HW2 9555   1.231   2.500   3.882
 2886SOL     OW 9556   2.300   4.251   5.808
 2886SOL    HW1 9557   2.205   4.218   5.813
 2886SOL    HW2 9558   2.309   4.311   5.728
 2887SOL     OW 9559   0.392   5.727   3.254
 2887SOL    HW1 9560   0.464   5.658   3.265
 2887SOL    HW2 9561   0.397   5.766   3.162
 2888SOL     OW 9562   6.150   6.868   0.005
 2888SOL    HW1 9563   6.192   6.884   6.938
 2888SOL    HW2 9564   6.053   6.846   7.015
 2889SOL     OW 9565   3.396   6.417   2.353
 2889SOL    HW1 9566   3.485   6.383   2.383
 2889SOL    HW2 9567   3.409   6.498   2.295
 2890SOL     OW 9568   1.483   1.661   1.250
 2890SOL    HW1 9569   1.407   1.722   1.273
 2890SOL    HW2 9570   1.552   1.712   1.197
 2891SOL     OW 9571   0.618   2.423   4.588
 2891SOL    HW1 9572   0.606   2.515   4.626
 2891SOL    HW2 9573   0.538   2.398   4.535
 2892SOL     OW 9574   6.201   4.279   2.935
 2892SOL    HW1 9575   6.287   4.331   2.930
 2892SOL    HW2 9576   6.174   4.270   3.031
 2893SOL     OW 9577   6.358   5.332   4.927
 2893SOL    HW1 9578   6.280   5.295   4.876
 2893SOL    HW2 9579   6.435   5.270   4.920
 2894SOL     OW 9580   1.941   6.178   2.556
 2894SOL    HW1 9581   1.869   6.199   2.622
 2894SOL    HW2 9582   1.899   6.144   2.471
 2895SOL     OW 9583   4.358   6.558   6.480
 2895SOL    HW1 9584   4.348   6.483   6.415
 2895SOL    HW2 9585   4.400   6.636   6.434
 2896SOL     OW 9586   5.956   6.060   5.048
 2896SOL    HW1 9587   5.909   6.013   4.974
 2896SOL    HW2 9588   5.989   6.149   5.016
 2897SOL     OW 9589   4.030   5.115   3.123
 2897SOL    HW1 9590   3.962   5.054   3.164
 2897SOL    HW2 9591   4.062   5.077   3.036
 2898SOL     OW 9592   5.314   2.948   2.815
 2898SOL    HW1 9593   5.378   2.902   2.754
 2898SOL    HW2 9594   5.287   2.885   2.888
 2899SOL     OW 9595   6.721   3.704   0.992
 2899SOL    HW1 9596   6.817   3.731   0.999
 2899SOL    HW2 9597   6.680   3.701   1.083
 2900SOL     OW 9598   2.466   2.494   5.894
 2900SOL    HW1 9599   2.406   2.573   5.896
 2900SOL    HW2 9600   2.421   2.416   5.939
 2901SOL     OW 9601   0.782   4.236   3.637
 2901SOL    HW1 9602   0.732   4.303   3.581
 2901SOL    HW2 9603   0.878   4.261   3.640
 2902SOL     OW 9604   6.879   6.085   3.621
 2902SOL    HW1 9605   6.977   6.066   3.613
 2902SOL    HW2 9606   6.830   6.041   3.546
 2903SOL     OW 9607   4.658   4.743   0.343
 2903SOL    HW1 9608   4.705   4.792   0.269
 2903SOL    HW2 9609   4.588   4.803   0.383
 2904SOL     OW 9610   2.540   4.022   5.463
 2904SOL    HW1 9611   2.629   4.069   5.461
 2904SOL    HW2 9612   2.519   3.988   5.371
 2905SOL     OW 9613   1.159   6.016   1.740
 2905SOL    HW1 9614   1.089   6.056   1.800
 2905SOL    HW2 9615   1.176   6.077   1.663
 2906SOL     OW 9616   6.561   6.485   3.942
 2906SOL    HW1 9617   6.500   6.552   3.984
 2906SOL    HW2 9618   6.558   6.400   3.995
 2907SOL     OW 9619   0.379   1.036   4.228
 2907SOL    HW1 9620   0.389   0.944   4.191
 2907SOL    HW2 9621   0.417   1.039   4.320
 2908SOL     OW 9622   4.431   6.160   2.970
 2908SOL    HW1 9623   4.414   6.147   2.872
 2908SOL    HW2 9624   4.471   6.076   3.007
 2909SOL     OW 9625   0.578   6.465   1.526
 2909SOL    HW1 9626   0.557   6.409   1.445
 2909SOL    HW2 9627   0.608   6.556   1.497
 2910SOL     OW 9628   0.097   0.879   4.161
 2910SOL    HW1 9629   0.137   0.879   4.070
 2910SOL    HW2 9630   0.030   0.953   4.169
 2911SOL     OW 9631   0.081   4.469   5.512
 2911SOL    HW1 9632   0.127   4.550   5.475
 2911SOL    HW2 9633   0.098   4.391   5.452
 2912SOL     OW 9634   0.598   0.917   1.513
 2912SOL    HW1 9635   0.680   0.899   1.459
 2912SOL    HW2 9636   0.569   0.832   1.558
 2913SOL     OW 9637   2.641   6.991   1.508
 2913SOL    HW1 9638   2.646   0.049   1.448
 2913SOL    HW2 9639   2.573   6.927   1.472
 2914SOL     OW 9640   4.332   5.220   0.832
 2914SOL    HW1 9641   4.420   5.184   0.861
 2914SOL    HW2 9642   4.324   5.215   0.733
 2915SOL     OW 9643   2.378   0.406   2.591
 2915SOL    HW1 9644   2.410   0.478   2.653
 2915SOL    HW2 9645   2.454   0.344   2.569
 2916SOL     OW 9646   1.319   6.566   0.325
 2916SOL    HW1 9647   1.281   6.621   0.400
 2916SOL    HW2 9648   1.416   6.590   0.312
 2917SOL     OW 9649   2.624   6.081   4.163
 2917SOL    HW1 9650   2.532   6.047   4.181
 2917SOL    HW2 9651   2.690   6.027   4.215
 2918SOL     OW 9652   5.159   2.714   1.913
 2918SOL    HW1 9653   5.177   2.650   1.988
 2918SOL    HW2 9654   5.115   2.796   1.949
 2919SOL     OW 9655   0.808   5.739   4.731
 2919SOL    HW1 9656   0.724   5.794   4.737
 2919SOL    HW2 9657   0.786   5.643   4.749
 2920SOL     OW 9658   1.232   2.678   2.789
 2920SOL    HW1 9659   1.223   2.651   2.693
 2920SOL    HW2 9660   1.191   2.608   2.847
 2921SOL     OW 9661   1.071   0.030   3.799
 2921SOL    HW1 9662   1.089   0.127   3.816
 2921SOL    HW2 9663   1.139   6.996   3.847
 2922SOL     OW 9664   3.450   6.437   3.522
 2922SOL    HW1 9665   3.447   6.381   3.439
 2922SOL    HW2 9666   3.544   6.446   3.554
 2923SOL     OW 9667   6.572   6.027   5.038
 2923SOL    HW1 9668   6.668   6.000   5.044
 2923SOL    HW2 9669   6.521   5.985   5.113
 2924SOL     OW 9670   5.713   2.019   4.883
 2924SOL    HW1 9671   5.798   2.065   4.907
 2924SOL    HW2 9672   5.684   1.960   4.958
 2925SOL     OW 9673   5.022   6.443   6.213
 2925SOL    HW1 9674   5.093   6.375   6.234
 2925SOL    HW2 9675   5.017   6.509   6.287
 2926SOL     OW 9676   6.790   2.780   4.170
 2926SOL    HW1 9677   6.756   2.843   4.100
 2926SOL    HW2 9678   6.753   2.689   4.153
 2927SOL     OW 9679   0.948   2.097   1.910
 2927SOL    HW1 9680   1.013   2.171   1.923
 2927SOL    HW2 9681   0.992   2.023   1.858
 2928SOL     OW 9682   6.664   2.933   0.346
 2928SOL    HW1 9683   6.676   2.963   0.252
 2928SOL    HW2 9684   6.735   2.975   0.404
 2929SOL     OW 9685   2.454   2.267   4.378
 2929SOL    HW1 9686   2.495   2.339   4.322
 2929SOL    HW2 9687   2.514   2.187   4.378
 2930SOL     OW 9688   7.016   4.356   4.603
 2930SOL    HW1 9689   0.024   4.312   4.688
 2930SOL    HW2 9690   6.916   4.360   4.601
 2931SOL     OW 9691   4.936   3.740   5.712
 2931SOL    HW1 9692   5.001   3.672   5.679
 2931SOL    HW2 9693   4.843   3.702   5.708
 2932SOL     OW 9694   6.706   5.419   0.686
 2932SOL    HW1 9695   6.623   5.378   0.725
 2932SOL    HW2 9696   6.775   5.428   0.758
 2933SOL     OW 9697   1.116   0.518   0.240
 2933SOL    HW1 9698   1.133   0.520   0.338
 2933SOL    HW2 9699   1.022   0.545   0.221
 2934SOL     OW 9700   3.554   4.504   0.302
 2934SOL    HW1 9701   3.572   4.596   0.337
 2934SOL    HW2 9702   3.525   4.445   0.377
 2935SOL     OW 9703   0.356   1.895   6.191
 2935SOL    HW1 9704   0.403   1.950   6.122
 2935SOL    HW2 9705   0.257   1.901   6.175
 2936SOL     OW 9706   4.792   6.204   0.796
 2936SOL    HW1 9707   4.877   6.234   0.753
 2936SOL    HW2 9708   4.715   6.226   0.736
 2937SOL     OW 9709   5.195   4.721   2.487
 2937SOL    HW1 9710   5.246   4.794   2.441
 2937SOL    HW2 9711   5.259   4.664   2.539
 2938SOL     OW 9712   6.826   5.655   6.602
 2938SOL    HW1 9713   6.863   5.580   6.546
 2938SOL    HW2 9714   6.747   5.695   6.556
 2939SOL     OW 9715   0.373   6.241   1.608
 2939SOL    HW1 9716   0.446   6.265   1.672
 2939SOL    HW2 9717   0.397   6.274   1.517
 2940SOL     OW 9718   4.084   6.258   3.343
 2940SOL    HW1 9719   4.113   6.206   3.262
 2940SOL    HW2 9720   3.985   6.266   3.343
 2941SOL     OW 9721   1.778   4.351   3.793
 2941SOL    HW1 9722   1.713   4.423   3.769
 2941SOL    HW2 9723   1.815   4.368   3.885
 2942SOL     OW 9724   3.514   1.676   1.226
 2942SOL    HW1 9725   3.511   1.586   1.269
 2942SOL    HW2 9726   3.422   1.706   1.204
 2943SOL     OW 9727   5.890   3.951   3.120
 2943SOL    HW1 9728   5.953   3.947   3.043
 2943SOL    HW2 9729   5.825   3.875   3.115
 2944SOL     OW 9730   2.206   6.233   2.553
 2944SOL    HW1 9731   2.205   6.326   2.519
 2944SOL    HW2 9732   2.113   6.205   2.577
 2945SOL     OW 9733   5.200   4.300   1.340
 2945SOL    HW1 9734   5.268   4.243   1.387
 2945SOL    HW2 9735   5.248   4.367   1.282
 2946SOL     OW 9736   3.973   3.541   5.431
 2946SOL    HW1 9737   4.018   3.630   5.431
 2946SOL    HW2 9738   3.950   3.515   5.525
 2947SOL     OW 9739   6.240   6.956   0.908
 2947SOL    HW1 9740   6.190   0.021   0.912
 2947SOL    HW2 9741   6.175   6.882   0.891
 2948SOL     OW 9742   6.776   3.789   1.940
 2948SOL    HW1 9743   6.782   3.832   2.030
 2948SOL    HW2 9744   6.852   3.819   1.883
 2949SOL     OW 9745   1.055   6.888   0.865
 2949SOL    HW1 9746   1.100   6.906   0.777
 2949SOL    HW2 9747   1.028   6.792   0.869
 2950SOL     OW 9748   5.963   4.983   3.410
 2950SOL    HW1 9749   6.059   4.969   3.384
 2950SOL    HW2 9750   5.912   5.017   3.331
 2951SOL     OW 9751   6.604   1.384   1.881
 2951SOL    HW1 9752   6.651   1.299   1.906
 2951SOL    HW2 9753   6.505   1.369   1.882
 2952SOL     OW 9754   6.373   2.029   4.550
 2952SOL    HW1 9755   6.435   2.067   4.482
 2952SOL    HW2 9756   6.353   2.099   4.619
 2953SOL     OW 9757   1.319   5.450   4.374
 2953SOL    HW1 9758   1.401   5.400   4.346
 2953SOL    HW2 9759   1.239   5.390   4.367
 2954SOL     OW 9760   6.918   4.209   6.395
 2954SOL    HW1 9761   6.845   4.252   6.342
 2954SOL    HW2 9762   6.966   4.143   6.338
 2955SOL     OW 9763   1.740   3.985   5.940
 2955SOL    HW1 9764   1.780   3.930   5.867
 2955SOL    HW2 9765   1.660   4.034   5.905
 2956SOL     OW 9766   5.553   5.224   3.339
 2956SOL    HW1 9767   5.571   5.284   3.418
 2956SOL    HW2 9768   5.535   5.131   3.371
 2957SOL     OW 9769   2.228   5.249   0.833
 2957SOL    HW1 9770   2.226   5.265   0.931
 2957SOL    HW2 9771   2.318   5.271   0.797
 2958SOL     OW 9772   1.368   5.602   2.524
 2958SOL    HW1 9773   1.411   5.517   2.494
 2958SOL    HW2 9774   1.438   5.673   2.532
 2959SOL     OW 9775   6.653   3.896   2.726
 2959SOL    HW1 9776   6.583   3.961   2.758
 2959SOL    HW2 9777   6.610   3.808   2.708
 2960SOL     OW 9778   5.691   0.357   0.528
 2960SOL    HW1 9779   5.626   0.423   0.567
 2960SOL    HW2 9780   5.642   0.273   0.504
 2961SOL     OW 9781   5.548   3.592   2.173
 2961SOL    HW1 9782   5.531   3.606   2.270
 2961SOL    HW2 9783   5.467   3.617   2.120
 2962SOL     OW 9784   6.635   0.538   3.339
 2962SOL    HW1 9785   6.560   0.523   3.274
 2962SOL    HW2 9786   6.668   0.449   3.371
 2963SOL     OW 9787   1.797   1.178   5.162
 2963SOL    HW1 9788   1.712   1.167   5.111
 2963SOL    HW2 9789   1.791   1.125   5.247
 2964SOL     OW 9790   1.089   1.658   6.954
 2964SOL    HW1 9791   1.166   1.625   7.009
 2964SOL    HW2 9792   1.013   1.682   7.015
 2965SOL     OW 9793   0.047   6.737   5.421
 2965SOL    HW1 9794   0.083   6.829   5.437
 2965SOL    HW2 9795   7.015   6.736   5.337
 2966SOL     OW 9796   3.079   6.011   2.200
 2966SOL    HW1 9797   3.162   5.988   2.149
 2966SOL    HW2 9798   3.103   6.066   2.279
 2967SOL     OW 9799   5.134   0.500   5.159
 2967SOL    HW1 9800   5.077   0.429   5.117
 2967SOL    HW2 9801   5.165   0.469   5.248
 2968SOL     OW 9802   1.676   3.615   1.497
 2968SOL    HW1 9803   1.706   3.631   1.403
 2968SOL    HW2 9804   1.756   3.594   1.554
 2969SOL     OW 9805   5.186   3.246   4.759
 2969SOL    HW1 9806   5.091   3.216   4.754
 2969SOL    HW2 9807   5.191   3.345   4.754
 2970SOL     OW 9808   2.626   2.056   4.462
 2970SOL    HW1 9809   2.582   2.096   4.543
 2970SOL    HW2 9810   2.555   2.023   4.399
 2971SOL     OW 9811   5.174   2.786   5.910
 2971SOL    HW1 9812   5.124   2.711   5.866
 2971SOL    HW2 9813   5.258   2.751   5.950
 2972SOL     OW 9814   6.217   5.560   0.127
 2972SOL    HW1 9815   6.185   5.474   0.166
 2972SOL    HW2 9816   6.202   5.559   0.028
 2973SOL     OW 9817   4.578   1.160   3.127
 2973SOL    HW1 9818   4.526   1.137   3.045
 2973SOL    HW2 9819   4.571   1.258   3.144
 2974SOL     OW 9820   4.803   6.989   2.252
 2974SOL    HW1 9821   4.711   6.977   2.214
 2974SOL    HW2 9822   4.866   6.928   2.204
 2975SOL     OW 9823   4.704   4.183   3.812
 2975SOL    HW1 9824   4.680   4.154   3.904
 2975SOL    HW2 9825   4.730   4.103   3.758
 2976SOL     OW 9826   4.123   1.317   2.165
 2976SOL    HW1 9827   4.033   1.305   2.123
 2976SOL    HW2 9828   4.112   1.331   2.263
 2977SOL     OW 9829   1.365   1.043   1.736
 2977SOL    HW1 9830   1.343   1.081   1.646
 2977SOL    HW2 9831   1.383   1.118   1.800
 2978SOL     OW 9832   4.571   5.095   6.602
 2978SOL    HW1 9833   4.633   5.151   6.657
 2978SOL    HW2 9834   4.587   5.112   6.505
 2979SOL     OW 9835   3.156   0.762   4.144
 2979SOL    HW1 9836   3.158   0.733   4.048
 2979SOL    HW2 9837   3.230   0.827   4.161
 2980SOL     OW 9838   3.710   3.952   5.168
 2980SOL    HW1 9839   3.634   3.911   5.219
 2980SOL    HW2 9840   3.687   4.046   5.145
 2981SOL     OW 9841   2.032   1.343   1.500
 2981SOL    HW1 9842   1.949   1.365   1.551
 2981SOL    HW2 9843   2.111   1.383   1.546
 2982SOL     OW 9844   1.397   0.213   1.426
 2982SOL    HW1 9845   1.446   0.126   1.429
 2982SOL    HW2 9846   1.462   0.288   1.429
 2983SOL     OW 9847   6.395   3.371   5.675
 2983SOL    HW1 9848   6.471   3.429   5.646
 2983SOL    HW2 9849   6.314   3.427   5.692
 2984SOL     OW 9850   0.662   5.262   1.241
 2984SOL    HW1 9851   0.740   5.323   1.257
 2984SOL    HW2 9852   0.582   5.316   1.215
 2985SOL     OW 9853   0.219   0.022   5.984
 2985SOL    HW1 9854   0.227   0.122   5.989
 2985SOL    HW2 9855   0.310   7.003   5.989
 2986SOL     OW 9856   3.465   3.511   2.219
 2986SOL    HW1 9857   3.554   3.466   2.214
 2986SOL    HW2 9858   3.474   3.607   2.194
 2987SOL     OW 9859   1.682   6.812   5.387
 2987SOL    HW1 9860   1.605   6.872   5.409
 2987SOL    HW2 9861   1.668   6.773   5.296
 2988SOL     OW 9862   0.432   1.345   6.441
 2988SOL    HW1 9863   0.528   1.371   6.440
 2988SOL    HW2 9864   0.382   1.401   6.507
 2989SOL     OW 9865   4.966   3.608   4.278
 2989SOL    HW1 9866   5.023   3.580   4.356
 2989SOL    HW2 9867   4.929   3.526   4.233
 2990SOL     OW 9868   5.597   1.701   4.416
 2990SOL    HW1 9869   5.525   1.667   4.477
 2990SOL    HW2 9870   5.670   1.741   4.470
 2991SOL     OW 9871   0.772   3.948   1.305
 2991SOL    HW1 9872   0.772   4.048   1.304
 2991SOL    HW2 9873   0.755   3.914   1.212
 2992SOL     OW 9874   6.950   3.977   5.619
 2992SOL    HW1 9875   0.005   4.039   5.634
 2992SOL    HW2 9876   6.979   3.903   5.559
 2993SOL     OW 9877   2.226   3.521   0.586
 2993SOL    HW1 9878   2.261   3.610   0.612
 2993SOL    HW2 9879   2.299   3.466   0.546
 2994SOL     OW 9880   4.110   5.915   6.033
 2994SOL    HW1 9881   4.182   5.904   5.964
 2994SOL    HW2 9882   4.024   5.939   5.988
 2995SOL     OW 9883   4.987   0.936   0.546
 2995SOL    HW1 9884   5.042   1.019   0.541
 2995SOL    HW2 9885   4.907   0.952   0.603
 2996SOL     OW 9886   6.787   0.516   4.167
 2996SOL    HW1 9887   6.741   0.555   4.247
 2996SOL    HW2 9888   6.799   0.417   4.181
 2997SOL     OW 9889   5.070   6.501   4.486
 2997SOL    HW1 9890   5.060   6.464   4.393
 2997SOL    HW2 9891   5.049   6.599   4.484
 2998SOL     OW 9892   2.680   1.426   2.997
 2998SOL    HW1 9893   2.664   1.339   3.042
 2998SOL    HW2 9894   2.778   1.449   3.002
 2999SOL     OW 9895   3.059   3.816   0.890
 2999SOL    HW1 9896   3.111   3.865   0.960
 2999SOL    HW2 9897   3.123   3.774   0.825
 3000SOL     OW 9898   3.105   4.009   5.260
 3000SOL    HW1 9899   3.104   3.952   5.342
 3000SOL    HW2 9900   3.096   4.105   5.286
 3001SOL     OW 9901   5.709   0.750   5.493
 3001SOL    HW1 9902   5.614   0.773   5.470
 3001SOL    HW2 9903   5.710   0.685   5.569
 3002SOL     OW 9904   1.772   2.227   1.681
 3002SOL    HW1 9905   1.782   2.221   1.780
 3002SOL    HW2 9906   1.799   2.319   1.650
 3003SOL     OW 9907   1.578   6.547   0.077
 3003SOL    HW1 9908   1.621   6.597   0.002
 3003SOL    HW2 9909   1.557   6.609   0.152
 3004SOL     OW 9910   2.750   6.470   3.766
 3004SOL    HW1 9911   2.676   6.403   3.771
 3004SOL    HW2 9912   2.711   6.562   3.768
 3005SOL     OW 9913   0.793   2.402   6.748
 3005SOL    HW1 9914   0.840   2.463   6.812
 3005SOL    HW2 9915   0.712   2.364   6.792
 3006SOL     OW 9916   4.960   1.612   5.711
 3006SOL    HW1 9917   4.870   1.590   5.749
 3006SOL    HW2 9918   4.986   1.705   5.737
 3007SOL     OW 9919   5.236   5.468   0.167
 3007SOL    HW1 9920   5.305   5.480   0.095
 3007SOL    HW2 9921   5.229   5.553   0.220
 3008SOL     OW 9922   5.357   3.416   5.784
 3008SOL    HW1 9923   5.441   3.362   5.788
 3008SOL    HW2 9924   5.298   3.381   5.711
 3009SOL     OW 9925   0.510   3.210   2.123
 3009SOL    HW1 9926   0.538   3.258   2.039
 3009SOL    HW2 9927   0.410   3.203   2.125
 3010SOL     OW 9928   4.265   5.555   0.366
 3010SOL    HW1 9929   4.214   5.479   0.326
 3010SOL    HW2 9930   4.239   5.566   0.462
 3011SOL     OW 9931   6.759   0.629   1.414
 3011SOL    HW1 9932   6.679   0.642   1.472
 3011SOL    HW2 9933   6.737   0.660   1.321
 3012SOL     OW 9934   2.153   2.379   5.282
 3012SOL    HW1 9935   2.239   2.330   5.269
 3012SOL    HW2 9936   2.161   2.472   5.244
 3013SOL     OW 9937   1.167   4.402   5.154
 3013SOL    HW1 9938   1.080   4.422   5.198
 3013SOL    HW2 9939   1.233   4.475   5.175
 3014SOL     OW 9940   5.360   6.651   6.171
 3014SOL    HW1 9941   5.459   6.650   6.155
 3014SOL    HW2 9942   5.313   6.653   6.083
 3015SOL     OW 9943   1.099   0.870   6.869
 3015SOL    HW1 9944   1.111   0.807   6.793
 3015SOL    HW2 9945   1.003   0.901   6.872
 3016SOL     OW 9946   1.776   6.111   4.120
 3016SOL    HW1 9947   1.828   6.163   4.188
 3016SOL    HW2 9948   1.680   6.107   4.148
 3017SOL     OW 9949   0.998   4.964   0.714
 3017SOL    HW1 9950   0.932   4.985   0.787
 3017SOL    HW2 9951   1.004   5.042   0.652
 3018SOL     OW 9952   3.803   6.912   0.652
 3018SOL    HW1 9953   3.833   6.956   0.568
 3018SOL    HW2 9954   3.837   6.964   0.731
 3019SOL     OW 9955   2.144   0.923   5.978
 3019SOL    HW1 9956   2.227   0.917   6.034
 3019SOL    HW2 9957   2.151   1.000   5.915
 3020SOL     OW 9958   6.586   3.791   6.747
 3020SOL    HW1 9959   6.633   3.806   6.660
 3020SOL    HW2 9960   6.542   3.875   6.776
 3021SOL     OW 9961   4.110   0.020   5.031
 3021SOL    HW1 9962   4.126   7.015   4.936
 3021SOL    HW2 9963   4.102   6.960   5.088
 3022SOL     OW 9964   3.578   5.806   3.767
 3022SOL    HW1 9965   3.585   5.905   3.778
 3022SOL    HW2 9966   3.505   5.771   3.826
 3023SOL     OW 9967   5.054   6.045   4.065
 3023SOL    HW1 9968   5.121   5.971   4.072
 3023SOL    HW2 9969   4.970   6.018   4.112
 3024SOL     OW 9970   0.465   6.889   0.276
 3024SOL    HW1 9971   0.417   6.817   0.326
 3024SOL    HW2 9972   0.468   6.972   0.331
 3025SOL     OW 9973   3.792   5.173   0.377
 3025SOL    HW1 9974   3.866   5.198   0.439
 3025SOL    HW2 9975   3.793   5.233   0.297
 3026SOL     OW 9976   6.863   0.674   2.368
 3026SOL    HW1 9977   6.813   0.691   2.284
 3026SOL    HW2 9978   6.961   0.672   2.349
 3027SOL     OW 9979   4.272   0.762   0.613
 3027SOL    HW1 9980   4.243   0.837   0.673
 3027SOL    HW2 9981   4.365   0.779   0.582
 3028SOL     OW 9982   2.927   3.165   5.693
 3028SOL    HW1 9983   2.879   3.223   5.759
 3028SOL    HW2 9984   2.861   3.123   5.631
 3029SOL     OW 9985   0.176   3.217   4.280
 3029SOL    HW1 9986   0.099   3.164   4.244
 3029SOL    HW2 9987   0.149   3.259   4.367
 3030SOL     OW 9988   2.357   3.233   0.041
 3030SOL    HW1 9989   2.257   3.232   0.040
 3030SOL    HW2 9990   2.392   3.163   7.001
 3031SOL     OW 9991   0.835   6.294   0.308
 3031SOL    HW1 9992   0.933   6.272   0.309
 3031SOL    HW2 9993   0.785   6.227   0.362
 3032SOL     OW 9994   2.527   0.535   2.796
 3032SOL    HW1 9995   2.554   0.621   2.752
 3032SOL    HW2 9996   2.476   0.555   2.880
 3033SOL     OW 9997   0.426   2.075   5.314
 3033SOL    HW1 9998   0.501   2.114   5.260
 3033SOL    HW2 9999   0.445   1.979   5.334
 3034SOL     OW10000   6.658   4.725   3.404
 3034SOL    HW110001   6.645   4.643   3.460
 3034SOL    HW210002   6.731   4.708   3.338
 3035SOL     OW10003   0.622   2.918   0.630
 3035SOL    HW110004   0.534   2.892   0.669
 3035SOL    HW210005   0.682   2.952   0.702
 3036SOL     OW10006   3.392   2.090   5.513
 3036SOL    HW110007   3.368   1.996   5.537
 3036SOL    HW210008   3.480   2.114   5.554
 3037SOL     OW10009   0.637   5.978   6.641
 3037SOL    HW110010   0.565   5.975   6.573
 3037SOL    HW210011   0.599   6.006   6.729
 3038SOL     OW10012   6.256   4.486   6.664
 3038SOL    HW110013   6.268   4.573   6.616
 3038SOL    HW210014   6.158   4.465   6.670
 3039SOL     OW10015   6.818   3.512   6.340
 3039SOL    HW110016   6.890   3.468   6.287
 3039SOL    HW210017   6.736   3.522   6.283
 3040SOL     OW10018   5.218   4.748   5.919
 3040SOL    HW110019   5.302   4.747   5.864
 3040SOL    HW210020   5.201   4.656   5.955
 3041SOL     OW10021   1.621   4.666   5.768
 3041SOL    HW110022   1.547   4.701   5.710
 3041SOL    HW210023   1.637   4.570   5.746
 3042SOL     OW10024   6.584   5.102   3.513
 3042SOL    HW110025   6.633   5.182   3.549
 3042SOL    HW210026   6.618   5.020   3.559
 3043SOL     OW10027   2.842   5.243   0.475
 3043SOL    HW110028   2.923   5.273   0.526
 3043SOL    HW210029   2.836   5.143   0.479
 3044SOL     OW10030   3.641   3.643   4.636
 3044SOL    HW110031   3.714   3.585   4.671
 3044SOL    HW210032   3.561   3.587   4.614
 3045SOL     OW10033   4.129   1.603   2.466
 3045SOL    HW110034   4.081   1.686   2.438
 3045SOL    HW210035   4.125   1.594   2.565
 3046SOL     OW10036   5.244   6.245   1.005
 3046SOL    HW110037   5.226   6.252   0.906
 3046SOL    HW210038   5.335   6.207   1.019
 3047SOL     OW10039   5.663   1.520   5.120
 3047SOL    HW110040   5.668   1.450   5.049
 3047SOL    HW210041   5.749   1.571   5.123
 3048SOL     OW10042   3.586   4.457   0.962
 3048SOL    HW110043   3.515   4.521   0.994
 3048SOL    HW210044   3.620   4.487   0.873
 3049SOL     OW10045   1.234   1.583   3.222
 3049SOL    HW110046   1.207   1.498   3.269
 3049SOL    HW210047   1.158   1.648   3.224
 3050SOL     OW10048   3.601   1.773   0.588
 3050SOL    HW110049   3.576   1.870   0.582
 3050SOL    HW210050   3.655   1.748   0.508
 3051SOL     OW10051   2.243   5.087   5.603
 3051SOL    HW110052   2.263   5.085   5.701
 3051SOL    HW210053   2.155   5.130   5.588
 3052SOL     OW10054   0.153   6.912   2.252
 3052SOL    HW110055   0.181   6.835   2.194
 3052SOL    HW210056   0.215   6.919   2.330
 3053SOL     OW10057   1.355   4.077   0.464
 3053SOL    HW110058   1.383   4.170   0.488
 3053SOL    HW210059   1.284   4.082   0.394
 3054SOL     OW10060   5.506   0.634   2.691
 3054SOL    HW110061   5.463   0.544   2.683
 3054SOL    HW210062   5.480   0.690   2.612
 3055SOL     OW10063   6.080   6.017   6.348
 3055SOL    HW110064   6.016   5.942   6.334
 3055SOL    HW210065   6.172   5.988   6.323
 3056SOL     OW10066   4.958   1.337   5.764
 3056SOL    HW110067   5.034   1.275   5.743
 3056SOL    HW210068   4.984   1.431   5.739
 3057SOL     OW10069   5.048   3.948   2.823
 3057SOL    HW110070   5.130   3.933   2.878
 3057SOL    HW210071   5.062   4.026   2.763
 3058SOL     OW10072   0.143   4.097   6.568
 3058SOL    HW110073   0.192   4.014   6.541
 3058SOL    HW210074   0.155   4.168   6.498
 3059SOL     OW10075   1.710   1.785   3.628
 3059SOL    HW110076   1.662   1.769   3.714
 3059SOL    HW210077   1.665   1.858   3.577
 3060SOL     OW10078   5.438   4.913   4.700
 3060SOL    HW110079   5.516   4.941   4.643
 3060SOL    HW210080   5.396   4.993   4.741
 3061SOL     OW10081   5.816   6.368   4.985
 3061SOL    HW110082   5.760   6.437   4.939
 3061SOL    HW210083   5.758   6.293   5.016
 3062SOL     OW10084   3.995   4.271   1.079
 3062SOL    HW110085   4.062   4.212   1.124
 3062SOL    HW210086   3.919   4.216   1.045
 3063SOL     OW10087   0.833   4.278   2.269
 3063SOL    HW110088   0.888   4.330   2.334
 3063SOL    HW210089   0.779   4.340   2.213
 3064SOL     OW10090   4.756   2.277   6.383
 3064SOL    HW110091   4.693   2.201   6.367
 3064SOL    HW210092   4.842   2.242   6.420
 3065SOL     OW10093   5.859   1.444   0.153
 3065SOL    HW110094   5.869   1.518   0.219
 3065SOL    HW210095   5.860   1.356   0.202
 3066SOL     OW10096   4.919   6.330   5.198
 3066SOL    HW110097   4.998   6.377   5.237
 3066SOL    HW210098   4.948   6.245   5.154
 3067SOL     OW10099   1.459   2.416   5.798
 3067SOL    HW110100   1.524   2.403   5.873
 3067SOL    HW210101   1.393   2.487   5.824
 3068SOL     OW10102   0.115   0.600   0.409
 3068SOL    HW110103   0.132   0.656   0.490
 3068SOL    HW210104   0.175   0.629   0.334
 3069SOL     OW10105   5.570   0.464   3.282
 3069SOL    HW110106   5.626   0.439   3.360
 3069SOL    HW210107   5.628   0.504   3.210
 3070SOL     OW10108   2.173   1.065   0.694
 3070SOL    HW110109   2.170   1.150   0.747
 3070SOL    HW210110   2.268   1.044   0.670
 3071SOL     OW10111   6.146   4.605   5.130
 3071SOL    HW110112   6.183   4.584   5.221
 3071SOL    HW210113   6.062   4.659   5.140
 3072SOL     OW10114   1.922   6.875   6.048
 3072SOL    HW110115   1.918   6.956   6.107
 3072SOL    HW210116   1.852   6.883   5.977
 3073SOL     OW10117   6.614   4.855   1.508
 3073SOL    HW110118   6.559   4.836   1.589
 3073SOL    HW210119   6.557   4.902   1.440
 3074SOL     OW10120   2.691   3.108   1.422
 3074SOL    HW110121   2.743   3.029   1.392
 3074SOL    HW210122   2.687   3.110   1.522
 3075SOL     OW10123   3.506   5.632   2.015
 3075SOL    HW110124   3.591   5.586   1.989
 3075SOL    HW210125   3.484   5.609   2.110
 3076SOL     OW10126   0.770   0.442   5.151
 3076SOL    HW110127   0.789   0.345   5.166
 3076SOL    HW210128   0.746   0.457   5.055
 3077SOL     OW10129   6.844   4.294   2.504
 3077SOL    HW110130   6.909   4.220   2.492
 3077SOL    HW210131   6.751   4.259   2.493
 3078SOL     OW10132   0.166   3.359   1.866
 3078SOL    HW110133   0.076   3.393   1.892
 3078SOL    HW210134   0.207   3.418   1.797
 3079SOL     OW10135   2.139   3.486   5.287
 3079SOL    HW110136   2.151   3.573   5.240
 3079SOL    HW210137   2.207   3.478   5.360
 3080SOL     OW10138   3.560   4.338   0.504
 3080SOL    HW110139   3.617   4.270   0.458
 3080SOL    HW210140   3.469   4.300   0.522
 3081SOL     OW10141   1.120   3.649   0.871
 3081SOL    HW110142   1.121   3.732   0.815
 3081SOL    HW210143   1.186   3.584   0.834
 3082SOL     OW10144   4.638   5.154   4.445
 3082SOL    HW110145   4.559   5.186   4.394
 3082SOL    HW210146   4.664   5.063   4.412
 3083SOL     OW10147   4.168   6.091   1.659
 3083SOL    HW110148   4.211   6.094   1.569
 3083SOL    HW210149   4.234   6.057   1.726
 3084SOL     OW10150   0.184   4.302   4.424
 3084SOL    HW110151   0.276   4.326   4.454
 3084SOL    HW210152   0.118   4.325   4.495
 3085SOL     OW10153   5.569   5.112   0.367
 3085SOL    HW110154   5.489   5.158   0.330
 3085SOL    HW210155   5.598   5.157   0.451
 3086SOL     OW10156   6.499   6.881   6.239
 3086SOL    HW110157   6.494   6.869   6.338
 3086SOL    HW210158   6.498   6.979   6.217
 3087SOL     OW10159   3.443   6.905   1.920
 3087SOL    HW110160   3.400   6.849   1.991
 3087SOL    HW210161   3.437   6.859   1.832
 3088SOL     OW10162   2.087   2.802   5.889
 3088SOL    HW110163   2.005   2.809   5.945
 3088SOL    HW210164   2.060   2.793   5.793
 3089SOL     OW10165   4.504   5.578   5.884
 3089SOL    HW110166   4.518   5.626   5.971
 3089SOL    HW210167   4.407   5.575   5.863
 3090SOL     OW10168   0.735   2.757   2.540
 3090SOL    HW110169   0.750   2.838   2.484
 3090SOL    HW210170   0.820   2.730   2.583
 3091SOL     OW10171   1.082   2.407   1.532
 3091SOL    HW110172   1.136   2.392   1.449
 3091SOL    HW210173   1.026   2.489   1.522
 3092SOL     OW10174   5.820   1.281   2.611
 3092SOL    HW110175   5.732   1.302   2.569
 3092SOL    HW210176   5.805   1.240   2.701
 3093SOL     OW10177   5.930   5.758   0.188
 3093SOL    HW110178   5.917   5.669   0.231
 3093SOL    HW210179   5.963   5.746   0.095
 3094SOL     OW10180   2.677   2.071   6.395
 3094SOL    HW110181   2.768   2.104   6.421
 3094SOL    HW210182   2.618   2.149   6.372
 3095SOL     OW10183   1.752   3.647   4.961
 3095SOL    HW110184   1.761   3.671   4.865
 3095SOL    HW210185   1.710   3.722   5.011
 3096SOL     OW10186   0.398   3.530   4.235
 3096SOL    HW110187   0.427   3.618   4.199
 3096SOL    HW210188   0.456   3.458   4.198
 3097SOL     OW10189   5.738   2.392   5.398
 3097SOL    HW110190   5.667   2.368   5.331
 3097SOL    HW210191   5.809   2.447   5.354
 3098SOL     OW10192   1.874   3.356   2.923
 3098SOL    HW110193   1.787   3.321   2.956
 3098SOL    HW210194   1.902   3.303   2.842
 3099SOL     OW10195   0.482   6.448   4.651
 3099SOL    HW110196   0.481   6.371   4.715
 3099SOL    HW210197   0.395   6.454   4.603
 3100SOL     OW10198   6.032   5.057   1.875
 3100SOL    HW110199   6.065   4.987   1.812
 3100SOL    HW210200   6.066   5.146   1.847
 3101SOL     OW10201   3.961   6.745   5.753
 3101SOL    HW110202   3.943   6.753   5.655
 3101SOL    HW210203   3.880   6.707   5.798
 3102SOL     OW10204   6.913   4.625   1.263
 3102SOL    HW110205   6.996   4.573   1.283
 3102SOL    HW210206   6.938   4.717   1.232
 3103SOL     OW10207   3.171   1.437   1.484
 3103SOL    HW110208   3.135   1.345   1.471
 3103SOL    HW210209   3.115   1.486   1.550
 3104SOL     OW10210   4.867   1.389   5.202
 3104SOL    HW110211   4.868   1.379   5.301
 3104SOL    HW210212   4.926   1.319   5.161
 3105SOL     OW10213   6.058   3.460   0.528
 3105SOL    HW110214   6.010   3.504   0.452
 3105SOL    HW210215   6.114   3.527   0.576
 3106SOL     OW10216   6.102   0.669   5.971
 3106SOL    HW110217   6.084   0.669   6.069
 3106SOL    HW210218   6.157   0.588   5.947
 3107SOL     OW10219   3.434   1.870   5.675
 3107SOL    HW110220   3.454   1.889   5.771
 3107SOL    HW210221   3.340   1.838   5.665
 3108SOL     OW10222   2.137   4.298   3.820
 3108SOL    HW110223   2.125   4.205   3.787
 3108SOL    HW210224   2.157   4.359   3.743
 3109SOL     OW10225   6.644   6.479   4.343
 3109SOL    HW110226   6.743   6.475   4.354
 3109SOL    HW210227   6.614   6.409   4.279
 3110SOL     OW10228   0.953   4.496   2.893
 3110SOL    HW110229   0.868   4.479   2.842
 3110SOL    HW210230   1.006   4.412   2.900
 3111SOL     OW10231   5.771   4.714   3.902
 3111SOL    HW110232   5.774   4.615   3.893
 3111SOL    HW210233   5.707   4.752   3.835
 3112SOL     OW10234   3.830   1.436   6.033
 3112SOL    HW110235   3.755   1.448   5.967
 3112SOL    HW210236   3.894   1.512   6.025
 3113SOL     OW10237   2.324   6.155   3.125
 3113SOL    HW110238   2.396   6.218   3.153
 3113SOL    HW210239   2.256   6.147   3.199
 3114SOL     OW10240   4.712   0.991   5.394
 3114SOL    HW110241   4.626   0.977   5.443
 3114SOL    HW210242   4.701   1.065   5.327
 3115SOL     OW10243   4.375   5.597   5.281
 3115SOL    HW110244   4.436   5.670   5.312
 3115SOL    HW210245   4.314   5.571   5.355
 3116SOL     OW10246   0.249   1.103   0.459
 3116SOL    HW110247   0.306   1.164   0.515
 3116SOL    HW210248   0.301   1.074   0.378
 3117SOL     OW10249   4.959   1.078   6.165
 3117SOL    HW110250   4.995   1.088   6.257
 3117SOL    HW210251   5.004   1.001   6.120
 3118SOL     OW10252   1.181   1.318   3.346
 3118SOL    HW110253   1.131   1.267   3.276
 3118SOL    HW210254   1.272   1.277   3.359
 3119SOL     OW10255   4.566   5.097   4.968
 3119SOL    HW110256   4.610   5.104   4.878
 3119SOL    HW210257   4.543   5.189   5.001
 3120SOL     OW10258   2.108   5.632   5.495
 3120SOL    HW110259   2.199   5.593   5.485
 3120SOL    HW210260   2.099   5.712   5.437
 3121SOL     OW10261   3.788   1.274   4.042
 3121SOL    HW110262   3.702   1.317   4.015
 3121SOL    HW210263   3.768   1.187   4.088
 3122SOL     OW10264   4.758   5.408   4.364
 3122SOL    HW110265   4.756   5.341   4.290
 3122SOL    HW210266   4.736   5.363   4.451
 3123SOL     OW10267   2.163   1.147   3.528
 3123SOL    HW110268   2.141   1.221   3.591
 3123SOL    HW210269   2.218   1.079   3.574
 3124SOL     OW10270   5.001   0.381   4.493
 3124SOL    HW110271   4.924   0.442   4.512
 3124SOL    HW210272   4.994   0.348   4.398
 3125SOL     OW10273   1.423   1.382   4.957
 3125SOL    HW110274   1.329   1.358   4.932
 3125SOL    HW210275   1.478   1.299   4.966
 3126SOL     OW10276   5.666   5.709   5.108
 3126SOL    HW110277   5.668   5.785   5.173
 3126SOL    HW210278   5.587   5.651   5.128
 3127SOL     OW10279   0.589   1.494   5.079
 3127SOL    HW110280   0.608   1.486   5.177
 3127SOL    HW210281   0.494   1.520   5.065
 3128SOL     OW10282   4.353   0.263   0.682
 3128SOL    HW110283   4.370   0.214   0.596
 3128SOL    HW210284   4.303   0.347   0.663
 3129SOL     OW10285   4.590   3.539   0.416
 3129SOL    HW110286   4.579   3.574   0.323
 3129SOL    HW210287   4.660   3.468   0.417
 3130SOL     OW10288   0.096   4.536   2.344
 3130SOL    HW110289   0.114   4.506   2.437
 3130SOL    HW210290   0.023   4.605   2.344
 3131SOL     OW10291   6.278   4.614   3.023
 3131SOL    HW110292   6.330   4.529   3.032
 3131SOL    HW210293   6.319   4.670   2.951
 3132SOL     OW10294   4.440   4.380   0.009
 3132SOL    HW110295   4.353   4.415   6.995
 3132SOL    HW210296   4.425   4.291   0.052
 3133SOL     OW10297   3.941   0.260   4.483
 3133SOL    HW110298   3.911   0.218   4.569
 3133SOL    HW210299   4.006   0.199   4.437
 3134SOL     OW10300   5.033   4.888   2.195
 3134SOL    HW110301   5.083   4.907   2.110
 3134SOL    HW210302   4.954   4.831   2.174
 3135SOL     OW10303   4.883   5.547   6.601
 3135SOL    HW110304   4.791   5.536   6.563
 3135SOL    HW210305   4.902   5.645   6.613
 3136SOL     OW10306   6.446   1.617   2.960
 3136SOL    HW110307   6.487   1.646   3.047
 3136SOL    HW210308   6.459   1.689   2.892
 3137SOL     OW10309   6.089   6.657   6.311
 3137SOL    HW110310   6.005   6.638   6.362
 3137SOL    HW210311   6.115   6.753   6.325
 3138SOL     OW10312   5.621   5.871   3.930
 3138SOL    HW110313   5.543   5.818   3.964
 3138SOL    HW210314   5.614   5.965   3.963
 3139SOL     OW10315   2.662   4.791   1.364
 3139SOL    HW110316   2.571   4.750   1.372
 3139SOL    HW210317   2.652   4.890   1.353
 3140SOL     OW10318   6.502   6.889   6.523
 3140SOL    HW110319   6.585   6.857   6.568
 3140SOL    HW210320   6.502   6.989   6.520
 3141SOL     OW10321   7.014   2.324   6.157
 3141SOL    HW110322   0.017   2.283   6.070
 3141SOL    HW210323   0.072   2.369   6.197
 3142SOL     OW10324   4.380   0.938   3.485
 3142SOL    HW110325   4.310   0.943   3.414
 3142SOL    HW210326   4.362   0.858   3.543
 3143SOL     OW10327   6.517   1.066   0.733
 3143SOL    HW110328   6.428   1.026   0.755
 3143SOL    HW210329   6.588   0.997   0.743
 3144SOL     OW10330   3.993   3.905   0.082
 3144SOL    HW110331   3.978   3.816   0.038
 3144SOL    HW210332   3.906   3.954   0.087
 3145SOL     OW10333   0.137   6.366   0.746
 3145SOL    HW110334   0.130   6.459   0.711
 3145SOL    HW210335   0.230   6.331   0.730
 3146SOL     OW10336   0.273   0.037   5.258
 3146SOL    HW110337   0.295   0.128   5.295
 3146SOL    HW210338   0.203   7.016   5.314
 3147SOL     OW10339   4.102   5.185   0.606
 3147SOL    HW110340   4.197   5.207   0.581
 3147SOL    HW210341   4.057   5.267   0.641
 3148SOL     OW10342   0.124   5.324   2.189
 3148SOL    HW110343   0.030   5.308   2.160
 3148SOL    HW210344   0.135   5.294   2.284
 3149SOL     OW10345   3.080   1.938   6.983
 3149SOL    HW110346   2.986   1.967   7.001
 3149SOL    HW210347   3.139   2.018   6.975
 3150SOL     OW10348   6.616   5.653   5.319
 3150SOL    HW110349   6.650   5.675   5.228
 3150SOL    HW210350   6.559   5.571   5.314
 3151SOL     OW10351   7.011   0.679   5.870
 3151SOL    HW110352   6.954   0.633   5.938
 3151SOL    HW210353   6.999   0.636   5.781
 3152SOL     OW10354   1.320   3.490   6.258
 3152SOL    HW110355   1.378   3.441   6.193
 3152SOL    HW210356   1.225   3.460   6.247
 3153SOL     OW10357   6.474   4.963   0.965
 3153SOL    HW110358   6.506   4.888   1.022
 3153SOL    HW210359   6.546   5.032   0.957
 3154SOL     OW10360   4.604   1.230   0.144
 3154SOL    HW110361   4.524   1.276   0.107
 3154SOL    HW210362   4.588   1.131   0.146
 3155SOL     OW10363   1.262   4.933   0.958
 3155SOL    HW110364   1.256   4.911   1.056
 3155SOL    HW210365   1.251   5.031   0.946
 3156SOL     OW10366   3.565   4.169   1.864
 3156SOL    HW110367   3.587   4.243   1.800
 3156SOL    HW210368   3.648   4.136   1.908
 3157SOL     OW10369   0.786   1.289   5.929
 3157SOL    HW110370   0.810   1.197   5.959
 3157SOL    HW210371   0.689   1.306   5.947
 3158SOL     OW10372   1.732   1.475   5.872
 3158SOL    HW110373   1.754   1.500   5.966
 3158SOL    HW210374   1.638   1.503   5.851
 3159SOL     OW10375   6.223   0.087   0.602
 3159SOL    HW110376   6.157   0.138   0.657
 3159SOL    HW210377   6.202   7.011   0.606
 3160SOL     OW10378   1.871   0.208   6.456
 3160SOL    HW110379   1.775   0.213   6.485
 3160SOL    HW210380   1.927   0.177   6.533
 3161SOL     OW10381   2.460   2.046   2.554
 3161SOL    HW110382   2.416   2.136   2.553
 3161SOL    HW210383   2.405   1.982   2.607
 3162SOL     OW10384   2.486   5.350   0.763
 3162SOL    HW110385   2.560   5.348   0.830
 3162SOL    HW210386   2.451   5.443   0.755
 3163SOL     OW10387   4.443   4.156   0.158
 3163SOL    HW110388   4.474   4.061   0.155
 3163SOL    HW210389   4.444   4.189   0.252
 3164SOL     OW10390   2.807   6.419   2.882
 3164SOL    HW110391   2.806   6.487   2.808
 3164SOL    HW210392   2.744   6.345   2.860
 3165SOL     OW10393   0.554   6.606   6.793
 3165SOL    HW110394   0.589   6.639   6.705
 3165SOL    HW210395   0.627   6.557   6.842
 3166SOL     OW10396   5.061   0.689   4.858
 3166SOL    HW110397   4.977   0.651   4.819
 3166SOL    HW210398   5.042   0.782   4.891
 3167SOL     OW10399   5.552   3.440   0.535
 3167SOL    HW110400   5.567   3.371   0.464
 3167SOL    HW210401   5.531   3.394   0.621
 3168SOL     OW10402   5.029   2.410   0.448
 3168SOL    HW110403   5.053   2.396   0.544
 3168SOL    HW210404   4.956   2.347   0.423
 3169SOL     OW10405   1.982   4.365   1.934
 3169SOL    HW110406   2.000   4.269   1.912
 3169SOL    HW210407   1.947   4.411   1.852
 3170SOL     OW10408   2.799   4.721   3.233
 3170SOL    HW110409   2.742   4.646   3.197
 3170SOL    HW210410   2.841   4.770   3.156
 3171SOL     OW10411   5.218   2.535   3.425
 3171SOL    HW110412   5.131   2.489   3.445
 3171SOL    HW210413   5.214   2.629   3.456
 3172SOL     OW10414   6.404   4.336   1.638
 3172SOL    HW110415   6.494   4.338   1.682
 3172SOL    HW210416   6.396   4.413   1.575
 3173SOL     OW10417   4.305   2.636   1.015
 3173SOL    HW110418   4.261   2.555   1.053
 3173SOL    HW210419   4.296   2.636   0.916
 3174SOL     OW10420   2.988   3.751   6.268
 3174SOL    HW110421   2.899   3.794   6.279
 3174SOL    HW210422   3.004   3.731   6.171
 3175SOL     OW10423   5.674   0.675   3.939
 3175SOL    HW110424   5.728   0.681   4.023
 3175SOL    HW210425   5.581   0.645   3.960
 3176SOL     OW10426   1.173   4.648   4.975
 3176SOL    HW110427   1.271   4.667   4.981
 3176SOL    HW210428   1.157   4.582   4.902
 3177SOL     OW10429   5.560   3.974   3.629
 3177SOL    HW110430   5.574   3.967   3.530
 3177SOL    HW210431   5.559   3.882   3.669
 3178SOL     OW10432   6.970   0.776   1.474
 3178SOL    HW110433   6.999   0.752   1.566
 3178SOL    HW210434   6.898   0.713   1.445
 3179SOL     OW10435   1.015   1.788   2.129
 3179SOL    HW110436   1.047   1.866   2.075
 3179SOL    HW210437   0.970   1.821   2.211
 3180SOL     OW10438   6.912   5.906   0.402
 3180SOL    HW110439   6.825   5.857   0.395
 3180SOL    HW210440   6.954   5.911   0.311
 3181SOL     OW10441   1.357   0.051   4.769
 3181SOL    HW110442   1.428   0.019   4.831
 3181SOL    HW210443   1.380   0.025   4.675
 3182SOL     OW10444   2.543   1.223   0.370
 3182SOL    HW110445   2.532   1.153   0.300
 3182SOL    HW210446   2.474   1.294   0.359
 3183SOL     OW10447   4.160   4.117   1.228
 3183SOL    HW110448   4.234   4.072   1.277
 3183SOL    HW210449   4.089   4.145   1.293
 3184SOL     OW10450   0.615   2.244   5.149
 3184SOL    HW110451   0.588   2.201   5.063
 3184SOL    HW210452   0.714   2.234   5.162
 3185SOL     OW10453   0.605   5.365   5.919
 3185SOL    HW110454   0.617   5.306   5.999
 3185SOL    HW210455   0.589   5.459   5.949
 3186SOL     OW10456   0.510   1.854   6.550
 3186SOL    HW110457   0.442   1.810   6.492
 3186SOL    HW210458   0.482   1.847   6.646
 3187SOL     OW10459   4.108   5.827   2.344
 3187SOL    HW110460   4.185   5.887   2.324
 3187SOL    HW210461   4.083   5.835   2.440
 3188SOL     OW10462   2.239   4.981   5.872
 3188SOL    HW110463   2.257   5.067   5.920
 3188SOL    HW210464   2.260   4.904   5.933
 3189SOL     OW10465   3.504   1.916   5.943
 3189SOL    HW110466   3.483   2.010   5.972
 3189SOL    HW210467   3.451   1.852   6.000
 3190SOL     OW10468   6.186   5.755   4.911
 3190SOL    HW110469   6.099   5.743   4.959
 3190SOL    HW210470   6.257   5.702   4.956
 3191SOL     OW10471   4.420   5.516   1.368
 3191SOL    HW110472   4.434   5.427   1.411
 3191SOL    HW210473   4.374   5.577   1.432
 3192SOL     OW10474   5.789   2.263   2.540
 3192SOL    HW110475   5.844   2.329   2.591
 3192SOL    HW210476   5.702   2.249   2.586
 3193SOL     OW10477   3.784   6.945   5.449
 3193SOL    HW110478   3.743   7.016   5.505
 3193SOL    HW210479   3.735   6.939   5.362
 3194SOL     OW10480   1.398   1.042   6.381
 3194SOL    HW110481   1.304   1.020   6.355
 3194SOL    HW210482   1.449   0.957   6.396
 3195SOL     OW10483   6.981   2.319   1.281
 3195SOL    HW110484   0.025   2.293   1.210
 3195SOL    HW210485   6.888   2.317   1.243
 3196SOL     OW10486   6.104   0.359   4.336
 3196SOL    HW110487   6.100   0.458   4.348
 3196SOL    HW210488   6.182   0.336   4.277
 3197SOL     OW10489   1.606   0.853   6.451
 3197SOL    HW110490   1.629   0.776   6.390
 3197SOL    HW210491   1.680   0.920   6.447
 3198SOL     OW10492   5.738   3.101   2.993
 3198SOL    HW110493   5.776   3.036   2.927
 3198SOL    HW210494   5.744   3.193   2.956
 3199SOL     OW10495   5.719   4.360   3.616
 3199SOL    HW110496   5.813   4.326   3.608
 3199SOL    HW210497   5.661   4.314   3.548
 3200SOL     OW10498   5.539   3.225   3.548
 3200SOL    HW110499   5.619   3.255   3.600
 3200SOL    HW210500   5.462   3.211   3.611
 3201SOL     OW10501   5.959   4.390   2.890
 3201SOL    HW110502   5.967   4.458   2.963
 3201SOL    HW210503   6.046   4.342   2.880
 3202SOL     OW10504   1.741   3.853   6.872
 3202SOL    HW110505   1.829   3.804   6.874
 3202SOL    HW210506   1.738   3.919   6.946
 3203SOL     OW10507   3.412   0.244   1.371
 3203SOL    HW110508   3.367   0.329   1.398
 3203SOL    HW210509   3.451   0.199   1.451
 3204SOL     OW10510   2.576   1.508   3.367
 3204SOL    HW110511   2.521   1.445   3.312
 3204SOL    HW210512   2.555   1.496   3.464
 3205SOL     OW10513   5.529   3.555   5.374
 3205SOL    HW110514   5.606   3.532   5.314
 3205SOL    HW210515   5.445   3.560   5.321
 3206SOL     OW10516   2.965   3.183   1.340
 3206SOL    HW110517   2.975   3.151   1.246
 3206SOL    HW210518   2.867   3.191   1.362
 3207SOL     OW10519   1.632   5.739   5.457
 3207SOL    HW110520   1.565   5.691   5.401
 3207SOL    HW210521   1.662   5.680   5.532
 3208SOL     OW10522   6.258   5.291   6.167
 3208SOL    HW110523   6.276   5.287   6.266
 3208SOL    HW210524   6.159   5.300   6.152
 3209SOL     OW10525   5.024   5.779   6.598
 3209SOL    HW110526   5.024   5.792   6.697
 3209SOL    HW210527   5.018   5.868   6.553
 3210SOL     OW10528   6.144   5.139   1.511
 3210SOL    HW110529   6.045   5.152   1.514
 3210SOL    HW210530   6.164   5.041   1.505
 3211SOL     OW10531   0.657   5.001   6.734
 3211SOL    HW110532   0.708   5.010   6.819
 3211SOL    HW210533   0.657   5.088   6.686
 3212SOL     OW10534   2.180   0.344   3.053
 3212SOL    HW110535   2.242   0.289   3.109
 3212SOL    HW210536   2.097   0.363   3.105
 3213SOL     OW10537   1.381   0.661   6.274
 3213SOL    HW110538   1.418   0.574   6.307
 3213SOL    HW210539   1.456   0.719   6.242
 3214SOL     OW10540   3.310   0.912   2.576
 3214SOL    HW110541   3.283   1.002   2.540
 3214SOL    HW210542   3.229   0.855   2.585
 3215SOL     OW10543   1.809   3.143   0.925
 3215SOL    HW110544   1.888   3.109   0.976
 3215SOL    HW210545   1.840   3.196   0.846
 3216SOL     OW10546   5.843   4.288   0.205
 3216SOL    HW110547   5.788   4.359   0.249
 3216SOL    HW210548   5.881   4.227   0.274
 3217SOL     OW10549   0.698   5.950   2.934
 3217SOL    HW110550   0.738   5.975   2.846
 3217SOL    HW210551   0.681   6.033   2.988
 3218SOL     OW10552   5.878   0.939   3.155
 3218SOL    HW110553   5.866   0.921   3.057
 3218SOL    HW210554   5.934   1.021   3.167
 3219SOL     OW10555   5.931   0.912   5.572
 3219SOL    HW110556   5.961   0.859   5.651
 3219SOL    HW210557   5.837   0.887   5.548
 3220SOL     OW10558   6.861   4.508   6.954
 3220SOL    HW110559   6.922   4.451   7.009
 3220SOL    HW210560   6.863   4.601   6.989
 3221SOL     OW10561   3.808   0.356   1.517
 3221SOL    HW110562   3.837   0.331   1.610
 3221SOL    HW210563   3.776   0.275   1.469
 3222SOL     OW10564   3.324   1.529   3.150
 3222SOL    HW110565   3.386   1.562   3.222
 3222SOL    HW210566   3.332   1.589   3.070
 3223SOL     OW10567   1.305   6.798   0.997
 3223SOL    HW110568   1.222   6.830   0.951
 3223SOL    HW210569   1.318   6.850   1.081
 3224SOL     OW10570   3.950   1.892   4.086
 3224SOL    HW110571   3.872   1.929   4.136
 3224SOL    HW210572   3.976   1.956   4.013
 3225SOL     OW10573   4.308   0.728   3.636
 3225SOL    HW110574   4.251   0.755   3.714
 3225SOL    HW210575   4.256   0.669   3.575
 3226SOL     OW10576   0.336   0.067   1.184
 3226SOL    HW110577   0.402   0.003   1.222
 3226SOL    HW210578   0.369   0.161   1.197
 3227SOL     OW10579   5.073   3.669   5.104
 3227SOL    HW110580   5.117   3.743   5.053
 3227SOL    HW210581   4.984   3.648   5.063
 3228SOL     OW10582   2.186   3.868   0.553
 3228SOL    HW110583   2.101   3.825   0.584
 3228SOL    HW210584   2.260   3.847   0.617
 3229SOL     OW10585   1.716   1.486   0.691
 3229SOL    HW110586   1.635   1.525   0.648
 3229SOL    HW210587   1.716   1.508   0.789
 3230SOL     OW10588   2.302   5.786   5.713
 3230SOL    HW110589   2.235   5.722   5.750
 3230SOL    HW210590   2.316   5.861   5.777
 3231SOL     OW10591   2.315   1.702   1.941
 3231SOL    HW110592   2.279   1.795   1.940
 3231SOL    HW210593   2.328   1.670   1.848
 3232SOL     OW10594   4.049   5.577   3.877
 3232SOL    HW110595   4.010   5.486   3.886
 3232SOL    HW210596   3.977   5.643   3.855
 3233SOL     OW10597   0.208   2.482   0.575
 3233SOL    HW110598   0.203   2.425   0.492
 3233SOL    HW210599   0.236   2.575   0.549
 3234SOL     OW10600   2.704   3.046   0.496
 3234SOL    HW110601   2.717   3.123   0.433
 3234SOL    HW210602   2.623   3.064   0.553
 3235SOL     OW10603   0.872   6.882   2.009
 3235SOL    HW110604   0.837   6.957   1.953
 3235SOL    HW210605   0.831   6.886   2.100
 3236SOL     OW10606   3.466   2.809   0.557
 3236SOL    HW110607   3.437   2.735   0.497
 3236SOL    HW210608   3.386   2.864   0.583
 3237SOL     OW10609   5.699   1.303   4.954
 3237SOL    HW110610   5.644   1.221   4.966
 3237SOL    HW210611   5.788   1.278   4.914
 3238SOL     OW10612   6.701   5.419   1.672
 3238SOL    HW110613   6.777   5.386   1.729
 3238SOL    HW210614   6.703   5.372   1.584
 3239SOL     OW10615   6.644   0.079   4.329
 3239SOL    HW110616   6.669   0.023   4.250
 3239SOL    HW210617   6.544   0.085   4.335
 3240SOL     OW10618   0.624   1.186   6.678
 3240SOL    HW110619   0.532   1.151   6.695
 3240SOL    HW210620   0.654   1.161   6.586
 3241SOL     OW10621   6.038   1.774   6.135
 3241SOL    HW110622   6.024   1.676   6.151
 3241SOL    HW210623   6.030   1.824   6.221
 3242SOL     OW10624   5.420   4.723   4.918
 3242SOL    HW110625   5.470   4.636   4.914
 3242SOL    HW210626   5.424   4.768   4.829
 3243SOL     OW10627   5.329   5.146   5.307
 3243SOL    HW110628   5.244   5.191   5.283
 3243SOL    HW210629   5.355   5.083   5.234
 3244SOL     OW10630   5.292   6.507   0.001
 3244SOL    HW110631   5.271   6.449   6.944
 3244SOL    HW210632   5.351   6.456   0.064
 3245SOL     OW10633   3.920   1.104   4.710
 3245SOL    HW110634   4.018   1.117   4.719
 3245SOL    HW210635   3.902   1.020   4.659
 3246SOL     OW10636   6.631   0.470   2.897
 3246SOL    HW110637   6.700   0.532   2.933
 3246SOL    HW210638   6.547   0.478   2.952
 3247SOL     OW10639   0.562   4.073   2.817
 3247SOL    HW110640   0.655   4.110   2.814
 3247SOL    HW210641   0.564   3.974   2.803
 3248SOL     OW10642   5.446   2.449   3.531
 3248SOL    HW110643   5.532   2.479   3.490
 3248SOL    HW210644   5.371   2.503   3.492
 3249SOL     OW10645   3.235   3.899   4.079
 3249SOL    HW110646   3.182   3.826   4.035
 3249SOL    HW210647   3.186   3.933   4.159
 3250SOL     OW10648   4.914   5.668   2.363
 3250SOL    HW110649   4.862   5.665   2.449
 3250SOL    HW210650   5.006   5.703   2.380
 3251SOL     OW10651   2.461   1.290   3.263
 3251SOL    HW110652   2.539   1.228   3.263
 3251SOL    HW210653   2.388   1.252   3.206
 3252SOL     OW10654   2.294   1.578   3.660
 3252SOL    HW110655   2.331   1.485   3.668
 3252SOL    HW210656   2.353   1.633   3.601
 3253SOL     OW10657   6.648   3.341   0.462
 3253SOL    HW110658   6.686   3.319   0.372
 3253SOL    HW210659   6.615   3.257   0.505
 3254SOL     OW10660   6.305   0.281   1.054
 3254SOL    HW110661   6.210   0.273   1.085
 3254SOL    HW210662   6.356   0.199   1.080
 3255SOL     OW10663   5.277   5.552   1.306
 3255SOL    HW110664   5.291   5.455   1.289
 3255SOL    HW210665   5.181   5.576   1.288
 3256SOL     OW10666   4.902   1.664   0.922
 3256SOL    HW110667   4.940   1.756   0.933
 3256SOL    HW210668   4.977   1.598   0.912
 3257SOL     OW10669   2.627   2.438   3.014
 3257SOL    HW110670   2.653   2.418   3.108
 3257SOL    HW210671   2.709   2.435   2.956
 3258SOL     OW10672   2.031   6.028   3.541
 3258SOL    HW110673   2.056   5.994   3.450
 3258SOL    HW210674   1.976   5.960   3.588
 3259SOL     OW10675   4.403   4.689   3.343
 3259SOL    HW110676   4.483   4.748   3.333
 3259SOL    HW210677   4.423   4.615   3.407
 3260SOL     OW10678   1.389   4.635   2.561
 3260SOL    HW110679   1.485   4.650   2.539
 3260SOL    HW210680   1.366   4.538   2.548
 3261SOL     OW10681   5.327   6.937   4.022
 3261SOL    HW110682   5.354   0.009   4.046
 3261SOL    HW210683   5.228   6.932   4.014
 3262SOL     OW10684   3.281   1.902   2.416
 3262SOL    HW110685   3.315   1.841   2.345
 3262SOL    HW210686   3.192   1.939   2.390
 3263SOL     OW10687   1.000   1.408   2.772
 3263SOL    HW110688   1.012   1.456   2.684
 3263SOL    HW210689   0.931   1.456   2.826
 3264SOL     OW10690   1.770   5.907   0.761
 3264SOL    HW110691   1.744   5.911   0.665
 3264SOL    HW210692   1.853   5.961   0.775
 3265SOL     OW10693   5.477   4.698   5.809
 3265SOL    HW110694   5.552   4.638   5.837
 3265SOL    HW210695   5.515   4.779   5.762
 3266SOL     OW10696   3.535   5.081   6.493
 3266SOL    HW110697   3.472   5.116   6.562
 3266SOL    HW210698   3.506   5.111   6.403
 3267SOL     OW10699   4.157   0.057   0.687
 3267SOL    HW110700   4.238   0.111   0.712
 3267SOL    HW210701   4.128   0.082   0.595
 3268SOL     OW10702   6.519   5.252   1.976
 3268SOL    HW110703   6.531   5.227   2.072
 3268SOL    HW210704   6.531   5.170   1.919
 3269SOL     OW10705   1.810   4.897   2.452
 3269SOL    HW110706   1.891   4.890   2.394
 3269SOL    HW210707   1.828   4.853   2.540
 3270SOL     OW10708   0.469   2.485   5.042
 3270SOL    HW110709   0.530   2.406   5.055
 3270SOL    HW210710   0.506   2.564   5.091
 3271SOL     OW10711   0.516   3.504   2.854
 3271SOL    HW110712   0.537   3.455   2.769
 3271SOL    HW210713   0.540   3.601   2.844
 3272SOL     OW10714   3.964   6.476   0.591
 3272SOL    HW110715   3.996   6.492   0.498
 3272SOL    HW210716   3.870   6.443   0.589
 3273SOL     OW10717   4.485   2.517   6.905
 3273SOL    HW110718   4.430   2.568   6.971
 3273SOL    HW210719   4.521   2.580   6.836
 3274SOL     OW10720   5.743   0.208   0.054
 3274SOL    HW110721   5.654   0.243   0.025
 3274SOL    HW210722   5.814   0.275   0.035
 3275SOL     OW10723   5.203   0.166   0.977
 3275SOL    HW110724   5.195   0.212   1.065
 3275SOL    HW210725   5.289   0.114   0.974
 3276SOL     OW10726   4.950   6.787   0.239
 3276SOL    HW110727   5.050   6.794   0.232
 3276SOL    HW210728   4.915   6.864   0.292
 3277SOL     OW10729   3.770   1.640   1.697
 3277SOL    HW110730   3.787   1.576   1.772
 3277SOL    HW210731   3.697   1.703   1.723
 3278SOL     OW10732   6.680   6.994   6.839
 3278SOL    HW110733   6.700   6.923   6.772
 3278SOL    HW210734   6.724   6.972   6.926
 3279SOL     OW10735   3.711   0.065   1.397
 3279SOL    HW110736   3.707   6.989   1.417
 3279SOL    HW210737   3.648   0.114   1.456
 3280SOL     OW10738   5.691   3.513   4.491
 3280SOL    HW110739   5.697   3.464   4.404
 3280SOL    HW210740   5.622   3.585   4.485
 3281SOL     OW10741   6.173   3.550   1.488
 3281SOL    HW110742   6.094   3.529   1.430
 3281SOL    HW210743   6.151   3.528   1.583
 3282SOL     OW10744   0.496   4.731   4.729
 3282SOL    HW110745   0.459   4.670   4.660
 3282SOL    HW210746   0.506   4.823   4.690
 3283SOL     OW10747   3.753   1.703   0.398
 3283SOL    HW110748   3.828   1.637   0.390
 3283SOL    HW210749   3.699   1.701   0.313
 3284SOL     OW10750   1.228   5.652   4.565
 3284SOL    HW110751   1.251   5.576   4.504
 3284SOL    HW210752   1.210   5.734   4.511
 3285SOL     OW10753   4.857   1.655   4.676
 3285SOL    HW110754   4.884   1.737   4.726
 3285SOL    HW210755   4.867   1.671   4.578
 3286SOL     OW10756   2.835   1.490   1.158
 3286SOL    HW110757   2.858   1.583   1.187
 3286SOL    HW210758   2.843   1.428   1.237
 3287SOL     OW10759   1.991   0.151   6.681
 3287SOL    HW110760   2.082   0.190   6.687
 3287SOL    HW210761   1.963   0.116   6.771
 3288SOL     OW10762   2.001   6.518   1.373
 3288SOL    HW110763   1.902   6.520   1.382
 3288SOL    HW210764   2.043   6.546   1.460
 3289SOL     OW10765   4.164   1.633   6.802
 3289SOL    HW110766   4.182   1.540   6.834
 3289SOL    HW210767   4.230   1.696   6.843
 3290SOL     OW10768   6.845   4.791   0.863
 3290SOL    HW110769   6.899   4.874   0.848
 3290SOL    HW210770   6.781   4.778   0.787
 3291SOL     OW10771   4.644   6.697   5.302
 3291SOL    HW110772   4.683   6.766   5.240
 3291SOL    HW210773   4.591   6.743   5.373
 3292SOL     OW10774   6.792   2.165   1.560
 3292SOL    HW110775   6.819   2.187   1.653
 3292SOL    HW210776   6.862   2.198   1.496
 3293SOL     OW10777   5.786   5.119   3.211
 3293SOL    HW110778   5.692   5.149   3.229
 3293SOL    HW210779   5.830   5.184   3.149
 3294SOL     OW10780   5.279   2.219   4.782
 3294SOL    HW110781   5.217   2.273   4.840
 3294SOL    HW210782   5.257   2.122   4.791
 3295SOL     OW10783   1.203   3.211   2.281
 3295SOL    HW110784   1.282   3.230   2.222
 3295SOL    HW210785   1.119   3.230   2.230
 3296SOL     OW10786   1.343   0.068   5.976
 3296SOL    HW110787   1.285   7.010   5.958
 3296SOL    HW210788   1.420   0.069   5.912
 3297SOL     OW10789   3.217   1.729   4.969
 3297SOL    HW110790   3.228   1.630   4.961
 3297SOL    HW210791   3.193   1.752   5.064
 3298SOL     OW10792   5.526   4.263   5.861
 3298SOL    HW110793   5.587   4.191   5.892
 3298SOL    HW210794   5.439   4.223   5.830
 3299SOL     OW10795   2.953   4.916   4.466
 3299SOL    HW110796   2.908   4.857   4.399
 3299SOL    HW210797   2.900   4.916   4.551
 3300SOL     OW10798   2.063   0.042   4.190
 3300SOL    HW110799   2.016   6.997   4.134
 3300SOL    HW210800   2.046   0.023   4.287
 3301SOL     OW10801   1.829   1.955   2.785
 3301SOL    HW110802   1.739   1.935   2.745
 3301SOL    HW210803   1.900   1.930   2.719
 3302SOL     OW10804   2.403   4.832   6.297
 3302SOL    HW110805   2.443   4.879   6.219
 3302SOL    HW210806   2.394   4.896   6.373
 3303SOL     OW10807   3.682   3.174   0.280
 3303SOL    HW110808   3.745   3.187   0.203
 3303SOL    HW210809   3.641   3.082   0.275
 3304SOL     OW10810   2.930   4.950   6.255
 3304SOL    HW110811   2.967   4.916   6.169
 3304SOL    HW210812   3.005   4.981   6.314
 3305SOL     OW10813   3.268   1.445   0.783
 3305SOL    HW110814   3.299   1.457   0.689
 3305SOL    HW210815   3.169   1.434   0.785
 3306SOL     OW10816   1.916   0.835   0.001
 3306SOL    HW110817   1.882   0.744   0.026
 3306SOL    HW210818   1.839   0.897   7.011
 3307SOL     OW10819   1.611   6.921   4.739
 3307SOL    HW110820   1.643   6.936   4.833
 3307SOL    HW210821   1.572   6.829   4.731
 3308SOL     OW10822   3.705   4.190   1.145
 3308SOL    HW110823   3.664   4.099   1.141
 3308SOL    HW210824   3.741   4.207   1.237
 3309SOL     OW10825   6.002   3.605   3.691
 3309SOL    HW110826   6.015   3.692   3.739
 3309SOL    HW210827   5.939   3.618   3.615
 3310SOL     OW10828   6.493   5.197   5.741
 3310SOL    HW110829   6.483   5.152   5.653
 3310SOL    HW210830   6.590   5.219   5.757
 3311SOL     OW10831   3.426   3.587   0.296
 3311SOL    HW110832   3.503   3.550   0.244
 3311SOL    HW210833   3.385   3.515   0.351
 3312SOL     OW10834   4.450   2.651   5.744
 3312SOL    HW110835   4.440   2.728   5.680
 3312SOL    HW210836   4.527   2.594   5.715
 3313SOL     OW10837   1.283   0.806   3.019
 3313SOL    HW110838   1.300   0.738   2.947
 3313SOL    HW210839   1.303   0.897   2.984
 3314SOL     OW10840   2.406   5.657   2.348
 3314SOL    HW110841   2.313   5.621   2.349
 3314SOL    HW210842   2.423   5.709   2.432
 3315SOL     OW10843   0.141   4.735   5.362
 3315SOL    HW110844   0.159   4.694   5.273
 3315SOL    HW210845   0.227   4.748   5.411
 3316SOL     OW10846   3.399   1.772   6.145
 3316SOL    HW110847   3.321   1.718   6.114
 3316SOL    HW210848   3.393   1.786   6.244
 3317SOL     OW10849   5.520   2.713   3.232
 3317SOL    HW110850   5.427   2.742   3.208
 3317SOL    HW210851   5.583   2.790   3.219
 3318SOL     OW10852   2.978   2.587   0.539
 3318SOL    HW110853   2.988   2.543   0.629
 3318SOL    HW210854   2.929   2.673   0.550
 3319SOL     OW10855   6.930   6.371   3.368
 3319SOL    HW110856   6.928   6.443   3.299
 3319SOL    HW210857   7.010   6.313   3.355
 3320SOL     OW10858   6.456   0.279   1.323
 3320SOL    HW110859   6.482   0.255   1.416
 3320SOL    HW210860   6.434   0.195   1.272
 3321SOL     OW10861   4.846   1.348   6.997
 3321SOL    HW110862   4.929   1.403   7.002
 3321SOL    HW210863   4.777   1.386   0.038
 3322SOL     OW10864   6.395   3.830   1.179
 3322SOL    HW110865   6.324   3.763   1.199
 3322SOL    HW210866   6.430   3.869   1.264
 3323SOL     OW10867   1.203   1.992   2.036
 3323SOL    HW110868   1.265   1.990   2.114
 3323SOL    HW210869   1.218   1.912   1.978
 3324SOL     OW10870   5.187   5.758   5.613
 3324SOL    HW110871   5.140   5.689   5.559
 3324SOL    HW210872   5.156   5.849   5.587
 3325SOL     OW10873   1.631   3.585   6.645
 3325SOL    HW110874   1.708   3.571   6.582
 3325SOL    HW210875   1.553   3.624   6.595
 3326SOL     OW10876   4.695   0.819   2.771
 3326SOL    HW110877   4.602   0.855   2.769
 3326SOL    HW210878   4.756   0.885   2.814
 3327SOL     OW10879   1.741   5.553   1.021
 3327SOL    HW110880   1.648   5.569   0.989
 3327SOL    HW210881   1.772   5.630   1.077
 3328SOL     OW10882   4.777   1.991   0.265
 3328SOL    HW110883   4.834   1.937   0.203
 3328SOL    HW210884   4.681   1.980   0.240
 3329SOL     OW10885   5.959   5.290   5.264
 3329SOL    HW110886   6.031   5.355   5.293
 3329SOL    HW210887   5.910   5.258   5.345
 3330SOL     OW10888   6.309   3.585   2.606
 3330SOL    HW110889   6.400   3.616   2.579
 3330SOL    HW210890   6.252   3.575   2.524
 3331SOL     OW10891   2.193   2.625   1.139
 3331SOL    HW110892   2.282   2.580   1.152
 3331SOL    HW210893   2.204   2.723   1.151
 3332SOL     OW10894   6.029   4.550   0.875
 3332SOL    HW110895   6.101   4.548   0.806
 3332SOL    HW210896   5.953   4.606   0.841
 3333SOL     OW10897   4.206   4.939   5.703
 3333SOL    HW110898   4.108   4.920   5.695
 3333SOL    HW210899   4.230   4.954   5.798
 3334SOL     OW10900   2.509   4.294   1.754
 3334SOL    HW110901   2.482   4.313   1.660
 3334SOL    HW210902   2.444   4.229   1.794
 3335SOL     OW10903   4.974   4.369   5.382
 3335SOL    HW110904   4.888   4.324   5.407
 3335SOL    HW210905   5.049   4.304   5.393
 3336SOL     OW10906   3.697   4.735   6.342
 3336SOL    HW110907   3.795   4.735   6.323
 3336SOL    HW210908   3.662   4.829   6.342
 3337SOL     OW10909   3.474   2.297   1.098
 3337SOL    HW110910   3.430   2.387   1.086
 3337SOL    HW210911   3.443   2.256   1.183
 3338SOL     OW10912   6.965   4.255   0.753
 3338SOL    HW110913   0.007   4.332   0.745
 3338SOL    HW210914   6.889   4.281   0.813
 3339SOL     OW10915   6.920   5.819   6.795
 3339SOL    HW110916   6.907   5.754   6.721
 3339SOL    HW210917   6.853   5.893   6.788
 3340SOL     OW10918   3.359   6.676   1.449
 3340SOL    HW110919   3.437   6.638   1.398
 3340SOL    HW210920   3.284   6.610   1.448
 3341SOL     OW10921   0.560   0.795   2.426
 3341SOL    HW110922   0.558   0.797   2.526
 3341SOL    HW210923   0.467   0.801   2.390
 3342SOL     OW10924   2.264   6.779   4.527
 3342SOL    HW110925   2.309   6.808   4.442
 3342SOL    HW210926   2.281   6.847   4.598
 3343SOL     OW10927   5.192   2.599   0.739
 3343SOL    HW110928   5.237   2.539   0.805
 3343SOL    HW210929   5.103   2.628   0.775
 3344SOL     OW10930   6.781   3.161   5.738
 3344SOL    HW110931   6.758   3.084   5.798
 3344SOL    HW210932   6.860   3.136   5.682
 3345SOL     OW10933   3.276   3.394   6.129
 3345SOL    HW110934   3.322   3.305   6.133
 3345SOL    HW210935   3.181   3.383   6.158
 3346SOL     OW10936   0.813   0.533   1.616
 3346SOL    HW110937   0.818   0.629   1.587
 3346SOL    HW210938   0.841   0.474   1.540
 3347SOL     OW10939   5.651   3.736   5.080
 3347SOL    HW110940   5.746   3.764   5.063
 3347SOL    HW210941   5.649   3.640   5.109
 3348SOL     OW10942   3.793   2.960   4.060
 3348SOL    HW110943   3.860   2.888   4.078
 3348SOL    HW210944   3.782   3.017   4.142
 3349SOL     OW10945   6.338   3.881   4.597
 3349SOL    HW110946   6.437   3.866   4.595
 3349SOL    HW210947   6.292   3.798   4.629
 3350SOL     OW10948   1.244   1.680   1.061
 3350SOL    HW110949   1.269   1.586   1.084
 3350SOL    HW210950   1.307   1.715   0.991
 3351SOL     OW10951   5.198   1.651   1.346
 3351SOL    HW110952   5.221   1.652   1.248
 3351SOL    HW210953   5.160   1.739   1.373
 3352SOL     OW10954   0.473   3.285   1.139
 3352SOL    HW110955   0.462   3.230   1.057
 3352SOL    HW210956   0.526   3.367   1.118
 3353SOL     OW10957   2.062   0.195   5.987
 3353SOL    HW110958   2.129   0.218   6.058
 3353SOL    HW210959   2.095   0.116   5.935
 3354SOL     OW10960   0.759   2.475   3.560
 3354SOL    HW110961   0.697   2.414   3.511
 3354SOL    HW210962   0.786   2.550   3.501
 3355SOL     OW10963   6.357   1.144   2.975
 3355SOL    HW110964   6.327   1.175   2.885
 3355SOL    HW210965   6.367   1.044   2.973
 3356SOL     OW10966   2.701   3.492   0.190
 3356SOL    HW110967   2.749   3.481   0.277
 3356SOL    HW210968   2.716   3.585   0.156
 3357SOL     OW10969   2.861   5.456   1.979
 3357SOL    HW110970   2.798   5.486   1.907
 3357SOL    HW210971   2.918   5.381   1.944
 3358SOL     OW10972   4.942   5.378   2.289
 3358SOL    HW110973   4.907   5.369   2.195
 3358SOL    HW210974   4.916   5.467   2.325
 3359SOL     OW10975   2.276   1.303   2.794
 3359SOL    HW110976   2.185   1.338   2.818
 3359SOL    HW210977   2.266   1.212   2.752
 3360SOL     OW10978   0.811   0.474   0.183
 3360SOL    HW110979   0.870   0.444   0.108
 3360SOL    HW210980   0.745   0.541   0.149
 3361SOL     OW10981   6.189   6.479   3.017
 3361SOL    HW110982   6.195   6.579   3.010
 3361SOL    HW210983   6.098   6.449   2.986
 3362SOL     OW10984   1.560   1.018   5.584
 3362SOL    HW110985   1.562   1.069   5.670
 3362SOL    HW210986   1.466   1.014   5.550
 3363SOL     OW10987   0.168   1.651   6.766
 3363SOL    HW110988   0.243   1.586   6.754
 3363SOL    HW210989   0.205   1.743   6.778
 3364SOL     OW10990   1.732   4.838   6.336
 3364SOL    HW110991   1.775   4.855   6.248
 3364SOL    HW210992   1.717   4.739   6.348
 3365SOL     OW10993   6.483   1.835   5.251
 3365SOL    HW110994   6.575   1.839   5.290
 3365SOL    HW210995   6.420   1.799   5.320
 3366SOL     OW10996   5.371   0.864   5.646
 3366SOL    HW110997   5.457   0.860   5.696
 3366SOL    HW210998   5.295   0.865   5.710
 3367SOL     OW10999   1.043   1.067   2.055
 3367SOL    HW111000   1.004   1.143   2.002
 3367SOL    HW211001   1.080   1.101   2.141
 3368SOL     OW11002   6.501   6.014   6.026
 3368SOL    HW111003   6.543   5.923   6.031
 3368SOL    HW211004   6.509   6.049   5.933
 3369SOL     OW11005   4.326   0.258   0.053
 3369SOL    HW111006   4.298   0.354   0.048
 3369SOL    HW211007   4.350   0.225   6.983
 3370SOL     OW11008   6.155   6.600   5.560
 3370SOL    HW111009   6.110   6.680   5.520
 3370SOL    HW211010   6.086   6.538   5.598
 3371SOL     OW11011   0.345   5.603   1.951
 3371SOL    HW111012   0.281   5.680   1.947
 3371SOL    HW211013   0.400   5.610   2.033
 3372SOL     OW11014   0.862   0.869   2.808
 3372SOL    HW111015   0.835   0.853   2.903
 3372SOL    HW211016   0.811   0.946   2.770
 3373SOL     OW11017   6.516   2.097   5.171
 3373SOL    HW111018   6.489   2.008   5.208
 3373SOL    HW211019   6.578   2.142   5.235
 3374SOL     OW11020   2.962   5.177   5.738
 3374SOL    HW111021   2.932   5.179   5.833
 3374SOL    HW211022   2.882   5.178   5.677
 3375SOL     OW11023   4.366   4.681   5.294
 3375SOL    HW111024   4.269   4.676   5.319
 3375SOL    HW211025   4.414   4.740   5.358
 3376SOL     OW11026   3.277   3.767   2.046
 3376SOL    HW111027   3.319   3.779   2.136
 3376SOL    HW211028   3.198   3.706   2.054
 3377SOL     OW11029   1.355   6.089   5.211
 3377SOL    HW111030   1.407   6.004   5.204
 3377SOL    HW211031   1.402   6.152   5.273
 3378SOL     OW11032   6.739   1.943   1.417
 3378SOL    HW111033   6.833   1.911   1.417
 3378SOL    HW211034   6.732   2.027   1.470
 3379SOL     OW11035   0.460   4.350   5.485
 3379SOL    HW111036   0.409   4.370   5.569
 3379SOL    HW211037   0.485   4.436   5.440
 3380SOL     OW11038   6.852   4.184   6.673
 3380SOL    HW111039   6.881   4.095   6.709
 3380SOL    HW211040   6.902   4.204   6.589
 3381SOL     OW11041   3.265   2.227   0.316
 3381SOL    HW111042   3.327   2.285   0.263
 3381SOL    HW211043   3.175   2.225   0.272
 3382SOL     OW11044   7.009   1.914   1.026
 3382SOL    HW111045   6.980   1.858   1.103
 3382SOL    HW211046   0.079   1.951   1.044
 3383SOL     OW11047   5.835   4.841   2.983
 3383SOL    HW111048   5.823   4.805   2.891
 3383SOL    HW211049   5.790   4.782   3.049
 3384SOL     OW11050   3.638   3.144   4.253
 3384SOL    HW111051   3.662   3.172   4.346
 3384SOL    HW211052   3.577   3.065   4.256
 3385SOL     OW11053   6.148   3.980   3.433
 3385SOL    HW111054   6.178   3.890   3.401
 3385SOL    HW211055   6.213   4.014   3.502
 3386SOL     OW11056   5.882   4.751   5.495
 3386SOL    HW111057   5.791   4.709   5.504
 3386SOL    HW211058   5.906   4.797   5.581
 3387SOL     OW11059   2.319   2.441   3.061
 3387SOL    HW111060   2.334   2.535   3.092
 3387SOL    HW211061   2.224   2.415   3.079
 3388SOL     OW11062   5.697   2.091   1.706
 3388SOL    HW111063   5.771   2.133   1.758
 3388SOL    HW211064   5.671   2.004   1.748
 3389SOL     OW11065   5.190   4.835   3.546
 3389SOL    HW111066   5.277   4.791   3.568
 3389SOL    HW211067   5.120   4.802   3.609
 3390SOL     OW11068   4.990   2.783   5.446
 3390SOL    HW111069   5.035   2.844   5.511
 3390SOL    HW211070   4.891   2.786   5.461
 3391SOL     OW11071   4.038   2.216   4.801
 3391SOL    HW111072   4.135   2.195   4.788
 3391SOL    HW211073   4.028   2.306   4.843
 3392SOL     OW11074   3.608   0.819   3.951
 3392SOL    HW111075   3.674   0.772   4.010
 3392SOL    HW211076   3.652   0.842   3.864
 3393SOL     OW11077   6.870   6.793   0.357
 3393SOL    HW111078   6.937   6.777   0.430
 3393SOL    HW211079   6.907   6.860   0.292
 3394SOL     OW11080   6.444   2.628   1.369
 3394SOL    HW111081   6.514   2.559   1.388
 3394SOL    HW211082   6.372   2.622   1.437
 3395SOL     OW11083   0.771   3.285   4.617
 3395SOL    HW111084   0.835   3.246   4.683
 3395SOL    HW211085   0.792   3.250   4.526
 3396SOL     OW11086   0.002   4.094   4.109
 3396SOL    HW111087   6.924   4.093   4.102
 3396SOL    HW211088   0.032   4.184   4.142
 3397SOL     OW11089   3.631   6.510   6.181
 3397SOL    HW111090   3.718   6.503   6.132
 3397SOL    HW211091   3.642   6.474   6.273
 3398SOL     OW11092   1.381   6.865   4.172
 3398SOL    HW111093   1.289   6.828   4.161
 3398SOL    HW211094   1.383   6.960   4.142
 3399SOL     OW11095   5.047   4.677   3.736
 3399SOL    HW111096   5.051   4.714   3.829
 3399SOL    HW211097   5.116   4.605   3.727
 3400SOL     OW11098   4.852   2.413   0.079
 3400SOL    HW111099   4.841   2.364   0.165
 3400SOL    HW211100   4.785   2.379   0.013
 3401SOL     OW11101   5.909   4.161   0.432
 3401SOL    HW111102   5.989   4.217   0.451
 3401SOL    HW211103   5.870   4.128   0.518
 3402SOL     OW11104   5.761   5.578   1.266
 3402SOL    HW111105   5.706   5.660   1.278
 3402SOL    HW211106   5.835   5.596   1.201
 3403SOL     OW11107   3.770   0.658   5.239
 3403SOL    HW111108   3.846   0.620   5.186
 3403SOL    HW211109   3.779   0.758   5.243
 3404SOL     OW11110   4.375   0.946   0.314
 3404SOL    HW111111   4.410   0.869   0.366
 3404SOL    HW211112   4.365   1.026   0.373
 3405SOL     OW11113   6.590   3.388   6.532
 3405SOL    HW111114   6.572   3.308   6.474
 3405SOL    HW211115   6.672   3.435   6.500
 3406SOL     OW11116   1.789   3.840   2.660
 3406SOL    HW111117   1.744   3.751   2.667
 3406SOL    HW211118   1.747   3.893   2.587
 3407SOL     OW11119   1.088   5.633   2.227
 3407SOL    HW111120   1.096   5.651   2.325
 3407SOL    HW211121   1.101   5.535   2.209
 3408SOL     OW11122   5.072   4.149   2.348
 3408SOL    HW111123   5.066   4.049   2.357
 3408SOL    HW211124   5.038   4.175   2.257
 3409SOL     OW11125   3.368   0.342   6.046
 3409SOL    HW111126   3.297   0.404   6.011
 3409SOL    HW211127   3.397   0.280   5.973
 3410SOL     OW11128   6.516   6.704   0.557
 3410SOL    HW111129   6.473   6.792   0.535
 3410SOL    HW211130   6.455   6.630   0.530
 3411SOL     OW11131   4.749   1.680   2.971
 3411SOL    HW111132   4.662   1.685   3.019
 3411SOL    HW211133   4.799   1.766   2.985
 3412SOL     OW11134   3.603   4.341   0.084
 3412SOL    HW111135   3.513   4.331   0.043
 3412SOL    HW211136   3.606   4.424   0.140
 3413SOL     OW11137   3.404   1.542   3.569
 3413SOL    HW111138   3.311   1.572   3.549
 3413SOL    HW211139   3.464   1.565   3.493
 3414SOL     OW11140   3.037   2.276   5.346
 3414SOL    HW111141   2.972   2.350   5.326
 3414SOL    HW211142   3.112   2.280   5.280
 3415SOL     OW11143   0.456   4.731   3.641
 3415SOL    HW111144   0.420   4.707   3.731
 3415SOL    HW211145   0.550   4.763   3.650
 3416SOL     OW11146   0.811   5.406   5.191
 3416SOL    HW111147   0.843   5.397   5.285
 3416SOL    HW211148   0.747   5.483   5.183
 3417SOL     OW11149   0.127   6.806   2.605
 3417SOL    HW111150   0.069   6.788   2.685
 3417SOL    HW211151   0.086   6.764   2.524
 3418SOL     OW11152   3.169   1.371   5.570
 3418SOL    HW111153   3.120   1.442   5.621
 3418SOL    HW211154   3.109   1.334   5.500
 3419SOL     OW11155   4.181   4.408   6.928
 3419SOL    HW111156   4.113   4.466   6.972
 3419SOL    HW211157   4.149   4.380   6.837
 3420SOL     OW11158   4.454   2.169   3.807
 3420SOL    HW111159   4.494   2.097   3.751
 3420SOL    HW211160   4.403   2.128   3.883
 3421SOL     OW11161   6.947   5.747   5.710
 3421SOL    HW111162   6.875   5.725   5.776
 3421SOL    HW211163   6.908   5.747   5.618
 3422SOL     OW11164   3.480   0.589   1.478
 3422SOL    HW111165   3.394   0.579   1.428
 3422SOL    HW211166   3.505   0.685   1.483
 3423SOL     OW11167   2.343   0.772   0.833
 3423SOL    HW111168   2.419   0.820   0.790
 3423SOL    HW211169   2.303   0.830   0.904
 3424SOL     OW11170   4.415   0.921   2.713
 3424SOL    HW111171   4.420   0.999   2.651
 3424SOL    HW211172   4.361   0.848   2.671
 3425SOL     OW11173   4.791   4.452   1.848
 3425SOL    HW111174   4.757   4.531   1.898
 3425SOL    HW211175   4.827   4.482   1.759
 3426SOL     OW11176   3.919   3.466   0.641
 3426SOL    HW111177   3.866   3.416   0.709
 3426SOL    HW211178   3.973   3.537   0.687
 3427SOL     OW11179   6.921   0.996   0.243
 3427SOL    HW111180   6.974   1.020   0.324
 3427SOL    HW211181   6.834   0.956   0.270
 3428SOL     OW11182   4.269   4.680   2.096
 3428SOL    HW111183   4.320   4.626   2.029
 3428SOL    HW211184   4.204   4.739   2.049
 3429SOL     OW11185   1.333   3.346   1.143
 3429SOL    HW111186   1.379   3.427   1.177
 3429SOL    HW211187   1.339   3.344   1.043
 3430SOL     OW11188   1.445   0.139   0.311
 3430SOL    HW111189   1.391   0.061   0.280
 3430SOL    HW211190   1.385   0.206   0.354
 3431SOL     OW11191   1.210   5.551   0.639
 3431SOL    HW111192   1.131   5.491   0.647
 3431SOL    HW211193   1.212   5.616   0.715
 3432SOL     OW11194   3.362   1.494   5.872
 3432SOL    HW111195   3.295   1.562   5.903
 3432SOL    HW211196   3.319   1.405   5.864
 3433SOL     OW11197   3.439   0.567   5.044
 3433SOL    HW111198   3.347   0.572   5.081
 3433SOL    HW211199   3.490   0.493   5.089
 3434SOL     OW11200   4.739   2.734   2.056
 3434SOL    HW111201   4.719   2.829   2.031
 3434SOL    HW211202   4.823   2.731   2.109
 3435SOL     OW11203   6.912   1.939   2.281
 3435SOL    HW111204   6.888   1.853   2.326
 3435SOL    HW211205   6.921   2.011   2.350
 3436SOL     OW11206   4.495   6.719   4.559
 3436SOL    HW111207   4.505   6.662   4.640
 3436SOL    HW211208   4.519   6.666   4.478
 3437SOL     OW11209   4.157   6.812   5.163
 3437SOL    HW111210   4.075   6.773   5.206
 3437SOL    HW211211   4.222   6.739   5.143
 3438SOL     OW11212   1.073   2.382   6.390
 3438SOL    HW111213   0.974   2.400   6.388
 3438SOL    HW211214   1.095   2.323   6.467
 3439SOL     OW11215   2.519   6.793   4.748
 3439SOL    HW111216   2.560   6.768   4.835
 3439SOL    HW211217   2.468   6.715   4.711
 3440SOL     OW11218   4.981   3.237   0.950
 3440SOL    HW111219   5.017   3.185   0.873
 3440SOL    HW211220   4.968   3.177   1.029
 3441SOL     OW11221   3.026   6.883   3.689
 3441SOL    HW111222   3.084   6.802   3.685
 3441SOL    HW211223   2.976   6.884   3.775
 3442SOL     OW11224   1.788   5.182   3.719
 3442SOL    HW111225   1.831   5.100   3.755
 3442SOL    HW211226   1.696   5.192   3.759
 3443SOL     OW11227   5.596   1.765   3.000
 3443SOL    HW111228   5.548   1.807   2.923
 3443SOL    HW211229   5.617   1.669   2.977
 3444SOL     OW11230   4.986   5.330   0.161
 3444SOL    HW111231   5.080   5.359   0.176
 3444SOL    HW211232   4.947   5.380   0.084
 3445SOL     OW11233   6.749   4.702   3.990
 3445SOL    HW111234   6.767   4.625   4.051
 3445SOL    HW211235   6.829   4.762   3.987
 3446SOL     OW11236   3.976   0.189   2.884
 3446SOL    HW111237   4.048   0.131   2.920
 3446SOL    HW211238   4.008   0.284   2.880
 3447SOL     OW11239   5.664   6.278   0.246
 3447SOL    HW111240   5.687   6.321   0.159
 3447SOL    HW211241   5.628   6.186   0.231
 3448SOL     OW11242   3.576   1.211   1.446
 3448SOL    HW111243   3.623   1.164   1.371
 3448SOL    HW211244   3.605   1.307   1.447
 3449SOL     OW11245   6.555   0.024   2.287
 3449SOL    HW111246   6.564   6.983   2.365
 3449SOL    HW211247   6.631   0.010   2.224
 3450SOL     OW11248   0.746   1.986   1.548
 3450SOL    HW111249   0.773   1.959   1.641
 3450SOL    HW211250   0.805   2.061   1.517
 3451SOL     OW11251   1.203   5.700   3.976
 3451SOL    HW111252   1.185   5.733   4.069
 3451SOL    HW211253   1.213   5.778   3.914
 3452SOL     OW11254   6.212   0.981   0.412
 3452SOL    HW111255   6.298   0.984   0.461
 3452SOL    HW211256   6.175   0.888   0.415
 3453SOL     OW11257   6.017   5.522   4.803
 3453SOL    HW111258   5.962   5.600   4.832
 3453SOL    HW211259   6.085   5.552   4.736
 3454SOL     OW11260   1.344   1.408   1.039
 3454SOL    HW111261   1.332   1.313   1.069
 3454SOL    HW211262   1.438   1.436   1.056
 3455SOL     OW11263   1.689   2.994   4.414
 3455SOL    HW111264   1.745   2.911   4.417
 3455SOL    HW211265   1.690   3.038   4.504
 3456SOL     OW11266   5.817   6.911   1.496
 3456SOL    HW111267   5.882   6.836   1.484
 3456SOL    HW211268   5.832   6.981   1.426
 3457SOL     OW11269   2.410   5.146   3.332
 3457SOL    HW111270   2.483   5.091   3.292
 3457SOL    HW211271   2.432   5.167   3.427
 3458SOL     OW11272   5.625   6.925   0.652
 3458SOL    HW111273   5.725   6.931   0.656
 3458SOL    HW211274   5.585   7.000   0.704
 3459SOL     OW11275   0.260   4.833   3.476
 3459SOL    HW111276   0.313   4.819   3.560
 3459SOL    HW211277   0.314   4.803   3.398
 3460SOL     OW11278   4.152   2.469   0.285
 3460SOL    HW111279   4.135   2.414   0.203
 3460SOL    HW211280   4.129   2.416   0.366
 3461SOL     OW11281   3.766   5.467   4.334
 3461SOL    HW111282   3.861   5.449   4.309
 3461SOL    HW211283   3.714   5.382   4.331
 3462SOL     OW11284   4.818   3.816   2.725
 3462SOL    HW111285   4.894   3.868   2.764
 3462SOL    HW211286   4.747   3.879   2.694
 3463SOL     OW11287   2.275   2.897   1.460
 3463SOL    HW111288   2.342   2.838   1.416
 3463SOL    HW211289   2.303   2.913   1.555
 3464SOL     OW11290   5.239   3.085   6.029
 3464SOL    HW111291   5.231   3.184   6.045
 3464SOL    HW211292   5.331   3.055   6.051
 3465SOL     OW11293   2.185   3.828   1.923
 3465SOL    HW111294   2.191   3.729   1.926
 3465SOL    HW211295   2.192   3.865   2.016
 3466SOL     OW11296   5.416   4.424   5.152
 3466SOL    HW111297   5.496   4.473   5.116
 3466SOL    HW211298   5.446   4.340   5.197
 3467SOL     OW11299   2.825   2.411   1.083
 3467SOL    HW111300   2.910   2.392   1.034
 3467SOL    HW211301   2.837   2.492   1.140
 3468SOL     OW11302   4.731   1.461   1.540
 3468SOL    HW111303   4.718   1.367   1.572
 3468SOL    HW211304   4.643   1.509   1.543
 3469SOL     OW11305   4.720   6.831   5.969
 3469SOL    HW111306   4.672   6.757   5.923
 3469SOL    HW211307   4.778   6.879   5.903
 3470SOL     OW11308   6.975   2.450   2.167
 3470SOL    HW111309   0.000   2.477   2.251
 3470SOL    HW211310   0.017   2.450   2.090
 3471SOL     OW11311   4.267   4.650   2.734
 3471SOL    HW111312   4.357   4.613   2.711
 3471SOL    HW211313   4.216   4.670   2.650
 3472SOL     OW11314   4.528   2.329   3.397
 3472SOL    HW111315   4.447   2.275   3.419
 3472SOL    HW211316   4.608   2.269   3.389
 3473SOL     OW11317   0.221   4.055   3.553
 3473SOL    HW111318   0.264   3.978   3.600
 3473SOL    HW211319   0.157   4.020   3.485
 3474SOL     OW11320   6.682   5.239   4.530
 3474SOL    HW111321   6.761   5.246   4.469
 3474SOL    HW211322   6.646   5.146   4.527
 3475SOL     OW11323   0.136   4.723   4.451
 3475SOL    HW111324   0.136   4.711   4.550
 3475SOL    HW211325   0.046   4.701   4.414
 3476SOL     OW11326   1.792   1.723   3.277
 3476SOL    HW111327   1.741   1.803   3.306
 3476SOL    HW211328   1.800   1.659   3.353
 3477SOL     OW11329   0.313   3.861   1.799
 3477SOL    HW111330   0.280   3.828   1.710
 3477SOL    HW211331   0.342   3.784   1.855
 3478SOL     OW11332   2.370   0.286   0.147
 3478SOL    HW111333   2.336   0.208   0.200
 3478SOL    HW211334   2.360   0.266   0.049
 3479SOL     OW11335   0.757   3.151   3.483
 3479SOL    HW111336   0.709   3.183   3.565
 3479SOL    HW211337   0.808   3.227   3.442
 3480SOL     OW11338   0.986   5.706   6.778
 3480SOL    HW111339   1.053   5.692   6.851
 3480SOL    HW211340   0.913   5.766   6.811
 3481SOL     OW11341   5.772   0.339   6.702
 3481SOL    HW111342   5.762   0.436   6.681
 3481SOL    HW211343   5.852   0.302   6.654
 3482SOL     OW11344   5.884   3.216   4.550
 3482SOL    HW111345   5.899   3.123   4.583
 3482SOL    HW211346   5.879   3.215   4.450
 3483SOL     OW11347   4.827   2.342   3.765
 3483SOL    HW111348   4.836   2.243   3.776
 3483SOL    HW211349   4.740   2.372   3.803
 3484SOL     OW11350   1.801   3.680   6.222
 3484SOL    HW111351   1.715   3.729   6.212
 3484SOL    HW211352   1.796   3.617   6.299
 3485SOL     OW11353   6.801   1.548   5.519
 3485SOL    HW111354   6.854   1.611   5.463
 3485SOL    HW211355   6.733   1.501   5.462
 3486SOL     OW11356   2.273   0.306   4.497
 3486SOL    HW111357   2.303   0.401   4.485
 3486SOL    HW211358   2.186   0.305   4.545
 3487SOL     OW11359   6.047   1.874   6.523
 3487SOL    HW111360   6.000   1.959   6.499
 3487SOL    HW211361   6.063   1.871   6.621
 3488SOL     OW11362   5.907   0.229   4.453
 3488SOL    HW111363   5.986   0.282   4.424
 3488SOL    HW211364   5.832   0.242   4.388
 3489SOL     OW11365   2.883   0.376   0.903
 3489SOL    HW111366   2.954   0.370   0.973
 3489SOL    HW211367   2.913   0.438   0.831
 3490SOL     OW11368   3.864   4.655   0.666
 3490SOL    HW111369   3.869   4.754   0.677
 3490SOL    HW211370   3.953   4.620   0.637
 3491SOL     OW11371   5.197   3.936   0.252
 3491SOL    HW111372   5.243   3.956   0.339
 3491SOL    HW211373   5.144   3.852   0.261
 3492SOL     OW11374   5.835   4.213   2.738
 3492SOL    HW111375   5.781   4.258   2.668
 3492SOL    HW211376   5.892   4.281   2.785
 3493SOL     OW11377   6.154   3.697   4.414
 3493SOL    HW111378   6.095   3.656   4.344
 3493SOL    HW211379   6.098   3.725   4.492
 3494SOL     OW11380   3.204   1.691   2.615
 3494SOL    HW111381   3.158   1.749   2.549
 3494SOL    HW211382   3.189   1.727   2.707
 3495SOL     OW11383   1.281   3.565   2.202
 3495SOL    HW111384   1.243   3.528   2.287
 3495SOL    HW211385   1.358   3.509   2.173
 3496SOL     OW11386   6.753   4.821   0.377
 3496SOL    HW111387   6.731   4.887   0.305
 3496SOL    HW211388   6.825   4.759   0.345
 3497SOL     OW11389   4.314   0.402   2.886
 3497SOL    HW111390   4.362   0.487   2.864
 3497SOL    HW211391   4.217   0.420   2.898
 3498SOL     OW11392   2.414   1.622   1.664
 3498SOL    HW111393   2.432   1.541   1.609
 3498SOL    HW211394   2.500   1.665   1.690
 3499SOL     OW11395   6.246   5.656   5.558
 3499SOL    HW111396   6.234   5.684   5.463
 3499SOL    HW211397   6.265   5.737   5.614
 3500SOL     OW11398   1.422   1.597   3.541
 3500SOL    HW111399   1.491   1.595   3.612
 3500SOL    HW211400   1.345   1.655   3.570
 3501SOL     OW11401   2.309   0.054   6.361
 3501SOL    HW111402   2.288   0.048   6.458
 3501SOL    HW211403   2.263   0.133   6.321
 3502SOL     OW11404   5.531   3.007   1.749
 3502SOL    HW111405   5.472   2.940   1.703
 3502SOL    HW211406   5.539   2.983   1.846
 3503SOL     OW11407   6.669   5.986   6.273
 3503SOL    HW111408   6.712   5.991   6.182
 3503SOL    HW211409   6.637   6.077   6.299
 3504SOL     OW11410   1.408   1.229   1.953
 3504SOL    HW111411   1.353   1.312   1.955
 3504SOL    HW211412   1.430   1.201   2.047
 3505SOL     OW11413   5.579   5.298   5.353
 3505SOL    HW111414   5.664   5.259   5.388
 3505SOL    HW211415   5.511   5.226   5.342
 3506SOL     OW11416   5.337   4.470   4.582
 3506SOL    HW111417   5.434   4.448   4.586
 3506SOL    HW211418   5.293   4.445   4.668
 3507SOL     OW11419   2.314   0.559   0.200
 3507SOL    HW111420   2.217   0.578   0.216
 3507SOL    HW211421   2.326   0.462   0.180
 3508SOL     OW11422   3.175   2.545   5.350
 3508SOL    HW111423   3.198   2.475   5.282
 3508SOL    HW211424   3.079   2.538   5.375
 3509SOL     OW11425   4.743   6.520   0.657
 3509SOL    HW111426   4.714   6.434   0.616
 3509SOL    HW211427   4.814   6.562   0.601
 3510SOL     OW11428   2.026   0.719   1.174
 3510SOL    HW111429   2.096   0.775   1.130
 3510SOL    HW211430   1.954   0.779   1.210
 3511SOL     OW11431   2.081   4.660   1.313
 3511SOL    HW111432   1.990   4.621   1.312
 3511SOL    HW211433   2.104   4.688   1.407
 3512SOL     OW11434   0.869   4.261   0.144
 3512SOL    HW111435   0.813   4.186   0.111
 3512SOL    HW211436   0.849   4.278   0.241
 3513SOL     OW11437   6.123   2.268   0.799
 3513SOL    HW111438   6.067   2.219   0.866
 3513SOL    HW211439   6.218   2.239   0.807
 3514SOL     OW11440   5.447   0.766   2.917
 3514SOL    HW111441   5.363   0.819   2.900
 3514SOL    HW211442   5.476   0.722   2.833
 3515SOL     OW11443   5.518   5.823   4.463
 3515SOL    HW111444   5.451   5.875   4.410
 3515SOL    HW211445   5.610   5.844   4.429
 3516SOL     OW11446   5.373   0.106   1.261
 3516SOL    HW111447   5.383   0.083   1.164
 3516SOL    HW211448   5.286   0.069   1.295
 3517SOL     OW11449   6.605   1.256   0.390
 3517SOL    HW111450   6.596   1.293   0.298
 3517SOL    HW211451   6.702   1.240   0.410
 3518SOL     OW11452   6.038   1.791   4.701
 3518SOL    HW111453   6.083   1.859   4.759
 3518SOL    HW211454   6.108   1.735   4.657
 3519SOL     OW11455   3.238   1.062   0.129
 3519SOL    HW111456   3.287   1.148   0.139
 3519SOL    HW211457   3.140   1.080   0.117
 3520SOL     OW11458   3.088   5.534   5.647
 3520SOL    HW111459   3.090   5.633   5.632
 3520SOL    HW211460   3.176   5.494   5.623
 3521SOL     OW11461   3.533   3.095   6.965
 3521SOL    HW111462   3.586   3.045   6.896
 3521SOL    HW211463   3.452   3.135   6.922
 3522SOL     OW11464   6.491   5.571   6.757
 3522SOL    HW111465   6.432   5.635   6.707
 3522SOL    HW211466   6.579   5.564   6.710
 3523SOL     OW11467   1.605   4.834   5.287
 3523SOL    HW111468   1.628   4.743   5.251
 3523SOL    HW211469   1.508   4.853   5.268
 3524SOL     OW11470   5.998   2.098   3.234
 3524SOL    HW111471   5.960   2.144   3.154
 3524SOL    HW211472   6.008   2.000   3.215
 3525SOL     OW11473   6.455   4.582   4.454
 3525SOL    HW111474   6.411   4.503   4.498
 3525SOL    HW211475   6.439   4.664   4.508
 3526SOL     OW11476   1.401   5.897   3.454
 3526SOL    HW111477   1.382   5.978   3.509
 3526SOL    HW211478   1.497   5.871   3.465
 3527SOL     OW11479   6.218   2.313   5.935
 3527SOL    HW111480   6.281   2.391   5.938
 3527SOL    HW211481   6.165   2.310   6.020
 3528SOL     OW11482   2.568   6.428   5.359
 3528SOL    HW111483   2.637   6.380   5.413
 3528SOL    HW211484   2.603   6.518   5.332
 3529SOL     OW11485   4.773   5.775   0.052
 3529SOL    HW111486   4.727   5.729   0.128
 3529SOL    HW211487   4.833   5.846   0.088
 3530SOL     OW11488   0.064   5.615   2.167
 3530SOL    HW111489   0.072   5.516   2.176
 3530SOL    HW211490   0.025   5.638   2.078
 3531SOL     OW11491   4.851   1.919   2.114
 3531SOL    HW111492   4.823   1.902   2.019
 3531SOL    HW211493   4.771   1.914   2.173
 3532SOL     OW11494   2.159   1.023   2.179
 3532SOL    HW111495   2.069   1.065   2.187
 3532SOL    HW211496   2.214   1.074   2.113
 3533SOL     OW11497   6.675   1.515   2.407
 3533SOL    HW111498   6.577   1.536   2.401
 3533SOL    HW211499   6.698   1.447   2.337
 3534SOL     OW11500   0.519   2.262   2.427
 3534SOL    HW111501   0.547   2.167   2.442
 3534SOL    HW211502   0.592   2.312   2.380
 3535SOL     OW11503   2.854   5.022   5.338
 3535SOL    HW111504   2.884   4.927   5.330
 3535SOL    HW211505   2.804   5.048   5.256
 3536SOL     OW11506   3.396   1.843   3.131
 3536SOL    HW111507   3.467   1.880   3.191
 3536SOL    HW211508   3.357   1.918   3.076
 3537SOL     OW11509   1.169   5.933   2.936
 3537SOL    HW111510   1.089   5.903   2.988
 3537SOL    HW211511   1.251   5.889   2.973
 3538SOL     OW11512   2.972   5.493   5.284
 3538SOL    HW111513   3.025   5.576   5.303
 3538SOL    HW211514   3.016   5.415   5.329
 3539SOL     OW11515   3.579   4.135   4.469
 3539SOL    HW111516   3.543   4.155   4.377
 3539SOL    HW211517   3.655   4.070   4.461
 3540SOL     OW11518   1.986   2.091   3.821
 3540SOL    HW111519   2.045   2.026   3.772
 3540SOL    HW211520   2.020   2.102   3.915
 3541SOL     OW11521   3.231   3.183   5.242
 3541SOL    HW111522   3.223   3.117   5.167
 3541SOL    HW211523   3.298   3.254   5.218
 3542SOL     OW11524   1.597   4.798   2.853
 3542SOL    HW111525   1.637   4.708   2.837
 3542SOL    HW211526   1.669   4.868   2.844
 3543SOL     OW11527   5.351   2.360   4.125
 3543SOL    HW111528   5.252   2.377   4.124
 3543SOL    HW211529   5.400   2.447   4.119
 3544SOL     OW11530   2.058   3.979   6.680
 3544SOL    HW111531   2.128   3.947   6.617
 3544SOL    HW211532   2.012   3.900   6.721
 3545SOL     OW11533   3.913   5.829   6.685
 3545SOL    HW111534   3.972   5.877   6.750
 3545SOL    HW211535   3.907   5.732   6.711
 3546SOL     OW11536   6.968   5.704   3.428
 3546SOL    HW111537   6.914   5.739   3.505
 3546SOL    HW211538   0.043   5.724   3.443
 3547SOL     OW11539   3.611   5.272   3.926
 3547SOL    HW111540   3.692   5.219   3.903
 3547SOL    HW211541   3.559   5.224   3.997
 3548SOL     OW11542   4.593   2.231   5.795
 3548SOL    HW111543   4.609   2.204   5.700
 3548SOL    HW211544   4.501   2.270   5.803
 3549SOL     OW11545   6.493   4.874   3.686
 3549SOL    HW111546   6.476   4.849   3.781
 3549SOL    HW211547   6.436   4.952   3.662
 3550SOL     OW11548   4.992   2.215   3.367
 3550SOL    HW111549   5.080   2.168   3.365
 3550SOL    HW211550   4.965   2.240   3.274
 3551SOL     OW11551   3.517   6.055   2.449
 3551SOL    HW111552   3.563   6.099   2.372
 3551SOL    HW211553   3.450   6.118   2.488
 3552SOL     OW11554   5.279   5.903   2.742
 3552SOL    HW111555   5.240   5.811   2.741
 3552SOL    HW211556   5.377   5.898   2.761
 3553SOL     OW11557   5.513   2.447   2.403
 3553SOL    HW111558   5.583   2.516   2.384
 3553SOL    HW211559   5.473   2.465   2.493
 3554SOL     OW11560   4.449   3.819   6.405
 3554SOL    HW111561   4.384   3.748   6.382
 3554SOL    HW211562   4.408   3.882   6.471
 3555SOL     OW11563   0.815   3.659   2.858
 3555SOL    HW111564   0.901   3.700   2.889
 3555SOL    HW211565   0.780   3.598   2.929
 3556SOL     OW11566   3.226   0.694   5.438
 3556SOL    HW111567   3.264   0.747   5.362
 3556SOL    HW211568   3.267   0.724   5.524
 3557SOL     OW11569   1.673   0.277   4.569
 3557SOL    HW111570   1.683   0.375   4.585
 3557SOL    HW211571   1.600   0.262   4.502
 3558SOL     OW11572   0.204   5.739   1.697
 3558SOL    HW111573   0.243   5.673   1.633
 3558SOL    HW211574   0.242   5.830   1.679
 3559SOL     OW11575   0.633   0.535   4.636
 3559SOL    HW111576   0.644   0.435   4.642
 3559SOL    HW211577   0.543   0.561   4.671
 3560SOL     OW11578   1.134   5.789   0.820
 3560SOL    HW111579   1.164   5.772   0.914
 3560SOL    HW211580   1.034   5.797   0.818
 3561SOL     OW11581   4.829   4.428   5.643
 3561SOL    HW111582   4.843   4.334   5.612
 3561SOL    HW211583   4.782   4.480   5.572
 3562SOL     OW11584   5.673   7.014   3.670
 3562SOL    HW111585   5.742   6.954   3.711
 3562SOL    HW211586   5.610   0.024   3.742
 3563SOL     OW11587   5.144   1.085   0.919
 3563SOL    HW111588   5.203   1.004   0.914
 3563SOL    HW211589   5.173   1.143   0.995
 3564SOL     OW11590   0.710   4.303   4.628
 3564SOL    HW111591   0.783   4.242   4.596
 3564SOL    HW211592   0.703   4.298   4.727
 3565SOL     OW11593   2.397   0.774   4.663
 3565SOL    HW111594   2.299   0.774   4.684
 3565SOL    HW211595   2.420   0.694   4.608
 3566SOL     OW11596   6.967   3.084   6.270
 3566SOL    HW111597   6.987   3.050   6.178
 3566SOL    HW211598   6.924   3.174   6.263
 3567SOL     OW11599   0.704   3.464   1.376
 3567SOL    HW111600   0.640   3.487   1.302
 3567SOL    HW211601   0.741   3.548   1.415
 3568SOL     OW11602   4.843   4.907   2.706
 3568SOL    HW111603   4.885   4.826   2.665
 3568SOL    HW211604   4.747   4.887   2.728
 3569SOL     OW11605   2.903   3.617   4.368
 3569SOL    HW111606   2.923   3.554   4.293
 3569SOL    HW211607   2.860   3.566   4.443
 3570SOL     OW11608   6.437   1.664   5.660
 3570SOL    HW111609   6.536   1.676   5.661
 3570SOL    HW211610   6.414   1.575   5.700
 3571SOL     OW11611   1.881   0.117   4.948
 3571SOL    HW111612   1.808   0.180   4.921
 3571SOL    HW211613   1.841   0.034   4.985
 3572SOL     OW11614   5.412   4.191   1.596
 3572SOL    HW111615   5.469   4.151   1.667
 3572SOL    HW211616   5.397   4.123   1.524
 3573SOL     OW11617   6.295   4.106   2.336
 3573SOL    HW111618   6.367   4.114   2.267
 3573SOL    HW211619   6.209   4.079   2.291
 3574SOL     OW11620   2.552   2.970   6.011
 3574SOL    HW111621   2.568   2.981   5.913
 3574SOL    HW211622   2.468   2.918   6.025
 3575SOL     OW11623   4.981   6.469   0.906
 3575SOL    HW111624   4.997   6.442   0.811
 3575SOL    HW211625   4.987   6.569   0.913
 3576SOL     OW11626   0.243   3.095   0.251
 3576SOL    HW111627   0.338   3.068   0.234
 3576SOL    HW211628   0.240   3.165   0.322
 3577SOL     OW11629   2.210   2.616   5.168
 3577SOL    HW111630   2.300   2.652   5.193
 3577SOL    HW211631   2.151   2.691   5.137
 3578SOL     OW11632   3.338   2.898   6.855
 3578SOL    HW111633   3.349   2.838   6.935
 3578SOL    HW211634   3.426   2.939   6.832
 3579SOL     OW11635   0.285   3.763   2.617
 3579SOL    HW111636   0.206   3.716   2.655
 3579SOL    HW211637   0.351   3.696   2.582
 3580SOL     OW11638   0.113   3.651   1.878
 3580SOL    HW111639   0.049   3.587   1.921
 3580SOL    HW211640   0.204   3.639   1.918
 3581SOL     OW11641   0.701   0.374   2.594
 3581SOL    HW111642   0.758   0.347   2.516
 3581SOL    HW211643   0.711   0.307   2.667
 3582SOL     OW11644   3.490   3.557   5.839
 3582SOL    HW111645   3.559   3.487   5.858
 3582SOL    HW211646   3.516   3.643   5.883
 3583SOL     OW11647   0.267   4.333   1.161
 3583SOL    HW111648   0.175   4.298   1.178
 3583SOL    HW211649   0.292   4.398   1.234
 3584SOL     OW11650   5.296   4.405   4.886
 3584SOL    HW111651   5.309   4.444   4.977
 3584SOL    HW211652   5.282   4.307   4.893
 3585SOL     OW11653   3.014   2.227   4.187
 3585SOL    HW111654   3.050   2.313   4.223
 3585SOL    HW211655   3.018   2.157   4.258
 3586SOL     OW11656   6.492   2.848   3.632
 3586SOL    HW111657   6.447   2.762   3.655
 3586SOL    HW211658   6.449   2.888   3.551
 3587SOL     OW11659   3.791   6.720   6.621
 3587SOL    HW111660   3.815   6.740   6.526
 3587SOL    HW211661   3.693   6.733   6.634
 3588SOL     OW11662   6.722   4.290   4.588
 3588SOL    HW111663   6.628   4.269   4.562
 3588SOL    HW211664   6.758   4.217   4.645
 3589SOL     OW11665   6.874   6.986   6.502
 3589SOL    HW111666   6.964   6.963   6.465
 3589SOL    HW211667   6.884   0.025   6.581
 3590SOL     OW11668   0.471   4.374   0.896
 3590SOL    HW111669   0.533   4.296   0.903
 3590SOL    HW211670   0.438   4.399   0.986
 3591SOL     OW11671   4.975   2.168   6.484
 3591SOL    HW111672   5.029   2.137   6.563
 3591SOL    HW211673   5.021   2.246   6.442
 3592SOL     OW11674   1.629   0.012   2.089
 3592SOL    HW111675   1.639   0.069   2.008
 3592SOL    HW211676   1.533   0.005   2.113
 3593SOL     OW11677   5.769   3.467   5.585
 3593SOL    HW111678   5.751   3.553   5.537
 3593SOL    HW211679   5.703   3.455   5.659
 3594SOL     OW11680   4.048   5.122   4.141
 3594SOL    HW111681   4.066   5.045   4.081
 3594SOL    HW211682   4.102   5.113   4.225
 3595SOL     OW11683   5.754   5.709   6.074
 3595SOL    HW111684   5.786   5.622   6.036
 3595SOL    HW211685   5.770   5.782   6.007
 3596SOL     OW11686   3.507   1.185   3.120
 3596SOL    HW111687   3.472   1.132   3.043
 3596SOL    HW211688   3.568   1.256   3.086
 3597SOL     OW11689   1.977   3.276   5.431
 3597SOL    HW111690   1.965   3.293   5.333
 3597SOL    HW211691   2.075   3.278   5.453
 3598SOL     OW11692   1.722   5.414   4.417
 3598SOL    HW111693   1.707   5.512   4.407
 3598SOL    HW211694   1.648   5.365   4.371
 3599SOL     OW11695   4.916   1.648   5.272
 3599SOL    HW111696   4.937   1.554   5.244
 3599SOL    HW211697   4.853   1.689   5.207
 3600SOL     OW11698   3.326   3.493   0.716
 3600SOL    HW111699   3.307   3.409   0.767
 3600SOL    HW211700   3.255   3.508   0.647
 3601SOL     OW11701   4.812   0.906   5.153
 3601SOL    HW111702   4.769   0.938   5.238
 3601SOL    HW211703   4.865   0.823   5.171
 3602SOL     OW11704   2.590   2.315   1.150
 3602SOL    HW111705   2.683   2.338   1.122
 3602SOL    HW211706   2.545   2.265   1.076
 3603SOL     OW11707   3.190   0.894   5.705
 3603SOL    HW111708   3.149   0.889   5.796
 3603SOL    HW211709   3.121   0.872   5.636
 3604SOL     OW11710   6.553   0.512   3.630
 3604SOL    HW111711   6.468   0.475   3.667
 3604SOL    HW211712   6.544   0.526   3.532
 3605SOL     OW11713   0.714   5.771   3.548
 3605SOL    HW111714   0.747   5.865   3.547
 3605SOL    HW211715   0.634   5.764   3.607
 3606SOL     OW11716   2.197   6.493   1.200
 3606SOL    HW111717   2.118   6.505   1.260
 3606SOL    HW211718   2.205   6.397   1.175
 3607SOL     OW11719   5.042   2.433   2.982
 3607SOL    HW111720   5.039   2.520   3.032
 3607SOL    HW211721   5.123   2.431   2.923
 3608SOL     OW11722   3.594   2.140   4.555
 3608SOL    HW111723   3.636   2.050   4.542
 3608SOL    HW211724   3.609   2.171   4.648
 3609SOL     OW11725   2.323   0.156   4.280
 3609SOL    HW111726   2.242   0.130   4.227
 3609SOL    HW211727   2.295   0.195   4.368
 3610SOL     OW11728   2.376   6.915   5.070
 3610SOL    HW111729   2.467   6.907   5.030
 3610SOL    HW211730   2.325   6.988   5.023
 3611SOL     OW11731   5.429   4.686   3.529
 3611SOL    HW111732   5.445   4.626   3.607
 3611SOL    HW211733   5.388   4.634   3.453
 3612SOL     OW11734   5.705   1.596   6.710
 3612SOL    HW111735   5.707   1.630   6.804
 3612SOL    HW211736   5.729   1.671   6.647
 3613SOL     OW11737   3.224   5.055   0.966
 3613SOL    HW111738   3.214   4.982   1.033
 3613SOL    HW211739   3.263   5.018   0.882
 3614SOL     OW11740   3.750   4.361   6.054
 3614SOL    HW111741   3.825   4.320   6.001
 3614SOL    HW211742   3.665   4.354   6.003
 3615SOL     OW11743   6.025   2.383   5.249
 3615SOL    HW111744   6.055   2.415   5.339
 3615SOL    HW211745   6.072   2.435   5.178
 3616SOL     OW11746   1.883   1.952   6.596
 3616SOL    HW111747   1.861   1.941   6.499
 3616SOL    HW211748   1.981   1.939   6.610
 3617SOL     OW11749   3.863   6.453   6.049
 3617SOL    HW111750   3.877   6.510   5.967
 3617SOL    HW211751   3.842   6.360   6.021
 3618SOL     OW11752   1.813   3.734   4.707
 3618SOL    HW111753   1.822   3.782   4.620
 3618SOL    HW211754   1.902   3.697   4.734
 3619SOL     OW11755   6.547   3.044   1.261
 3619SOL    HW111756   6.594   2.975   1.316
 3619SOL    HW211757   6.471   3.082   1.314
 3620SOL     OW11758   6.318   6.424   5.029
 3620SOL    HW111759   6.362   6.469   5.106
 3620SOL    HW211760   6.374   6.436   4.947
 3621SOL     OW11761   3.297   3.470   3.623
 3621SOL    HW111762   3.269   3.497   3.531
 3621SOL    HW211763   3.309   3.371   3.626
 3622SOL     OW11764   0.958   7.021   0.149
 3622SOL    HW111765   1.007   6.934   0.136
 3622SOL    HW211766   0.863   7.010   0.120
 3623SOL     OW11767   0.947   4.948   6.236
 3623SOL    HW111768   0.909   4.881   6.301
 3623SOL    HW211769   1.046   4.957   6.253
 3624SOL     OW11770   3.254   0.619   2.359
 3624SOL    HW111771   3.199   0.537   2.349
 3624SOL    HW211772   3.220   0.673   2.437
 3625SOL     OW11773   6.993   2.605   6.907
 3625SOL    HW111774   7.009   2.701   6.932
 3625SOL    HW211775   6.936   2.562   6.977
 3626SOL     OW11776   0.960   2.378   4.704
 3626SOL    HW111777   0.895   2.407   4.774
 3626SOL    HW211778   1.051   2.414   4.725
 3627SOL     OW11779   4.081   2.317   1.533
 3627SOL    HW111780   4.147   2.250   1.498
 3627SOL    HW211781   4.010   2.333   1.464
 3628SOL     OW11782   0.024   1.557   2.286
 3628SOL    HW111783   6.989   1.507   2.220
 3628SOL    HW211784   6.994   1.634   2.322
 3629SOL     OW11785   1.807   1.463   4.333
 3629SOL    HW111786   1.841   1.527   4.402
 3629SOL    HW211787   1.779   1.514   4.252
 3630SOL     OW11788   6.554   2.516   3.710
 3630SOL    HW111789   6.486   2.472   3.652
 3630SOL    HW211790   6.509   2.567   3.783
 3631SOL     OW11791   1.679   6.542   2.471
 3631SOL    HW111792   1.739   6.491   2.409
 3631SOL    HW211793   1.734   6.601   2.529
 3632SOL     OW11794   4.688   3.723   1.220
 3632SOL    HW111795   4.676   3.624   1.228
 3632SOL    HW211796   4.742   3.756   1.297
 3633SOL     OW11797   3.738   2.788   6.105
 3633SOL    HW111798   3.765   2.790   6.009
 3633SOL    HW211799   3.817   2.765   6.162
 3634SOL     OW11800   3.089   5.268   6.482
 3634SOL    HW111801   3.040   5.354   6.471
 3634SOL    HW211802   3.026   5.198   6.515
 3635SOL     OW11803   2.819   0.423   1.435
 3635SOL    HW111804   2.750   0.493   1.418
 3635SOL    HW211805   2.811   0.391   1.529
 3636SOL     OW11806   1.042   5.087   0.001
 3636SOL    HW111807   0.950   5.063   6.993
 3636SOL    HW211808   1.062   5.041   0.088
 3637SOL     OW11809   6.903   2.746   6.612
 3637SOL    HW111810   6.947   2.676   6.668
 3637SOL    HW211811   6.807   2.755   6.639
 3638SOL     OW11812   5.646   4.343   2.581
 3638SOL    HW111813   5.672   4.402   2.504
 3638SOL    HW211814   5.632   4.250   2.548
 3639SOL     OW11815   3.203   3.803   4.676
 3639SOL    HW111816   3.245   3.790   4.586
 3639SOL    HW211817   3.268   3.778   4.747
 3640SOL     OW11818   5.463   1.963   0.556
 3640SOL    HW111819   5.443   1.930   0.648
 3640SOL    HW211820   5.379   1.996   0.513
 3641SOL     OW11821   6.278   3.883   2.535
 3641SOL    HW111822   6.307   3.975   2.508
 3641SOL    HW211823   6.208   3.889   2.606
 3642SOL     OW11824   6.307   2.768   6.584
 3642SOL    HW111825   6.291   2.867   6.588
 3642SOL    HW211826   6.253   2.729   6.510
 3643SOL     OW11827   3.661   5.413   5.458
 3643SOL    HW111828   3.639   5.460   5.372
 3643SOL    HW211829   3.750   5.368   5.449
 3644SOL     OW11830   2.905   0.638   2.006
 3644SOL    HW111831   2.979   0.694   2.044
 3644SOL    HW211832   2.878   0.568   2.073
 3645SOL     OW11833   1.612   4.226   4.057
 3645SOL    HW111834   1.556   4.144   4.042
 3645SOL    HW211835   1.691   4.224   3.995
 3646SOL     OW11836   2.348   4.437   4.929
 3646SOL    HW111837   2.427   4.494   4.906
 3646SOL    HW211838   2.379   4.356   4.979
 3647SOL     OW11839   2.951   0.136   0.288
 3647SOL    HW111840   3.014   0.206   0.255
 3647SOL    HW211841   2.884   0.178   0.350
 3648SOL     OW11842   4.306   5.239   3.804
 3648SOL    HW111843   4.287   5.290   3.720
 3648SOL    HW211844   4.355   5.298   3.869
 3649SOL     OW11845   5.722   2.689   0.122
 3649SOL    HW111846   5.657   2.682   0.198
 3649SOL    HW211847   5.682   2.744   0.049
 3650SOL     OW11848   5.674   5.511   0.260
 3650SOL    HW111849   5.746   5.467   0.315
 3650SOL    HW211850   5.610   5.559   0.321
 3651SOL     OW11851   0.932   2.722   5.910
 3651SOL    HW111852   0.983   2.681   5.986
 3651SOL    HW211853   0.834   2.706   5.924
 3652SOL     OW11854   4.801   1.514   2.431
 3652SOL    HW111855   4.703   1.509   2.454
 3652SOL    HW211856   4.828   1.609   2.419
 3653SOL     OW11857   0.632   1.566   1.315
 3653SOL    HW111858   0.548   1.518   1.291
 3653SOL    HW211859   0.611   1.638   1.382
 3654SOL     OW11860   5.570   0.138   0.787
 3654SOL    HW111861   5.501   0.206   0.761
 3654SOL    HW211862   5.661   0.176   0.773
 3655SOL     OW11863   1.888   2.340   4.531
 3655SOL    HW111864   1.821   2.413   4.535
 3655SOL    HW211865   1.967   2.369   4.477
 3656SOL     OW11866   0.138   6.663   1.844
 3656SOL    HW111867   0.110   6.571   1.817
 3656SOL    HW211868   0.231   6.681   1.811
 3657SOL     OW11869   4.776   5.929   4.740
 3657SOL    HW111870   4.868   5.910   4.772
 3657SOL    HW211871   4.716   5.851   4.758
 3658SOL     OW11872   1.378   4.694   6.192
 3658SOL    HW111873   1.420   4.638   6.264
 3658SOL    HW211874   1.334   4.774   6.233
 3659SOL     OW11875   6.670   1.155   6.207
 3659SOL    HW111876   6.672   1.197   6.298
 3659SOL    HW211877   6.688   1.057   6.215
 3660SOL     OW11878   5.390   5.038   5.875
 3660SOL    HW111879   5.404   5.017   5.778
 3660SOL    HW211880   5.304   4.998   5.906
 3661SOL     OW11881   6.977   1.804   4.609
 3661SOL    HW111882   6.896   1.852   4.574
 3661SOL    HW211883   6.974   1.800   4.708
 3662SOL     OW11884   3.132   1.168   5.744
 3662SOL    HW111885   3.167   1.227   5.671
 3662SOL    HW211886   3.137   1.073   5.714
 3663SOL     OW11887   2.267   2.655   6.503
 3663SOL    HW111888   2.224   2.737   6.541
 3663SOL    HW211889   2.243   2.576   6.560
 3664SOL     OW11890   3.931   0.939   2.390
 3664SOL    HW111891   3.931   0.881   2.471
 3664SOL    HW211892   3.864   0.905   2.324
 3665SOL     OW11893   1.024   6.031   5.929
 3665SOL    HW111894   1.071   5.987   6.005
 3665SOL    HW211895   1.069   6.117   5.906
 3666SOL     OW11896   2.109   2.040   4.946
 3666SOL    HW111897   2.050   2.052   4.866
 3666SOL    HW211898   2.163   2.123   4.961
 3667SOL     OW11899   2.110   0.389   2.474
 3667SOL    HW111900   2.055   0.306   2.484
 3667SOL    HW211901   2.191   0.383   2.531
 3668SOL     OW11902   0.355   0.785   1.867
 3668SOL    HW111903   0.426   0.809   1.933
 3668SOL    HW211904   0.356   0.849   1.791
 3669SOL     OW11905   6.838   1.218   3.766
 3669SOL    HW111906   6.834   1.295   3.830
 3669SOL    HW211907   6.824   1.251   3.673
 3670SOL     OW11908   3.467   5.351   1.761
 3670SOL    HW111909   3.547   5.406   1.786
 3670SOL    HW211910   3.393   5.368   1.826
 3671SOL     OW11911   6.492   0.201   3.638
 3671SOL    HW111912   6.395   0.207   3.663
 3671SOL    HW211913   6.545   0.262   3.696
 3672SOL     OW11914   4.261   6.437   2.550
 3672SOL    HW111915   4.276   6.341   2.571
 3672SOL    HW211916   4.312   6.463   2.468
 3673SOL     OW11917   4.482   5.962   1.287
 3673SOL    HW111918   4.578   5.950   1.312
 3673SOL    HW211919   4.474   5.966   1.187
 3674SOL     OW11920   1.225   4.961   6.262
 3674SOL    HW111921   1.289   4.947   6.338
 3674SOL    HW211922   1.276   4.971   6.177
 3675SOL     OW11923   1.118   1.011   3.674
 3675SOL    HW111924   1.091   1.103   3.643
 3675SOL    HW211925   1.113   1.008   3.774
 3676SOL     OW11926   4.003   1.528   3.835
 3676SOL    HW111927   4.060   1.467   3.889
 3676SOL    HW211928   3.967   1.479   3.755
 3677SOL     OW11929   1.958   0.330   4.368
 3677SOL    HW111930   1.999   0.345   4.278
 3677SOL    HW211931   1.860   0.315   4.358
 3678SOL     OW11932   1.076   0.611   3.580
 3678SOL    HW111933   1.087   0.527   3.527
 3678SOL    HW211934   1.162   0.662   3.581
 3679SOL     OW11935   4.691   0.800   2.479
 3679SOL    HW111936   4.677   0.833   2.572
 3679SOL    HW211937   4.610   0.749   2.449
 3680SOL     OW11938   3.999   1.354   4.276
 3680SOL    HW111939   4.077   1.409   4.303
 3680SOL    HW211940   3.966   1.383   4.186
 3681SOL     OW11941   1.763   5.996   4.649
 3681SOL    HW111942   1.787   5.899   4.659
 3681SOL    HW211943   1.797   6.030   4.561
 3682SOL     OW11944   5.661   1.817   1.339
 3682SOL    HW111945   5.662   1.754   1.416
 3682SOL    HW211946   5.684   1.909   1.370
 3683SOL     OW11947   6.036   1.167   5.893
 3683SOL    HW111948   6.066   1.179   5.799
 3683SOL    HW211949   6.103   1.110   5.942
 3684SOL     OW11950   2.458   6.595   5.619
 3684SOL    HW111951   2.390   6.656   5.661
 3684SOL    HW211952   2.541   6.647   5.600
 3685SOL     OW11953   1.880   6.406   5.594
 3685SOL    HW111954   1.920   6.497   5.602
 3685SOL    HW211955   1.943   6.346   5.545
 3686SOL     OW11956   1.028   4.592   4.085
 3686SOL    HW111957   1.124   4.612   4.066
 3686SOL    HW211958   0.985   4.673   4.126
 3687SOL     OW11959   5.597   5.473   4.372
 3687SOL    HW111960   5.512   5.519   4.398
 3687SOL    HW211961   5.627   5.506   4.282
 3688SOL     OW11962   5.868   2.944   0.465
 3688SOL    HW111963   5.865   2.943   0.365
 3688SOL    HW211964   5.897   3.035   0.496
 3689SOL     OW11965   1.844   0.053   5.690
 3689SOL    HW111966   1.906   7.016   5.637
 3689SOL    HW211967   1.823   0.009   5.778
 3690SOL     OW11968   5.168   4.921   1.229
 3690SOL    HW111969   5.076   4.886   1.251
 3690SOL    HW211970   5.216   4.854   1.172
 3691SOL     OW11971   2.047   2.430   0.383
 3691SOL    HW111972   2.028   2.367   0.308
 3691SOL    HW211973   2.101   2.384   0.453
 3692SOL     OW11974   0.451   3.344   5.888
 3692SOL    HW111975   0.402   3.428   5.866
 3692SOL    HW211976   0.536   3.340   5.836
 3693SOL     OW11977   6.774   1.304   2.541
 3693SOL    HW111978   6.851   1.293   2.604
 3693SOL    HW211979   6.768   1.399   2.511
 3694SOL     OW11980   6.638   0.878   1.723
 3694SOL    HW111981   6.615   0.791   1.767
 3694SOL    HW211982   6.566   0.944   1.743
 3695SOL     OW11983   6.318   2.884   2.327
 3695SOL    HW111984   6.377   2.901   2.247
 3695SOL    HW211985   6.369   2.905   2.410
 3696SOL     OW11986   4.469   1.086   4.621
 3696SOL    HW111987   4.545   1.064   4.683
 3696SOL    HW211988   4.382   1.061   4.664
 3697SOL     OW11989   0.064   6.164   3.309
 3697SOL    HW111990   0.148   6.145   3.359
 3697SOL    HW211991   0.012   6.079   3.297
 3698SOL     OW11992   1.964   0.473   2.838
 3698SOL    HW111993   1.868   0.455   2.862
 3698SOL    HW211994   2.019   0.392   2.860
 3699SOL     OW11995   2.453   2.622   3.694
 3699SOL    HW111996   2.429   2.685   3.767
 3699SOL    HW211997   2.530   2.565   3.723
 3700SOL     OW11998   1.216   4.589   4.397
 3700SOL    HW111999   1.175   4.508   4.353
 3700SOL    HW212000   1.209   4.579   4.497
 3701SOL     OW12001   1.853   1.120   2.699
 3701SOL    HW112002   1.835   1.216   2.677
 3701SOL    HW212003   1.866   1.068   2.615
 3702SOL     OW12004   5.156   4.198   3.859
 3702SOL    HW112005   5.219   4.183   3.783
 3702SOL    HW212006   5.136   4.111   3.904
 3703SOL     OW12007   1.288   1.582   4.252
 3703SOL    HW112008   1.309   1.582   4.155
 3703SOL    HW212009   1.370   1.606   4.304
 3704SOL     OW12010   6.574   2.170   0.983
 3704SOL    HW112011   6.600   2.090   1.037
 3704SOL    HW212012   6.653   2.203   0.933
 3705SOL     OW12013   5.168   4.765   2.865
 3705SOL    HW112014   5.235   4.836   2.887
 3705SOL    HW212015   5.155   4.761   2.766
 3706SOL     OW12016   0.619   3.820   0.480
 3706SOL    HW112017   0.650   3.807   0.386
 3706SOL    HW212018   0.531   3.773   0.493
 3707SOL     OW12019   1.003   5.541   3.903
 3707SOL    HW112020   1.039   5.503   3.819
 3707SOL    HW212021   1.075   5.589   3.952
 3708SOL     OW12022   3.511   6.785   0.648
 3708SOL    HW112023   3.599   6.832   0.660
 3708SOL    HW212024   3.521   6.712   0.581
 3709SOL     OW12025   1.544   1.432   2.499
 3709SOL    HW112026   1.517   1.449   2.593
 3709SOL    HW212027   1.633   1.386   2.498
 3710SOL     OW12028   6.768   4.616   5.923
 3710SOL    HW112029   6.765   4.660   5.833
 3710SOL    HW212030   6.715   4.670   5.987
 3711SOL     OW12031   1.559   5.829   4.496
 3711SOL    HW112032   1.512   5.823   4.584
 3711SOL    HW212033   1.492   5.814   4.423
 3712SOL     OW12034   2.413   5.112   4.787
 3712SOL    HW112035   2.336   5.126   4.850
 3712SOL    HW212036   2.497   5.102   4.840
 3713SOL     OW12037   6.007   6.728   4.430
 3713SOL    HW112038   5.994   6.763   4.523
 3713SOL    HW212039   5.923   6.685   4.398
 3714SOL     OW12040   0.404   4.740   0.992
 3714SOL    HW112041   0.424   4.744   0.894
 3714SOL    HW212042   0.407   4.832   1.031
 3715SOL     OW12043   5.593   5.418   3.530
 3715SOL    HW112044   5.620   5.507   3.496
 3715SOL    HW212045   5.515   5.428   3.592
 3716SOL     OW12046   5.039   5.510   3.863
 3716SOL    HW112047   5.020   5.604   3.833
 3716SOL    HW212048   5.012   5.446   3.792
 3717SOL     OW12049   4.293   1.358   1.194
 3717SOL    HW112050   4.291   1.454   1.221
 3717SOL    HW212051   4.387   1.328   1.184
 3718SOL     OW12052   6.974   0.066   5.671
 3718SOL    HW112053   6.908   0.002   5.710
 3718SOL    HW212054   6.936   0.159   5.675
 3719SOL     OW12055   3.774   4.158   6.246
 3719SOL    HW112056   3.790   4.173   6.344
 3719SOL    HW212057   3.763   4.246   6.200
 3720SOL     OW12058   0.198   2.738   1.452
 3720SOL    HW112059   0.293   2.759   1.475
 3720SOL    HW212060   0.172   2.651   1.493
 3721SOL     OW12061   6.366   5.022   6.097
 3721SOL    HW112062   6.364   5.116   6.132
 3721SOL    HW212063   6.413   5.021   6.008
 3722SOL     OW12064   4.608   6.607   3.362
 3722SOL    HW112065   4.648   6.696   3.381
 3722SOL    HW212066   4.621   6.583   3.266
 3723SOL     OW12067   4.826   4.225   0.168
 3723SOL    HW112068   4.921   4.200   0.145
 3723SOL    HW212069   4.765   4.189   0.098
 3724SOL     OW12070   1.436   4.741   5.027
 3724SOL    HW112071   1.398   4.823   4.984
 3724SOL    HW212072   1.532   4.731   5.001
 3725SOL     OW12073   0.872   5.636   6.423
 3725SOL    HW112074   0.930   5.595   6.493
 3725SOL    HW212075   0.796   5.574   6.402
 3726SOL     OW12076   6.487   3.644   4.302
 3726SOL    HW112077   6.504   3.639   4.401
 3726SOL    HW212078   6.406   3.700   4.285
 3727SOL     OW12079   6.517   3.547   3.822
 3727SOL    HW112080   6.458   3.622   3.852
 3727SOL    HW212081   6.464   3.462   3.819
 3728SOL     OW12082   3.103   3.046   0.086
 3728SOL    HW112083   3.164   3.047   0.007
 3728SOL    HW212084   3.157   3.048   0.170
 3729SOL     OW12085   0.502   0.021   5.508
 3729SOL    HW112086   0.558   0.085   5.456
 3729SOL    HW212087   0.474   6.967   5.448
 3730SOL     OW12088   3.455   5.808   4.363
 3730SOL    HW112089   3.425   5.903   4.371
 3730SOL    HW212090   3.442   5.762   4.451
 3731SOL     OW12091   0.490   2.360   6.837
 3731SOL    HW112092   0.537   2.295   6.896
 3731SOL    HW212093   0.409   2.316   6.797
 3732SOL     OW12094   3.274   2.218   6.789
 3732SOL    HW112095   3.272   2.193   6.886
 3732SOL    HW212096   3.182   2.246   6.761
 3733SOL     OW12097   2.124   1.656   3.444
 3733SOL    HW112098   2.038   1.650   3.495
 3733SOL    HW212099   2.201   1.636   3.505
 3734SOL     OW12100   4.219   6.790   0.642
 3734SOL    HW112101   4.197   6.878   0.683
 3734SOL    HW212102   4.261   6.731   0.710
 3735SOL     OW12103   4.148   6.825   2.295
 3735SOL    HW112104   4.064   6.840   2.348
 3735SOL    HW212105   4.227   6.832   2.355
 3736SOL     OW12106   6.699   1.465   1.342
 3736SOL    HW112107   6.770   1.397   1.360
 3736SOL    HW212108   6.720   1.548   1.393
 3737SOL     OW12109   0.271   2.891   2.969
 3737SOL    HW112110   0.332   2.962   2.933
 3737SOL    HW212111   0.223   2.927   3.049
 3738SOL     OW12112   6.987   6.559   1.264
 3738SOL    HW112113   6.903   6.598   1.226
 3738SOL    HW212114   6.991   6.578   1.362
 3739SOL     OW12115   2.916   3.990   0.738
 3739SOL    HW112116   2.845   4.048   0.777
 3739SOL    HW212117   2.952   3.929   0.808
 3740SOL     OW12118   5.049   5.054   6.531
 3740SOL    HW112119   5.056   4.962   6.490
 3740SOL    HW212120   4.997   5.113   6.469
 3741SOL     OW12121   5.019   3.669   0.005
 3741SOL    HW112122   5.031   3.734   0.080
 3741SOL    HW212123   5.047   3.577   0.036
 3742SOL     OW12124   4.141   5.369   0.197
 3742SOL    HW112125   4.045   5.350   0.178
 3742SOL    HW212126   4.185   5.408   0.116
 3743SOL     OW12127   4.293   3.343   1.785
 3743SOL    HW112128   4.316   3.440   1.778
 3743SOL    HW212129   4.215   3.322   1.726
 3744SOL     OW12130   0.496   6.927   2.191
 3744SOL    HW112131   0.483   7.021   2.221
 3744SOL    HW212132   0.477   6.865   2.267
 3745SOL     OW12133   4.835   3.927   2.048
 3745SOL    HW112134   4.748   3.973   2.068
 3745SOL    HW212135   4.827   3.877   1.962
 3746SOL     OW12136   6.208   0.343   4.602
 3746SOL    HW112137   6.237   0.249   4.614
 3746SOL    HW212138   6.169   0.355   4.510
 3747SOL     OW12139   3.393   6.386   6.058
 3747SOL    HW112140   3.460   6.431   6.116
 3747SOL    HW212141   3.360   6.451   5.989
 3748SOL     OW12142   5.653   1.489   2.962
 3748SOL    HW112143   5.734   1.447   3.004
 3748SOL    HW212144   5.575   1.427   2.972
 3749SOL     OW12145   6.994   6.626   2.785
 3749SOL    HW112146   7.001   6.645   2.882
 3749SOL    HW212147   6.903   6.591   2.764
 3750SOL     OW12148   5.599   4.249   0.527
 3750SOL    HW112149   5.637   4.332   0.487
 3750SOL    HW212150   5.594   4.178   0.458
 3751SOL     OW12151   2.038   3.900   2.351
 3751SOL    HW112152   2.090   3.821   2.318
 3751SOL    HW212153   1.960   3.917   2.290
 3752SOL     OW12154   1.067   6.482   6.691
 3752SOL    HW112155   1.075   6.511   6.596
 3752SOL    HW212156   0.985   6.521   6.731
 3753SOL     OW12157   6.481   6.528   4.549
 3753SOL    HW112158   6.395   6.577   4.538
 3753SOL    HW212159   6.526   6.519   4.461
 3754SOL     OW12160   6.772   5.977   1.551
 3754SOL    HW112161   6.794   5.968   1.648
 3754SOL    HW212162   6.855   6.002   1.500
 3755SOL     OW12163   5.299   4.143   3.635
 3755SOL    HW112164   5.238   4.080   3.589
 3755SOL    HW212165   5.379   4.093   3.670
 3756SOL     OW12166   3.092   0.792   6.705
 3756SOL    HW112167   3.071   0.853   6.781
 3756SOL    HW212168   3.145   0.714   6.737
 3757SOL     OW12169   3.030   5.433   6.773
 3757SOL    HW112170   2.951   5.405   6.718
 3757SOL    HW212171   3.006   5.429   6.870
 3758SOL     OW12172   2.472   1.268   4.212
 3758SOL    HW112173   2.444   1.250   4.118
 3758SOL    HW212174   2.476   1.366   4.228
 3759SOL     OW12175   4.913   4.740   6.214
 3759SOL    HW112176   4.919   4.768   6.118
 3759SOL    HW212177   4.848   4.799   6.262
 3760SOL     OW12178   1.473   2.554   4.842
 3760SOL    HW112179   1.531   2.565   4.922
 3760SOL    HW212180   1.490   2.628   4.777
 3761SOL     OW12181   0.072   6.105   4.203
 3761SOL    HW112182   0.153   6.150   4.241
 3761SOL    HW212183   0.026   6.166   4.139
 3762SOL     OW12184   0.505   4.076   0.960
 3762SOL    HW112185   0.428   4.076   0.896
 3762SOL    HW212186   0.471   4.067   1.054
 3763SOL     OW12187   6.810   3.280   6.802
 3763SOL    HW112188   6.755   3.214   6.752
 3763SOL    HW212189   6.808   3.368   6.755
 3764SOL     OW12190   2.560   6.599   3.509
 3764SOL    HW112191   2.491   6.612   3.580
 3764SOL    HW212192   2.651   6.597   3.552
 3765SOL     OW12193   5.703   0.835   4.332
 3765SOL    HW112194   5.749   0.807   4.416
 3765SOL    HW212195   5.757   0.804   4.253
 3766SOL     OW12196   1.060   0.620   4.625
 3766SOL    HW112197   1.001   0.692   4.588
 3766SOL    HW212198   1.147   0.659   4.653
 3767SOL     OW12199   1.609   5.082   0.941
 3767SOL    HW112200   1.683   5.137   0.903
 3767SOL    HW212201   1.537   5.142   0.976
 3768SOL     OW12202   5.049   6.389   0.128
 3768SOL    HW112203   5.126   6.433   0.083
 3768SOL    HW212204   5.041   6.422   0.222
 3769SOL     OW12205   4.751   6.393   5.569
 3769SOL    HW112206   4.720   6.386   5.474
 3769SOL    HW212207   4.780   6.488   5.587
 3770SOL     OW12208   2.080   1.716   6.661
 3770SOL    HW112209   2.008   1.665   6.614
 3770SOL    HW212210   2.080   1.811   6.630
 3771SOL     OW12211   5.318   2.430   5.923
 3771SOL    HW112212   5.263   2.495   5.871
 3771SOL    HW212213   5.283   2.338   5.909
 3772SOL     OW12214   5.769   1.338   1.740
 3772SOL    HW112215   5.762   1.405   1.667
 3772SOL    HW212216   5.789   1.384   1.826
 3773SOL     OW12217   6.583   2.660   6.258
 3773SOL    HW112218   6.617   2.589   6.321
 3773SOL    HW212219   6.632   2.746   6.276
 3774SOL     OW12220   0.370   0.844   1.129
 3774SOL    HW112221   0.422   0.929   1.133
 3774SOL    HW212222   0.300   0.844   1.201
 3775SOL     OW12223   5.953   3.923   4.155
 3775SOL    HW112224   5.893   3.994   4.118
 3775SOL    HW212225   5.922   3.897   4.247
 3776SOL     OW12226   2.377   3.332   0.814
 3776SOL    HW112227   2.386   3.281   0.729
 3776SOL    HW212228   2.456   3.393   0.825
 3777SOL     OW12229   2.201   4.228   4.326
 3777SOL    HW112230   2.258   4.279   4.391
 3777SOL    HW212231   2.194   4.278   4.240
 3778SOL     OW12232   2.804   5.708   1.679
 3778SOL    HW112233   2.727   5.673   1.626
 3778SOL    HW212234   2.866   5.758   1.618
 3779SOL     OW12235   2.659   4.885   6.115
 3779SOL    HW112236   2.693   4.828   6.040
 3779SOL    HW212237   2.735   4.910   6.175
 3780SOL     OW12238   3.076   6.193   5.343
 3780SOL    HW112239   3.155   6.134   5.330
 3780SOL    HW212240   3.036   6.217   5.255
 3781SOL     OW12241   2.980   6.011   4.562
 3781SOL    HW112242   2.956   6.106   4.544
 3781SOL    HW212243   3.059   5.985   4.507
 3782SOL     OW12244   2.657   1.523   4.030
 3782SOL    HW112245   2.581   1.534   4.094
 3782SOL    HW212246   2.661   1.603   3.969
 3783SOL     OW12247   5.287   6.085   5.141
 3783SOL    HW112248   5.330   6.111   5.227
 3783SOL    HW212249   5.307   5.989   5.121
 3784SOL     OW12250   5.216   1.257   3.217
 3784SOL    HW112251   5.141   1.211   3.170
 3784SOL    HW212252   5.239   1.207   3.300
 3785SOL     OW12253   2.511   2.101   1.292
 3785SOL    HW112254   2.534   2.084   1.387
 3785SOL    HW212255   2.547   2.190   1.264
 3786SOL     OW12256   3.235   5.239   2.967
 3786SOL    HW112257   3.208   5.252   2.872
 3786SOL    HW212258   3.290   5.317   2.997
 3787SOL     OW12259   3.901   1.433   3.602
 3787SOL    HW112260   3.864   1.361   3.543
 3787SOL    HW212261   3.864   1.521   3.572
 3788SOL     OW12262   5.593   3.044   2.678
 3788SOL    HW112263   5.558   3.138   2.674
 3788SOL    HW212264   5.675   3.041   2.735
 3789SOL     OW12265   1.802   5.383   3.537
 3789SOL    HW112266   1.810   5.308   3.602
 3789SOL    HW212267   1.847   5.359   3.452
 3790SOL     OW12268   2.173   3.167   3.966
 3790SOL    HW112269   2.224   3.136   4.046
 3790SOL    HW212270   2.214   3.251   3.931
 3791SOL     OW12271   4.439   6.933   1.291
 3791SOL    HW112272   4.468   6.970   1.380
 3791SOL    HW212273   4.385   7.002   1.243
 3792SOL     OW12274   6.384   6.580   5.398
 3792SOL    HW112275   6.435   6.496   5.416
 3792SOL    HW212276   6.315   6.594   5.469
 3793SOL     OW12277   2.035   1.414   2.832
 3793SOL    HW112278   1.943   1.395   2.798
 3793SOL    HW212279   2.031   1.436   2.930
 3794SOL     OW12280   4.640   5.977   1.989
 3794SOL    HW112281   4.731   6.017   1.978
 3794SOL    HW212282   4.571   6.041   1.954
 3795SOL     OW12283   5.541   6.521   6.729
 3795SOL    HW112284   5.525   6.433   6.685
 3795SOL    HW212285   5.463   6.581   6.711
 3796SOL     OW12286   1.527   2.621   1.624
 3796SOL    HW112287   1.582   2.703   1.610
 3796SOL    HW212288   1.432   2.639   1.598
 3797SOL     OW12289   0.761   4.732   2.815
 3797SOL    HW112290   0.805   4.763   2.731
 3797SOL    HW212291   0.738   4.635   2.807
 3798SOL     OW12292   1.925   5.161   2.274
 3798SOL    HW112293   1.990   5.221   2.322
 3798SOL    HW212294   1.929   5.180   2.176
 3799SOL     OW12295   1.604   0.833   5.256
 3799SOL    HW112296   1.612   0.743   5.298
 3799SOL    HW212297   1.692   0.881   5.260
 3800SOL     OW12298   4.438   2.357   4.308
 3800SOL    HW112299   4.347   2.316   4.318
 3800SOL    HW212300   4.458   2.415   4.387
 3801SOL     OW12301   6.955   6.571   5.960
 3801SOL    HW112302   6.879   6.626   5.994
 3801SOL    HW212303   7.021   6.631   5.914
 3802SOL     OW12304   1.190   1.673   5.291
 3802SOL    HW112305   1.284   1.642   5.285
 3802SOL    HW212306   1.144   1.660   5.203
 3803SOL     OW12307   3.536   1.033   1.651
 3803SOL    HW112308   3.489   1.048   1.738
 3803SOL    HW212309   3.519   1.110   1.590
 3804SOL     OW12310   5.115   2.448   4.219
 3804SOL    HW112311   5.136   2.418   4.313
 3804SOL    HW212312   5.120   2.547   4.214
 3805SOL     OW12313   2.768   4.271   1.653
 3805SOL    HW112314   2.811   4.328   1.723
 3805SOL    HW212315   2.675   4.248   1.680
 3806SOL     OW12316   2.570   1.972   0.123
 3806SOL    HW112317   2.531   1.881   0.137
 3806SOL    HW212318   2.502   2.031   0.080
 3807SOL     OW12319   1.622   6.551   3.430
 3807SOL    HW112320   1.548   6.599   3.384
 3807SOL    HW212321   1.616   6.567   3.529
 3808SOL     OW12322   3.554   0.156   1.599
 3808SOL    HW112323   3.520   0.240   1.642
 3808SOL    HW212324   3.592   0.096   1.669
 3809SOL     OW12325   5.829   1.299   6.859
 3809SOL    HW112326   5.805   1.295   6.762
 3809SOL    HW212327   5.747   1.311   6.914
 3810SOL     OW12328   3.270   2.997   5.046
 3810SOL    HW112329   3.199   2.989   4.975
 3810SOL    HW212330   3.297   2.905   5.076
 3811SOL     OW12331   0.787   5.139   5.118
 3811SOL    HW112332   0.804   5.140   5.020
 3811SOL    HW212333   0.799   5.231   5.156
 3812SOL     OW12334   5.670   1.736   5.370
 3812SOL    HW112335   5.698   1.654   5.420
 3812SOL    HW212336   5.580   1.765   5.403
 3813SOL     OW12337   3.407   5.198   0.471
 3813SOL    HW112338   3.378   5.121   0.528
 3813SOL    HW212339   3.397   5.175   0.374
 3814SOL     OW12340   0.179   6.056   2.390
 3814SOL    HW112341   0.272   6.087   2.407
 3814SOL    HW212342   0.168   6.036   2.292
 3815SOL     OW12343   5.341   1.810   1.652
 3815SOL    HW112344   5.343   1.711   1.670
 3815SOL    HW212345   5.265   1.831   1.592
 3816SOL     OW12346   1.107   0.293   1.506
 3816SOL    HW112347   1.157   0.213   1.473
 3816SOL    HW212348   1.162   0.341   1.575
 3817SOL     OW12349   4.927   1.986   5.090
 3817SOL    HW112350   4.840   2.034   5.101
 3817SOL    HW212351   4.999   2.037   5.138
 3818SOL     OW12352   4.647   5.437   1.708
 3818SOL    HW112353   4.589   5.512   1.740
 3818SOL    HW212354   4.593   5.375   1.652
 3819SOL     OW12355   5.289   4.985   0.653
 3819SOL    HW112356   5.309   5.081   0.672
 3819SOL    HW212357   5.225   4.979   0.576
 3820SOL     OW12358   4.780   6.350   4.719
 3820SOL    HW112359   4.698   6.293   4.721
 3820SOL    HW212360   4.794   6.384   4.625
 3821SOL     OW12361   1.509   3.796   2.005
 3821SOL    HW112362   1.544   3.721   2.061
 3821SOL    HW212363   1.410   3.800   2.014
 3822SOL     OW12364   2.874   5.825   1.205
 3822SOL    HW112365   2.915   5.913   1.229
 3822SOL    HW212366   2.918   5.752   1.257
 3823SOL     OW12367   3.071   2.957   5.803
 3823SOL    HW112368   3.069   2.864   5.766
 3823SOL    HW212369   3.005   3.014   5.752
 3824SOL     OW12370   0.063   2.170   5.936
 3824SOL    HW112371   0.150   2.203   5.899
 3824SOL    HW212372   7.009   2.212   5.885
 3825SOL     OW12373   6.649   6.444   6.619
 3825SOL    HW112374   6.668   6.410   6.527
 3825SOL    HW212375   6.734   6.471   6.663
 3826SOL     OW12376   6.577   3.166   1.960
 3826SOL    HW112377   6.495   3.135   1.912
 3826SOL    HW212378   6.652   3.103   1.941
 3827SOL     OW12379   4.223   3.138   1.123
 3827SOL    HW112380   4.234   3.040   1.105
 3827SOL    HW212381   4.308   3.176   1.158
 3828SOL     OW12382   4.538   1.423   2.888
 3828SOL    HW112383   4.520   1.503   2.830
 3828SOL    HW212384   4.545   1.453   2.984
 3829SOL     OW12385   2.232   4.829   4.422
 3829SOL    HW112386   2.276   4.741   4.438
 3829SOL    HW212387   2.194   4.830   4.329
 3830SOL     OW12388   2.798   0.815   4.842
 3830SOL    HW112389   2.838   0.884   4.782
 3830SOL    HW212390   2.699   0.831   4.851
 3831SOL     OW12391   3.866   1.725   2.176
 3831SOL    HW112392   3.910   1.775   2.250
 3831SOL    HW212393   3.919   1.736   2.092
 3832SOL     OW12394   6.699   0.735   2.161
 3832SOL    HW112395   6.711   0.830   2.130
 3832SOL    HW212396   6.668   0.679   2.085
 3833SOL     OW12397   1.640   4.629   0.000
 3833SOL    HW112398   1.608   4.637   0.095
 3833SOL    HW212399   1.611   4.541   6.984
 3834SOL     OW12400   2.865   2.073   0.034
 3834SOL    HW112401   2.829   2.126   6.979
 3834SOL    HW212402   2.790   2.026   0.080
 3835SOL     OW12403   3.699   4.883   5.182
 3835SOL    HW112404   3.755   4.812   5.224
 3835SOL    HW212405   3.742   4.972   5.196
 3836SOL     OW12406   0.763   3.982   6.405
 3836SOL    HW112407   0.707   3.962   6.324
 3836SOL    HW212408   0.837   3.915   6.412
 3837SOL     OW12409   3.716   3.244   0.725
 3837SOL    HW112410   3.684   3.151   0.742
 3837SOL    HW212411   3.782   3.243   0.649
 3838SOL     OW12412   6.078   3.063   4.914
 3838SOL    HW112413   5.998   3.123   4.908
 3838SOL    HW212414   6.050   2.974   4.951
 3839SOL     OW12415   5.994   6.442   5.707
 3839SOL    HW112416   6.035   6.352   5.720
 3839SOL    HW212417   5.955   6.473   5.794
 3840SOL     OW12418   1.528   1.140   3.993
 3840SOL    HW112419   1.612   1.086   3.999
 3840SOL    HW212420   1.453   1.081   3.963
 3841SOL     OW12421   0.695   3.836   5.104
 3841SOL    HW112422   0.788   3.836   5.069
 3841SOL    HW212423   0.640   3.770   5.054
 3842SOL     OW12424   0.843   4.693   6.954
 3842SOL    HW112425   0.829   4.594   6.942
 3842SOL    HW212426   0.871   4.712   0.026
 3843SOL     OW12427   5.723   2.858   1.065
 3843SOL    HW112428   5.819   2.837   1.047
 3843SOL    HW212429   5.717   2.940   1.121
 3844SOL     OW12430   2.030   4.582   6.339
 3844SOL    HW112431   2.041   4.673   6.379
 3844SOL    HW212432   1.945   4.578   6.288
 3845SOL     OW12433   3.745   4.135   4.020
 3845SOL    HW112434   3.663   4.153   3.966
 3845SOL    HW212435   3.807   4.077   3.967
 3846SOL     OW12436   0.201   4.617   5.126
 3846SOL    HW112437   0.160   4.533   5.091
 3846SOL    HW212438   0.264   4.655   5.059
 3847SOL     OW12439   0.702   0.006   0.098
 3847SOL    HW112440   0.624   7.002   0.041
 3847SOL    HW212441   0.674   0.079   0.160
 3848SOL     OW12442   2.606   5.436   0.995
 3848SOL    HW112443   2.681   5.503   1.004
 3848SOL    HW212444   2.592   5.390   1.082
 3849SOL     OW12445   0.917   2.205   5.835
 3849SOL    HW112446   1.013   2.232   5.846
 3849SOL    HW212447   0.890   2.216   5.739
 3850SOL     OW12448   2.863   3.919   1.406
 3850SOL    HW112449   2.814   3.903   1.492
 3850SOL    HW212450   2.915   4.004   1.413
 3851SOL     OW12451   2.480   2.308   2.197
 3851SOL    HW112452   2.553   2.271   2.255
 3851SOL    HW212453   2.417   2.360   2.254
 3852SOL     OW12454   3.766   0.857   4.703
 3852SOL    HW112455   3.714   0.780   4.666
 3852SOL    HW212456   3.740   0.872   4.798
 3853SOL     OW12457   1.203   3.129   1.709
 3853SOL    HW112458   1.107   3.154   1.718
 3853SOL    HW212459   1.227   3.118   1.613
 3854SOL     OW12460   1.279   3.436   4.089
 3854SOL    HW112461   1.284   3.486   4.002
 3854SOL    HW212462   1.184   3.436   4.121
 3855SOL     OW12463   6.646   2.434   5.615
 3855SOL    HW112464   6.657   2.531   5.636
 3855SOL    HW212465   6.621   2.424   5.519
 3856SOL     OW12466   0.618   5.929   6.035
 3856SOL    HW112467   0.580   5.873   6.109
 3856SOL    HW212468   0.574   5.906   5.949
 3857SOL     OW12469   0.531   6.810   5.351
 3857SOL    HW112470   0.448   6.754   5.359
 3857SOL    HW212471   0.583   6.805   5.436
 3858SOL     OW12472   2.627   5.432   6.912
 3858SOL    HW112473   2.705   5.416   6.972
 3858SOL    HW212474   2.635   5.374   6.831
 3859SOL     OW12475   0.514   2.681   2.421
 3859SOL    HW112476   0.595   2.722   2.464
 3859SOL    HW212477   0.510   2.708   2.324
 3860SOL     OW12478   2.194   6.596   5.323
 3860SOL    HW112479   2.223   6.683   5.363
 3860SOL    HW212480   2.123   6.613   5.254
 3861SOL     OW12481   4.224   4.390   0.903
 3861SOL    HW112482   4.143   4.377   0.960
 3861SOL    HW212483   4.262   4.481   0.920
 3862SOL     OW12484   1.355   6.151   6.254
 3862SOL    HW112485   1.409   6.089   6.197
 3862SOL    HW212486   1.265   6.110   6.272
 3863SOL     OW12487   3.349   3.224   1.461
 3863SOL    HW112488   3.259   3.243   1.502
 3863SOL    HW212489   3.393   3.150   1.511
 3864SOL     OW12490   3.472   2.321   0.140
 3864SOL    HW112491   3.464   2.297   0.043
 3864SOL    HW212492   3.539   2.394   0.151
 3865SOL     OW12493   4.858   0.289   2.545
 3865SOL    HW112494   4.805   0.312   2.627
 3865SOL    HW212495   4.850   0.191   2.528
 3866SOL     OW12496   4.187   6.565   6.692
 3866SOL    HW112497   4.135   6.649   6.678
 3866SOL    HW212498   4.271   6.568   6.637
 3867SOL     OW12499   1.681   3.137   3.656
 3867SOL    HW112500   1.582   3.138   3.641
 3867SOL    HW212501   1.700   3.136   3.754
 3868SOL     OW12502   1.854   5.832   2.537
 3868SOL    HW112503   1.765   5.802   2.569
 3868SOL    HW212504   1.909   5.863   2.616
 3869SOL     OW12505   1.041   2.689   3.624
 3869SOL    HW112506   1.134   2.668   3.592
 3869SOL    HW212507   0.977   2.679   3.548
 3870SOL     OW12508   3.109   4.939   0.413
 3870SOL    HW112509   3.020   4.957   0.456
 3870SOL    HW212510   3.121   4.999   0.334
 3871SOL     OW12511   2.622   0.798   3.728
 3871SOL    HW112512   2.654   0.842   3.812
 3871SOL    HW212513   2.605   0.868   3.658
 3872SOL     OW12514   4.082   3.341   0.289
 3872SOL    HW112515   4.127   3.296   0.212
 3872SOL    HW212516   4.150   3.384   0.347
 3873SOL     OW12517   5.267   5.202   2.085
 3873SOL    HW112518   5.271   5.151   1.999
 3873SOL    HW212519   5.203   5.278   2.075
 3874SOL     OW12520   4.310   6.681   6.030
 3874SOL    HW112521   4.269   6.724   5.949
 3874SOL    HW212522   4.268   6.592   6.046
 3875SOL     OW12523   2.091   4.494   0.391
 3875SOL    HW112524   2.161   4.538   0.448
 3875SOL    HW212525   2.106   4.395   0.391
 3876SOL     OW12526   4.853   4.087   2.530
 3876SOL    HW112527   4.912   4.046   2.460
 3876SOL    HW212528   4.779   4.138   2.485
 3877SOL     OW12529   5.383   1.401   2.180
 3877SOL    HW112530   5.420   1.386   2.088
 3877SOL    HW212531   5.452   1.444   2.238
 3878SOL     OW12532   3.295   6.014   5.284
 3878SOL    HW112533   3.301   5.988   5.188
 3878SOL    HW212534   3.349   5.951   5.340
 3879SOL     OW12535   3.834   6.331   1.133
 3879SOL    HW112536   3.797   6.247   1.172
 3879SOL    HW212537   3.822   6.329   1.034
 3880SOL     OW12538   5.463   3.087   3.993
 3880SOL    HW112539   5.419   3.023   4.055
 3880SOL    HW212540   5.500   3.038   3.915
 3881SOL     OW12541   1.093   4.673   0.847
 3881SOL    HW112542   1.183   4.660   0.806
 3881SOL    HW212543   1.056   4.762   0.821
 3882SOL     OW12544   0.200   0.132   6.446
 3882SOL    HW112545   0.157   0.047   6.416
 3882SOL    HW212546   0.274   0.156   6.384
 3883SOL     OW12547   3.071   0.850   5.944
 3883SOL    HW112548   3.000   0.795   5.900
 3883SOL    HW212549   3.084   0.820   6.038
 3884SOL     OW12550   1.860   4.731   5.867
 3884SOL    HW112551   1.774   4.705   5.824
 3884SOL    HW212552   1.911   4.649   5.894
 3885SOL     OW12553   0.540   1.381   4.464
 3885SOL    HW112554   0.482   1.329   4.401
 3885SOL    HW212555   0.548   1.475   4.433
 3886SOL     OW12556   6.851   6.006   5.079
 3886SOL    HW112557   6.858   6.089   5.134
 3886SOL    HW212558   6.883   5.927   5.132
 3887SOL     OW12559   4.987   2.588   5.266
 3887SOL    HW112560   5.066   2.530   5.248
 3887SOL    HW212561   5.009   2.653   5.339
 3888SOL     OW12562   5.741   2.060   1.441
 3888SOL    HW112563   5.729   2.071   1.539
 3888SOL    HW212564   5.753   2.150   1.398
 3889SOL     OW12565   0.146   5.744   6.865
 3889SOL    HW112566   0.119   5.667   6.923
 3889SOL    HW212567   0.063   5.791   6.832
 3890SOL     OW12568   5.901   3.736   1.538
 3890SOL    HW112569   5.848   3.781   1.610
 3890SOL    HW212570   5.911   3.639   1.559
 3891SOL     OW12571   5.852   4.855   5.760
 3891SOL    HW112572   5.763   4.855   5.714
 3891SOL    HW212573   5.840   4.832   5.856
 3892SOL     OW12574   5.322   6.616   4.026
 3892SOL    HW112575   5.365   6.688   4.080
 3892SOL    HW212576   5.284   6.655   3.943
 3893SOL     OW12577   3.029   5.948   3.955
 3893SOL    HW112578   3.050   6.045   3.967
 3893SOL    HW212579   3.072   5.916   3.871
 3894SOL     OW12580   5.120   4.837   0.024
 3894SOL    HW112581   5.074   4.926   0.020
 3894SOL    HW212582   5.054   4.765   0.003
 3895SOL     OW12583   1.829   1.920   5.862
 3895SOL    HW112584   1.925   1.938   5.842
 3895SOL    HW212585   1.772   1.972   5.798
 3896SOL     OW12586   6.768   2.311   5.831
 3896SOL    HW112587   6.824   2.394   5.840
 3896SOL    HW212588   6.713   2.317   5.748
 3897SOL     OW12589   3.663   6.287   2.422
 3897SOL    HW112590   3.692   6.231   2.345
 3897SOL    HW212591   3.739   6.298   2.486
 3898SOL     OW12592   3.618   4.203   4.736
 3898SOL    HW112593   3.707   4.159   4.748
 3898SOL    HW212594   3.593   4.203   4.639
 3899SOL     OW12595   5.195   1.583   5.097
 3899SOL    HW112596   5.280   1.630   5.072
 3899SOL    HW212597   5.141   1.565   5.014
 3900SOL     OW12598   6.890   2.313   3.951
 3900SOL    HW112599   6.891   2.261   3.866
 3900SOL    HW212600   6.825   2.273   4.015
 3901SOL     OW12601   2.518   5.700   5.037
 3901SOL    HW112602   2.467   5.729   4.956
 3901SOL    HW212603   2.611   5.675   5.010
 3902SOL     OW12604   3.966   4.853   1.649
 3902SOL    HW112605   3.890   4.900   1.695
 3902SOL    HW212606   3.959   4.755   1.665
 3903SOL     OW12607   3.943   2.729   6.262
 3903SOL    HW112608   4.025   2.780   6.285
 3903SOL    HW212609   3.947   2.638   6.302
 3904SOL     OW12610   2.242   6.306   0.572
 3904SOL    HW112611   2.184   6.371   0.524
 3904SOL    HW212612   2.329   6.295   0.524
 3905SOL     OW12613   0.320   0.310   5.380
 3905SOL    HW112614   0.232   0.335   5.339
 3905SOL    HW212615   0.339   0.372   5.457
 3906SOL     OW12616   0.708   5.618   4.986
 3906SOL    HW112617   0.790   5.675   4.992
 3906SOL    HW212618   0.662   5.616   5.075
 3907SOL     OW12619   1.186   1.300   4.823
 3907SOL    HW112620   1.183   1.200   4.824
 3907SOL    HW212621   1.098   1.336   4.794
 3908SOL     OW12622   2.260   0.789   4.233
 3908SOL    HW112623   2.300   0.861   4.176
 3908SOL    HW212624   2.301   0.701   4.209
 3909SOL     OW12625   5.542   2.348   1.563
 3909SOL    HW112626   5.526   2.373   1.467
 3909SOL    HW212627   5.637   2.318   1.574
 3910SOL     OW12628   3.291   2.848   1.317
 3910SOL    HW112629   3.342   2.918   1.267
 3910SOL    HW212630   3.350   2.809   1.387
 3911SOL     OW12631   6.455   0.921   1.345
 3911SOL    HW112632   6.535   0.950   1.293
 3911SOL    HW212633   6.398   0.861   1.289
 3912SOL     OW12634   4.196   3.223   0.050
 3912SOL    HW112635   4.281   3.235   7.021
 3912SOL    HW212636   4.157   3.133   0.029
 3913SOL     OW12637   4.297   5.779   1.131
 3913SOL    HW112638   4.366   5.827   1.185
 3913SOL    HW212639   4.222   5.842   1.109
 3914SOL     OW12640   6.392   1.356   6.954
 3914SOL    HW112641   6.312   1.413   6.972
 3914SOL    HW212642   6.459   1.367   0.005
 3915SOL     OW12643   4.899   5.907   5.307
 3915SOL    HW112644   4.870   5.826   5.359
 3915SOL    HW212645   4.885   5.988   5.363
 3916SOL     OW12646   2.256   1.901   2.647
 3916SOL    HW112647   2.261   1.847   2.730
 3916SOL    HW212648   2.171   1.880   2.598
 3917SOL     OW12649   3.479   4.698   1.120
 3917SOL    HW112650   3.468   4.672   1.216
 3917SOL    HW212651   3.482   4.797   1.112
 3918SOL     OW12652   4.703   0.737   6.665
 3918SOL    HW112653   4.607   0.766   6.667
 3918SOL    HW212654   4.726   0.690   6.750
 3919SOL     OW12655   4.650   6.168   2.318
 3919SOL    HW112656   4.561   6.197   2.281
 3919SOL    HW212657   4.642   6.074   2.351
 3920SOL     OW12658   3.622   1.626   5.402
 3920SOL    HW112659   3.668   1.696   5.456
 3920SOL    HW212660   3.568   1.567   5.463
 3921SOL     OW12661   0.073   2.919   6.763
 3921SOL    HW112662   0.048   2.982   6.837
 3921SOL    HW212663   7.015   2.901   6.706
 3922SOL     OW12664   4.749   4.097   3.163
 3922SOL    HW112665   4.665   4.050   3.136
 3922SOL    HW212666   4.736   4.196   3.153
 3923SOL     OW12667   5.207   1.624   2.035
 3923SOL    HW112668   5.296   1.582   2.055
 3923SOL    HW212669   5.151   1.623   2.118
 3924SOL     OW12670   5.822   5.455   3.800
 3924SOL    HW112671   5.918   5.451   3.829
 3924SOL    HW212672   5.818   5.471   3.701
 3925SOL     OW12673   5.283   5.080   1.030
 3925SOL    HW112674   5.282   5.024   0.947
 3925SOL    HW212675   5.209   5.052   1.090
 3926SOL     OW12676   0.895   5.455   4.827
 3926SOL    HW112677   0.812   5.440   4.880
 3926SOL    HW212678   0.975   5.436   4.884
 3927SOL     OW12679   5.659   1.827   6.039
 3927SOL    HW112680   5.668   1.766   5.959
 3927SOL    HW212681   5.574   1.808   6.086
 3928SOL     OW12682   3.392   5.784   1.767
 3928SOL    HW112683   3.465   5.851   1.759
 3928SOL    HW212684   3.386   5.752   1.862
 3929SOL     OW12685   0.821   2.043   5.573
 3929SOL    HW112686   0.831   2.024   5.476
 3929SOL    HW212687   0.735   2.090   5.590
 3930SOL     OW12688   2.409   4.543   3.987
 3930SOL    HW112689   2.358   4.610   3.933
 3930SOL    HW212690   2.350   4.504   4.057
 3931SOL     OW12691   2.116   2.430   0.676
 3931SOL    HW112692   2.200   2.396   0.718
 3931SOL    HW212693   2.063   2.353   0.639
 3932SOL     OW12694   2.408   4.453   3.736
 3932SOL    HW112695   2.421   4.464   3.835
 3932SOL    HW212696   2.493   4.474   3.688
 3933SOL     OW12697   1.502   6.355   1.292
 3933SOL    HW112698   1.486   6.314   1.381
 3933SOL    HW212699   1.466   6.448   1.291
 3934SOL     OW12700   1.233   6.931   1.528
 3934SOL    HW112701   1.331   6.911   1.518
 3934SOL    HW212702   1.220   7.008   1.590
 3935SOL     OW12703   6.777   3.988   5.265
 3935SOL    HW112704   6.705   4.013   5.330
 3935SOL    HW212705   6.849   3.937   5.312
 3936SOL     OW12706   6.529   4.152   5.494
 3936SOL    HW112707   6.531   4.058   5.460
 3936SOL    HW212708   6.471   4.208   5.434
 3937SOL     OW12709   0.833   6.344   1.634
 3937SOL    HW112710   0.769   6.420   1.624
 3937SOL    HW212711   0.825   6.283   1.555
 3938SOL     OW12712   0.923   3.437   1.654
 3938SOL    HW112713   0.963   3.497   1.585
 3938SOL    HW212714   0.937   3.342   1.628
 3939SOL     OW12715   0.486   0.935   2.675
 3939SOL    HW112716   0.412   0.985   2.630
 3939SOL    HW212717   0.562   0.997   2.694
 3940SOL     OW12718   2.903   6.471   0.363
 3940SOL    HW112719   2.994   6.431   0.361
 3940SOL    HW212720   2.852   6.435   0.441
 3941SOL     OW12721   5.204   5.630   2.047
 3941SOL    HW112722   5.247   5.705   1.997
 3941SOL    HW212723   5.108   5.652   2.064
 3942SOL     OW12724   6.735   6.145   5.803
 3942SOL    HW112725   6.737   6.183   5.895
 3942SOL    HW212726   6.780   6.207   5.740
 3943SOL     OW12727   2.445   2.789   0.494
 3943SOL    HW112728   2.350   2.759   0.504
 3943SOL    HW212729   2.461   2.817   0.399
 3944SOL     OW12730   4.880   2.843   6.954
 3944SOL    HW112731   4.921   2.799   0.012
 3944SOL    HW212732   4.925   2.810   6.871
 3945SOL     OW12733   5.588   0.172   3.875
 3945SOL    HW112734   5.517   0.184   3.945
 3945SOL    HW212735   5.674   0.211   3.909
 3946SOL     OW12736   0.058   3.852   0.773
 3946SOL    HW112737   0.114   3.934   0.787
 3946SOL    HW212738   0.005   3.860   0.689
 3947SOL     OW12739   6.103   5.673   2.248
 3947SOL    HW112740   6.075   5.727   2.327
 3947SOL    HW212741   6.047   5.591   2.242
 3948SOL     OW12742   1.670   2.666   6.048
 3948SOL    HW112743   1.640   2.706   5.961
 3948SOL    HW212744   1.640   2.570   6.052
 3949SOL     OW12745   6.003   6.994   2.590
 3949SOL    HW112746   6.055   6.919   2.629
 3949SOL    HW212747   5.913   6.999   2.634
 3950SOL     OW12748   2.765   4.653   1.635
 3950SOL    HW112749   2.794   4.603   1.717
 3950SOL    HW212750   2.696   4.600   1.587
 3951SOL     OW12751   0.584   2.693   4.615
 3951SOL    HW112752   0.537   2.736   4.538
 3951SOL    HW212753   0.536   2.714   4.700
 3952SOL     OW12754   5.363   4.053   0.466
 3952SOL    HW112755   5.446   4.034   0.414
 3952SOL    HW212756   5.354   4.152   0.481
 3953SOL     OW12757   3.345   3.210   6.834
 3953SOL    HW112758   3.257   3.213   6.785
 3953SOL    HW212759   3.409   3.272   6.789
 3954SOL     OW12760   0.870   3.039   5.330
 3954SOL    HW112761   0.902   2.945   5.339
 3954SOL    HW212762   0.808   3.060   5.405
 3955SOL     OW12763   6.757   3.548   0.611
 3955SOL    HW112764   6.693   3.602   0.666
 3955SOL    HW212765   6.705   3.481   0.557
 3956SOL     OW12766   6.909   2.529   5.906
 3956SOL    HW112767   6.956   2.597   5.848
 3956SOL    HW212768   6.973   2.495   5.975
 3957SOL     OW12769   0.797   1.595   3.110
 3957SOL    HW112770   0.827   1.595   3.014
 3957SOL    HW212771   0.743   1.513   3.128
 3958SOL     OW12772   5.343   6.216   0.073
 3958SOL    HW112773   5.401   6.160   0.013
 3958SOL    HW212774   5.352   6.184   0.167
 3959SOL     OW12775   2.186   6.223   1.167
 3959SOL    HW112776   2.156   6.177   1.251
 3959SOL    HW212777   2.265   6.174   1.130
 3960SOL     OW12778   5.120   3.267   1.704
 3960SOL    HW112779   5.143   3.337   1.770
 3960SOL    HW212780   5.022   3.272   1.682
 3961SOL     OW12781   5.806   0.609   0.801
 3961SOL    HW112782   5.819   0.678   0.872
 3961SOL    HW212783   5.712   0.611   0.769
 3962SOL     OW12784   0.873   6.639   5.576
 3962SOL    HW112785   0.872   6.555   5.522
 3962SOL    HW212786   0.939   6.631   5.650
 3963SOL     OW12787   4.735   4.902   2.418
 3963SOL    HW112788   4.811   4.902   2.484
 3963SOL    HW212789   4.754   4.836   2.346
 3964SOL     OW12790   6.123   6.287   6.490
 3964SOL    HW112791   6.142   6.377   6.451
 3964SOL    HW212792   6.150   6.216   6.425
 3965SOL     OW12793   4.000   2.718   0.896
 3965SOL    HW112794   4.084   2.732   0.844
 3965SOL    HW212795   3.995   2.784   0.971
 3966SOL     OW12796   6.193   3.822   5.378
 3966SOL    HW112797   6.242   3.841   5.292
 3966SOL    HW212798   6.106   3.777   5.358
 3967SOL     OW12799   1.620   0.226   6.607
 3967SOL    HW112800   1.611   0.319   6.641
 3967SOL    HW212801   1.598   0.161   6.679
 3968SOL     OW12802   5.439   0.695   1.537
 3968SOL    HW112803   5.471   0.767   1.600
 3968SOL    HW212804   5.340   0.685   1.545
 3969SOL     OW12805   1.079   6.405   1.541
 3969SOL    HW112806   1.122   6.481   1.589
 3969SOL    HW212807   0.981   6.404   1.562
 3970SOL     OW12808   4.674   4.243   4.149
 3970SOL    HW112809   4.579   4.273   4.163
 3970SOL    HW212810   4.700   4.180   4.222
 3971SOL     OW12811   1.100   6.016   3.460
 3971SOL    HW112812   1.108   6.107   3.501
 3971SOL    HW212813   1.153   6.012   3.375
 3972SOL     OW12814   0.929   0.491   6.711
 3972SOL    HW112815   0.886   0.462   6.796
 3972SOL    HW212816   0.990   0.568   6.728
 3973SOL     OW12817   3.330   2.954   3.541
 3973SOL    HW112818   3.265   3.017   3.498
 3973SOL    HW212819   3.313   2.950   3.640
 3974SOL     OW12820   5.631   0.266   6.299
 3974SOL    HW112821   5.627   0.169   6.324
 3974SOL    HW212822   5.548   0.312   6.328
 3975SOL     OW12823   6.793   6.421   5.519
 3975SOL    HW112824   6.839   6.393   5.603
 3975SOL    HW212825   6.810   6.517   5.502
 3976SOL     OW12826   1.115   3.219   6.822
 3976SOL    HW112827   1.194   3.255   6.871
 3976SOL    HW212828   1.132   3.123   6.800
 3977SOL     OW12829   3.599   5.215   6.008
 3977SOL    HW112830   3.538   5.208   5.929
 3977SOL    HW212831   3.624   5.311   6.022
 3978SOL     OW12832   6.183   3.905   6.571
 3978SOL    HW112833   6.237   3.830   6.609
 3978SOL    HW212834   6.209   3.991   6.615
 3979SOL     OW12835   1.193   6.688   3.100
 3979SOL    HW112836   1.100   6.652   3.094
 3979SOL    HW212837   1.203   6.765   3.036
 3980SOL     OW12838   4.890   3.591   4.705
 3980SOL    HW112839   4.873   3.514   4.643
 3980SOL    HW212840   4.838   3.579   4.789
 3981SOL     OW12841   6.474   2.082   5.503
 3981SOL    HW112842   6.402   2.040   5.447
 3981SOL    HW212843   6.436   2.110   5.591
 3982SOL     OW12844   2.344   2.727   3.931
 3982SOL    HW112845   2.254   2.686   3.942
 3982SOL    HW212846   2.400   2.707   4.011
 3983SOL     OW12847   3.677   0.215   3.557
 3983SOL    HW112848   3.588   0.192   3.516
 3983SOL    HW212849   3.677   0.312   3.582
 3984SOL     OW12850   1.822   0.260   1.487
 3984SOL    HW112851   1.849   0.267   1.391
 3984SOL    HW212852   1.879   0.322   1.542
 3985SOL     OW12853   2.053   3.197   1.592
 3985SOL    HW112854   2.114   3.206   1.671
 3985SOL    HW212855   2.067   3.275   1.531
 3986SOL     OW12856   1.607   2.403   2.213
 3986SOL    HW112857   1.535   2.456   2.257
 3986SOL    HW212858   1.694   2.420   2.260
 3987SOL     OW12859   1.653   4.195   5.700
 3987SOL    HW112860   1.604   4.136   5.765
 3987SOL    HW212861   1.723   4.141   5.653
 3988SOL     OW12862   4.645   1.205   6.783
 3988SOL    HW112863   4.615   1.278   6.844
 3988SOL    HW212864   4.564   1.155   6.750
 3989SOL     OW12865   4.325   0.279   6.121
 3989SOL    HW112866   4.371   0.307   6.206
 3989SOL    HW212867   4.304   0.181   6.126
 3990SOL     OW12868   1.512   2.757   4.043
 3990SOL    HW112869   1.509   2.847   4.087
 3990SOL    HW212870   1.595   2.750   3.989
 3991SOL     OW12871   0.665   1.034   3.979
 3991SOL    HW112872   0.631   1.117   4.024
 3991SOL    HW212873   0.640   0.954   4.033
 3992SOL     OW12874   5.713   3.822   6.599
 3992SOL    HW112875   5.792   3.796   6.655
 3992SOL    HW212876   5.668   3.902   6.639
 3993SOL     OW12877   1.443   0.591   3.999
 3993SOL    HW112878   1.491   0.664   4.047
 3993SOL    HW212879   1.384   0.631   3.928
 3994SOL     OW12880   2.565   2.052   3.269
 3994SOL    HW112881   2.567   1.975   3.205
 3994SOL    HW212882   2.475   2.095   3.268
 3995SOL     OW12883   1.242   3.444   2.472
 3995SOL    HW112884   1.283   3.355   2.451
 3995SOL    HW212885   1.160   3.431   2.527
 3996SOL     OW12886   5.903   6.566   3.991
 3996SOL    HW112887   5.833   6.631   4.018
 3996SOL    HW212888   5.984   6.615   3.958
 3997SOL     OW12889   4.893   3.588   2.632
 3997SOL    HW112890   4.852   3.602   2.541
 3997SOL    HW212891   4.871   3.666   2.690
 3998SOL     OW12892   5.672   2.436   3.121
 3998SOL    HW112893   5.657   2.470   3.028
 3998SOL    HW212894   5.626   2.348   3.133
 3999SOL     OW12895   4.884   2.597   1.429
 3999SOL    HW112896   4.795   2.644   1.436
 3999SOL    HW212897   4.920   2.581   1.521
 4000SOL     OW12898   3.052   5.131   2.125
 4000SOL    HW112899   3.028   5.147   2.029
 4000SOL    HW212900   3.069   5.034   2.140
 4001SOL     OW12901   1.208   4.877   4.362
 4001SOL    HW112902   1.202   4.778   4.357
 4001SOL    HW212903   1.116   4.916   4.367
 4002SOL     OW12904   3.760   4.062   3.391
 4002SOL    HW112905   3.852   4.024   3.406
 4002SOL    HW212906   3.721   4.088   3.479
 4003SOL     OW12907   1.764   1.017   5.391
 4003SOL    HW112908   1.819   1.016   5.475
 4003SOL    HW212909   1.669   1.038   5.414
 4004SOL     OW12910   0.847   4.001   3.504
 4004SOL    HW112911   0.837   4.077   3.568
 4004SOL    HW212912   0.765   3.943   3.507
 4005SOL     OW12913   4.718   3.141   0.082
 4005SOL    HW112914   4.772   3.220   0.110
 4005SOL    HW212915   4.679   3.096   0.162
 4006SOL     OW12916   5.343   5.462   2.774
 4006SOL    HW112917   5.443   5.464   2.780
 4006SOL    HW212918   5.311   5.370   2.797
 4007SOL     OW12919   6.888   0.787   2.823
 4007SOL    HW112920   6.913   0.883   2.840
 4007SOL    HW212921   6.818   0.784   2.752
 4008SOL     OW12922   3.627   1.093   0.617
 4008SOL    HW112923   3.565   1.102   0.695
 4008SOL    HW212924   3.718   1.066   0.650
 4009SOL     OW12925   4.843   1.907   0.692
 4009SOL    HW112926   4.794   1.829   0.653
 4009SOL    HW212927   4.907   1.874   0.762
 4010SOL     OW12928   2.969   5.239   1.837
 4010SOL    HW112929   2.926   5.277   1.755
 4010SOL    HW212930   2.950   5.141   1.842
 4011SOL     OW12931   5.212   6.101   6.638
 4011SOL    HW112932   5.199   6.120   6.735
 4011SOL    HW212933   5.141   6.148   6.585
 4012SOL     OW12934   4.648   6.673   2.871
 4012SOL    HW112935   4.584   6.634   2.805
 4012SOL    HW212936   4.725   6.714   2.822
 4013SOL     OW12937   0.199   1.085   5.968
 4013SOL    HW112938   0.223   1.005   6.022
 4013SOL    HW212939   0.114   1.125   6.002
 4014SOL     OW12940   3.227   5.008   2.677
 4014SOL    HW112941   3.159   4.939   2.700
 4014SOL    HW212942   3.261   4.993   2.585
 4015SOL     OW12943   4.301   4.940   5.990
 4015SOL    HW112944   4.397   4.945   5.963
 4015SOL    HW212945   4.270   4.845   5.989
 4016SOL     OW12946   4.088   5.011   5.194
 4016SOL    HW112947   4.035   4.948   5.138
 4016SOL    HW212948   4.112   4.968   5.281
 4017SOL     OW12949   0.728   4.572   5.639
 4017SOL    HW112950   0.693   4.648   5.693
 4017SOL    HW212951   0.714   4.486   5.688
 4018SOL     OW12952   4.538   6.063   1.603
 4018SOL    HW112953   4.497   6.148   1.569
 4018SOL    HW212954   4.493   5.984   1.562
 4019SOL     OW12955   5.158   3.627   2.962
 4019SOL    HW112956   5.211   3.700   2.919
 4019SOL    HW212957   5.146   3.647   3.059
 4020SOL     OW12958   6.868   5.566   4.455
 4020SOL    HW112959   6.945   5.506   4.432
 4020SOL    HW212960   6.850   5.629   4.379
 4021SOL     OW12961   4.383   3.402   6.572
 4021SOL    HW112962   4.405   3.346   6.492
 4021SOL    HW212963   4.437   3.486   6.568
 4022SOL     OW12964   2.266   0.363   1.577
 4022SOL    HW112965   2.359   0.327   1.576
 4022SOL    HW212966   2.225   0.349   1.667
 4023SOL     OW12967   0.624   1.230   5.044
 4023SOL    HW112968   0.659   1.313   5.001
 4023SOL    HW212969   0.571   1.254   5.125
 4024SOL     OW12970   0.630   6.110   4.473
 4024SOL    HW112971   0.532   6.096   4.487
 4024SOL    HW212972   0.665   6.041   4.410
 4025SOL     OW12973   0.146   5.437   3.832
 4025SOL    HW112974   0.188   5.399   3.914
 4025SOL    HW212975   0.217   5.469   3.769
 4026SOL     OW12976   6.812   0.136   3.782
 4026SOL    HW112977   6.776   0.160   3.873
 4026SOL    HW212978   6.814   0.037   3.773
 4027SOL     OW12979   2.757   3.897   6.225
 4027SOL    HW112980   2.751   3.997   6.232
 4027SOL    HW212981   2.756   3.870   6.129
 4028SOL     OW12982   4.390   1.804   3.389
 4028SOL    HW112983   4.425   1.726   3.441
 4028SOL    HW212984   4.467   1.853   3.348
 4029SOL     OW12985   1.995   5.787   6.929
 4029SOL    HW112986   1.909   5.838   6.923
 4029SOL    HW212987   2.071   5.851   6.940
 4030SOL     OW12988   6.905   1.318   2.781
 4030SOL    HW112989   6.865   1.409   2.776
 4030SOL    HW212990   6.869   1.270   2.861
 4031SOL     OW12991   6.039   6.367   0.810
 4031SOL    HW112992   6.110   6.420   0.856
 4031SOL    HW212993   6.002   6.298   0.872
 4032SOL     OW12994   5.461   0.909   2.074
 4032SOL    HW112995   5.381   0.891   2.130
 4032SOL    HW212996   5.540   0.924   2.133
 4033SOL     OW12997   1.693   2.815   2.879
 4033SOL    HW112998   1.681   2.849   2.973
 4033SOL    HW212999   1.678   2.890   2.815
 4034SOL     OW13000   0.167   3.405   5.283
 4034SOL    HW113001   0.115   3.443   5.360
 4034SOL    HW213002   0.257   3.448   5.280
 4035SOL     OW13003   4.616   1.929   2.281
 4035SOL    HW113004   4.570   1.954   2.195
 4035SOL    HW213005   4.612   2.006   2.344
 4036SOL     OW13006   2.446   5.507   2.674
 4036SOL    HW113007   2.469   5.579   2.739
 4036SOL    HW213008   2.368   5.536   2.619
 4037SOL     OW13009   2.725   1.155   6.354
 4037SOL    HW113010   2.637   1.157   6.306
 4037SOL    HW213011   2.785   1.225   6.316
 4038SOL     OW13012   3.661   3.325   5.828
 4038SOL    HW113013   3.578   3.291   5.783
 4038SOL    HW213014   3.692   3.258   5.895
 4039SOL     OW13015   6.238   4.876   1.480
 4039SOL    HW113016   6.315   4.900   1.420
 4039SOL    HW213017   6.187   4.800   1.440
 4040SOL     OW13018   3.094   6.053   4.840
 4040SOL    HW113019   3.165   6.124   4.839
 4040SOL    HW213020   3.105   5.994   4.761
 4041SOL     OW13021   2.396   6.570   0.615
 4041SOL    HW113022   2.487   6.536   0.591
 4041SOL    HW213023   2.375   6.544   0.710
 4042SOL     OW13024   6.311   1.019   3.453
 4042SOL    HW113025   6.379   1.038   3.382
 4042SOL    HW213026   6.353   1.031   3.543
 4043SOL     OW13027   5.448   3.353   0.154
 4043SOL    HW113028   5.378   3.298   0.110
 4043SOL    HW213029   5.505   3.295   0.212
 4044SOL     OW13030   4.595   5.555   2.779
 4044SOL    HW113031   4.628   5.495   2.853
 4044SOL    HW213032   4.499   5.535   2.760
 4045SOL     OW13033   4.770   0.456   5.587
 4045SOL    HW113034   4.797   0.362   5.605
 4045SOL    HW213035   4.838   0.518   5.626
 4046SOL     OW13036   5.981   2.118   2.749
 4046SOL    HW113037   5.971   2.217   2.753
 4046SOL    HW213038   6.057   2.094   2.688
 4047SOL     OW13039   2.677   3.290   7.008
 4047SOL    HW113040   2.612   3.218   0.012
 4047SOL    HW213041   2.694   3.349   0.066
 4048SOL     OW13042   4.546   1.701   2.472
 4048SOL    HW113043   4.538   1.777   2.408
 4048SOL    HW213044   4.494   1.623   2.438
 4049SOL     OW13045   3.896   4.175   6.551
 4049SOL    HW113046   3.800   4.185   6.578
 4049SOL    HW213047   3.953   4.166   6.633
 4050SOL     OW13048   0.634   5.650   2.558
 4050SOL    HW113049   0.691   5.582   2.604
 4050SOL    HW213050   0.665   5.742   2.583
 4051SOL     OW13051   5.484   1.046   5.243
 4051SOL    HW113052   5.581   1.070   5.250
 4051SOL    HW213053   5.443   1.096   5.167
 4052SOL     OW13054   6.229   2.230   3.725
 4052SOL    HW113055   6.168   2.203   3.651
 4052SOL    HW213056   6.280   2.151   3.758
 4053SOL     OW13057   1.094   5.309   4.330
 4053SOL    HW113058   1.039   5.371   4.386
 4053SOL    HW213059   1.054   5.301   4.239
 4054SOL     OW13060   4.263   3.783   0.612
 4054SOL    HW113061   4.273   3.825   0.521
 4054SOL    HW213062   4.286   3.850   0.682
 4055SOL     OW13063   0.506   4.574   1.198
 4055SOL    HW113064   0.451   4.620   1.128
 4055SOL    HW213065   0.449   4.556   1.279
 4056SOL     OW13066   5.391   3.394   1.068
 4056SOL    HW113067   5.361   3.479   1.025
 4056SOL    HW213068   5.313   3.332   1.078
 4057SOL     OW13069   6.756   3.052   0.095
 4057SOL    HW113070   6.757   3.136   0.150
 4057SOL    HW213071   6.843   3.044   0.046
 4058SOL     OW13072   2.758   6.283   5.515
 4058SOL    HW113073   2.820   6.311   5.589
 4058SOL    HW213074   2.686   6.224   5.552
 4059SOL     OW13075   0.927   1.674   4.215
 4059SOL    HW113076   1.007   1.732   4.202
 4059SOL    HW213077   0.848   1.730   4.240
 4060SOL     OW13078   6.300   5.884   5.697
 4060SOL    HW113079   6.249   5.913   5.778
 4060SOL    HW213080   6.366   5.955   5.672
 4061SOL     OW13081   2.088   5.870   1.123
 4061SOL    HW113082   2.169   5.929   1.129
 4061SOL    HW213083   2.055   5.869   1.029
 4062SOL     OW13084   1.492   2.218   1.497
 4062SOL    HW113085   1.567   2.156   1.520
 4062SOL    HW213086   1.463   2.267   1.579
 4063SOL     OW13087   4.826   1.033   0.023
 4063SOL    HW113088   4.789   1.105   6.985
 4063SOL    HW213089   4.868   1.075   0.103
 4064SOL     OW13090   2.048   2.152   5.367
 4064SOL    HW113091   2.086   2.231   5.319
 4064SOL    HW213092   2.022   2.082   5.300
 4065SOL     OW13093   2.403   6.710   0.951
 4065SOL    HW113094   2.333   6.643   0.927
 4065SOL    HW213095   2.389   6.793   0.898
 4066SOL     OW13096   0.169   4.321   3.663
 4066SOL    HW113097   0.177   4.350   3.759
 4066SOL    HW213098   0.171   4.221   3.659
 4067SOL     OW13099   4.709   4.953   1.465
 4067SOL    HW113100   4.644   4.915   1.531
 4067SOL    HW213101   4.659   5.000   1.392
 4068SOL     OW13102   1.849   2.647   5.279
 4068SOL    HW113103   1.880   2.552   5.282
 4068SOL    HW213104   1.838   2.682   5.372
 4069SOL     OW13105   4.194   0.069   6.746
 4069SOL    HW113106   4.189   0.002   6.671
 4069SOL    HW213107   4.167   0.159   6.711
 4070SOL     OW13108   1.759   3.361   3.500
 4070SOL    HW113109   1.725   3.453   3.522
 4070SOL    HW213110   1.737   3.298   3.574
 4071SOL     OW13111   0.784   0.639   3.899
 4071SOL    HW113112   0.710   0.688   3.853
 4071SOL    HW213113   0.756   0.616   3.993
 4072SOL     OW13114   2.074   5.609   3.357
 4072SOL    HW113115   2.167   5.572   3.368
 4072SOL    HW213116   2.027   5.558   3.285
 4073SOL     OW13117   2.961   4.843   0.013
 4073SOL    HW113118   2.984   4.932   0.052
 4073SOL    HW213119   2.946   4.853   6.936
 4074SOL     OW13120   1.205   6.211   2.913
 4074SOL    HW113121   1.304   6.205   2.928
 4074SOL    HW213122   1.167   6.119   2.904
 4075SOL     OW13123   6.084   0.733   0.518
 4075SOL    HW113124   5.985   0.729   0.533
 4075SOL    HW213125   6.119   0.641   0.503
 4076SOL     OW13126   2.960   3.693   5.205
 4076SOL    HW113127   2.932   3.752   5.129
 4076SOL    HW213128   2.951   3.742   5.291
 4077SOL     OW13129   3.083   1.410   1.795
 4077SOL    HW113130   3.178   1.419   1.826
 4077SOL    HW213131   3.043   1.501   1.783
 4078SOL     OW13132   2.721   4.694   2.658
 4078SOL    HW113133   2.654   4.620   2.666
 4078SOL    HW213134   2.729   4.722   2.562
 4079SOL     OW13135   1.126   2.315   4.420
 4079SOL    HW113136   1.027   2.329   4.414
 4079SOL    HW213137   1.173   2.403   4.406
 4080SOL     OW13138   6.059   1.485   4.909
 4080SOL    HW113139   5.978   1.541   4.888
 4080SOL    HW213140   6.122   1.538   4.965
 4081SOL     OW13141   1.682   3.628   3.490
 4081SOL    HW113142   1.753   3.688   3.527
 4081SOL    HW213143   1.670   3.648   3.393
 4082SOL     OW13144   0.863   2.825   1.603
 4082SOL    HW113145   0.884   2.754   1.536
 4082SOL    HW213146   0.829   2.783   1.686
 4083SOL     OW13147   5.722   2.527   5.088
 4083SOL    HW113148   5.769   2.470   5.020
 4083SOL    HW213149   5.656   2.471   5.138
 4084SOL     OW13150   0.494   1.233   4.066
 4084SOL    HW113151   0.433   1.260   3.991
 4084SOL    HW213152   0.447   1.169   4.126
 4085SOL     OW13153   3.239   6.682   0.380
 4085SOL    HW113154   3.199   6.715   0.465
 4085SOL    HW213155   3.265   6.759   0.323
 4086SOL     OW13156   1.752   4.249   0.956
 4086SOL    HW113157   1.724   4.339   0.989
 4086SOL    HW213158   1.826   4.259   0.889
 4087SOL     OW13159   1.929   1.696   3.045
 4087SOL    HW113160   2.016   1.739   3.069
 4087SOL    HW213161   1.867   1.701   3.123
 4088SOL     OW13162   6.380   1.572   1.302
 4088SOL    HW113163   6.446   1.505   1.268
 4088SOL    HW213164   6.289   1.530   1.306
 4089SOL     OW13165   1.102   0.527   4.311
 4089SOL    HW113166   1.197   0.497   4.325
 4089SOL    HW213167   1.040   0.457   4.346
 4090SOL     OW13168   2.064   4.348   6.215
 4090SOL    HW113169   2.053   4.444   6.240
 4090SOL    HW213170   2.110   4.299   6.288
 4091SOL     OW13171   4.298   5.931   0.625
 4091SOL    HW113172   4.310   5.832   0.613
 4091SOL    HW213173   4.204   5.949   0.654
 4092SOL     OW13174   0.299   2.785   4.742
 4092SOL    HW113175   0.306   2.875   4.699
 4092SOL    HW213176   0.228   2.731   4.695
 4093SOL     OW13177   5.443   0.426   3.823
 4093SOL    HW113178   5.484   0.338   3.847
 4093SOL    HW213179   5.446   0.487   3.902
 4094SOL     OW13180   1.954   4.166   5.302
 4094SOL    HW113181   2.043   4.122   5.294
 4094SOL    HW213182   1.933   4.214   5.217
 4095SOL     OW13183   1.057   3.415   6.214
 4095SOL    HW113184   0.982   3.462   6.260
 4095SOL    HW213185   1.025   3.375   6.128
 4096SOL     OW13186   4.091   4.257   0.196
 4096SOL    HW113187   4.172   4.235   0.250
 4096SOL    HW213188   4.009   4.223   0.243
 4097SOL     OW13189   3.731   3.214   6.061
 4097SOL    HW113190   3.662   3.144   6.042
 4097SOL    HW213191   3.698   3.275   6.133
 4098SOL     OW13192   0.451   1.937   2.999
 4098SOL    HW113193   0.381   1.969   2.935
 4098SOL    HW213194   0.502   2.015   3.034
 4099SOL     OW13195   3.997   5.900   1.754
 4099SOL    HW113196   3.964   5.863   1.667
 4099SOL    HW213197   4.066   5.970   1.735
 4100SOL     OW13198   3.821   5.691   3.805
 4100SOL    HW113199   3.733   5.734   3.828
 4100SOL    HW213200   3.805   5.610   3.750
 4101SOL     OW13201   5.904   1.656   6.438
 4101SOL    HW113202   5.824   1.714   6.424
 4101SOL    HW213203   5.983   1.713   6.464
 4102SOL     OW13204   6.043   1.221   0.363
 4102SOL    HW113205   6.053   1.308   0.412
 4102SOL    HW213206   6.093   1.149   0.410
 4103SOL     OW13207   0.543   0.533   2.164
 4103SOL    HW113208   0.513   0.533   2.068
 4103SOL    HW213209   0.642   0.546   2.167
 4104SOL     OW13210   1.248   4.741   2.741
 4104SOL    HW113211   1.298   4.699   2.665
 4104SOL    HW213212   1.167   4.685   2.761
 4105SOL     OW13213   4.097   4.694   0.334
 4105SOL    HW113214   4.105   4.793   0.343
 4105SOL    HW213215   4.096   4.653   0.425
 4106SOL     OW13216   0.097   3.784   4.490
 4106SOL    HW113217   0.057   3.739   4.410
 4106SOL    HW213218   0.087   3.883   4.480
 4107SOL     OW13219   0.187   0.451   1.243
 4107SOL    HW113220   0.145   0.380   1.299
 4107SOL    HW213221   0.134   0.464   1.159
 4108SOL     OW13222   6.561   3.568   6.165
 4108SOL    HW113223   6.548   3.472   6.191
 4108SOL    HW213224   6.472   3.612   6.151
 4109SOL     OW13225   3.334   6.311   3.737
 4109SOL    HW113226   3.252   6.358   3.768
 4109SOL    HW213227   3.375   6.361   3.661
 4110SOL     OW13228   5.155   3.666   5.921
 4110SOL    HW113229   5.133   3.606   5.844
 4110SOL    HW213230   5.139   3.617   6.007
 4111SOL     OW13231   4.342   2.638   0.100
 4111SOL    HW113232   4.311   2.599   0.187
 4111SOL    HW213233   4.433   2.677   0.112
 4112SOL     OW13234   3.051   1.735   3.742
 4112SOL    HW113235   3.147   1.751   3.763
 4112SOL    HW213236   3.009   1.681   3.814
 4113SOL     OW13237   3.432   4.905   5.054
 4113SOL    HW113238   3.407   4.978   4.990
 4113SOL    HW213239   3.524   4.922   5.089
 4114SOL     OW13240   2.668   1.742   3.237
 4114SOL    HW113241   2.739   1.791   3.288
 4114SOL    HW213242   2.650   1.654   3.280
 4115SOL     OW13243   4.896   4.797   1.764
 4115SOL    HW113244   4.935   4.850   1.688
 4115SOL    HW213245   4.868   4.707   1.731
 4116SOL     OW13246   4.007   1.446   1.393
 4116SOL    HW113247   4.052   1.461   1.305
 4116SOL    HW213248   3.981   1.535   1.432
 4117SOL     OW13249   1.058   5.607   1.576
 4117SOL    HW113250   1.107   5.549   1.640
 4117SOL    HW213251   1.117   5.682   1.546
 4118SOL     OW13252   1.143   6.553   0.634
 4118SOL    HW113253   1.177   6.466   0.597
 4118SOL    HW213254   1.189   6.629   0.589
 4119SOL     OW13255   3.464   0.673   4.362
 4119SOL    HW113256   3.376   0.673   4.409
 4119SOL    HW213257   3.462   0.739   4.287
 4120SOL     OW13258   3.971   0.118   1.122
 4120SOL    HW113259   4.047   0.177   1.150
 4120SOL    HW213260   3.886   0.150   1.163
 4121SOL     OW13261   0.053   2.743   4.182
 4121SOL    HW113262   6.985   2.788   4.179
 4121SOL    HW213263   0.043   2.649   4.150
 4122SOL     OW13264   1.337   5.555   5.901
 4122SOL    HW113265   1.434   5.532   5.892
 4122SOL    HW213266   1.305   5.598   5.817
 4123SOL     OW13267   5.227   3.943   5.981
 4123SOL    HW113268   5.190   3.850   5.988
 4123SOL    HW213269   5.306   3.943   5.920
 4124SOL     OW13270   5.667   6.403   4.200
 4124SOL    HW113271   5.610   6.376   4.123
 4124SOL    HW213272   5.638   6.354   4.282
 4125SOL     OW13273   4.223   1.152   1.027
 4125SOL    HW113274   4.176   1.227   0.980
 4125SOL    HW213275   4.278   1.189   1.102
 4126SOL     OW13276   2.175   3.885   4.843
 4126SOL    HW113277   2.256   3.909   4.896
 4126SOL    HW213278   2.134   3.968   4.804
 4127SOL     OW13279   5.640   3.455   5.125
 4127SOL    HW113280   5.600   3.417   5.041
 4127SOL    HW213281   5.720   3.401   5.150
 4128SOL     OW13282   1.761   3.158   2.401
 4128SOL    HW113283   1.728   3.167   2.307
 4128SOL    HW213284   1.799   3.067   2.415
 4129SOL     OW13285   5.856   2.074   5.828
 4129SOL    HW113286   5.889   2.138   5.758
 4129SOL    HW213287   5.930   2.014   5.858
 4130SOL     OW13288   6.440   4.031   6.832
 4130SOL    HW113289   6.452   4.125   6.800
 4130SOL    HW213290   6.499   4.016   6.912
 4131SOL     OW13291   6.614   4.868   4.236
 4131SOL    HW113292   6.638   4.964   4.223
 4131SOL    HW213293   6.550   4.840   4.165
 4132SOL     OW13294   5.050   2.902   3.406
 4132SOL    HW113295   5.041   2.821   3.464
 4132SOL    HW213296   5.126   2.958   3.440
 4133SOL     OW13297   2.673   1.439   0.927
 4133SOL    HW113298   2.655   1.341   0.928
 4133SOL    HW213299   2.720   1.465   1.011
 4134SOL     OW13300   1.918   1.923   0.063
 4134SOL    HW113301   1.955   1.834   0.037
 4134SOL    HW213302   1.931   1.988   7.009
 4135SOL     OW13303   2.293   1.563   2.403
 4135SOL    HW113304   2.270   1.572   2.500
 4135SOL    HW213305   2.288   1.652   2.359
 4136SOL     OW13306   0.131   2.074   4.341
 4136SOL    HW113307   0.039   2.048   4.370
 4136SOL    HW213308   0.198   2.027   4.399
 4137SOL     OW13309   3.301   3.652   6.606
 4137SOL    HW113310   3.260   3.624   6.519
 4137SOL    HW213311   3.245   3.617   6.682
 4138SOL     OW13312   3.922   4.850   3.451
 4138SOL    HW113313   3.933   4.804   3.539
 4138SOL    HW213314   3.988   4.812   3.386
 4139SOL     OW13315   1.728   1.679   6.216
 4139SOL    HW113316   1.714   1.707   6.120
 4139SOL    HW213317   1.819   1.707   6.246
 4140SOL     OW13318   4.375   1.150   5.097
 4140SOL    HW113319   4.385   1.189   5.005
 4140SOL    HW213320   4.311   1.206   5.150
 4141SOL     OW13321   5.512   5.552   0.600
 4141SOL    HW113322   5.447   5.490   0.556
 4141SOL    HW213323   5.527   5.521   0.694
 4142SOL     OW13324   0.014   4.098   1.371
 4142SOL    HW113325   0.092   4.142   1.415
 4142SOL    HW213326   7.009   4.017   1.424
 4143SOL     OW13327   6.731   2.818   0.751
 4143SOL    HW113328   6.746   2.912   0.780
 4143SOL    HW213329   6.817   2.779   0.719
 4144SOL     OW13330   5.132   1.261   2.538
 4144SOL    HW113331   5.161   1.345   2.585
 4144SOL    HW213332   5.035   1.245   2.557
 4145SOL     OW13333   1.902   0.186   1.237
 4145SOL    HW113334   1.890   0.100   1.187
 4145SOL    HW213335   1.888   0.263   1.174
 4146SOL     OW13336   5.149   6.974   6.812
 4146SOL    HW113337   5.096   0.020   6.864
 4146SOL    HW213338   5.166   6.894   6.869
 4147SOL     OW13339   3.180   1.800   5.615
 4147SOL    HW113340   3.152   1.764   5.527
 4147SOL    HW213341   3.109   1.862   5.650
 4148SOL     OW13342   6.295   0.504   3.460
 4148SOL    HW113343   6.277   0.602   3.467
 4148SOL    HW213344   6.282   0.461   3.550
 4149SOL     OW13345   5.886   4.020   1.823
 4149SOL    HW113346   5.813   4.088   1.834
 4149SOL    HW213347   5.973   4.067   1.808
 4150SOL     OW13348   5.672   6.951   6.857
 4150SOL    HW113349   5.771   6.948   6.852
 4150SOL    HW213350   5.634   6.884   6.793
 4151SOL     OW13351   0.097   5.717   0.169
 4151SOL    HW113352   0.167   5.647   0.182
 4151SOL    HW213353   0.009   5.672   0.149
 4152SOL     OW13354   3.997   4.590   1.689
 4152SOL    HW113355   4.061   4.533   1.636
 4152SOL    HW213356   3.906   4.548   1.688
 4153SOL     OW13357   6.288   4.687   6.462
 4153SOL    HW113358   6.357   4.625   6.425
 4153SOL    HW213359   6.316   4.781   6.444
 4154SOL     OW13360   6.355   3.000   5.479
 4154SOL    HW113361   6.418   3.045   5.542
 4154SOL    HW213362   6.384   3.017   5.385
 4155SOL     OW13363   1.182   3.424   1.881
 4155SOL    HW113364   1.264   3.471   1.849
 4155SOL    HW213365   1.111   3.428   1.811
 4156SOL     OW13366   5.405   6.880   5.500
 4156SOL    HW113367   5.399   6.838   5.409
 4156SOL    HW213368   5.501   6.893   5.524
 4157SOL     OW13369   4.303   0.397   4.327
 4157SOL    HW113370   4.328   0.452   4.407
 4157SOL    HW213371   4.384   0.351   4.292
 4158SOL     OW13372   0.507   6.004   3.303
 4158SOL    HW113373   0.580   5.989   3.370
 4158SOL    HW213374   0.469   5.916   3.275
 4159SOL     OW13375   1.014   2.930   4.350
 4159SOL    HW113376   1.000   2.834   4.373
 4159SOL    HW213377   1.019   2.940   4.251
 4160SOL     OW13378   0.201   0.686   1.364
 4160SOL    HW113379   0.202   0.592   1.331
 4160SOL    HW213380   0.115   0.705   1.411
 4161SOL     OW13381   0.761   1.762   0.128
 4161SOL    HW113382   0.790   1.678   0.173
 4161SOL    HW213383   0.661   1.767   0.125
 4162SOL     OW13384   5.838   6.929   4.906
 4162SOL    HW113385   5.866   6.898   4.815
 4162SOL    HW213386   5.916   6.969   4.953
 4163SOL     OW13387   5.515   1.655   3.907
 4163SOL    HW113388   5.443   1.684   3.970
 4163SOL    HW213389   5.603   1.690   3.939
 4164SOL     OW13390   1.578   0.685   6.782
 4164SOL    HW113391   1.548   0.780   6.788
 4164SOL    HW213392   1.612   0.655   6.872
 4165SOL     OW13393   3.744   6.752   1.177
 4165SOL    HW113394   3.703   6.831   1.222
 4165SOL    HW213395   3.815   6.783   1.114
 4166SOL     OW13396   4.624   2.904   0.829
 4166SOL    HW113397   4.633   2.966   0.906
 4166SOL    HW213398   4.588   2.954   0.750
 4167SOL     OW13399   2.376   2.600   1.521
 4167SOL    HW113400   2.391   2.513   1.474
 4167SOL    HW213401   2.295   2.593   1.579
 4168SOL     OW13402   0.941   5.824   1.714
 4168SOL    HW113403   1.026   5.844   1.763
 4168SOL    HW213404   0.952   5.740   1.661
 4169SOL     OW13405   5.168   3.358   3.307
 4169SOL    HW113406   5.104   3.420   3.352
 4169SOL    HW213407   5.149   3.264   3.336
 4170SOL     OW13408   3.887   2.864   5.621
 4170SOL    HW113409   3.860   2.939   5.561
 4170SOL    HW213410   3.864   2.777   5.578
 4171SOL     OW13411   4.948   3.482   1.478
 4171SOL    HW113412   4.858   3.465   1.517
 4171SOL    HW213413   4.987   3.564   1.518
 4172SOL     OW13414   0.900   2.095   1.016
 4172SOL    HW113415   0.994   2.103   1.051
 4172SOL    HW213416   0.844   2.047   1.083
 4173SOL     OW13417   5.175   3.070   5.084
 4173SOL    HW113418   5.111   2.994   5.097
 4173SOL    HW213419   5.218   3.062   4.994
 4174SOL     OW13420   4.804   0.629   3.981
 4174SOL    HW113421   4.741   0.663   3.911
 4174SOL    HW213422   4.836   0.538   3.955
 4175SOL     OW13423   3.181   0.013   3.503
 4175SOL    HW113424   3.135   6.994   3.582
 4175SOL    HW213425   3.222   6.962   3.447
 4176SOL     OW13426   4.706   6.888   3.321
 4176SOL    HW113427   4.682   6.949   3.396
 4176SOL    HW213428   4.803   6.898   3.300
 4177SOL     OW13429   0.451   6.328   2.527
 4177SOL    HW113430   0.421   6.423   2.534
 4177SOL    HW213431   0.402   6.283   2.453
 4178SOL     OW13432   3.633   2.219   5.622
 4178SOL    HW113433   3.570   2.270   5.681
 4178SOL    HW213434   3.703   2.175   5.678
 4179SOL     OW13435   5.546   3.849   5.420
 4179SOL    HW113436   5.490   3.772   5.389
 4179SOL    HW213437   5.622   3.815   5.475
 4180SOL     OW13438   4.709   3.980   1.671
 4180SOL    HW113439   4.610   3.984   1.686
 4180SOL    HW213440   4.755   4.044   1.733
 4181SOL     OW13441   0.882   1.394   0.478
 4181SOL    HW113442   0.944   1.316   0.476
 4181SOL    HW213443   0.904   1.452   0.557
 4182SOL     OW13444   5.715   0.326   2.881
 4182SOL    HW113445   5.677   0.316   2.789
 4182SOL    HW213446   5.640   0.329   2.947
 4183SOL     OW13447   1.503   1.937   1.793
 4183SOL    HW113448   1.509   2.019   1.849
 4183SOL    HW213449   1.593   1.895   1.785
 4184SOL     OW13450   4.379   5.217   0.542
 4184SOL    HW113451   4.451   5.286   0.540
 4184SOL    HW213452   4.413   5.133   0.500
 4185SOL     OW13453   0.455   0.259   3.714
 4185SOL    HW113454   0.470   0.221   3.623
 4185SOL    HW213455   0.541   0.296   3.749
 4186SOL     OW13456   2.431   3.649   1.070
 4186SOL    HW113457   2.481   3.631   0.986
 4186SOL    HW213458   2.336   3.620   1.059
 4187SOL     OW13459   4.008   3.351   6.535
 4187SOL    HW113460   4.004   3.393   6.445
 4187SOL    HW213461   4.077   3.397   6.591
 4188SOL     OW13462   4.129   0.009   4.739
 4188SOL    HW113463   4.063   6.992   4.675
 4188SOL    HW213464   4.216   6.982   4.733
 4189SOL     OW13465   2.205   1.781   4.925
 4189SOL    HW113466   2.305   1.785   4.919
 4189SOL    HW213467   2.170   1.874   4.934
 4190SOL     OW13468   3.522   1.240   0.350
 4190SOL    HW113469   3.569   1.328   0.357
 4190SOL    HW213470   3.516   1.198   0.440
 4191SOL     OW13471   6.612   1.973   2.692
 4191SOL    HW113472   6.597   1.999   2.597
 4191SOL    HW213473   6.691   2.022   2.729
 4192SOL     OW13474   6.202   1.285   3.773
 4192SOL    HW113475   6.249   1.198   3.762
 4192SOL    HW213476   6.105   1.273   3.755
 4193SOL     OW13477   1.973   6.853   2.008
 4193SOL    HW113478   2.048   6.788   2.018
 4193SOL    HW213479   1.993   6.914   1.930
 4194SOL     OW13480   0.186   1.156   4.023
 4194SOL    HW113481   0.140   1.094   3.959
 4194SOL    HW213482   0.241   1.103   4.087
 4195SOL     OW13483   5.340   0.237   1.634
 4195SOL    HW113484   5.382   0.310   1.689
 4195SOL    HW213485   5.297   0.278   1.554
 4196SOL     OW13486   5.065   2.756   3.900
 4196SOL    HW113487   5.020   2.688   3.957
 4196SOL    HW213488   5.136   2.803   3.953
 4197SOL     OW13489   4.850   4.395   4.405
 4197SOL    HW113490   4.802   4.480   4.384
 4197SOL    HW213491   4.865   4.344   4.320
 4198SOL     OW13492   6.558   3.609   0.148
 4198SOL    HW113493   6.626   3.680   0.132
 4198SOL    HW213494   6.519   3.580   0.060
 4199SOL     OW13495   3.156   3.599   5.627
 4199SOL    HW113496   3.186   3.580   5.720
 4199SOL    HW213497   3.212   3.547   5.562
 4200SOL     OW13498   1.845   0.166   7.007
 4200SOL    HW113499   1.762   0.222   7.006
 4200SOL    HW213500   1.825   0.077   6.966
 4201SOL     OW13501   5.562   6.161   3.488
 4201SOL    HW113502   5.516   6.186   3.402
 4201SOL    HW213503   5.661   6.158   3.472
 4202SOL     OW13504   5.295   4.862   4.430
 4202SOL    HW113505   5.303   4.961   4.418
 4202SOL    HW213506   5.315   4.838   4.525
 4203SOL     OW13507   5.491   5.913   3.174
 4203SOL    HW113508   5.439   5.998   3.164
 4203SOL    HW213509   5.429   5.835   3.170
 4204SOL     OW13510   3.134   2.935   1.566
 4204SOL    HW113511   3.143   2.847   1.612
 4204SOL    HW213512   3.166   2.928   1.472
 4205SOL     OW13513   2.695   5.372   3.693
 4205SOL    HW113514   2.697   5.442   3.621
 4205SOL    HW213515   2.629   5.399   3.763
 4206SOL     OW13516   5.127   0.391   4.745
 4206SOL    HW113517   5.080   0.379   4.658
 4206SOL    HW213518   5.086   0.468   4.795
 4207SOL     OW13519   0.978   1.866   1.765
 4207SOL    HW113520   0.993   1.875   1.666
 4207SOL    HW213521   0.968   1.769   1.788
 4208SOL     OW13522   0.806   3.288   0.806
 4208SOL    HW113523   0.792   3.195   0.838
 4208SOL    HW213524   0.888   3.292   0.749
 4209SOL     OW13525   2.884   0.133   5.089
 4209SOL    HW113526   2.975   0.174   5.077
 4209SOL    HW213527   2.869   0.063   5.020
 4210SOL     OW13528   4.479   2.826   0.463
 4210SOL    HW113529   4.485   2.727   0.460
 4210SOL    HW213530   4.388   2.854   0.493
 4211SOL     OW13531   4.230   5.093   3.323
 4211SOL    HW113532   4.178   5.104   3.238
 4211SOL    HW213533   4.269   5.001   3.327
 4212SOL     OW13534   6.036   1.093   2.954
 4212SOL    HW113535   6.078   1.076   2.865
 4212SOL    HW213536   6.108   1.115   3.020
 4213SOL     OW13537   1.262   1.204   2.396
 4213SOL    HW113538   1.173   1.169   2.367
 4213SOL    HW213539   1.262   1.216   2.496
 4214SOL     OW13540   0.748   2.982   4.653
 4214SOL    HW113541   0.730   2.900   4.598
 4214SOL    HW213542   0.720   3.063   4.603
 4215SOL     OW13543   0.672   5.353   4.405
 4215SOL    HW113544   0.761   5.395   4.423
 4215SOL    HW213545   0.604   5.390   4.468
 4216SOL     OW13546   1.129   2.912   4.714
 4216SOL    HW113547   1.142   2.936   4.810
 4216SOL    HW213548   1.219   2.900   4.670
 4217SOL     OW13549   0.106   0.595   3.276
 4217SOL    HW113550   0.108   0.679   3.221
 4217SOL    HW213551   0.036   0.534   3.239
 4218SOL     OW13552   4.468   0.230   1.830
 4218SOL    HW113553   4.439   0.140   1.865
 4218SOL    HW213554   4.418   0.251   1.747
 4219SOL     OW13555   4.076   5.577   3.466
 4219SOL    HW113556   4.018   5.634   3.408
 4219SOL    HW213557   4.126   5.635   3.531
 4220SOL     OW13558   6.181   2.482   3.658
 4220SOL    HW113559   6.169   2.501   3.561
 4220SOL    HW213560   6.223   2.392   3.670
 4221SOL     OW13561   5.447   5.450   5.769
 4221SOL    HW113562   5.425   5.540   5.806
 4221SOL    HW213563   5.453   5.383   5.844
 4222SOL     OW13564   4.808   1.923   1.177
 4222SOL    HW113565   4.902   1.898   1.198
 4222SOL    HW213566   4.801   2.022   1.164
 4223SOL     OW13567   3.602   4.135   2.394
 4223SOL    HW113568   3.662   4.118   2.472
 4223SOL    HW213569   3.648   4.108   2.310
 4224SOL     OW13570   4.462   2.463   5.091
 4224SOL    HW113571   4.485   2.556   5.064
 4224SOL    HW213572   4.364   2.447   5.081
 4225SOL     OW13573   5.443   0.241   4.958
 4225SOL    HW113574   5.460   0.304   4.883
 4225SOL    HW213575   5.345   0.224   4.965
 4226SOL     OW13576   1.033   1.229   3.550
 4226SOL    HW113577   1.084   1.271   3.474
 4226SOL    HW213578   1.002   1.301   3.612
 4227SOL     OW13579   5.382   4.424   0.372
 4227SOL    HW113580   5.360   4.405   0.276
 4227SOL    HW213581   5.333   4.359   0.430
 4228SOL     OW13582   5.991   5.424   2.513
 4228SOL    HW113583   5.992   5.467   2.604
 4228SOL    HW213584   5.912   5.456   2.462
 4229SOL     OW13585   5.226   4.843   5.565
 4229SOL    HW113586   5.145   4.878   5.518
 4229SOL    HW213587   5.249   4.753   5.528
 4230SOL     OW13588   3.236   6.816   5.009
 4230SOL    HW113589   3.331   6.849   5.013
 4230SOL    HW213590   3.190   6.837   5.096
 4231SOL     OW13591   4.693   6.961   5.665
 4231SOL    HW113592   4.778   7.013   5.669
 4231SOL    HW213593   4.622   7.016   5.622
 4232SOL     OW13594   2.192   4.263   2.157
 4232SOL    HW113595   2.140   4.305   2.231
 4232SOL    HW213596   2.225   4.334   2.095
 4233SOL     OW13597   6.432   6.442   0.753
 4233SOL    HW113598   6.367   6.487   0.691
 4233SOL    HW213599   6.508   6.403   0.700
 4234SOL     OW13600   2.868   4.341   5.654
 4234SOL    HW113601   2.899   4.413   5.593
 4234SOL    HW213602   2.851   4.257   5.602
 4235SOL     OW13603   6.462   3.742   5.623
 4235SOL    HW113604   6.536   3.676   5.636
 4235SOL    HW213605   6.432   3.776   5.712
 4236SOL     OW13606   1.278   3.203   4.844
 4236SOL    HW113607   1.302   3.236   4.935
 4236SOL    HW213608   1.304   3.272   4.776
 4237SOL     OW13609   5.236   2.897   4.801
 4237SOL    HW113610   5.225   2.803   4.834
 4237SOL    HW213611   5.322   2.905   4.752
 4238SOL     OW13612   4.259   5.013   3.923
 4238SOL    HW113613   4.300   4.950   3.857
 4238SOL    HW213614   4.261   5.106   3.886
 4239SOL     OW13615   4.854   5.444   5.998
 4239SOL    HW113616   4.907   5.366   5.967
 4239SOL    HW213617   4.904   5.529   5.982
 4240SOL     OW13618   2.516   4.245   6.825
 4240SOL    HW113619   2.496   4.264   6.729
 4240SOL    HW213620   2.508   4.146   6.841
 4241SOL     OW13621   4.153   0.385   6.802
 4241SOL    HW113622   4.188   0.404   6.711
 4241SOL    HW213623   4.059   0.352   6.796
 4242SOL     OW13624   2.343   0.891   2.575
 4242SOL    HW113625   2.292   0.969   2.540
 4242SOL    HW213626   2.306   0.864   2.664
 4243SOL     OW13627   1.824   3.060   3.198
 4243SOL    HW113628   1.818   3.160   3.209
 4243SOL    HW213629   1.733   3.023   3.181
 4244SOL     OW13630   3.585   6.588   1.322
 4244SOL    HW113631   3.659   6.626   1.267
 4244SOL    HW213632   3.542   6.512   1.273
 4245SOL     OW13633   6.072   3.686   1.071
 4245SOL    HW113634   6.039   3.742   0.995
 4245SOL    HW213635   6.070   3.590   1.044
 4246SOL     OW13636   5.130   1.876   3.604
 4246SOL    HW113637   5.142   1.964   3.651
 4246SOL    HW213638   5.208   1.859   3.544
 4247SOL     OW13639   1.583   5.095   5.603
 4247SOL    HW113640   1.499   5.147   5.588
 4247SOL    HW213641   1.559   5.001   5.630
 4248SOL     OW13642   1.576   0.818   3.517
 4248SOL    HW113643   1.592   0.897   3.458
 4248SOL    HW213644   1.655   0.804   3.577
 4249SOL     OW13645   6.884   6.926   4.916
 4249SOL    HW113646   6.934   6.988   4.854
 4249SOL    HW213647   6.855   6.845   4.866
 4250SOL     OW13648   0.152   5.384   4.405
 4250SOL    HW113649   0.156   5.314   4.333
 4250SOL    HW213650   0.162   5.475   4.363
 4251SOL     OW13651   6.306   2.169   5.721
 4251SOL    HW113652   6.270   2.224   5.645
 4251SOL    HW213653   6.276   2.209   5.808
 4252SOL     OW13654   0.045   6.384   0.293
 4252SOL    HW113655   6.999   6.311   0.297
 4252SOL    HW213656   0.020   6.456   0.358
 4253SOL     OW13657   4.758   5.711   2.586
 4253SOL    HW113658   4.792   5.775   2.655
 4253SOL    HW213659   4.707   5.637   2.631
 4254SOL     OW13660   1.633   3.183   0.323
 4254SOL    HW113661   1.690   3.260   0.293
 4254SOL    HW213662   1.674   3.142   0.405
 4255SOL     OW13663   1.511   3.749   3.003
 4255SOL    HW113664   1.475   3.837   3.032
 4255SOL    HW213665   1.475   3.726   2.912
 4256SOL     OW13666   0.676   5.828   2.097
 4256SOL    HW113667   0.593   5.882   2.114
 4256SOL    HW213668   0.740   5.881   2.042
 4257SOL     OW13669   6.441   0.571   4.282
 4257SOL    HW113670   6.458   0.526   4.194
 4257SOL    HW213671   6.528   0.582   4.330
 4258SOL     OW13672   3.568   6.222   0.990
 4258SOL    HW113673   3.628   6.280   0.934
 4258SOL    HW213674   3.525   6.153   0.931
 4259SOL     OW13675   1.314   0.381   2.008
 4259SOL    HW113676   1.251   0.304   2.012
 4259SOL    HW213677   1.404   0.352   2.041
 4260SOL     OW13678   5.563   0.967   4.618
 4260SOL    HW113679   5.519   0.939   4.532
 4260SOL    HW213680   5.661   0.955   4.610
 4261SOL     OW13681   1.954   6.208   4.329
 4261SOL    HW113682   2.016   6.276   4.290
 4261SOL    HW213683   2.005   6.124   4.349
 4262SOL     OW13684   1.698   4.068   6.660
 4262SOL    HW113685   1.688   3.980   6.707
 4262SOL    HW213686   1.694   4.053   6.561
 4263SOL     OW13687   2.585   1.804   4.168
 4263SOL    HW113688   2.643   1.741   4.220
 4263SOL    HW213689   2.491   1.772   4.170
 4264SOL     OW13690   5.084   1.235   5.027
 4264SOL    HW113691   5.160   1.281   5.073
 4264SOL    HW213692   5.112   1.212   4.933
 4265SOL     OW13693   3.567   0.754   0.120
 4265SOL    HW113694   3.540   0.847   0.096
 4265SOL    HW213695   3.625   0.756   0.202
 4266SOL     OW13696   1.107   5.465   1.027
 4266SOL    HW113697   1.109   5.425   1.119
 4266SOL    HW213698   1.107   5.564   1.034
 4267SOL     OW13699   1.776   4.495   4.794
 4267SOL    HW113700   1.872   4.475   4.815
 4267SOL    HW213701   1.718   4.422   4.830
 4268SOL     OW13702   1.375   4.506   0.125
 4268SOL    HW113703   1.333   4.583   0.077
 4268SOL    HW213704   1.346   4.506   0.220
 4269SOL     OW13705   2.753   1.431   4.816
 4269SOL    HW113706   2.729   1.337   4.839
 4269SOL    HW213707   2.851   1.445   4.829
 4270SOL     OW13708   3.943   2.461   1.018
 4270SOL    HW113709   3.972   2.400   0.945
 4270SOL    HW213710   3.955   2.556   0.989
 4271SOL     OW13711   0.123   0.993   1.475
 4271SOL    HW113712   0.042   0.936   1.463
 4271SOL    HW213713   0.171   0.965   1.559
 4272SOL     OW13714   6.886   1.023   6.441
 4272SOL    HW113715   6.843   1.000   6.354
 4272SOL    HW213716   6.824   1.001   6.516
 4273SOL     OW13717   3.254   6.018   4.406
 4273SOL    HW113718   3.264   6.112   4.437
 4273SOL    HW213719   3.194   6.015   4.326
 4274SOL     OW13720   7.007   1.522   1.952
 4274SOL    HW113721   6.970   1.520   2.045
 4274SOL    HW213722   6.977   1.606   1.906
 4275SOL     OW13723   6.953   3.201   3.250
 4275SOL    HW113724   7.013   3.280   3.244
 4275SOL    HW213725   6.949   3.169   3.345
 4276SOL     OW13726   2.398   5.648   4.093
 4276SOL    HW113727   2.463   5.648   4.169
 4276SOL    HW213728   2.440   5.692   4.013
 4277SOL     OW13729   6.012   5.581   3.060
 4277SOL    HW113730   6.100   5.628   3.068
 4277SOL    HW213731   5.941   5.635   3.106
 4278SOL     OW13732   1.484   6.870   1.556
 4278SOL    HW113733   1.528   6.813   1.626
 4278SOL    HW213734   1.554   6.922   1.507
 4279SOL     OW13735   1.062   1.546   3.467
 4279SOL    HW113736   1.084   1.639   3.437
 4279SOL    HW213737   1.084   1.481   3.393
 4280SOL     OW13738   0.547   6.851   6.527
 4280SOL    HW113739   0.580   6.910   6.453
 4280SOL    HW213740   0.578   6.757   6.511
 4281SOL     OW13741   5.054   5.683   3.119
 4281SOL    HW113742   5.026   5.638   3.204
 4281SOL    HW213743   5.032   5.780   3.124
 4282SOL     OW13744   3.540   4.083   0.758
 4282SOL    HW113745   3.481   4.091   0.677
 4282SOL    HW213746   3.589   3.996   0.755
 4283SOL     OW13747   5.165   1.241   4.383
 4283SOL    HW113748   5.208   1.319   4.428
 4283SOL    HW213749   5.067   1.242   4.399
 4284SOL     OW13750   4.403   5.694   6.351
 4284SOL    HW113751   4.346   5.774   6.370
 4284SOL    HW213752   4.481   5.694   6.413
 4285SOL     OW13753   3.502   0.412   5.571
 4285SOL    HW113754   3.507   0.501   5.525
 4285SOL    HW213755   3.415   0.406   5.621
 4286SOL     OW13756   5.735   0.913   6.524
 4286SOL    HW113757   5.688   0.998   6.550
 4286SOL    HW213758   5.721   0.897   6.426
 4287SOL     OW13759   4.757   0.324   0.426
 4287SOL    HW113760   4.684   0.266   0.463
 4287SOL    HW213761   4.728   0.420   0.429
 4288SOL     OW13762   6.948   6.172   2.423
 4288SOL    HW113763   7.011   6.095   2.420
 4288SOL    HW213764   6.949   6.213   2.515
 4289SOL     OW13765   0.399   4.085   4.151
 4289SOL    HW113766   0.404   4.098   4.052
 4289SOL    HW213767   0.320   4.028   4.172
 4290SOL     OW13768   0.708   0.980   3.486
 4290SOL    HW113769   0.661   1.019   3.565
 4290SOL    HW213770   0.776   0.913   3.517
 4291SOL     OW13771   4.812   3.394   6.270
 4291SOL    HW113772   4.895   3.383   6.214
 4291SOL    HW213773   4.764   3.477   6.242
 4292SOL     OW13774   5.991   2.582   1.501
 4292SOL    HW113775   5.916   2.549   1.559
 4292SOL    HW213776   6.064   2.618   1.560
 4293SOL     OW13777   4.006   4.164   6.806
 4293SOL    HW113778   4.074   4.164   6.880
 4293SOL    HW213779   3.915   4.153   6.846
 4294SOL     OW13780   1.548   1.759   6.396
 4294SOL    HW113781   1.491   1.684   6.428
 4294SOL    HW213782   1.612   1.726   6.326
 4295SOL     OW13783   4.125   5.805   2.912
 4295SOL    HW113784   4.084   5.895   2.921
 4295SOL    HW213785   4.054   5.735   2.920
 4296SOL     OW13786   2.798   5.896   2.413
 4296SOL    HW113787   2.771   5.911   2.318
 4296SOL    HW213788   2.882   5.842   2.416
 4297SOL     OW13789   5.769   5.005   0.655
 4297SOL    HW113790   5.754   4.930   0.590
 4297SOL    HW213791   5.839   5.067   0.619
 4298SOL     OW13792   2.036   6.923   0.596
 4298SOL    HW113793   2.075   6.845   0.549
 4298SOL    HW213794   2.046   7.005   0.540
 4299SOL     OW13795   0.632   3.247   0.364
 4299SOL    HW113796   0.663   3.229   0.271
 4299SOL    HW213797   0.668   3.336   0.394
 4300SOL     OW13798   2.615   1.167   0.917
 4300SOL    HW113799   2.612   1.073   0.885
 4300SOL    HW213800   2.526   1.211   0.901
 4301SOL     OW13801   2.812   6.842   1.009
 4301SOL    HW113802   2.754   6.832   0.929
 4301SOL    HW213803   2.846   6.936   1.014
 4302SOL     OW13804   2.457   5.382   6.111
 4302SOL    HW113805   2.481   5.443   6.035
 4302SOL    HW213806   2.359   5.390   6.129
 4303SOL     OW13807   6.135   5.346   2.966
 4303SOL    HW113808   6.052   5.316   2.918
 4303SOL    HW213809   6.124   5.441   2.996
 4304SOL     OW13810   3.623   3.687   1.474
 4304SOL    HW113811   3.555   3.741   1.524
 4304SOL    HW213812   3.577   3.610   1.429
 4305SOL     OW13813   1.603   0.185   5.312
 4305SOL    HW113814   1.692   0.141   5.317
 4305SOL    HW213815   1.590   0.242   5.393
 4306SOL     OW13816   5.864   3.603   4.869
 4306SOL    HW113817   5.847   3.516   4.823
 4306SOL    HW213818   5.785   3.625   4.927
 4307SOL     OW13819   0.347   1.387   5.878
 4307SOL    HW113820   0.365   1.298   5.920
 4307SOL    HW213821   0.423   1.449   5.897
 4308SOL     OW13822   4.924   5.849   6.838
 4308SOL    HW113823   4.914   5.948   6.835
 4308SOL    HW213824   4.849   5.809   6.889
 4309SOL     OW13825   1.262   2.421   0.651
 4309SOL    HW113826   1.206   2.399   0.731
 4309SOL    HW213827   1.203   2.445   0.574
 4310SOL     OW13828   7.006   1.937   3.518
 4310SOL    HW113829   0.047   1.994   3.466
 4310SOL    HW213830   0.033   1.857   3.553
 4311SOL     OW13831   0.484   0.167   2.231
 4311SOL    HW113832   0.393   0.208   2.228
 4311SOL    HW213833   0.540   0.203   2.157
 4312SOL     OW13834   0.299   4.912   2.680
 4312SOL    HW113835   0.381   4.919   2.736
 4312SOL    HW213836   0.323   4.922   2.584
 4313SOL     OW13837   6.466   2.460   6.774
 4313SOL    HW113838   6.538   2.417   6.719
 4313SOL    HW213839   6.426   2.393   6.836
 4314SOL     OW13840   6.969   1.733   5.400
 4314SOL    HW113841   0.025   1.682   5.437
 4314SOL    HW213842   7.002   1.805   5.339
 4315SOL     OW13843   2.988   1.492   4.532
 4315SOL    HW113844   2.976   1.574   4.588
 4315SOL    HW213845   2.899   1.460   4.500
 4316SOL     OW13846   5.492   6.708   1.654
 4316SOL    HW113847   5.396   6.735   1.647
 4316SOL    HW213848   5.516   6.650   1.576
 4317SOL     OW13849   4.843   0.871   5.861
 4317SOL    HW113850   4.789   0.936   5.807
 4317SOL    HW213851   4.809   0.870   5.955
 4318SOL     OW13852   0.854   0.441   4.436
 4318SOL    HW113853   0.832   0.524   4.486
 4318SOL    HW213854   0.805   0.363   4.477
 4319SOL     OW13855   1.822   5.098   2.970
 4319SOL    HW113856   1.886   5.153   2.916
 4319SOL    HW213857   1.731   5.103   2.929
 4320SOL     OW13858   3.229   6.421   1.073
 4320SOL    HW113859   3.278   6.495   1.027
 4320SOL    HW213860   3.133   6.445   1.083
 4321SOL     OW13861   6.632   6.634   2.446
 4321SOL    HW113862   6.626   6.708   2.513
 4321SOL    HW213863   6.562   6.565   2.466
 4322SOL     OW13864   0.630   3.593   5.276
 4322SOL    HW113865   0.668   3.674   5.233
 4322SOL    HW213866   0.699   3.551   5.335
 4323SOL     OW13867   3.994   4.867   6.847
 4323SOL    HW113868   4.093   4.868   6.859
 4323SOL    HW213869   3.968   4.789   6.791
 4324SOL     OW13870   6.845   4.428   6.077
 4324SOL    HW113871   6.820   4.506   6.021
 4324SOL    HW213872   6.859   4.348   6.019
 4325SOL     OW13873   2.478   0.826   2.361
 4325SOL    HW113874   2.431   0.839   2.448
 4325SOL    HW213875   2.553   0.892   2.353
 4326SOL     OW13876   4.689   2.359   2.294
 4326SOL    HW113877   4.614   2.344   2.359
 4326SOL    HW213878   4.742   2.275   2.285
 4327SOL     OW13879   2.855   6.320   3.563
 4327SOL    HW113880   2.801   6.282   3.488
 4327SOL    HW213881   2.808   6.401   3.599
 4328SOL     OW13882   6.004   6.820   4.677
 4328SOL    HW113883   6.053   6.903   4.702
 4328SOL    HW213884   6.037   6.744   4.732
 4329SOL     OW13885   0.158   1.536   6.373
 4329SOL    HW113886   0.216   1.612   6.402
 4329SOL    HW213887   0.117   1.492   6.452
 4330SOL     OW13888   2.926   4.824   4.935
 4330SOL    HW113889   3.009   4.838   4.988
 4330SOL    HW213890   2.883   4.738   4.962
 4331SOL     OW13891   5.836   1.037   2.083
 4331SOL    HW113892   5.879   0.979   2.153
 4331SOL    HW213893   5.756   1.082   2.122
 4332SOL     OW13894   0.489   5.273   2.376
 4332SOL    HW113895   0.561   5.320   2.325
 4332SOL    HW213896   0.416   5.338   2.398
 4333SOL     OW13897   3.484   2.437   5.776
 4333SOL    HW113898   3.566   2.486   5.807
 4333SOL    HW213899   3.443   2.486   5.699
 4334SOL     OW13900   0.189   2.550   4.648
 4334SOL    HW113901   0.241   2.518   4.727
 4334SOL    HW213902   0.241   2.530   4.565
 4335SOL     OW13903   2.554   3.916   1.465
 4335SOL    HW113904   2.476   3.915   1.528
 4335SOL    HW213905   2.626   3.973   1.502
 4336SOL     OW13906   2.589   4.922   5.705
 4336SOL    HW113907   2.583   5.022   5.703
 4336SOL    HW213908   2.499   4.884   5.726
 4337SOL     OW13909   1.486   5.553   3.802
 4337SOL    HW113910   1.419   5.572   3.731
 4337SOL    HW213911   1.461   5.603   3.885
 4338SOL     OW13912   3.948   0.704   5.586
 4338SOL    HW113913   3.948   0.798   5.552
 4338SOL    HW213914   4.021   0.652   5.540
 4339SOL     OW13915   4.006   3.455   6.296
 4339SOL    HW113916   4.077   3.426   6.232
 4339SOL    HW213917   3.921   3.471   6.245
 4340SOL     OW13918   6.316   3.967   0.910
 4340SOL    HW113919   6.313   3.885   0.967
 4340SOL    HW213920   6.348   4.044   0.965
 4341SOL     OW13921   0.338   6.911   2.443
 4341SOL    HW113922   0.256   6.901   2.499
 4341SOL    HW213923   0.419   6.903   2.502
 4342SOL     OW13924   4.866   3.625   2.301
 4342SOL    HW113925   4.925   3.623   2.219
 4342SOL    HW213926   4.770   3.624   2.272
 4343SOL     OW13927   3.872   6.906   5.998
 4343SOL    HW113928   3.952   6.867   6.044
 4343SOL    HW213929   3.868   6.870   5.904
 4344SOL     OW13930   0.260   3.612   3.891
 4344SOL    HW113931   0.338   3.661   3.929
 4344SOL    HW213932   0.218   3.556   3.963
 4345SOL     OW13933   3.298   2.899   2.218
 4345SOL    HW113934   3.280   2.950   2.134
 4345SOL    HW213935   3.259   2.947   2.296
 4346SOL     OW13936   1.138   2.981   2.381
 4346SOL    HW113937   1.224   2.934   2.398
 4346SOL    HW213938   1.156   3.073   2.346
 4347SOL     OW13939   5.795   5.620   0.618
 4347SOL    HW113940   5.698   5.633   0.635
 4347SOL    HW213941   5.807   5.555   0.543
 4348SOL     OW13942   5.972   5.433   4.109
 4348SOL    HW113943   5.988   5.342   4.070
 4348SOL    HW213944   5.874   5.453   4.110
 4349SOL     OW13945   0.005   3.697   4.228
 4349SOL    HW113946   6.930   3.683   4.208
 4349SOL    HW213947   0.056   3.614   4.207
 4350SOL     OW13948   4.280   1.763   4.897
 4350SOL    HW113949   4.342   1.695   4.937
 4350SOL    HW213950   4.323   1.807   4.819
 4351SOL     OW13951   0.751   6.734   0.562
 4351SOL    HW113952   0.787   6.688   0.481
 4351SOL    HW213953   0.678   6.678   0.601
 4352SOL     OW13954   3.730   3.802   0.769
 4352SOL    HW113955   3.809   3.758   0.814
 4352SOL    HW213956   3.731   3.781   0.672
 4353SOL     OW13957   2.514   3.173   1.223
 4353SOL    HW113958   2.560   3.208   1.141
 4353SOL    HW213959   2.582   3.153   1.293
 4354SOL     OW13960   5.446   6.844   3.604
 4354SOL    HW113961   5.525   6.886   3.561
 4354SOL    HW213962   5.362   6.880   3.563
 4355SOL     OW13963   1.473   6.312   3.149
 4355SOL    HW113964   1.509   6.243   3.212
 4355SOL    HW213965   1.385   6.346   3.183
 4356SOL     OW13966   5.005   2.313   6.015
 4356SOL    HW113967   4.926   2.344   5.962
 4356SOL    HW213968   5.040   2.387   6.072
 4357SOL     OW13969   5.774   0.459   2.391
 4357SOL    HW113970   5.750   0.503   2.304
 4357SOL    HW213971   5.762   0.360   2.383
 4358SOL     OW13972   1.810   6.955   6.861
 4358SOL    HW113973   1.724   6.966   6.810
 4358SOL    HW213974   1.879   6.915   6.802
 4359SOL     OW13975   2.469   2.307   6.935
 4359SOL    HW113976   2.440   2.260   6.852
 4359SOL    HW213977   2.556   2.354   6.917
 4360SOL     OW13978   1.835   3.833   3.580
 4360SOL    HW113979   1.890   3.914   3.598
 4360SOL    HW213980   1.814   3.787   3.666
 4361SOL     OW13981   6.668   1.988   0.632
 4361SOL    HW113982   6.608   2.054   0.587
 4361SOL    HW213983   6.615   1.909   0.663
 4362SOL     OW13984   1.279   5.664   3.266
 4362SOL    HW113985   1.280   5.711   3.177
 4362SOL    HW213986   1.286   5.731   3.339
 4363SOL     OW13987   4.152   1.268   2.543
 4363SOL    HW113988   4.133   1.366   2.553
 4363SOL    HW213989   4.087   1.228   2.479
 4364SOL     OW13990   4.104   3.437   2.328
 4364SOL    HW113991   4.149   3.381   2.397
 4364SOL    HW213992   4.011   3.402   2.312
 4365SOL     OW13993   2.475   2.049   1.598
 4365SOL    HW113994   2.559   2.006   1.630
 4365SOL    HW213995   2.453   2.127   1.656
 4366SOL     OW13996   4.202   5.674   5.079
 4366SOL    HW113997   4.278   5.642   5.136
 4366SOL    HW213998   4.237   5.705   4.991
 4367SOL     OW13999   2.577   5.622   3.252
 4367SOL    HW114000   2.582   5.559   3.175
 4367SOL    HW214001   2.610   5.712   3.224
 4368SOL     OW14002   4.637   4.355   3.148
 4368SOL    HW114003   4.710   4.415   3.115
 4368SOL    HW214004   4.558   4.409   3.174
 4369SOL     OW14005   4.196   4.776   2.960
 4369SOL    HW114006   4.110   4.818   2.930
 4369SOL    HW214007   4.228   4.712   2.890
 4370SOL     OW14008   3.570   4.392   1.692
 4370SOL    HW114009   3.634   4.423   1.621
 4370SOL    HW214010   3.557   4.465   1.759
 4371SOL     OW14011   2.935   1.732   0.885
 4371SOL    HW114012   2.981   1.774   0.807
 4371SOL    HW214013   2.892   1.646   0.857
 4372SOL     OW14014   1.990   3.091   4.406
 4372SOL    HW114015   2.067   3.112   4.466
 4372SOL    HW214016   1.908   3.078   4.461
 4373SOL     OW14017   4.220   1.575   5.552
 4373SOL    HW114018   4.228   1.479   5.524
 4373SOL    HW214019   4.288   1.594   5.622
 4374SOL     OW14020   2.348   0.991   1.560
 4374SOL    HW114021   2.442   0.998   1.592
 4374SOL    HW214022   2.346   0.946   1.471
 4375SOL     OW14023   4.855   1.430   3.817
 4375SOL    HW114024   4.800   1.363   3.767
 4375SOL    HW214025   4.814   1.520   3.806
 4376SOL     OW14026   1.148   6.258   0.264
 4376SOL    HW114027   1.228   6.317   0.269
 4376SOL    HW214028   1.176   6.162   0.268
 4377SOL     OW14029   6.235   7.010   6.539
 4377SOL    HW114030   6.238   6.917   6.574
 4377SOL    HW214031   6.241   0.053   6.615
 4378SOL     OW14032   2.127   5.907   2.643
 4378SOL    HW114033   2.056   5.966   2.605
 4378SOL    HW214034   2.213   5.957   2.647
 4379SOL     OW14035   1.479   0.647   1.911
 4379SOL    HW114036   1.577   0.645   1.927
 4379SOL    HW214037   1.432   0.682   1.992
 4380SOL     OW14038   2.249   5.438   5.167
 4380SOL    HW114039   2.222   5.437   5.070
 4380SOL    HW214040   2.277   5.530   5.192
 4381SOL     OW14041   4.130   5.896   5.297
 4381SOL    HW114042   4.150   5.828   5.228
 4381SOL    HW214043   4.127   5.987   5.255
 4382SOL     OW14044   4.864   4.022   3.425
 4382SOL    HW114045   4.825   4.030   3.333
 4382SOL    HW214046   4.849   4.107   3.476
 4383SOL     OW14047   0.716   2.860   6.671
 4383SOL    HW114048   0.713   2.953   6.706
 4383SOL    HW214049   0.800   2.847   6.618
 4384SOL     OW14050   4.180   6.024   1.128
 4384SOL    HW114051   4.186   6.069   1.039
 4384SOL    HW214052   4.163   6.093   1.199
 4385SOL     OW14053   6.860   1.707   2.418
 4385SOL    HW114054   6.775   1.654   2.410
 4385SOL    HW214055   6.881   1.719   2.515
 4386SOL     OW14056   0.976   3.317   0.034
 4386SOL    HW114057   0.981   3.253   6.978
 4386SOL    HW214058   1.057   3.306   0.091
 4387SOL     OW14059   0.091   3.080   1.799
 4387SOL    HW114060   0.120   3.066   1.704
 4387SOL    HW214061   0.149   3.150   1.841
 4388SOL     OW14062   3.408   1.183   5.535
 4388SOL    HW114063   3.420   1.123   5.613
 4388SOL    HW214064   3.437   1.276   5.559
 4389SOL     OW14065   4.841   2.284   3.141
 4389SOL    HW114066   4.782   2.348   3.190
 4389SOL    HW214067   4.906   2.334   3.084
 4390SOL     OW14068   4.538   2.517   2.111
 4390SOL    HW114069   4.572   2.605   2.078
 4390SOL    HW214070   4.597   2.484   2.185
 4391SOL     OW14071   0.715   5.534   0.400
 4391SOL    HW114072   0.626   5.563   0.435
 4391SOL    HW214073   0.772   5.501   0.476
 4392SOL     OW14074   5.243   3.159   4.461
 4392SOL    HW114075   5.272   3.122   4.550
 4392SOL    HW214076   5.262   3.257   4.458
 4393SOL     OW14077   4.454   6.400   3.368
 4393SOL    HW114078   4.511   6.481   3.378
 4393SOL    HW214079   4.365   6.416   3.410
 4394SOL     OW14080   5.169   0.484   2.169
 4394SOL    HW114081   5.229   0.406   2.185
 4394SOL    HW214082   5.146   0.527   2.257
 4395SOL     OW14083   5.221   2.025   2.335
 4395SOL    HW114084   5.312   1.991   2.357
 4395SOL    HW214085   5.195   1.994   2.243
 4396SOL     OW14086   1.370   0.397   3.719
 4396SOL    HW114087   1.352   0.494   3.734
 4396SOL    HW214088   1.343   0.345   3.800
 4397SOL     OW14089   6.562   0.497   5.712
 4397SOL    HW114090   6.581   0.509   5.809
 4397SOL    HW214091   6.475   0.448   5.701
 4398SOL     OW14092   0.103   5.022   4.447
 4398SOL    HW114093   0.084   4.935   4.402
 4398SOL    HW214094   0.191   5.056   4.416
 4399SOL     OW14095   2.539   1.405   1.282
 4399SOL    HW114096   2.586   1.483   1.241
 4399SOL    HW214097   2.441   1.424   1.287
 4400SOL     OW14098   3.193   6.323   4.852
 4400SOL    HW114099   3.174   6.350   4.946
 4400SOL    HW214100   3.177   6.400   4.791
 4401SOL     OW14101   5.446   6.122   4.740
 4401SOL    HW114102   5.388   6.188   4.788
 4401SOL    HW214103   5.481   6.055   4.805
 4402SOL     OW14104   0.303   6.956   2.776
 4402SOL    HW114105   0.254   0.019   2.756
 4402SOL    HW214106   0.251   6.878   2.741
 4403SOL     OW14107   0.942   0.359   3.138
 4403SOL    HW114108   1.017   0.414   3.101
 4403SOL    HW214109   0.856   0.409   3.129
 4404SOL     OW14110   1.582   4.279   3.460
 4404SOL    HW114111   1.524   4.353   3.495
 4404SOL    HW214112   1.670   4.317   3.431
 4405SOL     OW14113   3.221   4.243   5.479
 4405SOL    HW114114   3.241   4.329   5.527
 4405SOL    HW214115   3.296   4.179   5.492
 4406SOL     OW14116   5.202   3.736   1.275
 4406SOL    HW114117   5.247   3.797   1.211
 4406SOL    HW214118   5.176   3.651   1.228
 4407SOL     OW14119   6.294   6.783   0.222
 4407SOL    HW114120   6.389   6.784   0.190
 4407SOL    HW214121   6.232   6.784   0.144
 4408SOL     OW14122   4.846   5.492   0.002
 4408SOL    HW114123   4.830   5.590   0.009
 4408SOL    HW214124   4.759   5.444   0.012
 4409SOL     OW14125   3.309   1.142   1.823
 4409SOL    HW114126   3.300   1.239   1.846
 4409SOL    HW214127   3.251   1.122   1.743
 4410SOL     OW14128   2.832   5.424   1.677
 4410SOL    HW114129   2.746   5.470   1.699
 4410SOL    HW214130   2.854   5.440   1.581
 4411SOL     OW14131   3.904   2.966   2.581
 4411SOL    HW114132   3.931   3.007   2.668
 4411SOL    HW214133   3.953   3.011   2.506
 4412SOL     OW14134   3.736   2.399   6.736
 4412SOL    HW114135   3.762   2.302   6.735
 4412SOL    HW214136   3.812   2.454   6.768
 4413SOL     OW14137   4.078   5.948   4.586
 4413SOL    HW114138   4.043   6.029   4.635
 4413SOL    HW214139   4.031   5.867   4.620
 4414SOL     OW14140   3.735   4.926   1.755
 4414SOL    HW114141   3.675   5.001   1.727
 4414SOL    HW214142   3.695   4.878   1.833
 4415SOL     OW14143   5.295   2.863   0.027
 4415SOL    HW114144   5.328   2.879   0.120
 4415SOL    HW214145   5.349   2.916   6.984
 4416SOL     OW14146   3.897   0.710   3.403
 4416SOL    HW114147   3.930   0.770   3.476
 4416SOL    HW214148   3.881   0.764   3.320
 4417SOL     OW14149   0.282   0.028   1.786
 4417SOL    HW114150   0.194   7.005   1.771
 4417SOL    HW214151   0.335   0.027   1.701
 4418SOL     OW14152   4.169   6.730   3.190
 4418SOL    HW114153   4.224   6.685   3.260
 4418SOL    HW214154   4.174   6.829   3.201
 4419SOL     OW14155   0.229   4.851   6.343
 4419SOL    HW114156   0.261   4.808   6.427
 4419SOL    HW214157   0.195   4.943   6.364
 4420SOL     OW14158   5.177   1.750   6.515
 4420SOL    HW114159   5.232   1.714   6.440
 4420SOL    HW214160   5.097   1.798   6.479
 4421SOL     OW14161   1.561   1.755   3.879
 4421SOL    HW114162   1.576   1.854   3.879
 4421SOL    HW214163   1.590   1.717   3.967
 4422SOL     OW14164   2.453   3.656   5.950
 4422SOL    HW114165   2.530   3.606   5.991
 4422SOL    HW214166   2.444   3.629   5.854
 4423SOL     OW14167   1.036   2.117   6.193
 4423SOL    HW114168   1.052   2.075   6.103
 4423SOL    HW214169   1.013   2.045   6.259
 4424SOL     OW14170   6.648   0.274   3.368
 4424SOL    HW114171   6.606   0.191   3.332
 4424SOL    HW214172   6.679   0.258   3.462
 4425SOL     OW14173   4.696   4.465   6.599
 4425SOL    HW114174   4.632   4.423   6.663
 4425SOL    HW214175   4.761   4.522   6.649
 4426SOL     OW14176   0.711   0.479   5.767
 4426SOL    HW114177   0.683   0.432   5.683
 4426SOL    HW214178   0.783   0.428   5.812
 4427SOL     OW14179   0.867   0.250   3.527
 4427SOL    HW114180   0.801   0.277   3.597
 4427SOL    HW214181   0.840   0.164   3.486
 4428SOL     OW14182   2.229   5.480   3.072
 4428SOL    HW114183   2.271   5.520   3.153
 4428SOL    HW214184   2.272   5.392   3.052
 4429SOL     OW14185   4.348   6.827   2.988
 4429SOL    HW114186   4.443   6.834   3.019
 4429SOL    HW214187   4.296   6.770   3.051
 4430SOL     OW14188   1.879   1.364   1.905
 4430SOL    HW114189   1.833   1.419   1.974
 4430SOL    HW214190   1.974   1.350   1.932
 4431SOL     OW14191   1.870   2.392   2.620
 4431SOL    HW114192   1.905   2.471   2.570
 4431SOL    HW214193   1.775   2.407   2.647
 4432SOL     OW14194   3.172   3.870   2.904
 4432SOL    HW114195   3.176   3.961   2.864
 4432SOL    HW214196   3.265   3.836   2.919
 4433SOL     OW14197   6.390   7.003   2.974
 4433SOL    HW114198   6.394   0.022   2.883
 4433SOL    HW214199   6.483   6.990   3.009
 4434SOL     OW14200   5.738   2.453   4.259
 4434SOL    HW114201   5.658   2.509   4.283
 4434SOL    HW214202   5.714   2.356   4.265
 4435SOL     OW14203   3.859   2.757   1.734
 4435SOL    HW114204   3.810   2.758   1.821
 4435SOL    HW214205   3.874   2.662   1.706
 4436SOL     OW14206   5.065   1.647   6.743
 4436SOL    HW114207   5.123   1.614   6.818
 4436SOL    HW214208   5.121   1.694   6.675
 4437SOL     OW14209   3.374   0.575   4.780
 4437SOL    HW114210   3.388   0.561   4.878
 4437SOL    HW214211   3.303   0.644   4.766
 4438SOL     OW14212   4.357   2.994   6.642
 4438SOL    HW114213   4.441   3.044   6.621
 4438SOL    HW214214   4.371   2.940   6.724
 4439SOL     OW14215   2.209   5.758   2.057
 4439SOL    HW114216   2.305   5.735   2.074
 4439SOL    HW214217   2.202   5.852   2.023
 4440SOL     OW14218   0.427   6.913   6.199
 4440SOL    HW114219   0.382   6.875   6.280
 4440SOL    HW214220   0.395   6.865   6.117
 4441SOL     OW14221   6.374   2.548   2.901
 4441SOL    HW114222   6.332   2.569   2.990
 4441SOL    HW214223   6.325   2.598   2.830
 4442SOL     OW14224   2.732   6.919   2.659
 4442SOL    HW114225   2.637   6.951   2.659
 4442SOL    HW214226   2.753   6.877   2.747
 4443SOL     OW14227   2.654   1.771   5.288
 4443SOL    HW114228   2.628   1.849   5.344
 4443SOL    HW214229   2.748   1.783   5.254
 4444SOL     OW14230   5.510   0.888   1.784
 4444SOL    HW114231   5.416   0.885   1.751
 4444SOL    HW214232   5.511   0.906   1.882
 4445SOL     OW14233   1.763   1.294   6.275
 4445SOL    HW114234   1.793   1.379   6.232
 4445SOL    HW214235   1.686   1.256   6.225
 4446SOL     OW14236   6.740   6.767   3.573
 4446SOL    HW114237   6.762   6.738   3.480
 4446SOL    HW214238   6.677   6.702   3.615
 4447SOL     OW14239   5.587   2.631   5.412
 4447SOL    HW114240   5.551   2.543   5.381
 4447SOL    HW214241   5.686   2.633   5.399
 4448SOL     OW14242   2.426   3.246   6.665
 4448SOL    HW114243   2.403   3.231   6.569
 4448SOL    HW214244   2.404   3.340   6.690
 4449SOL     OW14245   1.048   1.321   5.229
 4449SOL    HW114246   1.038   1.289   5.134
 4449SOL    HW214247   1.027   1.418   5.234
 4450SOL     OW14248   3.726   4.044   3.125
 4450SOL    HW114249   3.718   4.063   3.223
 4450SOL    HW214250   3.652   4.090   3.076
 4451SOL     OW14251   6.048   4.220   2.193
 4451SOL    HW114252   6.056   4.121   2.178
 4451SOL    HW214253   6.008   4.236   2.283
 4452SOL     OW14254   6.295   5.945   6.532
 4452SOL    HW114255   6.320   5.993   6.447
 4452SOL    HW214256   6.215   5.989   6.572
 4453SOL     OW14257   5.760   2.347   1.336
 4453SOL    HW114258   5.707   2.432   1.339
 4453SOL    HW214259   5.821   2.349   1.257
 4454SOL     OW14260   5.111   2.984   1.711
 4454SOL    HW114261   5.094   2.956   1.805
 4454SOL    HW214262   5.133   3.082   1.709
 4455SOL     OW14263   4.431   0.924   2.167
 4455SOL    HW114264   4.375   1.005   2.183
 4455SOL    HW214265   4.404   0.881   2.082
 4456SOL     OW14266   1.032   5.569   3.114
 4456SOL    HW114267   1.124   5.606   3.099
 4456SOL    HW214268   0.965   5.628   3.068
 4457SOL     OW14269   5.154   2.296   6.361
 4457SOL    HW114270   5.247   2.267   6.342
 4457SOL    HW214271   5.135   2.382   6.313
 4458SOL     OW14272   4.035   2.132   5.934
 4458SOL    HW114273   3.943   2.102   5.911
 4458SOL    HW214274   4.087   2.149   5.850
 4459SOL     OW14275   4.618   5.708   4.758
 4459SOL    HW114276   4.680   5.632   4.738
 4459SOL    HW214277   4.594   5.707   4.855
 4460SOL     OW14278   2.259   1.750   6.291
 4460SOL    HW114279   2.340   1.808   6.288
 4460SOL    HW214280   2.177   1.807   6.285
 4461SOL     OW14281   2.356   0.179   1.838
 4461SOL    HW114282   2.417   0.247   1.877
 4461SOL    HW214283   2.410   0.112   1.786
 4462SOL     OW14284   6.916   5.396   1.491
 4462SOL    HW114285   6.854   5.468   1.523
 4462SOL    HW214286   6.948   5.343   1.569
 4463SOL     OW14287   0.865   3.510   6.405
 4463SOL    HW114288   0.885   3.583   6.470
 4463SOL    HW214289   0.817   3.436   6.453
 4464SOL     OW14290   5.491   3.385   6.903
 4464SOL    HW114291   5.395   3.383   6.874
 4464SOL    HW214292   5.495   3.396   7.002
 4465SOL     OW14293   1.487   6.416   2.160
 4465SOL    HW114294   1.498   6.352   2.083
 4465SOL    HW214295   1.436   6.371   2.233
 4466SOL     OW14296   0.889   2.048   3.776
 4466SOL    HW114297   0.979   2.088   3.755
 4466SOL    HW214298   0.826   2.121   3.803
 4467SOL     OW14299   0.816   6.703   3.155
 4467SOL    HW114300   0.887   6.680   3.221
 4467SOL    HW214301   0.735   6.647   3.172
 4468SOL     OW14302   1.607   2.265   0.384
 4468SOL    HW114303   1.544   2.278   0.461
 4468SOL    HW214304   1.568   2.198   0.321
 4469SOL     OW14305   4.447   0.188   6.810
 4469SOL    HW114306   4.377   0.118   6.792
 4469SOL    HW214307   4.420   0.274   6.766
 4470SOL     OW14308   4.558   4.732   1.180
 4470SOL    HW114309   4.561   4.703   1.276
 4470SOL    HW214310   4.514   4.821   1.174
 4471SOL     OW14311   6.361   3.434   0.764
 4471SOL    HW114312   6.346   3.381   0.680
 4471SOL    HW214313   6.295   3.509   0.768
 4472SOL     OW14314   1.816   4.222   2.692
 4472SOL    HW114315   1.863   4.134   2.690
 4472SOL    HW214316   1.799   4.253   2.599
 4473SOL     OW14317   0.379   6.796   4.860
 4473SOL    HW114318   0.358   6.818   4.955
 4473SOL    HW214319   0.314   6.728   4.826
 4474SOL     OW14320   4.655   0.486   3.309
 4474SOL    HW114321   4.665   0.457   3.404
 4474SOL    HW214322   4.561   0.470   3.279
 4475SOL     OW14323   1.911   3.907   0.374
 4475SOL    HW114324   1.890   3.831   0.435
 4475SOL    HW214325   1.900   3.878   0.279
 4476SOL     OW14326   4.842   6.137   1.909
 4476SOL    HW114327   4.859   6.181   1.821
 4476SOL    HW214328   4.831   6.207   1.979
 4477SOL     OW14329   1.316   1.965   0.885
 4477SOL    HW114330   1.342   2.038   0.822
 4477SOL    HW214331   1.283   1.886   0.833
 4478SOL     OW14332   2.128   6.002   1.850
 4478SOL    HW114333   2.201   6.026   1.913
 4478SOL    HW214334   2.059   6.074   1.849
 4479SOL     OW14335   0.652   0.173   5.329
 4479SOL    HW114336   0.748   0.174   5.357
 4479SOL    HW214337   0.642   0.115   5.249
 4480SOL     OW14338   0.753   4.700   3.759
 4480SOL    HW114339   0.747   4.695   3.659
 4480SOL    HW214340   0.807   4.624   3.794
 4481SOL     OW14341   1.081   6.389   4.552
 4481SOL    HW114342   1.160   6.408   4.493
 4481SOL    HW214343   1.013   6.461   4.541
 4482SOL     OW14344   0.159   4.387   3.929
 4482SOL    HW114345   0.240   4.431   3.968
 4482SOL    HW214346   0.087   4.382   3.999
 4483SOL     OW14347   5.698   2.911   2.451
 4483SOL    HW114348   5.666   2.952   2.536
 4483SOL    HW214349   5.653   2.954   2.373
 4484SOL     OW14350   4.450   2.860   5.542
 4484SOL    HW114351   4.369   2.834   5.489
 4484SOL    HW214352   4.436   2.950   5.583
 4485SOL     OW14353   5.360   1.980   6.309
 4485SOL    HW114354   5.426   1.907   6.290
 4485SOL    HW214355   5.275   1.962   6.261
 4486SOL     OW14356   6.254   2.875   3.923
 4486SOL    HW114357   6.208   2.939   3.862
 4486SOL    HW214358   6.230   2.897   4.018
 4487SOL     OW14359   3.239   2.911   6.312
 4487SOL    HW114360   3.225   3.006   6.340
 4487SOL    HW214361   3.292   2.863   6.382
 4488SOL     OW14362   0.335   1.294   4.867
 4488SOL    HW114363   0.255   1.355   4.865
 4488SOL    HW214364   0.315   1.215   4.925
 4489SOL     OW14365   6.353   6.873   4.554
 4489SOL    HW114366   6.434   6.877   4.612
 4489SOL    HW214367   6.328   6.778   4.538
 4490SOL     OW14368   6.889   1.936   3.202
 4490SOL    HW114369   6.872   1.846   3.243
 4490SOL    HW214370   6.875   2.007   3.270
 4491SOL     OW14371   0.888   3.102   3.044
 4491SOL    HW114372   0.980   3.111   3.082
 4491SOL    HW214373   0.892   3.045   2.961
 4492SOL     OW14374   4.562   3.080   6.882
 4492SOL    HW114375   4.594   3.107   6.973
 4492SOL    HW214376   4.604   2.993   6.856
 4493SOL     OW14377   6.242   5.286   4.282
 4493SOL    HW114378   6.293   5.353   4.336
 4493SOL    HW214379   6.192   5.332   4.209
 4494SOL     OW14380   6.258   4.355   4.557
 4494SOL    HW114381   6.192   4.289   4.520
 4494SOL    HW214382   6.341   4.308   4.586
 4495SOL     OW14383   4.952   6.526   1.303
 4495SOL    HW114384   4.870   6.566   1.263
 4495SOL    HW214385   4.992   6.461   1.238
 4496SOL     OW14386   4.913   3.932   5.505
 4496SOL    HW114387   4.953   3.877   5.578
 4496SOL    HW214388   4.835   3.884   5.466
 4497SOL     OW14389   6.211   4.846   0.536
 4497SOL    HW114390   6.252   4.857   0.445
 4497SOL    HW214391   6.130   4.904   0.543
 4498SOL     OW14392   0.170   3.523   0.173
 4498SOL    HW114393   0.214   3.601   0.218
 4498SOL    HW214394   0.100   3.555   0.111
 4499SOL     OW14395   0.098   2.758   6.112
 4499SOL    HW114396   0.102   2.735   6.209
 4499SOL    HW214397   0.188   2.741   6.070
 4500SOL     OW14398   2.952   3.822   4.774
 4500SOL    HW114399   2.879   3.830   4.707
 4500SOL    HW214400   3.041   3.828   4.728
 4501SOL     OW14401   0.268   4.234   5.113
 4501SOL    HW114402   0.322   4.318   5.113
 4501SOL    HW214403   0.171   4.256   5.105
 4502SOL     OW14404   0.488   2.626   0.436
 4502SOL    HW114405   0.517   2.551   0.377
 4502SOL    HW214406   0.391   2.646   0.421
 4503SOL     OW14407   1.156   1.390   3.930
 4503SOL    HW114408   1.091   1.408   3.856
 4503SOL    HW214409   1.213   1.471   3.945
 4504SOL     OW14410   5.112   1.775   4.393
 4504SOL    HW114411   5.154   1.811   4.310
 4504SOL    HW214412   5.141   1.830   4.472
 4505SOL     OW14413   1.840   6.066   6.023
 4505SOL    HW114414   1.808   6.130   6.093
 4505SOL    HW214415   1.939   6.077   6.010
 4506SOL     OW14416   4.545   0.425   5.318
 4506SOL    HW114417   4.486   0.500   5.287
 4506SOL    HW214418   4.631   0.463   5.353
 4507SOL     OW14419   6.249   4.598   0.683
 4507SOL    HW114420   6.301   4.514   0.669
 4507SOL    HW214421   6.298   4.675   0.642
 4508SOL     OW14422   1.154   3.767   0.624
 4508SOL    HW114423   1.081   3.699   0.622
 4508SOL    HW214424   1.235   3.732   0.577
 4509SOL     OW14425   2.600   2.063   4.045
 4509SOL    HW114426   2.514   2.103   4.075
 4509SOL    HW214427   2.617   1.979   4.095
 4510SOL     OW14428   4.075   6.157   5.194
 4510SOL    HW114429   4.124   6.244   5.187
 4510SOL    HW214430   4.092   6.103   5.112
 4511SOL     OW14431   6.097   2.309   0.531
 4511SOL    HW114432   6.094   2.311   0.631
 4511SOL    HW214433   6.130   2.219   0.500
 4512SOL     OW14434   2.766   5.199   6.755
 4512SOL    HW114435   2.725   5.155   6.835
 4512SOL    HW214436   2.695   5.238   6.697
 4513SOL     OW14437   4.991   1.072   1.997
 4513SOL    HW114438   5.035   0.985   2.021
 4513SOL    HW214439   4.914   1.088   2.059
 4514SOL     OW14440   3.404   1.567   5.217
 4514SOL    HW114441   3.436   1.620   5.295
 4514SOL    HW214442   3.453   1.595   5.134
 4515SOL     OW14443   0.357   5.380   1.220
 4515SOL    HW114444   0.308   5.368   1.133
 4515SOL    HW214445   0.304   5.338   1.294
 4516SOL     OW14446   0.979   0.788   5.206
 4516SOL    HW114447   0.941   0.782   5.114
 4516SOL    HW214448   0.955   0.877   5.246
 4517SOL     OW14449   3.103   6.811   5.259
 4517SOL    HW114450   3.024   6.850   5.306
 4517SOL    HW214451   3.134   6.730   5.309
 4518SOL     OW14452   1.401   2.194   4.661
 4518SOL    HW114453   1.367   2.250   4.585
 4518SOL    HW214454   1.475   2.243   4.708
 4519SOL     OW14455   6.924   3.059   3.826
 4519SOL    HW114456   6.866   2.979   3.842
 4519SOL    HW214457   6.890   3.135   3.882
 4520SOL     OW14458   6.964   3.947   3.059
 4520SOL    HW114459   6.892   4.016   3.071
 4520SOL    HW214460   6.968   3.920   2.963
 4521SOL     OW14461   5.559   2.029   6.910
 4521SOL    HW114462   5.530   2.123   6.929
 4521SOL    HW214463   5.507   1.994   6.831
 4522SOL     OW14464   6.051   0.223   4.047
 4522SOL    HW114465   6.079   0.220   3.951
 4522SOL    HW214466   6.128   0.252   4.103
 4523SOL     OW14467   3.665   3.698   0.477
 4523SOL    HW114468   3.747   3.671   0.426
 4523SOL    HW214469   3.611   3.617   0.500
 4524SOL     OW14470   5.767   0.249   4.703
 4524SOL    HW114471   5.816   0.253   4.616
 4524SOL    HW214472   5.827   0.211   4.773
 4525SOL     OW14473   6.375   1.482   5.285
 4525SOL    HW114474   6.353   1.567   5.334
 4525SOL    HW214475   6.358   1.494   5.187
 4526SOL     OW14476   4.970   7.012   0.875
 4526SOL    HW114477   5.005   0.063   0.934
 4526SOL    HW214478   5.011   6.925   0.901
 4527SOL     OW14479   4.967   0.756   2.546
 4527SOL    HW114480   4.992   0.814   2.623
 4527SOL    HW214481   4.868   0.760   2.531
 4528SOL     OW14482   5.933   0.026   0.123
 4528SOL    HW114483   5.861   0.089   0.095
 4528SOL    HW214484   5.914   6.957   0.085
 4529SOL     OW14485   3.805   6.305   3.069
 4529SOL    HW114486   3.790   6.336   3.163
 4529SOL    HW214487   3.733   6.341   3.010
 4530SOL     OW14488   0.429   3.290   5.551
 4530SOL    HW114489   0.445   3.249   5.461
 4530SOL    HW214490   0.515   3.301   5.599
 4531SOL     OW14491   0.183   3.902   4.178
 4531SOL    HW114492   0.121   3.978   4.161
 4531SOL    HW214493   0.130   3.819   4.197
 4532SOL     OW14494   6.043   1.455   0.492
 4532SOL    HW114495   5.973   1.522   0.466
 4532SOL    HW214496   6.133   1.499   0.490
 4533SOL     OW14497   2.489   5.819   2.559
 4533SOL    HW114498   2.428   5.871   2.619
 4533SOL    HW214499   2.552   5.764   2.615
 4534SOL     OW14500   5.917   3.849   5.040
 4534SOL    HW114501   5.973   3.785   4.988
 4534SOL    HW214502   5.897   3.930   4.985
 4535SOL     OW14503   5.012   2.932   1.984
 4535SOL    HW114504   5.065   3.009   2.020
 4535SOL    HW214505   4.917   2.961   1.969
 4536SOL     OW14506   6.321   0.869   4.823
 4536SOL    HW114507   6.326   0.777   4.784
 4536SOL    HW214508   6.266   0.867   4.906
 4537SOL     OW14509   3.515   2.734   6.262
 4537SOL    HW114510   3.496   2.798   6.337
 4537SOL    HW214511   3.580   2.776   6.199
 4538SOL     OW14512   2.908   1.323   3.169
 4538SOL    HW114513   2.882   1.243   3.116
 4538SOL    HW214514   2.862   1.321   3.257
 4539SOL     OW14515   1.812   1.617   2.808
 4539SOL    HW114516   1.723   1.661   2.814
 4539SOL    HW214517   1.863   1.629   2.893
 4540SOL     OW14518   3.289   3.255   4.035
 4540SOL    HW114519   3.285   3.159   4.062
 4540SOL    HW214520   3.273   3.313   4.115
 4541SOL     OW14521   4.782   1.724   1.495
 4541SOL    HW114522   4.784   1.624   1.490
 4541SOL    HW214523   4.734   1.761   1.415
 4542SOL     OW14524   5.112   0.368   2.630
 4542SOL    HW114525   5.080   0.396   2.720
 4542SOL    HW214526   5.035   0.363   2.567
 4543SOL     OW14527   5.689   1.511   1.111
 4543SOL    HW114528   5.748   1.434   1.086
 4543SOL    HW214529   5.745   1.594   1.122
 4544SOL     OW14530   3.744   4.657   6.599
 4544SOL    HW114531   3.706   4.747   6.620
 4544SOL    HW214532   3.747   4.644   6.500
 4545SOL     OW14533   3.895   2.078   5.554
 4545SOL    HW114534   3.904   1.979   5.544
 4545SOL    HW214535   3.986   2.119   5.563
 4546SOL     OW14536   1.242   6.277   6.682
 4546SOL    HW114537   1.150   6.314   6.677
 4546SOL    HW214538   1.298   6.317   6.610
 4547SOL     OW14539   4.920   2.165   2.214
 4547SOL    HW114540   4.908   2.136   2.309
 4547SOL    HW214541   4.902   2.088   2.153
 4548SOL     OW14542   1.062   3.790   3.559
 4548SOL    HW114543   1.152   3.819   3.527
 4548SOL    HW214544   0.993   3.857   3.531
 4549SOL     OW14545   6.796   3.017   2.787
 4549SOL    HW114546   6.865   2.945   2.781
 4549SOL    HW214547   6.717   2.991   2.732
 4550SOL     OW14548   1.359   6.167   4.324
 4550SOL    HW114549   1.408   6.161   4.237
 4550SOL    HW214550   1.423   6.146   4.399
 4551SOL     OW14551   0.758   2.777   5.593
 4551SOL    HW114552   0.698   2.740   5.663
 4551SOL    HW214553   0.776   2.707   5.524
 4552SOL     OW14554   0.169   3.560   4.939
 4552SOL    HW114555   0.232   3.482   4.938
 4552SOL    HW214556   0.165   3.601   4.848
 4553SOL     OW14557   4.999   4.499   0.515
 4553SOL    HW114558   4.910   4.476   0.476
 4553SOL    HW214559   5.003   4.598   0.531
 4554SOL     OW14560   5.318   6.945   2.433
 4554SOL    HW114561   5.350   6.940   2.338
 4554SOL    HW214562   5.328   0.017   2.467
 4555SOL     OW14563   4.829   2.270   6.702
 4555SOL    HW114564   4.865   2.231   6.618
 4555SOL    HW214565   4.863   2.217   6.780
 4556SOL     OW14566   4.692   1.280   3.637
 4556SOL    HW114567   4.621   1.216   3.611
 4556SOL    HW214568   4.765   1.280   3.569
 4557SOL     OW14569   5.302   6.670   5.899
 4557SOL    HW114570   5.214   6.635   5.866
 4557SOL    HW214571   5.308   6.768   5.881
 4558SOL     OW14572   6.227   3.047   6.569
 4558SOL    HW114573   6.227   3.044   6.669
 4558SOL    HW214574   6.180   3.129   6.538
 4559SOL     OW14575   0.951   6.675   1.371
 4559SOL    HW114576   1.007   6.675   1.454
 4559SOL    HW214577   0.979   6.599   1.312
 4560SOL     OW14578   4.861   3.324   3.136
 4560SOL    HW114579   4.857   3.227   3.112
 4560SOL    HW214580   4.852   3.380   3.053
 4561SOL     OW14581   3.483   0.353   6.601
 4561SOL    HW114582   3.405   0.414   6.591
 4561SOL    HW214583   3.567   0.406   6.612
 4562SOL     OW14584   2.734   4.886   6.440
 4562SOL    HW114585   2.715   4.788   6.447
 4562SOL    HW214586   2.811   4.901   6.377
 4563SOL     OW14587   5.939   2.291   0.003
 4563SOL    HW114588   5.936   2.204   0.052
 4563SOL    HW214589   5.923   2.274   6.927
 4564SOL     OW14590   1.564   5.898   0.206
 4564SOL    HW114591   1.496   5.942   0.266
 4564SOL    HW214592   1.571   5.950   0.121
 4565SOL     OW14593   1.992   0.469   5.430
 4565SOL    HW114594   1.971   0.420   5.515
 4565SOL    HW214595   2.070   0.426   5.385
 4566SOL     OW14596   6.864   1.395   6.974
 4566SOL    HW114597   6.940   1.335   6.999
 4566SOL    HW214598   6.900   1.482   6.942
 4567SOL     OW14599   6.879   1.099   1.114
 4567SOL    HW114600   6.780   1.114   1.114
 4567SOL    HW214601   6.919   1.139   1.031
 4568SOL     OW14602   3.621   4.564   5.791
 4568SOL    HW114603   3.563   4.488   5.821
 4568SOL    HW214604   3.566   4.647   5.784
 4569SOL     OW14605   0.564   1.891   4.253
 4569SOL    HW114606   0.644   1.863   4.306
 4569SOL    HW214607   0.594   1.935   4.168
 4570SOL     OW14608   0.373   5.295   3.978
 4570SOL    HW114609   0.395   5.225   3.910
 4570SOL    HW214610   0.457   5.321   4.027
 4571SOL     OW14611   3.603   2.861   4.947
 4571SOL    HW114612   3.612   2.811   5.033
 4571SOL    HW214613   3.572   2.954   4.966
 4572SOL     OW14614   1.831   6.918   1.633
 4572SOL    HW114615   1.818   6.819   1.636
 4572SOL    HW214616   1.836   6.948   1.538
 4573SOL     OW14617   5.332   6.867   0.807
 4573SOL    HW114618   5.275   6.889   0.727
 4573SOL    HW214619   5.368   6.775   0.797
 4574SOL     OW14620   0.139   4.488   1.910
 4574SOL    HW114621   0.088   4.542   1.843
 4574SOL    HW214622   0.201   4.549   1.961
 4575SOL     OW14623   6.210   0.361   2.667
 4575SOL    HW114624   6.239   0.296   2.597
 4575SOL    HW214625   6.116   0.389   2.650
 4576SOL     OW14626   3.187   5.512   6.127
 4576SOL    HW114627   3.254   5.547   6.062
 4576SOL    HW214628   3.111   5.576   6.135
 4577SOL     OW14629   0.917   3.149   3.852
 4577SOL    HW114630   0.945   3.055   3.836
 4577SOL    HW214631   0.825   3.164   3.816
 4578SOL     OW14632   6.726   4.131   4.118
 4578SOL    HW114633   6.634   4.155   4.086
 4578SOL    HW214634   6.731   4.033   4.134
 4579SOL     OW14635   5.810   2.219   3.656
 4579SOL    HW114636   5.753   2.215   3.574
 4579SOL    HW214637   5.902   2.249   3.632
 4580SOL     OW14638   6.947   5.780   0.656
 4580SOL    HW114639   6.858   5.736   0.668
 4580SOL    HW214640   6.945   5.841   0.577
 4581SOL     OW14641   2.991   5.564   2.645
 4581SOL    HW114642   2.990   5.496   2.718
 4581SOL    HW214643   2.902   5.609   2.640
 4582SOL     OW14644   4.919   6.448   2.745
 4582SOL    HW114645   4.954   6.403   2.663
 4582SOL    HW214646   4.835   6.403   2.775
 4583SOL     OW14647   4.089   1.802   5.493
 4583SOL    HW114648   4.123   1.718   5.537
 4583SOL    HW214649   4.061   1.781   5.399
 4584SOL     OW14650   0.464   5.826   5.547
 4584SOL    HW114651   0.480   5.866   5.456
 4584SOL    HW214652   0.460   5.726   5.539
 4585SOL     OW14653   3.518   6.367   2.668
 4585SOL    HW114654   3.600   6.365   2.611
 4585SOL    HW214655   3.441   6.330   2.617
 4586SOL     OW14656   3.346   5.363   2.357
 4586SOL    HW114657   3.250   5.387   2.344
 4586SOL    HW214658   3.373   5.294   2.290
 4587SOL     OW14659   2.430   3.891   1.220
 4587SOL    HW114660   2.410   3.798   1.189
 4587SOL    HW214661   2.479   3.887   1.307
 4588SOL     OW14662   4.021   3.506   5.029
 4588SOL    HW114663   4.037   3.503   4.930
 4588SOL    HW214664   4.033   3.415   5.067
 4589SOL     OW14665   6.566   2.149   4.747
 4589SOL    HW114666   6.502   2.222   4.722
 4589SOL    HW214667   6.522   2.085   4.809
 4590SOL     OW14668   4.529   5.085   2.376
 4590SOL    HW114669   4.464   5.079   2.301
 4590SOL    HW214670   4.568   4.994   2.393
 4591SOL     OW14671   5.441   6.338   5.261
 4591SOL    HW114672   5.493   6.414   5.298
 4591SOL    HW214673   5.434   6.266   5.330
 4592SOL     OW14674   3.834   2.248   6.256
 4592SOL    HW114675   3.891   2.289   6.185
 4592SOL    HW214676   3.752   2.303   6.269
 4593SOL     OW14677   3.984   6.584   2.201
 4593SOL    HW114678   3.989   6.661   2.264
 4593SOL    HW214679   3.912   6.522   2.230
 4594SOL     OW14680   2.738   1.462   2.065
 4594SOL    HW114681   2.732   1.375   2.015
 4594SOL    HW214682   2.725   1.444   2.162
 4595SOL     OW14683   4.037   2.892   5.992
 4595SOL    HW114684   4.059   2.799   5.961
 4595SOL    HW214685   4.038   2.895   6.092
 4596SOL     OW14686   5.730   0.128   1.960
 4596SOL    HW114687   5.718   0.226   1.945
 4596SOL    HW214688   5.719   0.108   2.058
 4597SOL     OW14689   5.823   4.334   6.716
 4597SOL    HW114690   5.781   4.246   6.736
 4597SOL    HW214691   5.839   4.383   6.802
 4598SOL     OW14692   2.739   4.640   6.752
 4598SOL    HW114693   2.813   4.705   6.770
 4598SOL    HW214694   2.711   4.646   6.656
 4599SOL     OW14695   1.890   4.815   0.602
 4599SOL    HW114696   1.855   4.732   0.560
 4599SOL    HW214697   1.871   4.813   0.700
 4600SOL     OW14698   2.921   5.488   1.171
 4600SOL    HW114699   3.014   5.492   1.207
 4600SOL    HW214700   2.912   5.549   1.093
 4601SOL     OW14701   1.860   6.534   5.313
 4601SOL    HW114702   1.844   6.588   5.395
 4601SOL    HW214703   1.914   6.587   5.248
 4602SOL     OW14704   2.208   0.750   1.938
 4602SOL    HW114705   2.207   0.743   2.038
 4602SOL    HW214706   2.121   0.787   1.906
 4603SOL     OW14707   3.315   0.010   1.264
 4603SOL    HW114708   3.297   6.983   1.349
 4603SOL    HW214709   3.322   0.108   1.283
 4604SOL     OW14710   3.795   6.697   2.004
 4604SOL    HW114711   3.883   6.658   2.032
 4604SOL    HW214712   3.768   6.768   2.070
 4605SOL     OW14713   5.145   6.841   4.744
 4605SOL    HW114714   5.165   6.886   4.831
 4605SOL    HW214715   5.046   6.841   4.730
 4606SOL     OW14716   6.935   6.359   5.755
 4606SOL    HW114717   6.986   6.284   5.797
 4606SOL    HW214718   6.928   6.435   5.819
 4607SOL     OW14719   3.227   2.159   1.507
 4607SOL    HW114720   3.263   2.245   1.542
 4607SOL    HW214721   3.162   2.121   1.572
 4608SOL     OW14722   1.599   4.046   5.341
 4608SOL    HW114723   1.687   4.036   5.388
 4608SOL    HW214724   1.527   4.061   5.409
 4609SOL     OW14725   4.472   6.826   6.867
 4609SOL    HW114726   4.471   6.729   6.891
 4609SOL    HW214727   4.548   6.844   6.804
 4610SOL     OW14728   0.289   3.250   6.804
 4610SOL    HW114729   0.246   3.252   6.894
 4610SOL    HW214730   0.373   3.196   6.808
 4611SOL     OW14731   0.666   4.312   0.515
 4611SOL    HW114732   0.612   4.227   0.516
 4611SOL    HW214733   0.659   4.356   0.605
 4612SOL     OW14734   2.241   6.651   6.716
 4612SOL    HW114735   2.277   6.650   6.622
 4612SOL    HW214736   2.315   6.630   6.780
 4613SOL     OW14737   3.047   5.459   2.377
 4613SOL    HW114738   3.007   5.532   2.322
 4613SOL    HW214739   3.067   5.493   2.469
 4614SOL     OW14740   1.731   5.445   0.063
 4614SOL    HW114741   1.813   5.395   0.090
 4614SOL    HW214742   1.680   5.391   7.017
 4615SOL     OW14743   0.473   2.632   0.728
 4615SOL    HW114744   0.544   2.683   0.776
 4615SOL    HW214745   0.472   2.659   0.631
 4616SOL     OW14746   5.096   1.049   6.852
 4616SOL    HW114747   5.065   1.000   6.771
 4616SOL    HW214748   5.043   1.021   6.931
 4617SOL     OW14749   0.131   2.490   1.976
 4617SOL    HW114750   0.144   2.586   2.004
 4617SOL    HW214751   0.214   2.439   1.996
 4618SOL     OW14752   0.946   2.359   6.097
 4618SOL    HW114753   0.846   2.357   6.092
 4618SOL    HW214754   0.977   2.293   6.165
 4619SOL     OW14755   3.454   0.883   3.480
 4619SOL    HW114756   3.403   0.955   3.526
 4619SOL    HW214757   3.402   0.849   3.402
 4620SOL     OW14758   2.484   4.267   6.541
 4620SOL    HW114759   2.388   4.293   6.553
 4620SOL    HW214760   2.530   4.335   6.484
 4621SOL     OW14761   0.539   6.198   5.890
 4621SOL    HW114762   0.463   6.154   5.843
 4621SOL    HW214763   0.560   6.149   5.975
 4622SOL     OW14764   1.969   3.822   1.017
 4622SOL    HW114765   1.891   3.864   0.970
 4622SOL    HW214766   2.054   3.862   0.981
 4623SOL     OW14767   6.295   4.994   1.775
 4623SOL    HW114768   6.362   5.008   1.849
 4623SOL    HW214769   6.259   5.082   1.746
 4624SOL     OW14770   4.863   6.906   4.749
 4624SOL    HW114771   4.849   6.854   4.833
 4624SOL    HW214772   4.830   7.000   4.761
 4625SOL     OW14773   0.928   3.895   6.849
 4625SOL    HW114774   0.885   3.985   6.857
 4625SOL    HW214775   0.988   3.894   6.769
 4626SOL     OW14776   6.825   5.420   1.199
 4626SOL    HW114777   6.863   5.422   1.292
 4626SOL    HW214778   6.736   5.466   1.199
 4627SOL     OW14779   3.076   6.421   5.708
 4627SOL    HW114780   3.150   6.365   5.745
 4627SOL    HW214781   3.113   6.506   5.672
 4628SOL     OW14782   7.010   4.286   2.065
 4628SOL    HW114783   0.023   4.378   2.047
 4628SOL    HW214784   0.063   4.221   2.062
 4629SOL     OW14785   2.242   4.604   5.693
 4629SOL    HW114786   2.259   4.513   5.655
 4629SOL    HW214787   2.316   4.629   5.755
 4630SOL     OW14788   1.864   6.503   2.753
 4630SOL    HW114789   1.780   6.489   2.806
 4630SOL    HW214790   1.941   6.513   2.816
 4631SOL     OW14791   3.187   6.887   2.334
 4631SOL    HW114792   3.216   6.981   2.353
 4631SOL    HW214793   3.150   6.882   2.241
 4632SOL     OW14794   5.197   5.829   3.953
 4632SOL    HW114795   5.112   5.828   3.900
 4632SOL    HW214796   5.268   5.880   3.903
 4633SOL     OW14797   6.401   2.032   4.925
 4633SOL    HW114798   6.440   2.063   5.012
 4633SOL    HW214799   6.302   2.027   4.933
 4634SOL     OW14800   3.178   4.335   0.575
 4634SOL    HW114801   3.128   4.250   0.558
 4634SOL    HW214802   3.231   4.327   0.660
 4635SOL     OW14803   5.389   3.739   1.749
 4635SOL    HW114804   5.411   3.661   1.690
 4635SOL    HW214805   5.332   3.804   1.699
 4636SOL     OW14806   2.547   5.489   0.410
 4636SOL    HW114807   2.511   5.494   0.503
 4636SOL    HW214808   2.555   5.582   0.372
 4637SOL     OW14809   1.393   1.472   5.193
 4637SOL    HW114810   1.376   1.437   5.101
 4637SOL    HW214811   1.475   1.530   5.193
 4638SOL     OW14812   5.510   3.292   5.364
 4638SOL    HW114813   5.428   3.263   5.314
 4638SOL    HW214814   5.507   3.391   5.378
 4639SOL     OW14815   6.981   3.809   5.413
 4639SOL    HW114816   0.038   3.831   5.356
 4639SOL    HW214817   6.990   3.716   5.448
 4640SOL     OW14818   5.365   4.175   2.659
 4640SOL    HW114819   5.403   4.163   2.567
 4640SOL    HW214820   5.272   4.210   2.651
 4641SOL     OW14821   2.086   5.314   5.356
 4641SOL    HW114822   2.116   5.225   5.321
 4641SOL    HW214823   2.117   5.386   5.295
 4642SOL     OW14824   5.760   6.180   4.408
 4642SOL    HW114825   5.685   6.137   4.358
 4642SOL    HW214826   5.726   6.213   4.496
 4643SOL     OW14827   4.077   2.114   1.798
 4643SOL    HW114828   4.136   2.189   1.827
 4643SOL    HW214829   4.056   2.124   1.701
 4644SOL     OW14830   2.330   5.702   5.231
 4644SOL    HW114831   2.398   5.707   5.158
 4644SOL    HW214832   2.371   5.734   5.317
 4645SOL     OW14833   2.058   5.858   4.640
 4645SOL    HW114834   2.086   5.766   4.614
 4645SOL    HW214835   2.093   5.879   4.731
 4646SOL     OW14836   3.928   0.695   1.732
 4646SOL    HW114837   3.977   0.608   1.723
 4646SOL    HW214838   3.837   0.686   1.690
 4647SOL     OW14839   6.327   0.255   4.153
 4647SOL    HW114840   6.399   0.251   4.084
 4647SOL    HW214841   6.318   0.165   4.198
 4648SOL     OW14842   2.387   5.961   2.941
 4648SOL    HW114843   2.373   6.044   2.995
 4648SOL    HW214844   2.400   5.985   2.845
 4649SOL     OW14845   4.964   0.580   6.111
 4649SOL    HW114846   4.900   0.547   6.042
 4649SOL    HW214847   4.924   0.566   6.202
 4650SOL     OW14848   6.414   4.540   2.181
 4650SOL    HW114849   6.333   4.579   2.223
 4650SOL    HW214850   6.387   4.469   2.116
 4651SOL     OW14851   0.327   2.223   2.048
 4651SOL    HW114852   0.261   2.171   2.102
 4651SOL    HW214853   0.345   2.311   2.093
 4652SOL     OW14854   6.932   6.346   6.121
 4652SOL    HW114855   6.980   6.419   6.072
 4652SOL    HW214856   6.857   6.311   6.065
 4653SOL     OW14857   0.553   6.008   6.890
 4653SOL    HW114858   0.482   5.944   6.919
 4653SOL    HW214859   0.537   6.097   6.931
 4654SOL     OW14860   1.140   1.099   0.188
 4654SOL    HW114861   1.194   1.028   0.233
 4654SOL    HW214862   1.184   1.126   0.103
 4655SOL     OW14863   6.874   4.654   3.198
 4655SOL    HW114864   6.861   4.731   3.135
 4655SOL    HW214865   6.967   4.617   3.186
 4656SOL     OW14866   2.098   6.783   3.585
 4656SOL    HW114867   2.037   6.710   3.555
 4656SOL    HW214868   2.074   6.868   3.539
 4657SOL     OW14869   5.415   0.272   0.307
 4657SOL    HW114870   5.433   0.251   0.210
 4657SOL    HW214871   5.488   0.233   0.363
 4658SOL     OW14872   5.336   0.693   3.566
 4658SOL    HW114873   5.330   0.641   3.480
 4658SOL    HW214874   5.431   0.702   3.593
 4659SOL     OW14875   1.611   2.574   5.078
 4659SOL    HW114876   1.576   2.528   5.160
 4659SOL    HW214877   1.710   2.584   5.085
 4660SOL     OW14878   0.325   0.298   6.076
 4660SOL    HW114879   0.316   0.360   6.155
 4660SOL    HW214880   0.367   0.347   6.000
 4661SOL     OW14881   3.896   4.024   4.534
 4661SOL    HW114882   3.878   4.074   4.449
 4661SOL    HW214883   3.821   3.960   4.552
 4662SOL     OW14884   4.971   0.273   5.129
 4662SOL    HW114885   4.888   0.237   5.087
 4662SOL    HW214886   5.000   0.211   5.202
 4663SOL     OW14887   0.194   2.241   2.879
 4663SOL    HW114888   0.134   2.320   2.879
 4663SOL    HW214889   0.233   2.227   2.970
 4664SOL     OW14890   3.013   2.242   6.749
 4664SOL    HW114891   2.927   2.240   6.801
 4664SOL    HW214892   3.017   2.327   6.697
 4665SOL     OW14893   5.230   0.461   0.163
 4665SOL    HW114894   5.247   0.394   0.236
 4665SOL    HW214895   5.307   0.524   0.157
 4666SOL     OW14896   2.205   1.510   0.509
 4666SOL    HW114897   2.170   1.545   0.423
 4666SOL    HW214898   2.137   1.450   0.551
 4667SOL     OW14899   0.362   5.325   6.310
 4667SOL    HW114900   0.384   5.392   6.239
 4667SOL    HW214901   0.443   5.270   6.330
 4668SOL     OW14902   6.819   1.774   4.211
 4668SOL    HW114903   6.792   1.745   4.119
 4668SOL    HW214904   6.910   1.738   4.232
 4669SOL     OW14905   1.718   0.285   0.314
 4669SOL    HW114906   1.764   0.343   0.381
 4669SOL    HW214907   1.748   0.191   0.326
 4670SOL     OW14908   2.273   1.743   3.948
 4670SOL    HW114909   2.277   1.783   4.039
 4670SOL    HW214910   2.237   1.650   3.954
 4671SOL     OW14911   5.980   3.491   1.301
 4671SOL    HW114912   5.909   3.451   1.359
 4671SOL    HW214913   5.941   3.519   1.214
 4672SOL     OW14914   1.805   3.553   5.967
 4672SOL    HW114915   1.725   3.495   5.984
 4672SOL    HW214916   1.831   3.599   6.051
 4673SOL     OW14917   4.060   0.862   2.770
 4673SOL    HW114918   4.118   0.795   2.724
 4673SOL    HW214919   3.964   0.839   2.756
 4674SOL     OW14920   4.481   5.757   6.088
 4674SOL    HW114921   4.531   5.843   6.094
 4674SOL    HW214922   4.441   5.735   6.177
 4675SOL     OW14923   0.709   4.059   0.023
 4675SOL    HW114924   0.626   4.014   7.012
 4675SOL    HW214925   0.721   4.042   0.121
 4676SOL     OW14926   0.902   5.884   3.899
 4676SOL    HW114927   0.835   5.815   3.875
 4676SOL    HW214928   0.972   5.844   3.959
 4677SOL     OW14929   1.602   2.816   0.090
 4677SOL    HW114930   1.678   2.881   0.097
 4677SOL    HW214931   1.526   2.847   0.148
 4678SOL     OW14932   2.600   5.010   2.513
 4678SOL    HW114933   2.630   4.924   2.470
 4678SOL    HW214934   2.676   5.075   2.513
 4679SOL     OW14935   5.450   0.077   1.986
 4679SOL    HW114936   5.380   0.067   1.915
 4679SOL    HW214937   5.540   0.057   1.948
 4680SOL     OW14938   2.157   1.489   1.702
 4680SOL    HW114939   2.248   1.527   1.686
 4680SOL    HW214940   2.162   1.423   1.777
 4681SOL     OW14941   5.477   4.597   1.373
 4681SOL    HW114942   5.453   4.558   1.462
 4681SOL    HW214943   5.432   4.544   1.300
 4682SOL     OW14944   4.048   3.435   6.874
 4682SOL    HW114945   4.107   3.391   6.942
 4682SOL    HW214946   4.101   3.504   6.824
 4683SOL     OW14947   6.285   4.389   3.294
 4683SOL    HW114948   6.360   4.341   3.340
 4683SOL    HW214949   6.254   4.464   3.351
 4684SOL     OW14950   4.840   6.462   6.936
 4684SOL    HW114951   4.801   6.547   6.971
 4684SOL    HW214952   4.917   6.433   6.994
 4685SOL     OW14953   2.415   3.249   5.903
 4685SOL    HW114954   2.460   3.160   5.910
 4685SOL    HW214955   2.468   3.310   5.844
 4686SOL     OW14956   2.870   5.742   0.248
 4686SOL    HW114957   2.937   5.692   0.193
 4686SOL    HW214958   2.807   5.791   0.188
 4687SOL     OW14959   3.311   0.616   2.717
 4687SOL    HW114960   3.346   0.674   2.790
 4687SOL    HW214961   3.225   0.654   2.682
 4688SOL     OW14962   6.100   3.118   5.431
 4688SOL    HW114963   6.189   3.075   5.439
 4688SOL    HW214964   6.093   3.165   5.343
 4689SOL     OW14965   6.000   1.194   1.435
 4689SOL    HW114966   6.048   1.281   1.429
 4689SOL    HW214967   6.033   1.143   1.515
 4690SOL     OW14968   2.867   1.679   0.304
 4690SOL    HW114969   2.797   1.608   0.314
 4690SOL    HW214970   2.872   1.733   0.388
 4691SOL     OW14971   6.851   4.169   1.883
 4691SOL    HW114972   6.892   4.081   1.861
 4691SOL    HW214973   6.903   4.212   1.958
 4692SOL     OW14974   6.014   3.944   2.885
 4692SOL    HW114975   6.028   3.864   2.825
 4692SOL    HW214976   6.039   4.027   2.835
 4693SOL     OW14977   2.031   0.606   3.637
 4693SOL    HW114978   1.995   0.529   3.583
 4693SOL    HW214979   1.963   0.636   3.703
 4694SOL     OW14980   2.085   1.738   6.960
 4694SOL    HW114981   2.021   1.731   6.883
 4694SOL    HW214982   2.168   1.785   6.931
 4695SOL     OW14983   0.988   6.256   1.849
 4695SOL    HW114984   1.044   6.338   1.848
 4695SOL    HW214985   0.914   6.265   1.782
 4696SOL     OW14986   1.255   5.027   5.748
 4696SOL    HW114987   1.206   5.050   5.832
 4696SOL    HW214988   1.256   5.107   5.687
 4697SOL     OW14989   3.429   5.022   0.721
 4697SOL    HW114990   3.360   4.954   0.697
 4697SOL    HW214991   3.515   4.999   0.674
 4698SOL     OW14992   5.711   1.259   3.262
 4698SOL    HW114993   5.771   1.288   3.187
 4698SOL    HW214994   5.754   1.183   3.311
 4699SOL     OW14995   1.087   0.098   2.704
 4699SOL    HW114996   0.992   0.128   2.707
 4699SOL    HW214997   1.094   0.018   2.643
 4700SOL     OW14998   5.888   2.260   3.041
 4700SOL    HW114999   5.817   2.307   3.095
 4700SOL    HW215000   5.857   2.251   2.946
 4701SOL     OW15001   3.548   1.736   1.876
 4701SOL    HW115002   3.619   1.799   1.908
 4701SOL    HW215003   3.463   1.755   1.925
 4702SOL     OW15004   5.398   4.872   6.546
 4702SOL    HW115005   5.312   4.890   6.594
 4702SOL    HW215006   5.381   4.808   6.471
 4703SOL     OW15007   1.043   5.196   3.520
 4703SOL    HW115008   0.953   5.155   3.507
 4703SOL    HW215009   1.055   5.272   3.455
 4704SOL     OW15010   0.945   4.960   5.508
 4704SOL    HW115011   0.901   4.904   5.437
 4704SOL    HW215012   0.983   4.901   5.578
 4705SOL     OW15013   3.284   2.439   1.591
 4705SOL    HW115014   3.253   2.529   1.561
 4705SOL    HW215015   3.374   2.448   1.634
 4706SOL     OW15016   1.792   0.673   0.328
 4706SOL    HW115017   1.823   0.732   0.402
 4706SOL    HW215018   1.862   0.604   0.309
 4707SOL     OW15019   1.868   6.655   1.036
 4707SOL    HW115020   1.890   6.560   1.058
 4707SOL    HW215021   1.952   6.709   1.033
 4708SOL     OW15022   0.385   3.032   4.243
 4708SOL    HW115023   0.309   3.090   4.271
 4708SOL    HW215024   0.350   2.954   4.192
 4709SOL     OW15025   4.773   3.784   5.302
 4709SOL    HW115026   4.846   3.841   5.264
 4709SOL    HW215027   4.738   3.723   5.231
 4710SOL     OW15028   6.015   6.406   4.216
 4710SOL    HW115029   5.931   6.383   4.264
 4710SOL    HW215030   6.000   6.400   4.117
 4711SOL     OW15031   5.900   3.441   3.132
 4711SOL    HW115032   5.963   3.470   3.204
 4711SOL    HW215033   5.819   3.400   3.173
 4712SOL     OW15034   4.679   4.104   5.154
 4712SOL    HW115035   4.618   4.066   5.224
 4712SOL    HW215036   4.771   4.064   5.165
 4713SOL     OW15037   5.566   4.267   1.297
 4713SOL    HW115038   5.517   4.181   1.307
 4713SOL    HW215039   5.657   4.249   1.260
 4714SOL     OW15040   5.768   1.181   5.946
 4714SOL    HW115041   5.867   1.167   5.940
 4714SOL    HW215042   5.729   1.182   5.854
 4715SOL     OW15043   6.286   1.266   1.612
 4715SOL    HW115044   6.209   1.206   1.635
 4715SOL    HW215045   6.364   1.211   1.583
 4716SOL     OW15046   3.888   4.207   5.882
 4716SOL    HW115047   3.821   4.144   5.842
 4716SOL    HW215048   3.951   4.238   5.811
 4717SOL     OW15049   2.713   5.359   5.211
 4717SOL    HW115050   2.717   5.403   5.301
 4717SOL    HW215051   2.804   5.361   5.169
 4718SOL     OW15052   4.821   4.335   0.720
 4718SOL    HW115053   4.898   4.351   0.658
 4718SOL    HW215054   4.846   4.263   0.786
 4719SOL     OW15055   6.946   3.875   3.662
 4719SOL    HW115056   6.976   3.948   3.724
 4719SOL    HW215057   6.920   3.915   3.574
 4720SOL     OW15058   2.975   4.013   6.566
 4720SOL    HW115059   2.906   3.995   6.496
 4720SOL    HW215060   2.939   4.075   6.635
 4721SOL     OW15061   6.585   3.475   2.850
 4721SOL    HW115062   6.543   3.405   2.793
 4721SOL    HW215063   6.523   3.498   2.925
 4722SOL     OW15064   1.702   4.785   6.775
 4722SOL    HW115065   1.801   4.771   6.771
 4722SOL    HW215066   1.666   4.751   6.861
 4723SOL     OW15067   3.999   3.910   6.739
 4723SOL    HW115068   4.013   4.009   6.750
 4723SOL    HW215069   3.901   3.890   6.736
 4724SOL     OW15070   1.233   6.757   4.825
 4724SOL    HW115071   1.187   6.812   4.756
 4724SOL    HW215072   1.318   6.720   4.788
 4725SOL     OW15073   5.584   6.002   0.265
 4725SOL    HW115074   5.555   5.912   0.296
 4725SOL    HW215075   5.684   6.007   0.267
 4726SOL     OW15076   1.088   3.476   5.346
 4726SOL    HW115077   1.026   3.467   5.269
 4726SOL    HW215078   1.109   3.386   5.384
 4727SOL     OW15079   0.740   5.362   0.191
 4727SOL    HW115080   0.838   5.346   0.183
 4727SOL    HW215081   0.723   5.421   0.270
 4728SOL     OW15082   6.627   1.178   4.439
 4728SOL    HW115083   6.566   1.253   4.413
 4728SOL    HW215084   6.706   1.216   4.488
 4729SOL     OW15085   6.522   0.912   1.063
 4729SOL    HW115086   6.592   0.877   1.001
 4729SOL    HW215087   6.453   0.841   1.078
 4730SOL     OW15088   3.581   7.009   5.005
 4730SOL    HW115089   3.540   6.968   4.924
 4730SOL    HW215090   3.594   0.085   4.991
 4731SOL     OW15091   3.505   0.791   0.678
 4731SOL    HW115092   3.605   0.793   0.682
 4731SOL    HW215093   3.476   0.747   0.592
 4732SOL     OW15094   0.452   4.502   4.087
 4732SOL    HW115095   0.528   4.566   4.099
 4732SOL    HW215096   0.428   4.462   4.175
 4733SOL     OW15097   2.189   3.820   3.067
 4733SOL    HW115098   2.188   3.755   3.143
 4733SOL    HW215099   2.171   3.772   2.982
 4734SOL     OW15100   4.976   3.812   6.490
 4734SOL    HW115101   4.883   3.835   6.461
 4734SOL    HW215102   4.972   3.764   6.578
 4735SOL     OW15103   0.243   0.255   4.708
 4735SOL    HW115104   0.156   0.276   4.752
 4735SOL    HW215105   0.260   0.156   4.712
 4736SOL     OW15106   6.393   1.867   3.251
 4736SOL    HW115107   6.476   1.901   3.206
 4736SOL    HW215108   6.408   1.862   3.350
 4737SOL     OW15109   2.054   4.720   1.058
 4737SOL    HW115110   2.136   4.773   1.037
 4737SOL    HW215111   2.056   4.692   1.154
 4738SOL     OW15112   2.097   6.649   3.927
 4738SOL    HW115113   2.045   6.693   4.000
 4738SOL    HW215114   2.195   6.657   3.946
 4739SOL     OW15115   5.770   3.234   3.719
 4739SOL    HW115116   5.761   3.250   3.818
 4739SOL    HW215117   5.866   3.222   3.696
 4740SOL     OW15118   0.593   1.012   1.210
 4740SOL    HW115119   0.562   1.005   1.305
 4740SOL    HW215120   0.551   1.090   1.166
 4741SOL     OW15121   4.485   4.885   1.618
 4741SOL    HW115122   4.455   4.893   1.714
 4741SOL    HW215123   4.426   4.941   1.560
 4742SOL     OW15124   2.716   6.405   1.650
 4742SOL    HW115125   2.702   6.311   1.682
 4742SOL    HW215126   2.810   6.433   1.670
 4743SOL     OW15127   2.426   2.115   0.461
 4743SOL    HW115128   2.424   2.167   0.376
 4743SOL    HW215129   2.484   2.035   0.450
 4744SOL     OW15130   1.873   3.054   5.615
 4744SOL    HW115131   1.804   3.062   5.686
 4744SOL    HW215132   1.894   3.144   5.577
 4745SOL     OW15133   2.984   5.858   5.022
 4745SOL    HW115134   2.934   5.812   4.948
 4745SOL    HW215135   3.045   5.928   4.983
 4746SOL     OW15136   6.686   0.126   0.696
 4746SOL    HW115137   6.588   0.136   0.674
 4746SOL    HW215138   6.700   0.038   0.742
 4747SOL     OW15139   6.137   2.666   0.785
 4747SOL    HW115140   6.159   2.760   0.813
 4747SOL    HW215141   6.114   2.612   0.866
 4748SOL     OW15142   1.912   1.079   1.625
 4748SOL    HW115143   1.909   1.164   1.677
 4748SOL    HW215144   1.989   1.083   1.560
 4749SOL     OW15145   1.486   6.592   6.751
 4749SOL    HW115146   1.433   6.654   6.694
 4749SOL    HW215147   1.583   6.615   6.745
 4750SOL     OW15148   0.067   0.711   4.715
 4750SOL    HW115149   0.132   0.702   4.640
 4750SOL    HW215150   0.114   0.740   4.798
 4751SOL     OW15151   1.297   4.187   6.560
 4751SOL    HW115152   1.284   4.157   6.465
 4751SOL    HW215153   1.248   4.126   6.621
 4752SOL     OW15154   2.960   5.862   1.501
 4752SOL    HW115155   3.046   5.890   1.543
 4752SOL    HW215156   2.975   5.779   1.447
 4753SOL     OW15157   5.837   6.851   5.205
 4753SOL    HW115158   5.813   6.772   5.149
 4753SOL    HW215159   5.834   6.933   5.148
 4754SOL     OW15160   0.593   0.311   5.565
 4754SOL    HW115161   0.591   0.228   5.621
 4754SOL    HW215162   0.600   0.286   5.468
 4755SOL     OW15163   2.496   1.598   6.514
 4755SOL    HW115164   2.466   1.601   6.419
 4755SOL    HW215165   2.563   1.671   6.529
 4756SOL     OW15166   5.065   2.831   1.434
 4756SOL    HW115167   5.157   2.812   1.401
 4756SOL    HW215168   5.011   2.746   1.433
 4757SOL     OW15169   2.036   2.149   1.189
 4757SOL    HW115170   1.962   2.201   1.231
 4757SOL    HW215171   2.081   2.206   1.120
 4758SOL     OW15172   5.087   5.283   5.235
 4758SOL    HW115173   5.031   5.211   5.194
 4758SOL    HW215174   5.036   5.368   5.236
 4759SOL     OW15175   5.334   5.422   5.484
 4759SOL    HW115176   5.375   5.410   5.574
 4759SOL    HW215177   5.371   5.353   5.421
 4760SOL     OW15178   1.776   1.697   1.462
 4760SOL    HW115179   1.693   1.663   1.506
 4760SOL    HW215180   1.855   1.648   1.500
 4761SOL     OW15181   0.126   6.889   6.742
 4761SOL    HW115182   0.194   6.924   6.678
 4761SOL    HW215183   0.054   6.957   6.755
 4762SOL     OW15184   2.119   5.564   1.651
 4762SOL    HW115185   2.150   5.563   1.556
 4762SOL    HW215186   2.171   5.631   1.703
 4763SOL     OW15187   6.099   6.040   3.688
 4763SOL    HW115188   6.150   6.003   3.611
 4763SOL    HW215189   6.107   5.977   3.766
 4764SOL     OW15190   3.748   3.531   4.171
 4764SOL    HW115191   3.775   3.436   4.189
 4764SOL    HW215192   3.651   3.533   4.146
 4765SOL     OW15193   5.192   5.754   4.738
 4765SOL    HW115194   5.260   5.785   4.672
 4765SOL    HW215195   5.229   5.677   4.791
 4766SOL     OW15196   2.559   0.404   3.102
 4766SOL    HW115197   2.504   0.477   3.061
 4766SOL    HW215198   2.638   0.444   3.148
 4767SOL     OW15199   4.190   6.317   6.763
 4767SOL    HW115200   4.283   6.295   6.734
 4767SOL    HW215201   4.167   6.410   6.733
 4768SOL     OW15202   6.920   0.585   5.344
 4768SOL    HW115203   6.823   0.562   5.351
 4768SOL    HW215204   6.931   0.684   5.334
 4769SOL     OW15205   4.110   6.679   1.164
 4769SOL    HW115206   4.028   6.736   1.163
 4769SOL    HW215207   4.156   6.686   1.076
 4770SOL     OW15208   2.601   0.829   3.181
 4770SOL    HW115209   2.675   0.764   3.199
 4770SOL    HW215210   2.537   0.829   3.257
 4771SOL     OW15211   3.997   4.018   5.341
 4771SOL    HW115212   3.971   4.112   5.363
 4771SOL    HW215213   3.980   4.002   5.243
 4772SOL     OW15214   2.792   1.973   1.724
 4772SOL    HW115215   2.763   1.999   1.816
 4772SOL    HW215216   2.878   2.020   1.702
 4773SOL     OW15217   0.122   5.977   3.596
 4773SOL    HW115218   0.163   5.894   3.558
 4773SOL    HW215219   0.185   6.054   3.587
 4774SOL     OW15220   0.218   3.797   1.549
 4774SOL    HW115221   0.259   3.849   1.474
 4774SOL    HW215222   0.131   3.839   1.575
 4775SOL     OW15223   4.203   0.396   2.515
 4775SOL    HW115224   4.297   0.427   2.507
 4775SOL    HW215225   4.168   0.372   2.425
 4776SOL     OW15226   3.145   5.650   2.005
 4776SOL    HW115227   3.064   5.609   2.046
 4776SOL    HW215228   3.207   5.680   2.077
 4777SOL     OW15229   2.709   4.128   1.187
 4777SOL    HW115230   2.807   4.145   1.197
 4777SOL    HW215231   2.692   4.029   1.185
 4778SOL     OW15232   4.756   4.172   1.865
 4778SOL    HW115233   4.766   4.271   1.875
 4778SOL    HW215234   4.659   4.148   1.866
 4779SOL     OW15235   5.681   0.634   3.082
 4779SOL    HW115236   5.752   0.703   3.066
 4779SOL    HW215237   5.594   0.669   3.049
 4780SOL     OW15238   0.731   6.643   6.475
 4780SOL    HW115239   0.818   6.689   6.494
 4780SOL    HW215240   0.738   6.547   6.502
 4781SOL     OW15241   2.540   5.297   1.272
 4781SOL    HW115242   2.535   5.284   1.371
 4781SOL    HW215243   2.480   5.372   1.246
 4782SOL     OW15244   5.758   6.406   6.330
 4782SOL    HW115245   5.800   6.326   6.287
 4782SOL    HW215246   5.792   6.415   6.424
 4783SOL     OW15247   5.379   4.455   1.179
 4783SOL    HW115248   5.351   4.420   1.089
 4783SOL    HW215249   5.469   4.417   1.202
 4784SOL     OW15250   5.625   5.073   4.589
 4784SOL    HW115251   5.569   5.126   4.525
 4784SOL    HW215252   5.719   5.068   4.555
 4785SOL     OW15253   0.006   6.981   1.762
 4785SOL    HW115254   0.014   0.055   1.789
 4785SOL    HW215255   6.997   6.927   1.841
 4786SOL     OW15256   1.708   3.269   2.142
 4786SOL    HW115257   1.794   3.318   2.161
 4786SOL    HW215258   1.656   3.320   2.074
 4787SOL     OW15259   3.215   2.110   3.027
 4787SOL    HW115260   3.157   2.052   2.970
 4787SOL    HW215261   3.309   2.105   2.994
 4788SOL     OW15262   1.516   5.267   4.289
 4788SOL    HW115263   1.433   5.214   4.303
 4788SOL    HW215264   1.569   5.227   4.214
 4789SOL     OW15265   5.700   0.497   0.267
 4789SOL    HW115266   5.741   0.430   0.329
 4789SOL    HW215267   5.649   0.450   0.195
 4790SOL     OW15268   5.546   2.169   6.159
 4790SOL    HW115269   5.472   2.112   6.194
 4790SOL    HW215270   5.634   2.131   6.188
 4791SOL     OW15271   5.741   7.020   2.201
 4791SOL    HW115272   5.807   6.956   2.162
 4791SOL    HW215273   5.653   6.973   2.214
 4792SOL     OW15274   1.997   2.680   2.268
 4792SOL    HW115275   2.071   2.723   2.320
 4792SOL    HW215276   2.017   2.686   2.170
 4793SOL     OW15277   1.409   6.768   6.115
 4793SOL    HW115278   1.469   6.689   6.099
 4793SOL    HW215279   1.356   6.786   6.033
 4794SOL     OW15280   2.841   0.472   2.238
 4794SOL    HW115281   2.813   0.565   2.264
 4794SOL    HW215282   2.798   0.406   2.299
 4795SOL     OW15283   6.120   3.262   3.881
 4795SOL    HW115284   6.098   3.357   3.902
 4795SOL    HW215285   6.099   3.205   3.961
 4796SOL     OW15286   5.834   4.733   0.795
 4796SOL    HW115287   5.801   4.824   0.771
 4796SOL    HW215288   5.807   4.711   0.889
 4797SOL     OW15289   0.449   4.565   5.311
 4797SOL    HW115290   0.509   4.637   5.345
 4797SOL    HW215291   0.385   4.603   5.244
 4798SOL     OW15292   6.920   4.605   4.223
 4798SOL    HW115293   6.851   4.575   4.289
 4798SOL    HW215294   6.919   4.705   4.217
 4799SOL     OW15295   4.413   1.569   5.024
 4799SOL    HW115296   4.397   1.590   5.121
 4799SOL    HW215297   4.511   1.573   5.005
 4800SOL     OW15298   1.775   2.269   4.999
 4800SOL    HW115299   1.709   2.196   4.983
 4800SOL    HW215300   1.765   2.303   5.092
 4801SOL     OW15301   0.610   2.417   1.039
 4801SOL    HW115302   0.688   2.358   1.056
 4801SOL    HW215303   0.550   2.375   0.972
 4802SOL     OW15304   2.772   0.330   1.695
 4802SOL    HW115305   2.808   0.237   1.693
 4802SOL    HW215306   2.764   0.360   1.790
 4803SOL     OW15307   1.112   6.964   0.614
 4803SOL    HW115308   1.043   6.950   0.543
 4803SOL    HW215309   1.146   0.036   0.609
 4804SOL     OW15310   4.284   4.786   6.851
 4804SOL    HW115311   4.274   4.769   6.949
 4804SOL    HW215312   4.337   4.712   6.810
 4805SOL     OW15313   6.712   1.781   0.961
 4805SOL    HW115314   6.700   1.691   1.002
 4805SOL    HW215315   6.652   1.789   0.882
 4806SOL     OW15316   0.564   2.855   3.127
 4806SOL    HW115317   0.609   2.943   3.111
 4806SOL    HW215318   0.505   2.862   3.207
 4807SOL     OW15319   0.133   6.909   1.201
 4807SOL    HW115320   0.136   6.860   1.288
 4807SOL    HW215321   0.215   6.966   1.192
 4808SOL     OW15322   5.099   2.845   1.104
 4808SOL    HW115323   5.148   2.757   1.104
 4808SOL    HW215324   5.002   2.829   1.121
 4809SOL     OW15325   3.873   5.310   6.886
 4809SOL    HW115326   3.891   5.407   6.869
 4809SOL    HW215327   3.959   5.262   6.900
 4810SOL     OW15328   0.790   0.073   1.373
 4810SOL    HW115329   0.741   0.085   1.287
 4810SOL    HW215330   0.856   7.020   1.363
 4811SOL     OW15331   3.743   5.395   2.117
 4811SOL    HW115332   3.774   5.476   2.167
 4811SOL    HW215333   3.696   5.333   2.181
 4812SOL     OW15334   0.079   5.857   4.069
 4812SOL    HW115335   0.081   5.950   4.106
 4812SOL    HW215336   0.149   5.849   3.997
 4813SOL     OW15337   5.246   2.167   2.801
 4813SOL    HW115338   5.146   2.163   2.795
 4813SOL    HW215339   5.282   2.212   2.719
 4814SOL     OW15340   6.932   3.611   1.592
 4814SOL    HW115341   6.871   3.587   1.667
 4814SOL    HW215342   7.007   3.545   1.587
 4815SOL     OW15343   4.626   6.247   1.245
 4815SOL    HW115344   4.715   6.289   1.231
 4815SOL    HW215345   4.606   6.242   1.343
 4816SOL     OW15346   5.253   5.293   3.070
 4816SOL    HW115347   5.315   5.248   3.006
 4816SOL    HW215348   5.176   5.333   3.019
 4817SOL     OW15349   0.851   2.201   6.547
 4817SOL    HW115350   0.779   2.183   6.480
 4817SOL    HW215351   0.817   2.266   6.616
 4818SOL     OW15352   0.336   0.108   3.930
 4818SOL    HW115353   0.375   0.118   3.839
 4818SOL    HW215354   0.238   0.127   3.926
 4819SOL     OW15355   1.387   3.186   0.880
 4819SOL    HW115356   1.355   3.142   0.964
 4819SOL    HW215357   1.481   3.218   0.892
 4820SOL     OW15358   6.919   3.148   2.058
 4820SOL    HW115359   6.937   3.175   1.963
 4820SOL    HW215360   6.894   3.052   2.061
 4821SOL     OW15361   6.835   5.670   2.298
 4821SOL    HW115362   6.860   5.657   2.394
 4821SOL    HW215363   6.918   5.666   2.241
 4822SOL     OW15364   1.513   3.361   4.269
 4822SOL    HW115365   1.521   3.419   4.350
 4822SOL    HW215366   1.434   3.390   4.215
 4823SOL     OW15367   1.936   3.007   1.757
 4823SOL    HW115368   1.967   3.072   1.688
 4823SOL    HW215369   1.873   3.053   1.820
 4824SOL     OW15370   5.922   1.487   5.195
 4824SOL    HW115371   5.833   1.442   5.199
 4824SOL    HW215372   5.988   1.434   5.247
 4825SOL     OW15373   1.548   6.663   3.961
 4825SOL    HW115374   1.508   6.738   4.013
 4825SOL    HW215375   1.637   6.638   4.000
 4826SOL     OW15376   4.368   0.721   1.553
 4826SOL    HW115377   4.304   0.787   1.593
 4826SOL    HW215378   4.455   0.725   1.602
 4827SOL     OW15379   6.955   1.744   1.247
 4827SOL    HW115380   6.905   1.662   1.275
 4827SOL    HW215381   0.025   1.742   1.288
 4828SOL     OW15382   4.679   0.665   3.660
 4828SOL    HW115383   4.608   0.690   3.595
 4828SOL    HW215384   4.750   0.736   3.661
 4829SOL     OW15385   3.895   6.713   5.176
 4829SOL    HW115386   3.894   6.682   5.271
 4829SOL    HW215387   3.852   6.803   5.170
 4830SOL     OW15388   3.115   5.705   3.311
 4830SOL    HW115389   3.176   5.781   3.329
 4830SOL    HW215390   3.020   5.737   3.314
 4831SOL     OW15391   3.201   5.062   5.619
 4831SOL    HW115392   3.126   5.115   5.659
 4831SOL    HW215393   3.257   5.121   5.561
 4832SOL     OW15394   3.420   3.214   4.470
 4832SOL    HW115395   3.380   3.235   4.381
 4832SOL    HW215396   3.509   3.258   4.478
 4833SOL     OW15397   7.008   3.052   4.164
 4833SOL    HW115398   6.916   3.085   4.143
 4833SOL    HW215399   0.026   3.011   4.082
 4834SOL     OW15400   1.028   5.177   1.792
 4834SOL    HW115401   1.073   5.266   1.783
 4834SOL    HW215402   0.949   5.173   1.731
 4835SOL     OW15403   6.693   2.226   5.353
 4835SOL    HW115404   6.652   2.217   5.444
 4835SOL    HW215405   6.735   2.317   5.344
 4836SOL     OW15406   5.324   1.421   5.477
 4836SOL    HW115407   5.287   1.408   5.385
 4836SOL    HW215408   5.391   1.349   5.496
 4837SOL     OW15409   0.399   4.702   4.475
 4837SOL    HW115410   0.303   4.699   4.445
 4837SOL    HW215411   0.455   4.741   4.402
 4838SOL     OW15412   2.042   4.007   6.393
 4838SOL    HW115413   2.002   3.928   6.440
 4838SOL    HW215414   2.000   4.017   6.303
 4839SOL     OW15415   2.600   1.419   7.010
 4839SOL    HW115416   2.648   1.342   6.967
 4839SOL    HW215417   2.502   1.399   7.014
 4840SOL     OW15418   5.769   3.834   4.630
 4840SOL    HW115419   5.672   3.826   4.604
 4840SOL    HW215420   5.777   3.896   4.708
 4841SOL     OW15421   3.327   5.805   2.652
 4841SOL    HW115422   3.396   5.749   2.698
 4841SOL    HW215423   3.324   5.896   2.694
 4842SOL     OW15424   2.954   5.710   2.989
 4842SOL    HW115425   2.999   5.751   3.068
 4842SOL    HW215426   2.974   5.612   2.985
 4843SOL     OW15427   0.493   1.720   1.682
 4843SOL    HW115428   0.469   1.625   1.702
 4843SOL    HW215429   0.456   1.779   1.754
 4844SOL     OW15430   1.153   5.461   5.015
 4844SOL    HW115431   1.143   5.499   4.923
 4844SOL    HW215432   1.202   5.374   5.010
 4845SOL     OW15433   4.926   3.866   4.918
 4845SOL    HW115434   4.862   3.795   4.948
 4845SOL    HW215435   4.880   3.928   4.855
 4846SOL     OW15436   6.846   3.518   4.472
 4846SOL    HW115437   6.922   3.454   4.463
 4846SOL    HW215438   6.811   3.542   4.382
 4847SOL     OW15439   2.338   6.064   6.447
 4847SOL    HW115440   2.250   6.108   6.429
 4847SOL    HW215441   2.334   5.968   6.418
 4848SOL     OW15442   3.296   1.063   4.585
 4848SOL    HW115443   3.383   1.055   4.635
 4848SOL    HW215444   3.285   1.157   4.552
 4849SOL     OW15445   1.890   6.940   1.146
 4849SOL    HW115446   1.830   6.912   1.071
 4849SOL    HW215447   1.978   6.894   1.137
 4850SOL     OW15448   4.564   6.942   0.307
 4850SOL    HW115449   4.498   6.940   0.232
 4850SOL    HW215450   4.536   6.878   0.379
 4851SOL     OW15451   3.850   4.582   6.974
 4851SOL    HW115452   3.913   4.543   0.019
 4851SOL    HW215453   3.898   4.596   6.887
 4852SOL     OW15454   4.799   5.514   4.693
 4852SOL    HW115455   4.845   5.427   4.708
 4852SOL    HW215456   4.860   5.576   4.644
 4853SOL     OW15457   4.437   7.000   1.915
 4853SOL    HW115458   4.419   6.927   1.850
 4853SOL    HW215459   4.460   6.961   2.004
 4854SOL     OW15460   5.625   6.214   1.827
 4854SOL    HW115461   5.596   6.309   1.825
 4854SOL    HW215462   5.579   6.163   1.754
 4855SOL     OW15463   5.388   5.061   5.569
 4855SOL    HW115464   5.326   4.984   5.583
 4855SOL    HW215465   5.399   5.077   5.471
 4856SOL     OW15466   6.951   3.884   2.760
 4856SOL    HW115467   6.855   3.857   2.759
 4856SOL    HW215468   6.966   3.958   2.695
 4857SOL     OW15469   2.481   2.097   5.171
 4857SOL    HW115470   2.573   2.058   5.175
 4857SOL    HW215471   2.416   2.031   5.209
 4858SOL     OW15472   0.471   6.080   4.116
 4858SOL    HW115473   0.428   6.135   4.045
 4858SOL    HW215474   0.569   6.102   4.120
 4859SOL     OW15475   0.849   6.338   2.305
 4859SOL    HW115476   0.916   6.264   2.305
 4859SOL    HW215477   0.866   6.397   2.226
 4860SOL     OW15478   4.194   5.436   1.167
 4860SOL    HW115479   4.123   5.504   1.184
 4860SOL    HW215480   4.280   5.467   1.209
 4861SOL     OW15481   0.140   4.329   6.775
 4861SOL    HW115482   0.156   4.230   6.786
 4861SOL    HW215483   0.181   4.358   6.688
 4862SOL     OW15484   2.702   5.652   5.783
 4862SOL    HW115485   2.772   5.593   5.824
 4862SOL    HW215486   2.693   5.631   5.686
 4863SOL     OW15487   4.518   2.022   3.227
 4863SOL    HW115488   4.605   2.044   3.271
 4863SOL    HW215489   4.520   2.054   3.132
 4864SOL     OW15490   2.308   1.145   1.252
 4864SOL    HW115491   2.291   1.243   1.260
 4864SOL    HW215492   2.401   1.130   1.221
 4865SOL     OW15493   3.678   6.101   5.520
 4865SOL    HW115494   3.696   6.191   5.479
 4865SOL    HW215495   3.738   6.033   5.479
 4866SOL     OW15496   6.884   4.436   1.651
 4866SOL    HW115497   6.871   4.356   1.709
 4866SOL    HW215498   6.854   4.518   1.700
 4867SOL     OW15499   4.926   6.057   3.350
 4867SOL    HW115500   5.013   6.070   3.397
 4867SOL    HW215501   4.862   6.009   3.410
 4868SOL     OW15502   0.631   6.026   1.056
 4868SOL    HW115503   0.720   5.986   1.035
 4868SOL    HW215504   0.635   6.074   1.143
 4869SOL     OW15505   6.495   0.467   0.928
 4869SOL    HW115506   6.427   0.405   0.966
 4869SOL    HW215507   6.585   0.447   0.967
 4870SOL     OW15508   6.701   6.717   1.718
 4870SOL    HW115509   6.711   6.698   1.620
 4870SOL    HW215510   6.788   6.705   1.764
 4871SOL     OW15511   0.677   3.908   4.026
 4871SOL    HW115512   0.748   3.969   4.060
 4871SOL    HW215513   0.647   3.938   3.935
 4872SOL     OW15514   0.803   0.576   3.329
 4872SOL    HW115515   0.882   0.635   3.317
 4872SOL    HW215516   0.779   0.571   3.426
 4873SOL     OW15517   0.417   5.549   5.586
 4873SOL    HW115518   0.344   5.510   5.529
 4873SOL    HW215519   0.506   5.529   5.544
 4874SOL     OW15520   4.979   3.949   3.118
 4874SOL    HW115521   5.007   3.967   3.024
 4874SOL    HW215522   4.911   4.017   3.146
 4875SOL     OW15523   6.334   2.694   6.859
 4875SOL    HW115524   6.399   2.622   6.839
 4875SOL    HW215525   6.312   2.744   6.775
 4876SOL     OW15526   0.664   1.460   6.505
 4876SOL    HW115527   0.610   1.492   6.583
 4876SOL    HW215528   0.760   1.484   6.519
 4877SOL     OW15529   6.513   1.790   0.737
 4877SOL    HW115530   6.499   1.691   0.741
 4877SOL    HW215531   6.437   1.836   0.784
 4878SOL     OW15532   6.865   1.828   1.704
 4878SOL    HW115533   6.904   1.824   1.796
 4878SOL    HW215534   6.775   1.872   1.708
 4879SOL     OW15535   4.292   5.406   3.582
 4879SOL    HW115536   4.201   5.447   3.572
 4879SOL    HW215537   4.341   5.413   3.495
 4880SOL     OW15538   5.558   2.123   5.881
 4880SOL    HW115539   5.568   2.178   5.964
 4880SOL    HW215540   5.631   2.055   5.877
 4881SOL     OW15541   3.439   6.160   6.681
 4881SOL    HW115542   3.480   6.088   6.624
 4881SOL    HW215543   3.464   6.144   6.776
 4882SOL     OW15544   5.424   0.755   5.408
 4882SOL    HW115545   5.371   0.777   5.326
 4882SOL    HW215546   5.369   0.771   5.489
 4883SOL     OW15547   0.334   5.753   1.062
 4883SOL    HW115548   0.325   5.695   0.981
 4883SOL    HW215549   0.308   5.847   1.038
 4884SOL     OW15550   3.380   6.672   1.725
 4884SOL    HW115551   3.417   6.689   1.633
 4884SOL    HW215552   3.392   6.575   1.748
 4885SOL     OW15553   2.104   0.052   1.805
 4885SOL    HW115554   2.189   0.103   1.811
 4885SOL    HW215555   2.119   6.989   1.753
 4886SOL     OW15556   6.107   0.666   6.240
 4886SOL    HW115557   6.196   0.711   6.250
 4886SOL    HW215558   6.052   0.683   6.322
 4887SOL     OW15559   0.524   1.739   4.804
 4887SOL    HW115560   0.434   1.764   4.838
 4887SOL    HW215561   0.521   1.645   4.769
 4888SOL     OW15562   2.867   5.590   2.208
 4888SOL    HW115563   2.851   5.537   2.125
 4888SOL    HW215564   2.789   5.578   2.270
 4889SOL     OW15565   1.532   2.564   0.214
 4889SOL    HW115566   1.535   2.653   0.170
 4889SOL    HW215567   1.621   2.543   0.254
 4890SOL     OW15568   1.101   0.347   4.591
 4890SOL    HW115569   1.179   0.328   4.652
 4890SOL    HW215570   1.076   0.443   4.599
 4891SOL     OW15571   1.045   4.033   0.463
 4891SOL    HW115572   1.095   3.984   0.534
 4891SOL    HW215573   1.061   4.131   0.472
 4892SOL     OW15574   1.429   5.662   1.521
 4892SOL    HW115575   1.397   5.636   1.612
 4892SOL    HW215576   1.422   5.583   1.460
 4893SOL     OW15577   0.435   3.408   6.609
 4893SOL    HW115578   0.451   3.324   6.557
 4893SOL    HW215579   0.425   3.387   6.706
 4894SOL     OW15580   2.147   0.728   3.256
 4894SOL    HW115581   2.157   0.805   3.193
 4894SOL    HW215582   2.172   0.757   3.348
 4895SOL     OW15583   0.420   3.523   0.883
 4895SOL    HW115584   0.476   3.440   0.878
 4895SOL    HW215585   0.446   3.577   0.963
 4896SOL     OW15586   3.928   5.336   3.966
 4896SOL    HW115587   3.903   5.261   3.905
 4896SOL    HW215588   3.966   5.299   4.050
 4897SOL     OW15589   3.460   5.113   6.227
 4897SOL    HW115590   3.528   5.141   6.159
 4897SOL    HW215591   3.398   5.188   6.246
 4898SOL     OW15592   5.895   2.215   5.560
 4898SOL    HW115593   5.973   2.268   5.595
 4898SOL    HW215594   5.839   2.274   5.502
 4899SOL     OW15595   5.660   4.041   4.274
 4899SOL    HW115596   5.634   3.989   4.192
 4899SOL    HW215597   5.615   4.130   4.273
 4900SOL     OW15598   1.008   6.507   5.152
 4900SOL    HW115599   1.053   6.530   5.066
 4900SOL    HW215600   1.016   6.584   5.215
 4901SOL     OW15601   1.369   6.673   3.304
 4901SOL    HW115602   1.303   6.672   3.229
 4901SOL    HW215603   1.392   6.767   3.327
 4902SOL     OW15604   2.993   4.769   1.834
 4902SOL    HW115605   3.004   4.807   1.742
 4902SOL    HW215606   2.914   4.708   1.835
 4903SOL     OW15607   4.957   6.624   6.431
 4903SOL    HW115608   4.898   6.630   6.351
 4903SOL    HW215609   5.039   6.679   6.415
 4904SOL     OW15610   3.257   6.158   3.486
 4904SOL    HW115611   3.172   6.205   3.464
 4904SOL    HW215612   3.275   6.167   3.584
 4905SOL     OW15613   6.257   3.303   2.459
 4905SOL    HW115614   6.266   3.258   2.371
 4905SOL    HW215615   6.224   3.397   2.445
 4906SOL     OW15616   6.107   0.747   1.037
 4906SOL    HW115617   6.061   0.836   1.043
 4906SOL    HW215618   6.045   0.676   1.069
 4907SOL     OW15619   3.079   0.755   2.171
 4907SOL    HW115620   3.160   0.716   2.216
 4907SOL    HW215621   3.081   0.855   2.180
 4908SOL     OW15622   3.512   5.403   6.662
 4908SOL    HW115623   3.441   5.343   6.626
 4908SOL    HW215624   3.473   5.492   6.686
 4909SOL     OW15625   6.602   0.389   5.083
 4909SOL    HW115626   6.533   0.367   5.151
 4909SOL    HW215627   6.661   0.310   5.067
 4910SOL     OW15628   6.382   0.195   4.903
 4910SOL    HW115629   6.470   0.167   4.865
 4910SOL    HW215630   6.371   0.154   4.994
 4911SOL     OW15631   7.005   3.009   5.992
 4911SOL    HW115632   0.024   2.933   6.042
 4911SOL    HW215633   0.053   3.054   5.937
 4912SOL     OW15634   2.207   2.424   1.931
 4912SOL    HW115635   2.248   2.366   1.860
 4912SOL    HW215636   2.125   2.469   1.894
 4913SOL     OW15637   2.922   3.509   2.644
 4913SOL    HW115638   2.958   3.602   2.642
 4913SOL    HW215639   2.827   3.511   2.675
 4914SOL     OW15640   1.929   6.311   3.530
 4914SOL    HW115641   1.984   6.232   3.557
 4914SOL    HW215642   1.978   6.364   3.462
 4915SOL     OW15643   3.047   6.237   3.308
 4915SOL    HW115644   3.066   6.176   3.231
 4915SOL    HW215645   2.959   6.213   3.348
 4916SOL     OW15646   2.550   1.193   2.221
 4916SOL    HW115647   2.600   1.278   2.240
 4916SOL    HW215648   2.538   1.183   2.122
 4917SOL     OW15649   1.711   4.959   0.358
 4917SOL    HW115650   1.792   4.917   0.399
 4917SOL    HW215651   1.653   4.997   0.429
 4918SOL     OW15652   2.285   0.323   2.280
 4918SOL    HW115653   2.222   0.318   2.357
 4918SOL    HW215654   2.244   0.378   2.207
 4919SOL     OW15655   2.640   2.422   1.890
 4919SOL    HW115656   2.619   2.436   1.987
 4919SOL    HW215657   2.737   2.402   1.879
 4920SOL     OW15658   4.459   0.496   6.706
 4920SOL    HW115659   4.540   0.512   6.761
 4920SOL    HW215660   4.421   0.583   6.675
 4921SOL     OW15661   1.306   4.913   1.990
 4921SOL    HW115662   1.387   4.951   1.946
 4921SOL    HW215663   1.318   4.815   2.005
 4922SOL     OW15664   1.318   2.721   6.090
 4922SOL    HW115665   1.362   2.720   6.179
 4922SOL    HW215666   1.229   2.676   6.096
 4923SOL     OW15667   4.058   1.570   0.773
 4923SOL    HW115668   4.072   1.520   0.859
 4923SOL    HW215669   3.962   1.595   0.765
 4924SOL     OW15670   0.375   3.959   4.556
 4924SOL    HW115671   0.447   3.962   4.487
 4924SOL    HW215672   0.300   3.901   4.524
 4925SOL     OW15673   3.956   6.067   0.041
 4925SOL    HW115674   4.011   6.149   0.053
 4925SOL    HW215675   3.861   6.092   0.024
 4926SOL     OW15676   4.714   2.300   1.922
 4926SOL    HW115677   4.629   2.258   1.953
 4926SOL    HW215678   4.697   2.394   1.894
 4927SOL     OW15679   3.787   3.278   3.060
 4927SOL    HW115680   3.868   3.336   3.071
 4927SOL    HW215681   3.751   3.288   2.968
 4928SOL     OW15682   0.644   5.863   0.571
 4928SOL    HW115683   0.611   5.948   0.613
 4928SOL    HW215684   0.694   5.885   0.487
 4929SOL     OW15685   0.967   5.020   4.349
 4929SOL    HW115686   0.934   5.027   4.444
 4929SOL    HW215687   0.899   5.060   4.288
 4930SOL     OW15688   6.897   1.949   0.766
 4930SOL    HW115689   6.808   1.958   0.721
 4930SOL    HW215690   6.884   1.943   0.865
 4931SOL     OW15691   0.171   0.758   0.948
 4931SOL    HW115692   0.096   0.784   1.008
 4931SOL    HW215693   0.258   0.777   0.992
 4932SOL     OW15694   3.093   2.523   1.208
 4932SOL    HW115695   3.013   2.574   1.239
 4932SOL    HW215696   3.083   2.426   1.231
 4933SOL     OW15697   2.799   1.295   4.502
 4933SOL    HW115698   2.816   1.227   4.430
 4933SOL    HW215699   2.706   1.285   4.536
 4934SOL     OW15700   1.166   6.149   4.709
 4934SOL    HW115701   1.086   6.117   4.659
 4934SOL    HW215702   1.179   6.247   4.692
 4935SOL     OW15703   1.555   1.215   0.604
 4935SOL    HW115704   1.614   1.269   0.545
 4935SOL    HW215705   1.561   1.249   0.698
 4936SOL     OW15706   3.861   5.482   0.516
 4936SOL    HW115707   3.775   5.431   0.521
 4936SOL    HW215708   3.842   5.580   0.505
 4937SOL     OW15709   0.458   3.196   6.424
 4937SOL    HW115710   0.384   3.135   6.451
 4937SOL    HW215711   0.444   3.226   6.330
 4938SOL     OW15712   3.365   4.361   1.257
 4938SOL    HW115713   3.403   4.282   1.305
 4938SOL    HW215714   3.398   4.446   1.300
 4939SOL     OW15715   1.621   2.020   2.098
 4939SOL    HW115716   1.712   1.979   2.101
 4939SOL    HW215717   1.630   2.118   2.078
 4940SOL     OW15718   6.833   2.076   5.167
 4940SOL    HW115719   6.790   2.119   5.246
 4940SOL    HW215720   6.764   2.027   5.114
 4941SOL     OW15721   3.940   1.891   5.239
 4941SOL    HW115722   3.939   1.975   5.186
 4941SOL    HW215723   3.870   1.829   5.205
 4942SOL     OW15724   6.799   1.713   3.952
 4942SOL    HW115725   6.876   1.650   3.943
 4942SOL    HW215726   6.718   1.673   3.910
 4943SOL     OW15727   5.135   3.299   6.379
 4943SOL    HW115728   5.210   3.237   6.353
 4943SOL    HW215729   5.161   3.393   6.355
 4944SOL     OW15730   1.472   5.180   0.712
 4944SOL    HW115731   1.503   5.172   0.618
 4944SOL    HW215732   1.528   5.120   0.771
 4945SOL     OW15733   1.962   1.055   4.665
 4945SOL    HW115734   1.957   0.988   4.739
 4945SOL    HW215735   2.018   1.133   4.694
 4946SOL     OW15736   2.507   4.736   6.868
 4946SOL    HW115737   2.517   4.797   6.947
 4946SOL    HW215738   2.597   4.703   6.839
 4947SOL     OW15739   1.681   1.152   1.927
 4947SOL    HW115740   1.763   1.209   1.924
 4947SOL    HW215741   1.600   1.210   1.918
 4948SOL     OW15742   1.320   2.689   2.084
 4948SOL    HW115743   1.381   2.669   2.007
 4948SOL    HW215744   1.305   2.788   2.090
 4949SOL     OW15745   0.053   4.134   0.137
 4949SOL    HW115746   7.012   4.110   0.211
 4949SOL    HW215747   0.066   4.054   0.077
 4950SOL     OW15748   2.712   3.714   5.433
 4950SOL    HW115749   2.720   3.797   5.379
 4950SOL    HW215750   2.699   3.635   5.372
 4951SOL     OW15751   4.945   5.549   3.341
 4951SOL    HW115752   4.946   5.456   3.305
 4951SOL    HW215753   4.855   5.569   3.380
 4952SOL     OW15754   0.330   6.775   5.968
 4952SOL    HW115755   0.270   6.780   5.888
 4952SOL    HW215756   0.368   6.682   5.975
 4953SOL     OW15757   0.560   2.138   4.848
 4953SOL    HW115758   0.467   2.116   4.877
 4953SOL    HW215759   0.585   2.079   4.771
 4954SOL     OW15760   3.432   4.071   5.493
 4954SOL    HW115761   3.508   4.111   5.442
 4954SOL    HW215762   3.451   3.974   5.510
 4955SOL     OW15763   3.764   5.032   6.872
 4955SOL    HW115764   3.851   4.985   6.885
 4955SOL    HW215765   3.781   5.129   6.856
 4956SOL     OW15766   2.892   0.456   4.648
 4956SOL    HW115767   2.966   0.501   4.597
 4956SOL    HW215768   2.917   0.361   4.665
 4957SOL     OW15769   6.177   4.049   6.984
 4957SOL    HW115770   6.094   4.103   6.995
 4957SOL    HW215771   6.222   4.075   6.898
 4958SOL     OW15772   3.392   5.980   0.260
 4958SOL    HW115773   3.359   6.012   0.171
 4958SOL    HW215774   3.481   5.934   0.247
 4959SOL     OW15775   0.625   3.117   3.094
 4959SOL    HW115776   0.573   3.202   3.097
 4959SOL    HW215777   0.720   3.137   3.070
 4960SOL     OW15778   4.559   5.274   4.031
 4960SOL    HW115779   4.566   5.372   4.013
 4960SOL    HW215780   4.613   5.223   3.964
 4961SOL     OW15781   4.275   1.317   0.031
 4961SOL    HW115782   4.267   1.256   0.110
 4961SOL    HW215783   4.198   1.300   6.990
 4962SOL     OW15784   1.252   4.089   1.277
 4962SOL    HW115785   1.208   4.123   1.195
 4962SOL    HW215786   1.186   4.086   1.352
 4963SOL     OW15787   1.025   3.903   6.466
 4963SOL    HW115788   1.107   3.862   6.426
 4963SOL    HW215789   1.038   4.002   6.473
 4964SOL     OW15790   2.780   6.703   4.554
 4964SOL    HW115791   2.750   6.786   4.508
 4964SOL    HW215792   2.774   6.625   4.491
 4965SOL     OW15793   1.700   5.899   3.260
 4965SOL    HW115794   1.733   5.859   3.346
 4965SOL    HW215795   1.762   5.972   3.231
 4966SOL     OW15796   3.227   6.567   4.127
 4966SOL    HW115797   3.256   6.641   4.188
 4966SOL    HW215798   3.161   6.602   4.060
 4967SOL     OW15799   4.441   4.609   4.712
 4967SOL    HW115800   4.430   4.708   4.705
 4967SOL    HW215801   4.408   4.578   4.801
 4968SOL     OW15802   6.232   2.601   3.113
 4968SOL    HW115803   6.165   2.673   3.093
 4968SOL    HW215804   6.193   2.512   3.092
 4969SOL     OW15805   0.864   6.239   3.290
 4969SOL    HW115806   0.918   6.251   3.374
 4969SOL    HW215807   0.924   6.251   3.210
 4970SOL     OW15808   0.569   1.811   1.441
 4970SOL    HW115809   0.623   1.892   1.461
 4970SOL    HW215810   0.506   1.793   1.517
 4971SOL     OW15811   6.686   6.004   3.018
 4971SOL    HW115812   6.760   5.956   2.969
 4971SOL    HW215813   6.680   6.098   2.984
 4972SOL     OW15814   1.452   4.649   1.080
 4972SOL    HW115815   1.494   4.611   1.163
 4972SOL    HW215816   1.355   4.667   1.097
 4973SOL     OW15817   6.827   0.667   1.096
 4973SOL    HW115818   6.893   0.739   1.115
 4973SOL    HW215819   6.875   0.580   1.086
 4974SOL     OW15820   3.375   5.692   5.231
 4974SOL    HW115821   3.283   5.701   5.270
 4974SOL    HW215822   3.406   5.782   5.199
 4975SOL     OW15823   6.089   4.314   0.992
 4975SOL    HW115824   6.051   4.396   0.949
 4975SOL    HW215825   6.057   4.308   1.086
 4976SOL     OW15826   1.845   6.850   3.754
 4976SOL    HW115827   1.777   6.787   3.716
 4976SOL    HW215828   1.937   6.815   3.735
 4977SOL     OW15829   1.816   4.583   6.154
 4977SOL    HW115830   1.881   4.562   6.081
 4977SOL    HW215831   1.724   4.563   6.123
 4978SOL     OW15832   4.958   4.792   4.660
 4978SOL    HW115833   4.994   4.863   4.600
 4978SOL    HW215834   4.966   4.703   4.614
 4979SOL     OW15835   2.347   0.224   6.028
 4979SOL    HW115836   2.394   0.237   5.941
 4979SOL    HW215837   2.380   0.140   6.072
 4980SOL     OW15838   5.264   3.921   2.994
 4980SOL    HW115839   5.354   3.896   2.958
 4980SOL    HW215840   5.264   3.907   3.093
 4981SOL     OW15841   3.387   4.949   1.986
 4981SOL    HW115842   3.324   4.945   1.909
 4981SOL    HW215843   3.453   4.874   1.980
 4982SOL     OW15844   4.068   1.571   5.990
 4982SOL    HW115845   4.104   1.485   5.955
 4982SOL    HW215846   4.081   1.643   5.922
 4983SOL     OW15847   5.940   5.541   2.755
 4983SOL    HW115848   6.008   5.579   2.817
 4983SOL    HW215849   5.864   5.605   2.744
 4984SOL     OW15850   5.418   4.519   2.611
 4984SOL    HW115851   5.455   4.612   2.610
 4984SOL    HW215852   5.489   4.456   2.642
 4985SOL     OW15853   5.566   6.904   2.531
 4985SOL    HW115854   5.488   6.891   2.469
 4985SOL    HW215855   5.535   6.944   2.617
 4986SOL     OW15856   0.492   5.038   2.861
 4986SOL    HW115857   0.549   4.986   2.925
 4986SOL    HW215858   0.549   5.104   2.813
 4987SOL     OW15859   0.732   1.011   2.478
 4987SOL    HW115860   0.760   1.084   2.415
 4987SOL    HW215861   0.666   0.952   2.432
 4988SOL     OW15862   5.512   6.583   3.546
 4988SOL    HW115863   5.471   6.672   3.562
 4988SOL    HW215864   5.603   6.595   3.506
 4989SOL     OW15865   4.503   0.502   2.566
 4989SOL    HW115866   4.507   0.575   2.635
 4989SOL    HW215867   4.539   0.417   2.606
 4990SOL     OW15868   4.829   2.261   5.347
 4990SOL    HW115869   4.764   2.227   5.279
 4990SOL    HW215870   4.804   2.354   5.373
 4991SOL     OW15871   1.535   5.024   5.051
 4991SOL    HW115872   1.501   5.011   4.958
 4991SOL    HW215873   1.613   5.086   5.049
 4992SOL     OW15874   0.403   2.106   3.710
 4992SOL    HW115875   0.402   2.134   3.806
 4992SOL    HW215876   0.373   2.183   3.653
 4993SOL     OW15877   3.715   6.520   4.063
 4993SOL    HW115878   3.712   6.428   4.103
 4993SOL    HW215879   3.623   6.558   4.060
 4994SOL     OW15880   3.176   4.495   5.647
 4994SOL    HW115881   3.090   4.495   5.597
 4994SOL    HW215882   3.221   4.583   5.635
 4995SOL     OW15883   0.449   0.120   5.746
 4995SOL    HW115884   0.473   0.072   5.662
 4995SOL    HW215885   0.357   0.159   5.737
 4996SOL     OW15886   6.751   1.024   4.740
 4996SOL    HW115887   6.785   0.973   4.661
 4996SOL    HW215888   6.807   1.106   4.753
 4997SOL     OW15889   3.790   2.081   1.195
 4997SOL    HW115890   3.734   2.080   1.112
 4997SOL    HW215891   3.730   2.083   1.275
 4998SOL     OW15892   0.569   3.684   3.782
 4998SOL    HW115893   0.649   3.675   3.840
 4998SOL    HW215894   0.557   3.601   3.727
 4999SOL     OW15895   0.756   4.378   4.242
 4999SOL    HW115896   0.759   4.358   4.144
 4999SOL    HW215897   0.847   4.364   4.282
 5000SOL     OW15898   2.543   5.488   3.006
 5000SOL    HW115899   2.509   5.410   2.953
 5000SOL    HW215900   2.512   5.573   2.963
 5001SOL     OW15901   0.775   5.193   2.849
 5001SOL    HW115902   0.742   5.173   2.757
 5001SOL    HW215903   0.787   5.292   2.859
 5002SOL     OW15904   0.636   3.233   3.748
 5002SOL    HW115905   0.622   3.326   3.714
 5002SOL    HW215906   0.582   3.220   3.832
 5003SOL     OW15907   3.847   6.686   3.902
 5003SOL    HW115908   3.945   6.683   3.921
 5003SOL    HW215909   3.802   6.608   3.946
 5004SOL     OW15910   2.311   6.225   6.682
 5004SOL    HW115911   2.334   6.158   6.612
 5004SOL    HW215912   2.233   6.279   6.652
 5005SOL     OW15913   3.580   2.598   0.046
 5005SOL    HW115914   3.628   2.649   0.118
 5005SOL    HW215915   3.631   2.603   6.982
 5006SOL     OW15916   5.498   1.852   2.077
 5006SOL    HW115917   5.501   1.756   2.050
 5006SOL    HW215918   5.441   1.903   2.014
 5007SOL     OW15919   6.191   6.739   1.892
 5007SOL    HW115920   6.128   6.762   1.966
 5007SOL    HW215921   6.274   6.794   1.900
 5008SOL     OW15922   5.527   6.412   2.203
 5008SOL    HW115923   5.538   6.313   2.202
 5008SOL    HW215924   5.597   6.453   2.261
 5009SOL     OW15925   0.036   2.328   0.708
 5009SOL    HW115926   0.086   2.398   0.656
 5009SOL    HW215927   7.001   2.372   0.777
 5010SOL     OW15928   3.872   3.167   0.483
 5010SOL    HW115929   3.805   3.099   0.454
 5010SOL    HW215930   3.863   3.249   0.427
 5011SOL     OW15931   2.469   3.739   6.748
 5011SOL    HW115932   2.506   3.821   6.792
 5011SOL    HW215933   2.405   3.766   6.675
 5012SOL     OW15934   6.183   1.825   5.134
 5012SOL    HW115935   6.090   1.819   5.168
 5012SOL    HW215936   6.246   1.840   5.211
 5013SOL     OW15937   5.781   0.475   5.641
 5013SOL    HW115938   5.800   0.385   5.601
 5013SOL    HW215939   5.683   0.482   5.661
 5014SOL     OW15940   6.455   3.522   1.385
 5014SOL    HW115941   6.360   3.494   1.375
 5014SOL    HW215942   6.494   3.480   1.467
 5015SOL     OW15943   5.539   6.765   4.460
 5015SOL    HW115944   5.535   6.833   4.387
 5015SOL    HW215945   5.519   6.810   4.548
 5016SOL     OW15946   1.288   3.810   5.099
 5016SOL    HW115947   1.325   3.743   5.035
 5016SOL    HW215948   1.321   3.901   5.075
 5017SOL     OW15949   0.723   2.678   2.073
 5017SOL    HW115950   0.811   2.711   2.110
 5017SOL    HW215951   0.730   2.670   1.974
 5018SOL     OW15952   0.585   6.517   1.165
 5018SOL    HW115953   0.524   6.451   1.209
 5018SOL    HW215954   0.529   6.584   1.115
 5019SOL     OW15955   1.188   5.122   5.381
 5019SOL    HW115956   1.203   5.159   5.289
 5019SOL    HW215957   1.098   5.149   5.413
 5020SOL     OW15958   1.731   6.863   4.303
 5020SOL    HW115959   1.813   6.806   4.315
 5020SOL    HW215960   1.719   6.919   4.385
 5021SOL     OW15961   1.592   1.423   1.298
 5021SOL    HW115962   1.662   1.424   1.370
 5021SOL    HW215963   1.532   1.502   1.310
 5022SOL     OW15964   0.505   3.274   1.842
 5022SOL    HW115965   0.473   3.185   1.808
 5022SOL    HW215966   0.474   3.347   1.781
 5023SOL     OW15967   6.907   4.960   2.764
 5023SOL    HW115968   6.895   4.888   2.696
 5023SOL    HW215969   6.992   5.009   2.747
 5024SOL     OW15970   4.606   3.710   1.673
 5024SOL    HW115971   4.540   3.781   1.700
 5024SOL    HW215972   4.664   3.745   1.600
 5025SOL     OW15973   4.028   1.144   3.274
 5025SOL    HW115974   4.094   1.214   3.249
 5025SOL    HW215975   3.946   1.187   3.313
 5026SOL     OW15976   4.866   6.489   4.947
 5026SOL    HW115977   4.902   6.428   5.018
 5026SOL    HW215978   4.852   6.437   4.863
 5027SOL     OW15979   5.368   0.518   6.888
 5027SOL    HW115980   5.399   0.506   6.794
 5027SOL    HW215981   5.268   0.528   6.889
 5028SOL     OW15982   0.403   2.344   3.102
 5028SOL    HW115983   0.457   2.403   3.041
 5028SOL    HW215984   0.340   2.400   3.156
 5029SOL     OW15985   6.268   1.540   2.570
 5029SOL    HW115986   6.174   1.508   2.561
 5029SOL    HW215987   6.282   1.578   2.662
 5030SOL     OW15988   0.099   4.587   6.822
 5030SOL    HW115989   0.017   4.622   6.869
 5030SOL    HW215990   0.095   4.487   6.819
 5031SOL     OW15991   6.909   0.359   5.700
 5031SOL    HW115992   6.912   0.312   5.788
 5031SOL    HW215993   6.832   0.326   5.647
 5032SOL     OW15994   3.310   3.420   5.462
 5032SOL    HW115995   3.269   3.431   5.371
 5032SOL    HW215996   3.283   3.332   5.500
 5033SOL     OW15997   1.822   1.381   6.890
 5033SOL    HW115998   1.796   1.472   6.856
 5033SOL    HW215999   1.803   1.313   6.820
 5034SOL     OW16000   4.430   6.345   4.169
 5034SOL    HW116001   4.356   6.321   4.232
 5034SOL    HW216002   4.467   6.262   4.128
 5035SOL     OW16003   1.285   4.934   4.087
 5035SOL    HW116004   1.288   4.866   4.160
 5035SOL    HW216005   1.241   5.017   4.121
 5036SOL     OW16006   6.500   2.799   4.971
 5036SOL    HW116007   6.587   2.815   4.924
 5036SOL    HW216008   6.431   2.863   4.937
 5037SOL     OW16009   4.475   4.284   0.884
 5037SOL    HW116010   4.525   4.214   0.935
 5037SOL    HW216011   4.387   4.302   0.930
 5038SOL     OW16012   3.461   3.692   3.536
 5038SOL    HW116013   3.377   3.659   3.580
 5038SOL    HW216014   3.539   3.675   3.596
 5039SOL     OW16015   0.567   3.394   7.000
 5039SOL    HW116016   0.487   3.440   6.962
 5039SOL    HW216017   0.648   3.420   6.948
 5040SOL     OW16018   1.039   5.603   6.213
 5040SOL    HW116019   1.057   5.505   6.206
 5040SOL    HW216020   0.981   5.622   6.292
 5041SOL     OW16021   0.083   2.985   2.329
 5041SOL    HW116022   0.073   3.084   2.312
 5041SOL    HW216023   0.170   2.968   2.376
 5042SOL     OW16024   0.465   3.327   6.163
 5042SOL    HW116025   0.378   3.368   6.190
 5042SOL    HW216026   0.472   3.325   6.064
 5043SOL     OW16027   3.753   0.292   0.771
 5043SOL    HW116028   3.660   0.255   0.775
 5043SOL    HW216029   3.819   0.219   0.787
 5044SOL     OW16030   6.321   5.562   0.699
 5044SOL    HW116031   6.371   5.477   0.719
 5044SOL    HW216032   6.369   5.611   0.626
 5045SOL     OW16033   6.373   3.391   6.234
 5045SOL    HW116034   6.297   3.454   6.247
 5045SOL    HW216035   6.373   3.358   6.139
 5046SOL     OW16036   3.150   3.506   3.365
 5046SOL    HW116037   3.167   3.474   3.272
 5046SOL    HW216038   3.078   3.575   3.363
 5047SOL     OW16039   2.260   4.150   3.182
 5047SOL    HW116040   2.287   4.124   3.275
 5047SOL    HW216041   2.228   4.069   3.133
 5048SOL     OW16042   1.305   1.152   5.771
 5048SOL    HW116043   1.361   1.213   5.715
 5048SOL    HW216044   1.239   1.206   5.823
 5049SOL     OW16045   5.676   0.687   6.135
 5049SOL    HW116046   5.694   0.778   6.174
 5049SOL    HW216047   5.708   0.617   6.198
 5050SOL     OW16048   1.973   1.341   0.598
 5050SOL    HW116049   1.981   1.322   0.500
 5050SOL    HW216050   1.881   1.374   0.619
 5051SOL     OW16051   3.435   4.609   1.365
 5051SOL    HW116052   3.482   4.618   1.453
 5051SOL    HW216053   3.339   4.634   1.375
 5052SOL     OW16054   3.704   1.097   5.432
 5052SOL    HW116055   3.726   1.192   5.452
 5052SOL    HW216056   3.606   1.082   5.446
 5053SOL     OW16057   0.599   6.409   2.303
 5053SOL    HW116058   0.560   6.383   2.391
 5053SOL    HW216059   0.696   6.385   2.301
 5054SOL     OW16060   3.995   4.790   4.203
 5054SOL    HW116061   4.032   4.766   4.113
 5054SOL    HW216062   4.064   4.769   4.273
 5055SOL     OW16063   6.574   2.794   6.631
 5055SOL    HW116064   6.560   2.807   6.730
 5055SOL    HW216065   6.485   2.791   6.586
 5056SOL     OW16066   5.212   3.855   4.933
 5056SOL    HW116067   5.139   3.838   4.866
 5056SOL    HW216068   5.291   3.798   4.911
 5057SOL     OW16069   0.974   6.666   2.882
 5057SOL    HW116070   0.938   6.756   2.908
 5057SOL    HW216071   0.904   6.597   2.896
 5058SOL     OW16072   2.984   4.496   6.192
 5058SOL    HW116073   2.965   4.473   6.097
 5058SOL    HW216074   3.060   4.561   6.196
 5059SOL     OW16075   0.529   0.565   2.620
 5059SOL    HW116076   0.590   0.486   2.611
 5059SOL    HW216077   0.494   0.591   2.530
 5060SOL     OW16078   6.240   1.831   5.750
 5060SOL    HW116079   6.308   1.763   5.722
 5060SOL    HW216080   6.282   1.921   5.754
 5061SOL     OW16081   5.131   3.418   0.108
 5061SOL    HW116082   5.198   3.363   0.057
 5061SOL    HW216083   5.167   3.439   0.198
 5062SOL     OW16084   0.437   0.401   1.666
 5062SOL    HW116085   0.446   0.480   1.605
 5062SOL    HW216086   0.480   0.321   1.623
 5063SOL     OW16087   1.379   6.769   2.168
 5063SOL    HW116088   1.384   6.826   2.250
 5063SOL    HW216089   1.469   6.730   2.148
 5064SOL     OW16090   4.519   3.062   0.632
 5064SOL    HW116091   4.543   2.992   0.565
 5064SOL    HW216092   4.595   3.126   0.642
 5065SOL     OW16093   2.773   6.890   5.819
 5065SOL    HW116094   2.753   6.882   5.917
 5065SOL    HW216095   2.854   6.947   5.806
 5066SOL     OW16096   6.115   5.140   0.980
 5066SOL    HW116097   6.106   5.151   1.079
 5066SOL    HW216098   6.128   5.044   0.958
 5067SOL     OW16099   4.685   1.106   0.481
 5067SOL    HW116100   4.621   1.183   0.481
 5067SOL    HW216101   4.751   1.117   0.407
 5068SOL     OW16102   2.547   4.895   0.071
 5068SOL    HW116103   2.474   4.923   0.133
 5068SOL    HW216104   2.610   4.833   0.119
 5069SOL     OW16105   0.384   4.407   2.499
 5069SOL    HW116106   0.420   4.322   2.538
 5069SOL    HW216107   0.301   4.433   2.548
 5070SOL     OW16108   4.886   3.161   3.929
 5070SOL    HW116109   4.820   3.087   3.940
 5070SOL    HW216110   4.976   3.131   3.959
 5071SOL     OW16111   4.691   1.833   6.477
 5071SOL    HW116112   4.658   1.883   6.557
 5071SOL    HW216113   4.789   1.816   6.487
 5072SOL     OW16114   0.760   4.614   1.136
 5072SOL    HW116115   0.662   4.595   1.142
 5072SOL    HW216116   0.809   4.551   1.197
 5073SOL     OW16117   5.071   0.453   2.889
 5073SOL    HW116118   4.972   0.453   2.908
 5073SOL    HW216119   5.111   0.537   2.925
 5074SOL     OW16120   2.568   3.771   6.367
 5074SOL    HW116121   2.613   3.802   6.283
 5074SOL    HW216122   2.509   3.844   6.402
 5075SOL     OW16123   0.145   5.779   4.974
 5075SOL    HW116124   0.164   5.724   5.056
 5075SOL    HW216125   0.047   5.773   4.953
 5076SOL     OW16126   3.418   0.937   1.076
 5076SOL    HW116127   3.475   0.854   1.074
 5076SOL    HW216128   3.411   0.974   0.984
 5077SOL     OW16129   0.456   2.637   3.598
 5077SOL    HW116130   0.401   2.615   3.679
 5077SOL    HW216131   0.549   2.662   3.627
 5078SOL     OW16132   1.426   1.982   4.339
 5078SOL    HW116133   1.426   2.080   4.319
 5078SOL    HW216134   1.452   1.931   4.257
 5079SOL     OW16135   3.819   4.960   5.696
 5079SOL    HW116136   3.847   5.032   5.760
 5079SOL    HW216137   3.719   4.961   5.687
 5080SOL     OW16138   5.320   6.926   5.817
 5080SOL    HW116139   5.404   6.908   5.766
 5080SOL    HW216140   5.308   0.003   5.827
 5081SOL     OW16141   3.677   3.660   3.716
 5081SOL    HW116142   3.698   3.577   3.768
 5081SOL    HW216143   3.745   3.671   3.643
 5082SOL     OW16144   5.033   5.956   4.852
 5082SOL    HW116145   5.041   6.045   4.807
 5082SOL    HW216146   5.094   5.891   4.807
 5083SOL     OW16147   1.735   6.606   1.478
 5083SOL    HW116148   1.642   6.597   1.442
 5083SOL    HW216149   1.735   6.584   1.576
 5084SOL     OW16150   1.333   6.223   3.841
 5084SOL    HW116151   1.367   6.183   3.756
 5084SOL    HW216152   1.340   6.322   3.836
 5085SOL     OW16153   6.103   2.323   6.420
 5085SOL    HW116154   6.146   2.380   6.489
 5085SOL    HW216155   6.172   2.263   6.378
 5086SOL     OW16156   6.283   5.207   3.916
 5086SOL    HW116157   6.316   5.160   3.834
 5086SOL    HW216158   6.298   5.305   3.907
 5087SOL     OW16159   6.754   5.515   5.708
 5087SOL    HW116160   6.763   5.540   5.804
 5087SOL    HW216161   6.676   5.564   5.668
 5088SOL     OW16162   5.783   0.492   6.282
 5088SOL    HW116163   5.880   0.467   6.287
 5088SOL    HW216164   5.727   0.413   6.307
 5089SOL     OW16165   5.525   3.881   2.946
 5089SOL    HW116166   5.581   3.956   2.913
 5089SOL    HW216167   5.581   3.816   2.997
 5090SOL     OW16168   1.717   5.357   1.290
 5090SOL    HW116169   1.805   5.362   1.243
 5090SOL    HW216170   1.657   5.429   1.256
 5091SOL     OW16171   1.307   6.292   2.644
 5091SOL    HW116172   1.343   6.375   2.602
 5091SOL    HW216173   1.274   6.312   2.736
 5092SOL     OW16174   4.243   2.140   1.403
 5092SOL    HW116175   4.266   2.049   1.437
 5092SOL    HW216176   4.327   2.192   1.386
 5093SOL     OW16177   0.733   2.291   1.794
 5093SOL    HW116178   0.755   2.340   1.879
 5093SOL    HW216179   0.683   2.207   1.816
 5094SOL     OW16180   0.690   6.564   5.105
 5094SOL    HW116181   0.708   6.488   5.043
 5094SOL    HW216182   0.605   6.547   5.155
 5095SOL     OW16183   2.960   6.900   4.693
 5095SOL    HW116184   2.948   6.992   4.655
 5095SOL    HW216185   2.897   6.837   4.647
 5096SOL     OW16186   4.366   3.944   1.013
 5096SOL    HW116187   4.303   3.982   1.081
 5096SOL    HW216188   4.407   3.860   1.049
 5097SOL     OW16189   1.573   6.480   6.078
 5097SOL    HW116190   1.484   6.443   6.053
 5097SOL    HW216191   1.624   6.505   5.995
 5098SOL     OW16192   0.213   1.395   3.073
 5098SOL    HW116193   0.306   1.403   3.038
 5098SOL    HW216194   0.149   1.393   2.997
 5099SOL     OW16195   1.308   0.541   5.279
 5099SOL    HW116196   1.302   0.442   5.271
 5099SOL    HW216197   1.301   0.582   5.188
 5100SOL     OW16198   5.790   6.523   6.875
 5100SOL    HW116199   5.719   6.523   6.805
 5100SOL    HW216200   5.761   6.582   6.951
 5101SOL     OW16201   3.731   6.416   0.465
 5101SOL    HW116202   3.686   6.353   0.402
 5101SOL    HW216203   3.757   6.499   0.416
 5102SOL     OW16204   3.862   5.887   5.400
 5102SOL    HW116205   3.898   5.828   5.472
 5102SOL    HW216206   3.937   5.937   5.357
 5103SOL     OW16207   0.150   0.127   4.209
 5103SOL    HW116208   0.223   0.147   4.145
 5103SOL    HW216209   0.109   0.212   4.241
 5104SOL     OW16210   1.479   0.774   1.686
 5104SOL    HW116211   1.464   0.727   1.773
 5104SOL    HW216212   1.436   0.864   1.689
 5105SOL     OW16213   3.530   3.883   6.472
 5105SOL    HW116214   3.477   3.820   6.529
 5105SOL    HW216215   3.474   3.912   6.394
 5106SOL     OW16216   3.486   0.653   2.255
 5106SOL    HW116217   3.395   0.660   2.296
 5106SOL    HW216218   3.531   0.571   2.291
 5107SOL     OW16219   2.059   6.948   5.600
 5107SOL    HW116220   2.126   7.020   5.587
 5107SOL    HW216221   2.047   6.898   5.514
 5108SOL     OW16222   3.396   3.786   4.458
 5108SOL    HW116223   3.388   3.805   4.360
 5108SOL    HW216224   3.480   3.829   4.493
 5109SOL     OW16225   0.241   1.168   1.296
 5109SOL    HW116226   0.200   1.099   1.356
 5109SOL    HW216227   0.223   1.259   1.334
 5110SOL     OW16228   2.122   5.586   5.832
 5110SOL    HW116229   2.106   5.510   5.769
 5110SOL    HW216230   2.049   5.654   5.823
 5111SOL     OW16231   1.313   1.451   0.566
 5111SOL    HW116232   1.376   1.378   0.540
 5111SOL    HW216233   1.276   1.433   0.657
 5112SOL     OW16234   0.439   5.791   4.089
 5112SOL    HW116235   0.358   5.751   4.046
 5112SOL    HW216236   0.430   5.890   4.090
 5113SOL     OW16237   1.081   0.050   6.801
 5113SOL    HW116238   1.088   0.082   6.896
 5113SOL    HW216239   1.056   0.127   6.742
 5114SOL     OW16240   3.928   4.985   0.146
 5114SOL    HW116241   3.870   5.063   0.172
 5114SOL    HW216242   3.874   4.901   0.150
 5115SOL     OW16243   1.630   3.647   5.290
 5115SOL    HW116244   1.547   3.592   5.294
 5115SOL    HW216245   1.706   3.592   5.256
 5116SOL     OW16246   6.654   4.476   0.506
 5116SOL    HW116247   6.707   4.517   0.431
 5116SOL    HW216248   6.694   4.388   0.530
 5117SOL     OW16249   2.292   4.351   4.545
 5117SOL    HW116250   2.300   4.446   4.576
 5117SOL    HW216251   2.335   4.290   4.612
 5118SOL     OW16252   4.439   6.490   0.923
 5118SOL    HW116253   4.467   6.489   1.019
 5118SOL    HW216254   4.497   6.554   0.872
 5119SOL     OW16255   6.079   6.989   2.102
 5119SOL    HW116256   6.117   0.007   2.018
 5119SOL    HW216257   6.154   6.958   2.161
 5120SOL     OW16258   4.976   2.053   2.467
 5120SOL    HW116259   4.954   1.962   2.502
 5120SOL    HW216260   5.070   2.054   2.432
 5121SOL     OW16261   0.259   3.685   5.541
 5121SOL    HW116262   0.176   3.632   5.527
 5121SOL    HW216263   0.307   3.696   5.454
 5122SOL     OW16264   2.379   6.413   4.004
 5122SOL    HW116265   2.357   6.320   4.032
 5122SOL    HW216266   2.348   6.477   4.074
 5123SOL     OW16267   5.442   4.749   2.034
 5123SOL    HW116268   5.355   4.700   2.041
 5123SOL    HW216269   5.433   4.826   1.972
 5124SOL     OW16270   2.498   6.901   6.719
 5124SOL    HW116271   2.460   6.828   6.663
 5124SOL    HW216272   2.591   6.877   6.747
 5125SOL     OW16273   6.928   3.150   4.657
 5125SOL    HW116274   6.946   3.143   4.755
 5125SOL    HW216275   6.981   3.080   4.608
 5126SOL     OW16276   5.589   3.663   6.407
 5126SOL    HW116277   5.650   3.694   6.479
 5126SOL    HW216278   5.638   3.601   6.345
 5127SOL     OW16279   5.825   2.832   6.606
 5127SOL    HW116280   5.857   2.925   6.584
 5127SOL    HW216281   5.742   2.812   6.554
 5128SOL     OW16282   0.284   0.618   6.837
 5128SOL    HW116283   0.238   0.687   6.892
 5128SOL    HW216284   0.222   0.588   6.764
 5129SOL     OW16285   4.279   2.047   2.433
 5129SOL    HW116286   4.314   2.090   2.516
 5129SOL    HW216287   4.222   2.111   2.383
 5130SOL     OW16288   1.169   5.908   4.456
 5130SOL    HW116289   1.077   5.901   4.495
 5130SOL    HW216290   1.198   6.004   4.459
 5131SOL     OW16291   3.151   4.924   3.535
 5131SOL    HW116292   3.235   4.936   3.589
 5131SOL    HW216293   3.175   4.916   3.438
 5132SOL     OW16294   3.346   1.537   6.783
 5132SOL    HW116295   3.276   1.597   6.822
 5132SOL    HW216296   3.428   1.590   6.764
 5133SOL     OW16297   4.557   4.515   6.340
 5133SOL    HW116298   4.466   4.518   6.382
 5133SOL    HW216299   4.626   4.533   6.410
 5134SOL     OW16300   0.007   6.031   1.170
 5134SOL    HW116301   0.053   6.062   1.087
 5134SOL    HW216302   6.950   6.089   1.189
 5135SOL     OW16303   6.559   2.915   2.147
 5135SOL    HW116304   6.582   2.984   2.215
 5135SOL    HW216305   6.637   2.899   2.087
 5136SOL     OW16306   1.193   0.851   6.137
 5136SOL    HW116307   1.148   0.768   6.171
 5136SOL    HW216308   1.292   0.843   6.151
 5137SOL     OW16309   5.906   1.219   4.533
 5137SOL    HW116310   6.005   1.219   4.518
 5137SOL    HW216311   5.859   1.217   4.445
 5138SOL     OW16312   2.995   3.148   4.029
 5138SOL    HW116313   2.936   3.071   4.001
 5138SOL    HW216314   3.017   3.203   3.948
 5139SOL     OW16315   2.471   0.406   4.785
 5139SOL    HW116316   2.457   0.464   4.866
 5139SOL    HW216317   2.473   0.310   4.813
 5140SOL     OW16318   4.081   2.255   6.833
 5140SOL    HW116319   4.037   2.246   6.743
 5140SOL    HW216320   4.152   2.186   6.841
 5141SOL     OW16321   6.348   3.062   1.842
 5141SOL    HW116322   6.277   3.037   1.908
 5141SOL    HW216323   6.366   2.984   1.781
 5142SOL     OW16324   0.160   0.175   2.734
 5142SOL    HW116325   0.210   0.201   2.652
 5142SOL    HW216326   0.092   0.244   2.756
 5143SOL     OW16327   0.060   6.339   3.088
 5143SOL    HW116328   0.042   6.251   3.132
 5143SOL    HW216329   6.995   6.380   3.058
 5144SOL     OW16330   2.425   2.737   5.245
 5144SOL    HW116331   2.460   2.827   5.219
 5144SOL    HW216332   2.489   2.693   5.308
 5145SOL     OW16333   2.554   5.662   0.016
 5145SOL    HW116334   2.572   5.577   6.986
 5145SOL    HW216335   2.461   5.659   0.053
 5146SOL     OW16336   5.114   4.822   6.392
 5146SOL    HW116337   5.205   4.792   6.364
 5146SOL    HW216338   5.047   4.794   6.324
 5147SOL     OW16339   4.716   2.649   3.667
 5147SOL    HW116340   4.721   2.629   3.765
 5147SOL    HW216341   4.632   2.610   3.629
 5148SOL     OW16342   0.780   0.460   6.460
 5148SOL    HW116343   0.814   0.498   6.546
 5148SOL    HW216344   0.857   0.439   6.399
 5149SOL     OW16345   4.747   4.856   3.762
 5149SOL    HW116346   4.759   4.777   3.822
 5149SOL    HW216347   4.789   4.837   3.673
 5150SOL     OW16348   0.258   5.929   3.835
 5150SOL    HW116349   0.189   5.928   3.762
 5150SOL    HW216350   0.263   6.021   3.875
 5151SOL     OW16351   5.953   5.233   2.119
 5151SOL    HW116352   5.874   5.187   2.079
 5151SOL    HW216353   6.037   5.186   2.091
 5152SOL     OW16354   0.856   1.509   0.225
 5152SOL    HW116355   0.868   1.526   0.322
 5152SOL    HW216356   0.901   1.423   0.199
 5153SOL     OW16357   1.213   1.813   1.309
 5153SOL    HW116358   1.206   1.759   1.224
 5153SOL    HW216359   1.262   1.898   1.290
 5154SOL     OW16360   0.075   2.891   0.307
 5154SOL    HW116361   0.133   2.972   0.309
 5154SOL    HW216362   7.017   2.905   0.367
 5155SOL     OW16363   1.695   1.277   0.379
 5155SOL    HW116364   1.749   1.194   0.384
 5155SOL    HW216365   1.675   1.298   0.283
 5156SOL     OW16366   5.396   6.121   5.423
 5156SOL    HW116367   5.414   6.044   5.484
 5156SOL    HW216368   5.327   6.180   5.464
 5157SOL     OW16369   3.090   0.298   1.065
 5157SOL    HW116370   3.137   0.306   0.977
 5157SOL    HW216371   3.146   0.245   1.128
 5158SOL     OW16372   2.055   2.160   1.810
 5158SOL    HW116373   2.055   2.244   1.863
 5158SOL    HW216374   2.035   2.180   1.714
 5159SOL     OW16375   6.543   3.155   5.611
 5159SOL    HW116376   6.637   3.180   5.634
 5159SOL    HW216377   6.480   3.225   5.645
 5160SOL     OW16378   6.545   6.503   3.443
 5160SOL    HW116379   6.584   6.501   3.535
 5160SOL    HW216380   6.484   6.582   3.434
 5161SOL     OW16381   0.937   3.570   0.636
 5161SOL    HW116382   0.988   3.486   0.655
 5161SOL    HW216383   0.902   3.567   0.542
 5162SOL     OW16384   0.164   0.135   3.585
 5162SOL    HW116385   0.152   0.180   3.674
 5162SOL    HW216386   0.098   0.172   3.520
 5163SOL     OW16387   2.949   0.188   2.002
 5163SOL    HW116388   2.963   0.096   1.964
 5163SOL    HW216389   2.851   0.208   2.006
 5164SOL     OW16390   3.135   3.563   0.508
 5164SOL    HW116391   3.045   3.605   0.494
 5164SOL    HW216392   3.137   3.473   0.463
 5165SOL     OW16393   1.555   4.257   6.280
 5165SOL    HW116394   1.608   4.326   6.329
 5165SOL    HW216395   1.496   4.302   6.213
 5166SOL     OW16396   1.441   5.589   0.988
 5166SOL    HW116397   1.412   5.528   0.915
 5166SOL    HW216398   1.434   5.684   0.957
 5167SOL     OW16399   5.665   3.053   5.287
 5167SOL    HW116400   5.577   3.005   5.278
 5167SOL    HW216401   5.685   3.066   5.385
 5168SOL     OW16402   4.286   2.343   3.048
 5168SOL    HW116403   4.241   2.304   2.968
 5168SOL    HW216404   4.233   2.321   3.130
 5169SOL     OW16405   4.225   5.973   4.091
 5169SOL    HW116406   4.152   5.937   4.033
 5169SOL    HW216407   4.230   5.920   4.175
 5170SOL     OW16408   1.444   3.534   6.835
 5170SOL    HW116409   1.366   3.538   6.773
 5170SOL    HW216410   1.527   3.561   6.785
 5171SOL     OW16411   2.104   5.820   5.296
 5171SOL    HW116412   2.187   5.770   5.271
 5171SOL    HW216413   2.046   5.831   5.216
 5172SOL     OW16414   6.644   5.629   4.594
 5172SOL    HW116415   6.666   5.702   4.659
 5172SOL    HW216416   6.727   5.601   4.546
 5173SOL     OW16417   4.515   4.165   5.515
 5173SOL    HW116418   4.532   4.114   5.599
 5173SOL    HW216419   4.502   4.101   5.439
 5174SOL     OW16420   2.306   6.608   3.209
 5174SOL    HW116421   2.218   6.639   3.173
 5174SOL    HW216422   2.361   6.687   3.237
 5175SOL     OW16423   3.431   3.517   6.959
 5175SOL    HW116424   3.474   3.569   6.885
 5175SOL    HW216425   3.370   3.577   7.011
 5176SOL     OW16426   6.106   6.045   0.157
 5176SOL    HW116427   6.171   5.977   0.122
 5176SOL    HW216428   6.152   6.104   0.223
 5177SOL     OW16429   5.941   6.984   0.380
 5177SOL    HW116430   6.005   6.908   0.383
 5177SOL    HW216431   5.932   7.016   0.285
 5178SOL     OW16432   0.635   4.568   2.244
 5178SOL    HW116433   0.687   4.558   2.159
 5178SOL    HW216434   0.537   4.563   2.224
 5179SOL     OW16435   5.165   5.812   2.397
 5179SOL    HW116436   5.156   5.800   2.495
 5179SOL    HW216437   5.229   5.888   2.378
 5180SOL     OW16438   2.649   6.784   2.295
 5180SOL    HW116439   2.684   6.858   2.352
 5180SOL    HW216440   2.552   6.801   2.274
 5181SOL     OW16441   0.473   0.363   5.870
 5181SOL    HW116442   0.456   0.274   5.827
 5181SOL    HW216443   0.562   0.397   5.842
 5182SOL     OW16444   2.731   6.226   3.331
 5182SOL    HW116445   2.667   6.153   3.308
 5182SOL    HW216446   2.729   6.297   3.261
 5183SOL     OW16447   4.105   1.703   3.605
 5183SOL    HW116448   4.054   1.654   3.676
 5183SOL    HW216449   4.139   1.638   3.537
 5184SOL     OW16450   2.829   1.514   3.772
 5184SOL    HW116451   2.880   1.506   3.857
 5184SOL    HW216452   2.799   1.609   3.760
 5185SOL     OW16453   6.389   0.326   1.650
 5185SOL    HW116454   6.297   0.317   1.613
 5185SOL    HW216455   6.439   0.241   1.635
 5186SOL     OW16456   6.984   3.109   6.958
 5186SOL    HW116457   6.945   3.173   6.892
 5186SOL    HW216458   0.035   3.155   7.009
 5187SOL     OW16459   1.880   5.044   5.314
 5187SOL    HW116460   1.888   4.952   5.352
 5187SOL    HW216461   1.797   5.087   5.349
 5188SOL     OW16462   6.282   6.710   2.482
 5188SOL    HW116463   6.315   6.669   2.397
 5188SOL    HW216464   6.339   6.789   2.505
 5189SOL     OW16465   5.222   6.721   6.397
 5189SOL    HW116466   5.256   6.815   6.403
 5189SOL    HW216467   5.264   6.675   6.319
 5190SOL     OW16468   1.719   3.723   0.790
 5190SOL    HW116469   1.748   3.817   0.810
 5190SOL    HW216470   1.681   3.682   0.873
 5191SOL     OW16471   3.109   4.860   2.043
 5191SOL    HW116472   3.058   4.812   1.972
 5191SOL    HW216473   3.207   4.842   2.031
 5192SOL     OW16474   2.011   4.882   2.263
 5192SOL    HW116475   1.988   4.979   2.260
 5192SOL    HW216476   2.110   4.870   2.264
 5193SOL     OW16477   5.294   0.255   5.738
 5193SOL    HW116478   5.302   0.185   5.667
 5193SOL    HW216479   5.247   0.335   5.700
 5194SOL     OW16480   5.412   2.214   6.430
 5194SOL    HW116481   5.390   2.120   6.406
 5194SOL    HW216482   5.495   2.217   6.486
 5195SOL     OW16483   0.116   0.406   4.294
 5195SOL    HW116484   0.209   0.433   4.266
 5195SOL    HW216485   0.050   0.470   4.256
 5196SOL     OW16486   5.404   6.699   2.695
 5196SOL    HW116487   5.479   6.728   2.636
 5196SOL    HW216488   5.368   6.611   2.663
 5197SOL     OW16489   1.080   3.829   5.248
 5197SOL    HW116490   1.166   3.822   5.197
 5197SOL    HW216491   1.092   3.788   5.338
 5198SOL     OW16492   5.679   5.593   3.297
 5198SOL    HW116493   5.595   5.580   3.244
 5198SOL    HW216494   5.686   5.688   3.326
 5199SOL     OW16495   0.136   4.695   1.718
 5199SOL    HW116496   0.114   4.668   1.624
 5199SOL    HW216497   0.234   4.714   1.725
 5200SOL     OW16498   0.050   4.050   4.459
 5200SOL    HW116499   0.111   4.123   4.430
 5200SOL    HW216500   6.986   4.090   4.494
 5201SOL     OW16501   1.705   5.206   4.102
 5201SOL    HW116502   1.799   5.170   4.099
 5201SOL    HW216503   1.683   5.248   4.014
 5202SOL     OW16504   0.605   5.058   1.485
 5202SOL    HW116505   0.528   5.002   1.516
 5202SOL    HW216506   0.592   5.082   1.389
 5203SOL     OW16507   1.090   2.501   0.465
 5203SOL    HW116508   1.153   2.466   0.395
 5203SOL    HW216509   0.996   2.485   0.436
 5204SOL     OW16510   4.916   4.590   0.006
 5204SOL    HW116511   4.995   4.531   0.021
 5204SOL    HW216512   4.898   4.599   6.930
 5205SOL     OW16513   1.899   0.440   1.682
 5205SOL    HW116514   1.851   0.513   1.632
 5205SOL    HW216515   1.851   0.422   1.768
 5206SOL     OW16516   0.270   4.397   5.701
 5206SOL    HW116517   0.211   4.473   5.673
 5206SOL    HW216518   0.298   4.411   5.796
 5207SOL     OW16519   1.784   4.446   4.322
 5207SOL    HW116520   1.783   4.430   4.421
 5207SOL    HW216521   1.799   4.543   4.305
 5208SOL     OW16522   4.028   1.445   6.537
 5208SOL    HW116523   3.977   1.530   6.549
 5208SOL    HW216524   4.068   1.442   6.446
 5209SOL     OW16525   5.081   6.555   2.923
 5209SOL    HW116526   5.041   6.555   3.015
 5209SOL    HW216527   5.017   6.514   2.859
 5210SOL     OW16528   4.752   5.288   3.644
 5210SOL    HW116529   4.717   5.381   3.654
 5210SOL    HW216530   4.851   5.291   3.628
 5211SOL     OW16531   4.166   3.418   2.833
 5211SOL    HW116532   4.152   3.341   2.772
 5211SOL    HW216533   4.195   3.498   2.781
 5212SOL     OW16534   1.071   2.016   0.565
 5212SOL    HW116535   1.148   2.064   0.608
 5212SOL    HW216536   1.067   1.922   0.599
 5213SOL     OW16537   4.284   2.015   6.382
 5213SOL    HW116538   4.287   1.955   6.302
 5213SOL    HW216539   4.291   1.959   6.465
 5214SOL     OW16540   5.734   1.482   5.486
 5214SOL    HW116541   5.716   1.417   5.412
 5214SOL    HW216542   5.826   1.465   5.523
 5215SOL     OW16543   5.131   5.014   2.635
 5215SOL    HW116544   5.131   5.059   2.545
 5215SOL    HW216545   5.037   4.999   2.664
 5216SOL     OW16546   4.964   5.036   1.041
 5216SOL    HW116547   5.017   4.988   0.970
 5216SOL    HW216548   4.904   4.971   1.088
 5217SOL     OW16549   2.459   4.954   4.094
 5217SOL    HW116550   2.503   4.991   4.176
 5217SOL    HW216551   2.527   4.944   4.022
 5218SOL     OW16552   1.657   6.620   3.682
 5218SOL    HW116553   1.753   6.591   3.680
 5218SOL    HW216554   1.615   6.589   3.767
 5219SOL     OW16555   3.098   6.143   0.197
 5219SOL    HW116556   3.073   6.080   0.271
 5219SOL    HW216557   3.125   6.231   0.237
 5220SOL     OW16558   0.628   6.256   2.748
 5220SOL    HW116559   0.549   6.234   2.805
 5220SOL    HW216560   0.596   6.289   2.659
 5221SOL     OW16561   5.041   1.487   4.901
 5221SOL    HW116562   4.985   1.405   4.912
 5221SOL    HW216563   4.999   1.548   4.834
 5222SOL     OW16564   1.332   0.615   2.853
 5222SOL    HW116565   1.392   0.670   2.795
 5222SOL    HW216566   1.251   0.589   2.802
 5223SOL     OW16567   5.227   0.037   1.810
 5223SOL    HW116568   5.230   6.965   1.774
 5223SOL    HW216569   5.255   0.101   1.739
 5224SOL     OW16570   5.796   1.998   2.509
 5224SOL    HW116571   5.887   1.959   2.526
 5224SOL    HW216572   5.802   2.098   2.512
 5225SOL     OW16573   5.538   5.935   4.930
 5225SOL    HW116574   5.602   5.866   4.897
 5225SOL    HW216575   5.459   5.891   4.973
 5226SOL     OW16576   1.073   6.660   3.942
 5226SOL    HW116577   1.054   6.562   3.937
 5226SOL    HW216578   1.165   6.678   3.908
 5227SOL     OW16579   5.963   4.695   3.355
 5227SOL    HW116580   5.875   4.649   3.360
 5227SOL    HW216581   5.963   4.775   3.415
 5228SOL     OW16582   5.390   1.259   0.679
 5228SOL    HW116583   5.385   1.335   0.744
 5228SOL    HW216584   5.484   1.250   0.646
 5229SOL     OW16585   1.381   4.143   5.494
 5229SOL    HW116586   1.433   4.221   5.459
 5229SOL    HW216587   1.304   4.124   5.434
 5230SOL     OW16588   0.562   6.994   6.845
 5230SOL    HW116589   0.483   7.005   6.784
 5230SOL    HW216590   0.546   6.917   6.906
 5231SOL     OW16591   4.036   3.105   3.041
 5231SOL    HW116592   4.116   3.090   3.100
 5231SOL    HW216593   3.963   3.147   3.094
 5232SOL     OW16594   4.799   2.543   6.681
 5232SOL    HW116595   4.884   2.594   6.695
 5232SOL    HW216596   4.817   2.445   6.693
 5233SOL     OW16597   1.249   0.371   2.351
 5233SOL    HW116598   1.173   0.340   2.294
 5233SOL    HW216599   1.229   0.351   2.447
 5234SOL     OW16600   3.923   0.103   0.833
 5234SOL    HW116601   3.928   0.106   0.933
 5234SOL    HW216602   4.014   0.116   0.794
 5235SOL     OW16603   0.724   2.934   1.120
 5235SOL    HW116604   0.740   2.845   1.163
 5235SOL    HW216605   0.673   2.993   1.184
 5236SOL     OW16606   5.411   2.984   1.102
 5236SOL    HW116607   5.465   3.031   1.031
 5236SOL    HW216608   5.342   2.927   1.059
 5237SOL     OW16609   2.273   1.823   5.316
 5237SOL    HW116610   2.213   1.864   5.248
 5237SOL    HW216611   2.238   1.840   5.408
 5238SOL     OW16612   1.875   4.801   0.868
 5238SOL    HW116613   1.935   4.772   0.943
 5238SOL    HW216614   1.789   4.837   0.907
 5239SOL     OW16615   2.955   3.366   4.182
 5239SOL    HW116616   2.956   3.302   4.106
 5239SOL    HW216617   2.962   3.316   4.269
 5240SOL     OW16618   3.385   2.132   5.027
 5240SOL    HW116619   3.420   2.145   5.120
 5240SOL    HW216620   3.303   2.187   5.014
 5241SOL     OW16621   1.605   6.048   7.013
 5241SOL    HW116622   1.557   6.118   6.960
 5241SOL    HW216623   1.690   6.023   6.966
 5242SOL     OW16624   6.008   1.299   5.390
 5242SOL    HW116625   5.939   1.236   5.355
 5242SOL    HW216626   6.053   1.259   5.470
 5243SOL     OW16627   1.823   4.749   1.290
 5243SOL    HW116628   1.778   4.827   1.248
 5243SOL    HW216629   1.814   4.669   1.230
 5244SOL     OW16630   5.103   4.412   5.668
 5244SOL    HW116631   5.010   4.446   5.684
 5244SOL    HW216632   5.141   4.455   5.586
 5245SOL     OW16633   4.738   3.867   6.708
 5245SOL    HW116634   4.831   3.843   6.734
 5245SOL    HW216635   4.698   3.792   6.655
 5246SOL     OW16636   1.188   3.046   2.810
 5246SOL    HW116637   1.282   3.017   2.794
 5246SOL    HW216638   1.159   3.016   2.901
 5247SOL     OW16639   1.007   5.250   1.249
 5247SOL    HW116640   1.055   5.219   1.331
 5247SOL    HW216641   0.978   5.345   1.261
 5248SOL     OW16642   5.138   1.154   5.632
 5248SOL    HW116643   5.182   1.104   5.707
 5248SOL    HW216644   5.090   1.089   5.573
 5249SOL     OW16645   1.336   4.933   4.862
 5249SOL    HW116646   1.239   4.939   4.886
 5249SOL    HW216647   1.345   4.934   4.762
 5250SOL     OW16648   0.594   1.540   6.210
 5250SOL    HW116649   0.587   1.569   6.306
 5250SOL    HW216650   0.688   1.514   6.190
 5251SOL     OW16651   6.583   3.387   1.601
 5251SOL    HW116652   6.499   3.346   1.638
 5251SOL    HW216653   6.638   3.316   1.557
 5252SOL     OW16654   3.943   6.074   0.819
 5252SOL    HW116655   3.901   6.016   0.888
 5252SOL    HW216656   4.032   6.107   0.852
 5253SOL     OW16657   5.834   3.544   3.929
 5253SOL    HW116658   5.823   3.445   3.930
 5253SOL    HW216659   5.913   3.569   3.873
 5254SOL     OW16660   4.581   1.238   3.905
 5254SOL    HW116661   4.605   1.268   3.813
 5254SOL    HW216662   4.545   1.145   3.902
 5255SOL     OW16663   3.176   6.372   5.116
 5255SOL    HW116664   3.079   6.349   5.109
 5255SOL    HW216665   3.191   6.427   5.198
 5256SOL     OW16666   5.478   6.404   3.998
 5256SOL    HW116667   5.413   6.477   4.018
 5256SOL    HW216668   5.475   6.382   3.900
 5257SOL     OW16669   3.530   0.177   1.128
 5257SOL    HW116670   3.562   0.082   1.123
 5257SOL    HW216671   3.508   0.199   1.223
 5258SOL     OW16672   5.550   3.753   2.494
 5258SOL    HW116673   5.545   3.654   2.497
 5258SOL    HW216674   5.460   3.793   2.510
 5259SOL     OW16675   4.766   5.262   2.555
 5259SOL    HW116676   4.707   5.204   2.499
 5259SOL    HW216677   4.712   5.308   2.624
 5260SOL     OW16678   5.525   3.369   1.325
 5260SOL    HW116679   5.495   3.400   1.235
 5260SOL    HW216680   5.446   3.336   1.377
 5261SOL     OW16681   1.209   2.490   4.767
 5261SOL    HW116682   1.307   2.501   4.784
 5261SOL    HW216683   1.170   2.576   4.734
 5262SOL     OW16684   2.702   6.806   1.933
 5262SOL    HW116685   2.674   6.892   1.975
 5262SOL    HW216686   2.755   6.825   1.850
 5263SOL     OW16687   1.377   6.711   6.531
 5263SOL    HW116688   1.311   6.760   6.476
 5263SOL    HW216689   1.458   6.689   6.476
 5264SOL     OW16690   0.251   2.446   0.999
 5264SOL    HW116691   0.312   2.427   0.922
 5264SOL    HW216692   0.304   2.441   1.084
 5265SOL     OW16693   5.080   4.553   1.440
 5265SOL    HW116694   5.059   4.477   1.379
 5265SOL    HW216695   5.171   4.540   1.480
 5266SOL     OW16696   1.466   6.617   1.381
 5266SOL    HW116697   1.399   6.622   1.308
 5266SOL    HW216698   1.443   6.683   1.452
 5267SOL     OW16699   4.722   4.494   4.989
 5267SOL    HW116700   4.810   4.467   5.028
 5267SOL    HW216701   4.701   4.435   4.911
 5268SOL     OW16702   5.650   5.046   5.036
 5268SOL    HW116703   5.652   5.145   5.020
 5268SOL    HW216704   5.713   5.001   4.974
 5269SOL     OW16705   2.348   5.872   3.704
 5269SOL    HW116706   2.307   5.893   3.793
 5269SOL    HW216707   2.302   5.792   3.665
 5270SOL     OW16708   6.157   2.750   2.113
 5270SOL    HW116709   6.212   2.765   2.195
 5270SOL    HW216710   6.091   2.677   2.130
 5271SOL     OW16711   5.063   4.528   4.852
 5271SOL    HW116712   5.015   4.518   4.940
 5271SOL    HW216713   5.148   4.475   4.855
 5272SOL     OW16714   1.309   0.673   4.709
 5272SOL    HW116715   1.392   0.662   4.654
 5272SOL    HW216716   1.330   0.653   4.804
 5273SOL     OW16717   0.684   1.379   3.723
 5273SOL    HW116718   0.598   1.427   3.739
 5273SOL    HW216719   0.728   1.361   3.811
 5274SOL     OW16720   6.479   5.137   4.147
 5274SOL    HW116721   6.506   5.154   4.052
 5274SOL    HW216722   6.435   5.219   4.184
 5275SOL     OW16723   1.830   6.803   0.058
 5275SOL    HW116724   1.802   6.870   7.011
 5275SOL    HW216725   1.848   6.850   0.144
 5276SOL     OW16726   0.320   0.074   1.491
 5276SOL    HW116727   0.241   0.116   1.445
 5276SOL    HW216728   0.321   6.998   1.474
 5277SOL     OW16729   0.945   2.016   3.405
 5277SOL    HW116730   0.952   2.114   3.421
 5277SOL    HW216731   0.850   1.987   3.415
 5278SOL     OW16732   0.697   5.112   5.383
 5278SOL    HW116733   0.716   5.118   5.285
 5278SOL    HW216734   0.783   5.112   5.434
 5279SOL     OW16735   1.410   5.809   6.761
 5279SOL    HW116736   1.338   5.828   6.828
 5279SOL    HW216737   1.490   5.770   6.808
 5280SOL     OW16738   3.994   5.411   4.587
 5280SOL    HW116739   4.076   5.363   4.616
 5280SOL    HW216740   3.998   5.426   4.488
 5281SOL     OW16741   2.261   0.870   5.001
 5281SOL    HW116742   2.178   0.850   5.054
 5281SOL    HW216743   2.237   0.914   4.915
 5282SOL     OW16744   1.401   0.925   2.160
 5282SOL    HW116745   1.344   0.924   2.078
 5282SOL    HW216746   1.342   0.919   2.241
 5283SOL     OW16747   0.297   1.287   4.332
 5283SOL    HW116748   0.297   1.263   4.429
 5283SOL    HW216749   0.261   1.211   4.278
 5284SOL     OW16750   4.990   2.348   2.014
 5284SOL    HW116751   4.903   2.346   1.964
 5284SOL    HW216752   4.987   2.282   2.089
 5285SOL     OW16753   0.805   3.150   4.404
 5285SOL    HW116754   0.878   3.083   4.393
 5285SOL    HW216755   0.747   3.150   4.322
 5286SOL     OW16756   6.193   2.753   1.215
 5286SOL    HW116757   6.166   2.817   1.287
 5286SOL    HW216758   6.269   2.697   1.248
 5287SOL     OW16759   2.661   5.073   1.190
 5287SOL    HW116760   2.741   5.088   1.132
 5287SOL    HW216761   2.614   5.160   1.204
 5288SOL     OW16762   5.165   0.583   2.453
 5288SOL    HW116763   5.166   0.508   2.519
 5288SOL    HW216764   5.098   0.652   2.482
 5289SOL     OW16765   1.575   4.599   6.368
 5289SOL    HW116766   1.538   4.631   6.455
 5289SOL    HW216767   1.655   4.541   6.385
 5290SOL     OW16768   1.460   3.053   5.572
 5290SOL    HW116769   1.500   2.962   5.584
 5290SOL    HW216770   1.511   3.103   5.502
 5291SOL     OW16771   2.579   4.629   4.931
 5291SOL    HW116772   2.672   4.617   4.964
 5291SOL    HW216773   2.541   4.714   4.966
 5292SOL     OW16774   6.856   3.938   6.078
 5292SOL    HW116775   6.840   4.025   6.031
 5292SOL    HW216776   6.788   3.927   6.151
 5293SOL     OW16777   2.323   5.666   4.552
 5293SOL    HW116778   2.407   5.627   4.514
 5293SOL    HW216779   2.247   5.603   4.536
 5294SOL     OW16780   3.909   0.785   4.985
 5294SOL    HW116781   3.936   0.877   5.013
 5294SOL    HW216782   3.961   0.758   4.904
 5295SOL     OW16783   3.307   0.521   1.846
 5295SOL    HW116784   3.293   0.620   1.835
 5295SOL    HW216785   3.218   0.475   1.847
 5296SOL     OW16786   3.825   4.360   0.859
 5296SOL    HW116787   3.877   4.317   0.786
 5296SOL    HW216788   3.824   4.460   0.846
 5297SOL     OW16789   2.356   4.349   0.562
 5297SOL    HW116790   2.409   4.331   0.480
 5297SOL    HW216791   2.322   4.262   0.600
 5298SOL     OW16792   1.898   6.983   0.258
 5298SOL    HW116793   1.801   6.978   0.282
 5298SOL    HW216794   1.933   0.052   0.281
 5299SOL     OW16795   3.091   1.854   0.217
 5299SOL    HW116796   3.017   1.786   0.214
 5299SOL    HW216797   3.086   1.912   0.136
 5300SOL     OW16798   2.253   4.299   0.064
 5300SOL    HW116799   2.333   4.353   0.038
 5300SOL    HW216800   2.236   4.231   7.014
 5301SOL     OW16801   4.668   0.303   6.066
 5301SOL    HW116802   4.607   0.336   6.138
 5301SOL    HW216803   4.613   0.259   5.995
 5302SOL     OW16804   5.352   5.682   3.113
 5302SOL    HW116805   5.258   5.716   3.116
 5302SOL    HW216806   5.352   5.584   3.136
 5303SOL     OW16807   6.704   4.767   6.365
 5303SOL    HW116808   6.745   4.816   6.442
 5303SOL    HW216809   6.734   4.672   6.366
 5304SOL     OW16810   6.388   1.252   1.294
 5304SOL    HW116811   6.439   1.272   1.378
 5304SOL    HW216812   6.449   1.208   1.228
 5305SOL     OW16813   1.258   5.558   2.758
 5305SOL    HW116814   1.289   5.558   2.663
 5305SOL    HW216815   1.310   5.490   2.810
 5306SOL     OW16816   6.648   3.545   5.663
 5306SOL    HW116817   6.695   3.494   5.591
 5306SOL    HW216818   6.713   3.570   5.735
 5307SOL     OW16819   5.020   2.094   0.577
 5307SOL    HW116820   4.992   2.184   0.611
 5307SOL    HW216821   4.956   2.024   0.611
 5308SOL     OW16822   1.340   4.592   3.032
 5308SOL    HW116823   1.355   4.535   2.951
 5308SOL    HW216824   1.243   4.609   3.043
 5309SOL     OW16825   4.544   5.966   3.126
 5309SOL    HW116826   4.626   5.914   3.101
 5309SOL    HW216827   4.568   6.033   3.196
 5310SOL     OW16828   6.199   3.014   2.838
 5310SOL    HW116829   6.133   3.035   2.910
 5310SOL    HW216830   6.278   2.967   2.877
 5311SOL     OW16831   6.084   0.229   0.789
 5311SOL    HW116832   6.078   0.207   0.887
 5311SOL    HW216833   6.090   0.328   0.778
 5312SOL     OW16834   0.257   6.800   1.434
 5312SOL    HW116835   0.345   6.825   1.393
 5312SOL    HW216836   0.264   6.709   1.476
 5313SOL     OW16837   6.512   5.227   5.244
 5313SOL    HW116838   6.427   5.177   5.228
 5313SOL    HW216839   6.502   5.285   5.324
 5314SOL     OW16840   6.184   6.545   1.260
 5314SOL    HW116841   6.281   6.549   1.238
 5314SOL    HW216842   6.132   6.521   1.178
 5315SOL     OW16843   4.173   1.458   3.518
 5315SOL    HW116844   4.081   1.440   3.553
 5315SOL    HW216845   4.241   1.421   3.581
 5316SOL     OW16846   0.793   2.795   4.883
 5316SOL    HW116847   0.796   2.865   4.811
 5316SOL    HW216848   0.698   2.777   4.908
 5317SOL     OW16849   6.365   1.547   6.026
 5317SOL    HW116850   6.442   1.484   6.014
 5317SOL    HW216851   6.282   1.505   5.991
 5318SOL     OW16852   6.379   3.206   7.008
 5318SOL    HW116853   6.440   3.275   6.968
 5318SOL    HW216854   6.337   3.152   6.934
 5319SOL     OW16855   4.424   6.919   0.966
 5319SOL    HW116856   4.402   7.005   1.011
 5319SOL    HW216857   4.484   6.936   0.887
 5320SOL     OW16858   3.172   6.252   1.385
 5320SOL    HW116859   3.156   6.173   1.326
 5320SOL    HW216860   3.251   6.233   1.444
 5321SOL     OW16861   2.048   4.711   4.808
 5321SOL    HW116862   2.133   4.743   4.850
 5321SOL    HW216863   2.041   4.749   4.715
 5322SOL     OW16864   5.573   6.906   1.820
 5322SOL    HW116865   5.567   6.873   1.914
 5322SOL    HW216866   5.538   6.836   1.758
 5323SOL     OW16867   4.637   1.899   5.295
 5323SOL    HW116868   4.542   1.875   5.277
 5323SOL    HW216869   4.657   1.886   5.392
 5324SOL     OW16870   2.606   2.501   0.110
 5324SOL    HW116871   2.518   2.511   0.155
 5324SOL    HW216872   2.656   2.423   0.149
 5325SOL     OW16873   2.818   2.080   5.158
 5325SOL    HW116874   2.834   2.068   5.256
 5325SOL    HW216875   2.902   2.062   5.108
 5326SOL     OW16876   6.485   6.212   2.771
 5326SOL    HW116877   6.399   6.221   2.721
 5326SOL    HW216878   6.473   6.146   2.846
 5327SOL     OW16879   5.588   2.580   4.717
 5327SOL    HW116880   5.647   2.501   4.704
 5327SOL    HW216881   5.641   2.657   4.753
 5328SOL     OW16882   4.115   3.872   6.478
 5328SOL    HW116883   4.070   3.862   6.566
 5328SOL    HW216884   4.155   3.964   6.471
 5329SOL     OW16885   1.659   5.999   6.355
 5329SOL    HW116886   1.606   5.944   6.290
 5329SOL    HW216887   1.605   6.013   6.438
 5330SOL     OW16888   3.333   3.126   0.569
 5330SOL    HW116889   3.321   3.134   0.668
 5330SOL    HW216890   3.429   3.141   0.545
 5331SOL     OW16891   6.503   1.092   6.562
 5331SOL    HW116892   6.542   1.175   6.522
 5331SOL    HW216893   6.454   1.116   6.646
 5332SOL     OW16894   1.342   4.627   1.989
 5332SOL    HW116895   1.352   4.572   2.071
 5332SOL    HW216896   1.400   4.590   1.916
 5333SOL     OW16897   1.031   6.415   4.237
 5333SOL    HW116898   0.946   6.468   4.230
 5333SOL    HW216899   1.081   6.420   4.151
 5334SOL     OW16900   2.863   0.086   4.504
 5334SOL    HW116901   2.781   0.031   4.520
 5334SOL    HW216902   2.838   0.170   4.456
 5335SOL     OW16903   6.810   5.146   0.622
 5335SOL    HW116904   6.747   5.217   0.652
 5335SOL    HW216905   6.876   5.184   0.556
 5336SOL     OW16906   1.939   3.418   2.209
 5336SOL    HW116907   1.909   3.502   2.165
 5336SOL    HW216908   1.938   3.430   2.308
 5337SOL     OW16909   5.031   3.946   1.136
 5337SOL    HW116910   4.996   4.038   1.152
 5337SOL    HW216911   5.038   3.897   1.224
 5338SOL     OW16912   6.536   2.094   0.129
 5338SOL    HW116913   6.607   2.028   0.105
 5338SOL    HW216914   6.446   2.051   0.120
 5339SOL     OW16915   6.987   1.617   3.573
 5339SOL    HW116916   7.016   1.620   3.669
 5339SOL    HW216917   7.002   1.526   3.536
 5340SOL     OW16918   5.644   2.903   6.966
 5340SOL    HW116919   5.695   2.956   0.013
 5340SOL    HW216920   5.585   2.965   6.914
 5341SOL     OW16921   4.219   1.319   5.890
 5341SOL    HW116922   4.291   1.319   5.820
 5341SOL    HW216923   4.243   1.254   5.962
 5342SOL     OW16924   3.983   0.514   5.120
 5342SOL    HW116925   4.045   0.436   5.122
 5342SOL    HW216926   3.985   0.556   5.029
 5343SOL     OW16927   3.844   3.369   2.292
 5343SOL    HW116928   3.800   3.458   2.279
 5343SOL    HW216929   3.779   3.305   2.333
 5344SOL     OW16930   1.909   3.068   3.500
 5344SOL    HW116931   1.899   3.050   3.403
 5344SOL    HW216932   1.821   3.094   3.539
 5345SOL     OW16933   4.678   6.719   1.230
 5345SOL    HW116934   4.624   6.801   1.249
 5345SOL    HW216935   4.708   6.720   1.134
 5346SOL     OW16936   2.720   6.431   3.137
 5346SOL    HW116937   2.753   6.412   3.045
 5346SOL    HW216938   2.763   6.515   3.171
 5347SOL     OW16939   0.194   1.831   1.609
 5347SOL    HW116940   0.152   1.778   1.683
 5347SOL    HW216941   0.285   1.860   1.637
 5348SOL     OW16942   1.255   1.722   0.761
 5348SOL    HW116943   1.220   1.631   0.786
 5348SOL    HW216944   1.226   1.744   0.668
 5349SOL     OW16945   6.934   1.551   0.508
 5349SOL    HW116946   6.877   1.546   0.590
 5349SOL    HW216947   6.963   1.645   0.494
 5350SOL     OW16948   2.955   1.147   6.515
 5350SOL    HW116949   3.033   1.117   6.460
 5350SOL    HW216950   2.873   1.147   6.459
 5351SOL     OW16951   4.860   6.300   1.080
 5351SOL    HW116952   4.925   6.365   1.041
 5351SOL    HW216953   4.796   6.270   1.009
 5352SOL     OW16954   2.328   5.532   3.345
 5352SOL    HW116955   2.412   5.582   3.325
 5352SOL    HW216956   2.346   5.461   3.413
 5353SOL     OW16957   4.551   5.738   5.034
 5353SOL    HW116958   4.523   5.759   5.127
 5353SOL    HW216959   4.649   5.757   5.024
 5354SOL     OW16960   1.723   4.901   2.110
 5354SOL    HW116961   1.740   4.944   2.021
 5354SOL    HW216962   1.779   4.945   2.179
 5355SOL     OW16963   4.539   1.599   3.517
 5355SOL    HW116964   4.626   1.617   3.472
 5355SOL    HW216965   4.549   1.608   3.616
 5356SOL     OW16966   5.969   3.816   1.289
 5356SOL    HW116967   5.950   3.749   1.362
 5356SOL    HW216968   6.022   3.772   1.216
 5357SOL     OW16969   4.015   0.086   0.395
 5357SOL    HW116970   4.066   0.059   0.314
 5357SOL    HW216971   4.002   0.185   0.395
 5358SOL     OW16972   4.497   2.243   0.911
 5358SOL    HW116973   4.536   2.151   0.914
 5358SOL    HW216974   4.563   2.308   0.948
 5359SOL     OW16975   2.500   1.793   0.820
 5359SOL    HW116976   2.413   1.761   0.781
 5359SOL    HW216977   2.491   1.802   0.919
 5360SOL     OW16978   3.695   6.629   5.843
 5360SOL    HW116979   3.712   6.544   5.793
 5360SOL    HW216980   3.604   6.626   5.884
 5361SOL     OW16981   2.231   1.246   4.866
 5361SOL    HW116982   2.305   1.308   4.892
 5361SOL    HW216983   2.194   1.203   4.948
 5362SOL     OW16984   4.738   5.159   2.862
 5362SOL    HW116985   4.745   5.132   2.766
 5362SOL    HW216986   4.646   5.140   2.895
 5363SOL     OW16987   0.992   5.328   6.226
 5363SOL    HW116988   0.910   5.284   6.188
 5363SOL    HW216989   1.073   5.293   6.179
 5364SOL     OW16990   6.874   6.124   0.789
 5364SOL    HW116991   6.838   6.180   0.864
 5364SOL    HW216992   6.966   6.093   0.812
 5365SOL     OW16993   4.490   2.698   6.128
 5365SOL    HW116994   4.584   2.685   6.097
 5365SOL    HW216995   4.434   2.619   6.100
 5366SOL     OW16996   4.303   4.388   0.619
 5366SOL    HW116997   4.290   4.301   0.572
 5366SOL    HW216998   4.289   4.375   0.717
 5367SOL     OW16999   0.654   4.993   1.197
 5367SOL    HW117000   0.687   5.087   1.193
 5367SOL    HW217001   0.559   4.989   1.165
 5368SOL     OW17002   5.569   2.184   3.162
 5368SOL    HW117003   5.472   2.196   3.145
 5368SOL    HW217004   5.583   2.106   3.223
 5369SOL     OW17005   2.606   4.635   3.041
 5369SOL    HW117006   2.549   4.560   3.008
 5369SOL    HW217007   2.578   4.721   2.998
 5370SOL     OW17008   3.794   2.965   1.508
 5370SOL    HW117009   3.840   2.888   1.551
 5370SOL    HW217010   3.696   2.963   1.531
 5371SOL     OW17011   1.463   4.319   4.444
 5371SOL    HW117012   1.556   4.319   4.482
 5371SOL    HW217013   1.403   4.373   4.502
 5372SOL     OW17014   2.987   4.859   2.770
 5372SOL    HW117015   2.934   4.775   2.762
 5372SOL    HW217016   2.957   4.924   2.700
 5373SOL     OW17017   3.127   5.105   4.318
 5373SOL    HW117018   3.222   5.088   4.344
 5373SOL    HW217019   3.067   5.043   4.369
 5374SOL     OW17020   1.799   3.005   6.446
 5374SOL    HW117021   1.885   2.954   6.439
 5374SOL    HW217022   1.818   3.101   6.464
 5375SOL     OW17023   1.545   4.649   4.744
 5375SOL    HW117024   1.591   4.737   4.758
 5375SOL    HW217025   1.610   4.574   4.759
 5376SOL     OW17026   1.637   3.460   1.868
 5376SOL    HW117027   1.667   3.392   1.801
 5376SOL    HW217028   1.551   3.501   1.837
 5377SOL     OW17029   0.153   0.377   1.636
 5377SOL    HW117030   0.249   0.369   1.663
 5377SOL    HW217031   0.137   0.327   1.551
 5378SOL     OW17032   5.933   0.788   0.025
 5378SOL    HW117033   6.013   0.728   0.011
 5378SOL    HW217034   5.946   0.872   6.995
 5379SOL     OW17035   0.304   5.403   3.428
 5379SOL    HW117036   0.362   5.432   3.351
 5379SOL    HW217037   0.220   5.361   3.392
 5380SOL     OW17038   2.354   6.757   3.671
 5380SOL    HW117039   2.260   6.753   3.637
 5380SOL    HW217040   2.399   6.838   3.632
 5381SOL     OW17041   5.858   4.060   0.669
 5381SOL    HW117042   5.796   4.116   0.723
 5381SOL    HW217043   5.945   4.050   0.717
 5382SOL     OW17044   3.105   1.197   1.376
 5382SOL    HW117045   3.187   1.169   1.325
 5382SOL    HW217046   3.024   1.181   1.319
 5383SOL     OW17047   2.835   2.109   5.433
 5383SOL    HW117048   2.773   2.152   5.498
 5383SOL    HW217049   2.906   2.174   5.406
 5384SOL     OW17050   6.229   6.605   4.487
 5384SOL    HW117051   6.263   6.540   4.419
 5384SOL    HW217052   6.143   6.644   4.456
 5385SOL     OW17053   2.990   3.800   2.389
 5385SOL    HW117054   3.046   3.882   2.378
 5385SOL    HW217055   3.014   3.755   2.475
 5386SOL     OW17056   4.766   6.451   4.202
 5386SOL    HW117057   4.835   6.392   4.160
 5386SOL    HW217058   4.713   6.496   4.130
 5387SOL     OW17059   3.236   5.351   1.925
 5387SOL    HW117060   3.154   5.312   1.884
 5387SOL    HW217061   3.225   5.450   1.935
 5388SOL     OW17062   5.789   6.728   2.506
 5388SOL    HW117063   5.715   6.795   2.506
 5388SOL    HW217064   5.868   6.765   2.459
 5389SOL     OW17065   4.587   0.811   1.731
 5389SOL    HW117066   4.601   0.850   1.822
 5389SOL    HW217067   4.622   0.874   1.662
 5390SOL     OW17068   5.814   4.936   4.808
 5390SOL    HW117069   5.912   4.940   4.786
 5390SOL    HW217070   5.770   5.021   4.780
 5391SOL     OW17071   2.862   3.398   0.416
 5391SOL    HW117072   2.844   3.436   0.507
 5391SOL    HW217073   2.905   3.308   0.426
 5392SOL     OW17074   5.799   3.063   1.634
 5392SOL    HW117075   5.784   3.021   1.544
 5392SOL    HW217076   5.712   3.076   1.681
 5393SOL     OW17077   6.776   6.944   0.072
 5393SOL    HW117078   6.875   6.930   0.076
 5393SOL    HW217079   6.754   0.013   0.109
 5394SOL     OW17080   0.704   3.910   6.101
 5394SOL    HW117081   0.690   3.898   6.003
 5394SOL    HW217082   0.703   3.820   6.146
 5395SOL     OW17083   4.213   0.503   0.646
 5395SOL    HW117084   4.250   0.595   0.631
 5395SOL    HW217085   4.117   0.500   0.618
 5396SOL     OW17086   5.115   3.847   2.157
 5396SOL    HW117087   5.057   3.857   2.076
 5396SOL    HW217088   5.057   3.833   2.237
 5397SOL     OW17089   6.811   3.215   1.776
 5397SOL    HW117090   6.784   3.213   1.680
 5397SOL    HW217091   6.820   3.310   1.806
 5398SOL     OW17092   3.000   2.389   1.665
 5398SOL    HW117093   3.095   2.408   1.692
 5398SOL    HW217094   2.939   2.415   1.740
 5399SOL     OW17095   2.152   6.214   0.823
 5399SOL    HW117096   2.186   6.243   0.733
 5399SOL    HW217097   2.230   6.202   0.885
 5400SOL     OW17098   2.667   4.790   0.425
 5400SOL    HW117099   2.676   4.783   0.326
 5400SOL    HW217100   2.588   4.848   0.447
 5401SOL     OW17101   6.048   3.236   1.914
 5401SOL    HW117102   6.064   3.139   1.929
 5401SOL    HW217103   5.950   3.255   1.917
 5402SOL     OW17104   2.306   6.252   1.922
 5402SOL    HW117105   2.317   6.167   1.974
 5402SOL    HW217106   2.368   6.321   1.958
 5403SOL     OW17107   0.062   3.322   6.671
 5403SOL    HW117108   0.152   3.297   6.706
 5403SOL    HW217109   0.013   3.239   6.643
 5404SOL     OW17110   1.259   3.137   4.188
 5404SOL    HW117111   1.229   3.164   4.280
 5404SOL    HW217112   1.272   3.219   4.132
 5405SOL     OW17113   0.116   5.255   6.144
 5405SOL    HW117114   0.213   5.271   6.164
 5405SOL    HW217115   0.099   5.156   6.140
 5406SOL     OW17116   1.623   1.563   0.193
 5406SOL    HW117117   1.581   1.598   0.110
 5406SOL    HW217118   1.681   1.635   0.233
 5407SOL     OW17119   4.112   3.183   0.842
 5407SOL    HW117120   4.132   3.165   0.939
 5407SOL    HW217121   4.131   3.280   0.823
 5408SOL     OW17122   2.128   0.867   5.601
 5408SOL    HW117123   2.199   0.798   5.616
 5408SOL    HW217124   2.064   0.835   5.531
 5409SOL     OW17125   5.123   0.644   3.216
 5409SOL    HW117126   5.049   0.577   3.213
 5409SOL    HW217127   5.205   0.601   3.253
 5410SOL     OW17128   3.302   1.972   1.850
 5410SOL    HW117129   3.238   2.029   1.901
 5410SOL    HW217130   3.376   2.029   1.814
 5411SOL     OW17131   6.732   4.797   5.685
 5411SOL    HW117132   6.827   4.800   5.653
 5411SOL    HW217133   6.674   4.848   5.623
 5412SOL     OW17134   5.526   3.049   0.824
 5412SOL    HW117135   5.458   2.987   0.784
 5412SOL    HW217136   5.577   3.000   0.895
 5413SOL     OW17137   3.159   1.836   1.595
 5413SOL    HW117138   3.134   1.903   1.665
 5413SOL    HW217139   3.175   1.884   1.508
 5414SOL     OW17140   4.416   1.321   4.853
 5414SOL    HW117141   4.507   1.335   4.814
 5414SOL    HW217142   4.387   1.403   4.902
 5415SOL     OW17143   0.348   6.030   1.015
 5415SOL    HW117144   0.343   6.127   1.040
 5415SOL    HW217145   0.442   5.998   1.027
 5416SOL     OW17146   4.132   4.837   4.650
 5416SOL    HW117147   4.160   4.802   4.739
 5416SOL    HW217148   4.169   4.929   4.636
 5417SOL     OW17149   3.586   6.633   5.241
 5417SOL    HW117150   3.582   6.566   5.168
 5417SOL    HW217151   3.525   6.709   5.220
 5418SOL     OW17152   3.705   0.168   2.363
 5418SOL    HW117153   3.788   0.160   2.417
 5418SOL    HW217154   3.638   0.101   2.395
 5419SOL     OW17155   3.259   4.907   6.707
 5419SOL    HW117156   3.316   4.829   6.733
 5419SOL    HW217157   3.318   4.982   6.676
 5420SOL     OW17158   1.938   2.439   3.684
 5420SOL    HW117159   2.011   2.374   3.662
 5420SOL    HW217160   1.977   2.531   3.687
 5421SOL     OW17161   1.640   3.925   1.507
 5421SOL    HW117162   1.593   3.838   1.524
 5421SOL    HW217163   1.607   3.965   1.421
 5422SOL     OW17164   1.549   4.505   1.350
 5422SOL    HW117165   1.624   4.537   1.408
 5422SOL    HW217166   1.517   4.416   1.382
 5423SOL     OW17167   6.244   3.100   6.127
 5423SOL    HW117168   6.284   3.014   6.159
 5423SOL    HW217169   6.295   3.133   6.047
 5424SOL     OW17170   5.088   3.515   4.477
 5424SOL    HW117171   5.166   3.453   4.479
 5424SOL    HW217172   5.003   3.461   4.481
 5425SOL     OW17173   4.146   1.332   5.142
 5425SOL    HW117174   4.090   1.338   5.225
 5425SOL    HW217175   4.123   1.408   5.082
 5426SOL     OW17176   5.487   6.546   5.070
 5426SOL    HW117177   5.554   6.537   4.996
 5426SOL    HW217178   5.498   6.470   5.134
 5427SOL     OW17179   4.301   5.918   6.734
 5427SOL    HW117180   4.393   5.931   6.770
 5427SOL    HW217181   4.306   5.877   6.643
 5428SOL     OW17182   0.729   0.517   0.789
 5428SOL    HW117183   0.792   0.444   0.764
 5428SOL    HW217184   0.686   0.496   0.876
 5429SOL     OW17185   1.611   1.813   6.761
 5429SOL    HW117186   1.642   1.879   6.693
 5429SOL    HW217187   1.523   1.776   6.734
 5430SOL     OW17188   0.529   2.433   6.058
 5430SOL    HW117189   0.526   2.380   6.143
 5430SOL    HW217190   0.442   2.481   6.046
 5431SOL     OW17191   3.146   6.816   6.656
 5431SOL    HW117192   3.225   6.820   6.595
 5431SOL    HW217193   3.154   6.736   6.716
 5432SOL     OW17194   5.205   6.776   6.965
 5432SOL    HW117195   5.213   6.681   6.994
 5432SOL    HW217196   5.274   6.831   7.012
 5433SOL     OW17197   6.865   1.465   4.926
 5433SOL    HW117198   6.804   1.501   4.856
 5433SOL    HW217199   6.883   1.536   4.995
 5434SOL     OW17200   2.770   6.990   6.199
 5434SOL    HW117201   2.725   0.040   6.145
 5434SOL    HW217202   2.701   6.930   6.239
 5435SOL     OW17203   4.201   6.873   1.555
 5435SOL    HW117204   4.291   6.880   1.511
 5435SOL    HW217205   4.155   6.961   1.552
 5436SOL     OW17206   4.634   4.817   3.303
 5436SOL    HW117207   4.710   4.789   3.362
 5436SOL    HW217208   4.660   4.898   3.251
 5437SOL     OW17209   2.995   4.161   0.091
 5437SOL    HW117210   3.013   4.258   0.080
 5437SOL    HW217211   3.069   4.108   0.049
 5438SOL     OW17212   6.017   1.955   1.356
 5438SOL    HW117213   6.042   1.858   1.360
 5438SOL    HW217214   5.945   1.973   1.422
 5439SOL     OW17215   1.315   2.287   0.951
 5439SOL    HW117216   1.370   2.204   0.967
 5439SOL    HW217217   1.218   2.264   0.960
 5440SOL     OW17218   1.138   2.170   1.372
 5440SOL    HW117219   1.216   2.136   1.426
 5440SOL    HW217220   1.053   2.139   1.413
 5441SOL     OW17221   3.718   2.087   3.977
 5441SOL    HW117222   3.663   2.155   3.930
 5441SOL    HW217223   3.731   2.115   4.072
 5442SOL     OW17224   4.065   6.906   2.048
 5442SOL    HW117225   4.071   6.833   1.980
 5442SOL    HW217226   4.098   6.871   2.136
 5443SOL     OW17227   2.770   6.967   4.890
 5443SOL    HW117228   2.719   6.885   4.916
 5443SOL    HW217229   2.842   6.943   4.825
 5444SOL     OW17230   0.806   6.728   3.789
 5444SOL    HW117231   0.871   6.733   3.864
 5444SOL    HW217232   0.727   6.787   3.809
 5445SOL     OW17233   6.299   4.041   3.108
 5445SOL    HW117234   6.225   4.045   3.041
 5445SOL    HW217235   6.377   3.992   3.068
 5446SOL     OW17236   5.850   5.958   4.791
 5446SOL    HW117237   5.783   5.893   4.754
 5446SOL    HW217238   5.825   6.051   4.762
 5447SOL     OW17239   3.871   2.433   0.188
 5447SOL    HW117240   3.853   2.350   0.242
 5447SOL    HW217241   3.845   2.513   0.242
 5448SOL     OW17242   5.029   2.314   5.597
 5448SOL    HW117243   5.049   2.412   5.591
 5448SOL    HW217244   5.026   2.275   5.505
 5449SOL     OW17245   1.156   3.018   0.072
 5449SOL    HW117246   1.182   2.941   0.131
 5449SOL    HW217247   1.218   3.094   0.089
 5450SOL     OW17248   2.149   0.806   1.564
 5450SOL    HW117249   2.204   0.889   1.553
 5450SOL    HW217250   2.196   0.729   1.521
 5451SOL     OW17251   0.649   6.167   3.140
 5451SOL    HW117252   0.738   6.176   3.186
 5451SOL    HW217253   0.584   6.125   3.203
 5452SOL     OW17254   1.957   4.139   0.026
 5452SOL    HW117255   1.909   4.054   0.004
 5452SOL    HW217256   2.026   4.158   6.978
 5453SOL     OW17257   6.324   3.804   0.485
 5453SOL    HW117258   6.398   3.851   0.534
 5453SOL    HW217259   6.364   3.734   0.425
 5454SOL     OW17260   6.946   4.735   6.214
 5454SOL    HW117261   6.937   4.653   6.270
 5454SOL    HW217262   6.865   4.793   6.227
 5455SOL     OW17263   6.682   3.291   1.232
 5455SOL    HW117264   6.604   3.228   1.232
 5455SOL    HW217265   6.701   3.320   1.139
 5456SOL     OW17266   3.312   0.576   6.493
 5456SOL    HW117267   3.246   0.560   6.567
 5456SOL    HW217268   3.280   0.530   6.410
 5457SOL     OW17269   5.721   2.469   0.959
 5457SOL    HW117270   5.808   2.505   0.994
 5457SOL    HW217271   5.675   2.540   0.906
 5458SOL     OW17272   1.542   4.354   0.017
 5458SOL    HW117273   1.500   4.278   6.988
 5458SOL    HW217274   1.471   4.410   0.058
 5459SOL     OW17275   1.975   5.060   0.036
 5459SOL    HW117276   1.886   5.014   0.039
 5459SOL    HW217277   1.963   5.156   0.060
 5460SOL     OW17278   2.955   0.581   1.199
 5460SOL    HW117279   2.906   0.653   1.248
 5460SOL    HW217280   2.950   0.496   1.251
 5461SOL     OW17281   4.778   6.745   5.010
 5461SOL    HW117282   4.868   6.781   5.033
 5461SOL    HW217283   4.783   6.646   5.001
 5462SOL     OW17284   1.445   0.151   0.697
 5462SOL    HW117285   1.487   0.225   0.750
 5462SOL    HW217286   1.431   0.181   0.603
 5463SOL     OW17287   5.752   2.443   0.539
 5463SOL    HW117288   5.793   2.533   0.528
 5463SOL    HW217289   5.788   2.399   0.620
 5464SOL     OW17290   2.015   0.635   4.068
 5464SOL    HW117291   2.038   0.539   4.084
 5464SOL    HW217292   2.051   0.690   4.143
 5465SOL     OW17293   3.477   0.003   4.764
 5465SOL    HW117294   3.394   6.983   4.726
 5465SOL    HW217295   3.494   0.090   4.717
 5466SOL     OW17296   4.704   4.228   4.578
 5466SOL    HW117297   4.756   4.282   4.512
 5466SOL    HW217298   4.677   4.286   4.655
 5467SOL     OW17299   5.544   1.300   2.548
 5467SOL    HW117300   5.532   1.214   2.500
 5467SOL    HW217301   5.534   1.285   2.647
 5468SOL     OW17302   4.841   1.861   4.882
 5468SOL    HW117303   4.906   1.904   4.945
 5468SOL    HW217304   4.808   1.929   4.817
 5469SOL     OW17305   4.270   4.674   5.980
 5469SOL    HW117306   4.295   4.664   5.884
 5469SOL    HW217307   4.332   4.618   6.036
 5470SOL     OW17308   1.936   4.977   3.804
 5470SOL    HW117309   1.970   4.924   3.726
 5470SOL    HW217310   2.005   4.976   3.877
 5471SOL     OW17311   6.211   5.619   1.422
 5471SOL    HW117312   6.228   5.683   1.497
 5471SOL    HW217313   6.277   5.634   1.349
 5472SOL     OW17314   4.065   3.720   6.051
 5472SOL    HW117315   4.018   3.632   6.047
 5472SOL    HW217316   4.021   3.779   6.119
 5473SOL     OW17317   1.461   3.363   3.721
 5473SOL    HW117318   1.424   3.456   3.728
 5473SOL    HW217319   1.529   3.349   3.792
 5474SOL     OW17320   2.020   5.145   4.096
 5474SOL    HW117321   1.996   5.048   4.106
 5474SOL    HW217322   2.093   5.168   4.160
 5475SOL     OW17323   3.550   2.080   0.864
 5475SOL    HW117324   3.520   1.986   0.882
 5475SOL    HW217325   3.479   2.144   0.894
 5476SOL     OW17326   1.084   2.841   6.315
 5476SOL    HW117327   1.167   2.804   6.356
 5476SOL    HW217328   1.103   2.932   6.277
 5477SOL     OW17329   2.231   3.103   3.445
 5477SOL    HW117330   2.267   3.076   3.534
 5477SOL    HW217331   2.239   3.027   3.381
 5478SOL     OW17332   5.417   5.947   5.893
 5478SOL    HW117333   5.419   5.949   5.793
 5478SOL    HW217334   5.336   5.898   5.924
 5479SOL     OW17335   4.770   0.159   4.736
 5479SOL    HW117336   4.833   0.237   4.728
 5479SOL    HW217337   4.676   0.192   4.739
 5480SOL     OW17338   0.965   4.216   4.559
 5480SOL    HW117339   0.987   4.157   4.481
 5480SOL    HW217340   1.050   4.238   4.608
 5481SOL     OW17341   3.346   6.647   4.487
 5481SOL    HW117342   3.375   6.576   4.552
 5481SOL    HW217343   3.319   6.728   4.538
 5482SOL     OW17344   3.001   4.568   1.417
 5482SOL    HW117345   2.962   4.650   1.459
 5482SOL    HW217346   2.939   4.491   1.431
 5483SOL     OW17347   0.335   2.707   5.972
 5483SOL    HW117348   0.325   2.783   5.907
 5483SOL    HW217349   0.399   2.733   6.044
 5484SOL     OW17350   4.478   0.636   4.357
 5484SOL    HW117351   4.555   0.628   4.294
 5484SOL    HW217352   4.463   0.733   4.379
 5485SOL     OW17353   2.882   6.728   5.428
 5485SOL    HW117354   2.821   6.708   5.505
 5485SOL    HW217355   2.931   6.645   5.403
 5486SOL     OW17356   2.881   5.850   4.740
 5486SOL    HW117357   2.795   5.880   4.782
 5486SOL    HW217358   2.903   5.911   4.664
 5487SOL     OW17359   2.727   4.776   5.871
 5487SOL    HW117360   2.678   4.839   5.811
 5487SOL    HW217361   2.821   4.766   5.838
 5488SOL     OW17362   6.285   0.933   0.745
 5488SOL    HW117363   6.190   0.956   0.727
 5488SOL    HW217364   6.292   0.839   0.779
 5489SOL     OW17365   6.467   3.119   2.361
 5489SOL    HW117366   6.545   3.144   2.303
 5489SOL    HW217367   6.466   3.178   2.442
 5490SOL     OW17368   1.364   6.861   2.687
 5490SOL    HW117369   1.447   6.828   2.643
 5490SOL    HW217370   1.285   6.810   2.653
 5491SOL     OW17371   6.564   3.642   0.773
 5491SOL    HW117372   6.619   3.686   0.843
 5491SOL    HW217373   6.496   3.583   0.816
 5492SOL     OW17374   0.735   1.188   5.614
 5492SOL    HW117375   0.644   1.224   5.593
 5492SOL    HW217376   0.727   1.116   5.684
 5493SOL     OW17377   4.067   3.649   1.592
 5493SOL    HW117378   4.040   3.554   1.573
 5493SOL    HW217379   4.113   3.653   1.681
 5494SOL     OW17380   6.081   4.366   5.448
 5494SOL    HW117381   5.993   4.326   5.422
 5494SOL    HW217382   6.097   4.351   5.546
 5495SOL     OW17383   6.305   0.676   0.868
 5495SOL    HW117384   6.235   0.681   0.940
 5495SOL    HW217385   6.373   0.607   0.892
 5496SOL     OW17386   4.013   0.517   4.514
 5496SOL    HW117387   4.004   0.523   4.414
 5496SOL    HW217388   4.019   0.421   4.541
 5497SOL     OW17389   1.047   0.666   6.234
 5497SOL    HW117390   1.067   0.586   6.289
 5497SOL    HW217391   0.957   0.655   6.190
 5498SOL     OW17392   0.705   5.361   2.237
 5498SOL    HW117393   0.688   5.459   2.253
 5498SOL    HW217394   0.721   5.346   2.139
 5499SOL     OW17395   1.250   0.320   4.857
 5499SOL    HW117396   1.160   0.327   4.901
 5499SOL    HW217397   1.276   0.223   4.850
 5500SOL     OW17398   2.301   0.841   0.344
 5500SOL    HW117399   2.369   0.908   0.314
 5500SOL    HW217400   2.274   0.783   0.267
 5501SOL     OW17401   3.777   2.739   6.678
 5501SOL    HW117402   3.829   2.721   6.762
 5501SOL    HW217403   3.838   2.778   6.609
 5502SOL     OW17404   4.302   1.881   0.319
 5502SOL    HW117405   4.342   1.946   0.383
 5502SOL    HW217406   4.246   1.930   0.252
 5503SOL     OW17407   0.309   3.645   0.674
 5503SOL    HW117408   0.222   3.689   0.697
 5503SOL    HW217409   0.347   3.601   0.755
 5504SOL     OW17410   3.680   0.912   6.429
 5504SOL    HW117411   3.777   0.899   6.445
 5504SOL    HW217412   3.666   0.947   6.336
 5505SOL     OW17413   2.355   4.611   4.279
 5505SOL    HW117414   2.416   4.682   4.243
 5505SOL    HW217415   2.406   4.526   4.292
 5506SOL     OW17416   0.206   3.602   6.426
 5506SOL    HW117417   0.234   3.657   6.347
 5506SOL    HW217418   0.283   3.593   6.489
 5507SOL     OW17419   2.945   0.252   6.655
 5507SOL    HW117420   2.948   0.219   6.749
 5507SOL    HW217421   2.850   0.269   6.628
 5508SOL     OW17422   0.387   0.708   6.604
 5508SOL    HW117423   0.425   0.798   6.582
 5508SOL    HW217424   0.375   0.700   6.703
 5509SOL     OW17425   0.176   5.428   0.249
 5509SOL    HW117426   0.079   5.436   0.228
 5509SOL    HW217427   0.191   5.444   0.346
 5510SOL     OW17428   4.068   5.159   7.008
 5510SOL    HW117429   4.167   5.153   7.005
 5510SOL    HW217430   4.031   5.083   0.041
 5511SOL     OW17431   1.002   1.354   5.619
 5511SOL    HW117432   0.908   1.342   5.651
 5511SOL    HW217433   1.006   1.431   5.555
 5512SOL     OW17434   3.520   0.737   2.582
 5512SOL    HW117435   3.452   0.810   2.576
 5512SOL    HW217436   3.475   0.652   2.608
 5513SOL     OW17437   4.007   4.505   0.147
 5513SOL    HW117438   4.046   4.582   0.196
 5513SOL    HW217439   4.044   4.419   0.183
 5514SOL     OW17440   2.758   0.463   6.240
 5514SOL    HW117441   2.664   0.429   6.250
 5514SOL    HW217442   2.817   0.389   6.209
 5515SOL     OW17443   2.563   5.936   2.026
 5515SOL    HW117444   2.536   5.842   2.047
 5515SOL    HW217445   2.627   5.969   2.095
 5516SOL     OW17446   2.480   2.507   5.014
 5516SOL    HW117447   2.536   2.452   4.953
 5516SOL    HW217448   2.483   2.603   4.987
 5517SOL     OW17449   1.670   3.676   3.213
 5517SOL    HW117450   1.754   3.630   3.185
 5517SOL    HW217451   1.606   3.679   3.136
 5518SOL     OW17452   4.779   4.179   5.444
 5518SOL    HW117453   4.681   4.186   5.459
 5518SOL    HW217454   4.814   4.099   5.494
 5519SOL     OW17455   4.990   2.450   3.559
 5519SOL    HW117456   4.982   2.351   3.543
 5519SOL    HW217457   4.920   2.479   3.623
 5520SOL     OW17458   5.031   6.849   2.134
 5520SOL    HW117459   4.989   6.787   2.068
 5520SOL    HW217460   5.047   6.938   2.090
 5521SOL     OW17461   5.796   5.867   1.677
 5521SOL    HW117462   5.781   5.772   1.648
 5521SOL    HW217463   5.825   5.869   1.773
 5522SOL     OW17464   6.071   5.839   0.714
 5522SOL    HW117465   6.098   5.833   0.618
 5522SOL    HW217466   6.149   5.869   0.769
 5523SOL     OW17467   5.524   1.113   2.352
 5523SOL    HW117468   5.426   1.096   2.347
 5523SOL    HW217469   5.574   1.029   2.328
 5524SOL     OW17470   2.911   1.142   4.298
 5524SOL    HW117471   2.922   1.044   4.310
 5524SOL    HW217472   2.834   1.160   4.236
 5525SOL     OW17473   6.260   1.774   1.114
 5525SOL    HW117474   6.309   1.705   1.166
 5525SOL    HW217475   6.162   1.767   1.133
 5526SOL     OW17476   4.668   5.050   3.172
 5526SOL    HW117477   4.691   5.140   3.209
 5526SOL    HW217478   4.588   5.058   3.112
 5527SOL     OW17479   6.069   1.899   3.971
 5527SOL    HW117480   5.999   1.855   3.915
 5527SOL    HW217481   6.059   1.999   3.966
 5528SOL     OW17482   0.802   1.977   1.261
 5528SOL    HW117483   0.830   1.881   1.259
 5528SOL    HW217484   0.777   2.002   1.355
 5529SOL     OW17485   3.604   0.692   1.784
 5529SOL    HW117486   3.671   0.698   1.859
 5529SOL    HW217487   3.531   0.629   1.811
 5530SOL     OW17488   6.647   2.446   1.390
 5530SOL    HW117489   6.599   2.384   1.452
 5530SOL    HW217490   6.743   2.452   1.417
 5531SOL     OW17491   2.430   4.333   1.491
 5531SOL    HW117492   2.338   4.316   1.456
 5531SOL    HW217493   2.495   4.331   1.416
 5532SOL     OW17494   1.696   3.237   1.390
 5532SOL    HW117495   1.611   3.185   1.385
 5532SOL    HW217496   1.773   3.177   1.369
 5533SOL     OW17497   4.338   2.090   4.031
 5533SOL    HW117498   4.303   2.011   4.081
 5533SOL    HW217499   4.291   2.173   4.062
 5534SOL     OW17500   1.082   0.985   4.327
 5534SOL    HW117501   1.027   1.020   4.251
 5534SOL    HW217502   1.169   1.035   4.331
 5535SOL     OW17503   0.576   2.147   3.168
 5535SOL    HW117504   0.598   2.180   3.259
 5535SOL    HW217505   0.512   2.210   3.123
 5536SOL     OW17506   3.647   6.917   4.365
 5536SOL    HW117507   3.645   6.925   4.464
 5536SOL    HW217508   3.682   7.002   4.325
 5537SOL     OW17509   3.315   0.812   3.255
 5537SOL    HW117510   3.356   0.778   3.171
 5537SOL    HW217511   3.224   0.772   3.266
 5538SOL     OW17512   4.361   5.629   4.611
 5538SOL    HW117513   4.461   5.634   4.611
 5538SOL    HW217514   4.332   5.547   4.562
 5539SOL     OW17515   2.183   3.864   0.266
 5539SOL    HW117516   2.167   3.872   0.365
 5539SOL    HW217517   2.095   3.856   0.219
 5540SOL     OW17518   5.832   4.879   1.974
 5540SOL    HW117519   5.789   4.924   2.053
 5540SOL    HW217520   5.913   4.930   1.947
 5541SOL     OW17521   4.463   1.326   5.466
 5541SOL    HW117522   4.519   1.400   5.504
 5541SOL    HW217523   4.522   1.253   5.433
 5542SOL     OW17524   4.953   4.864   5.920
 5542SOL    HW117525   5.045   4.834   5.893
 5542SOL    HW217526   4.960   4.942   5.982
 5543SOL     OW17527   6.774   2.175   6.079
 5543SOL    HW117528   6.783   2.225   5.993
 5543SOL    HW217529   6.820   2.226   6.152
 5544SOL     OW17530   6.141   1.439   5.901
 5544SOL    HW117531   6.100   1.352   5.927
 5544SOL    HW217532   6.074   1.495   5.853
 5545SOL     OW17533   3.073   2.086   2.003
 5545SOL    HW117534   3.030   2.176   2.014
 5545SOL    HW217535   3.038   2.024   2.073
 5546SOL     OW17536   1.997   4.928   5.729
 5546SOL    HW117537   2.076   4.935   5.790
 5546SOL    HW217538   1.947   4.845   5.749
 5547SOL     OW17539   3.978   5.757   4.970
 5547SOL    HW117540   3.967   5.722   4.877
 5547SOL    HW217541   4.058   5.715   5.012
 5548SOL     OW17542   6.667   3.680   5.241
 5548SOL    HW117543   6.638   3.756   5.300
 5548SOL    HW217544   6.752   3.705   5.194
 5549SOL     OW17545   3.442   4.311   6.849
 5549SOL    HW117546   3.421   4.230   6.795
 5549SOL    HW217547   3.525   4.354   6.813
 5550SOL     OW17548   3.633   6.469   1.567
 5550SOL    HW117549   3.630   6.511   1.476
 5550SOL    HW217550   3.664   6.536   1.634
 5551SOL     OW17551   0.766   0.942   3.064
 5551SOL    HW117552   0.762   1.041   3.078
 5551SOL    HW217553   0.705   0.896   3.128
 5552SOL     OW17554   0.127   2.790   2.138
 5552SOL    HW117555   0.106   2.850   2.215
 5552SOL    HW217556   0.217   2.813   2.102
 5553SOL     OW17557   5.045   6.146   0.253
 5553SOL    HW117558   5.133   6.112   0.287
 5553SOL    HW217559   5.061   6.225   0.194
 5554SOL     OW17560   2.835   1.959   4.807
 5554SOL    HW117561   2.763   2.023   4.833
 5554SOL    HW217562   2.920   1.984   4.854
 5555SOL     OW17563   0.072   5.941   3.027
 5555SOL    HW117564   0.154   5.993   3.047
 5555SOL    HW217565   0.022   5.985   2.952
 5556SOL     OW17566   0.580   1.026   4.423
 5556SOL    HW117567   0.643   1.084   4.372
 5556SOL    HW217568   0.586   1.049   4.520
 5557SOL     OW17569   2.559   0.435   3.697
 5557SOL    HW117570   2.617   0.485   3.633
 5557SOL    HW217571   2.463   0.452   3.676
 5558SOL     OW17572   5.221   2.596   4.609
 5558SOL    HW117573   5.126   2.618   4.631
 5558SOL    HW217574   5.223   2.509   4.559
 5559SOL     OW17575   1.576   0.422   1.392
 5559SOL    HW117576   1.642   0.367   1.444
 5559SOL    HW217577   1.620   0.457   1.309
 5560SOL     OW17578   0.348   0.508   4.174
 5560SOL    HW117579   0.365   0.491   4.077
 5560SOL    HW217580   0.352   0.607   4.192
 5561SOL     OW17581   1.416   3.644   3.575
 5561SOL    HW117582   1.414   3.730   3.524
 5561SOL    HW217583   1.501   3.596   3.557
 5562SOL     OW17584   2.153   2.457   5.877
 5562SOL    HW117585   2.058   2.488   5.881
 5562SOL    HW217586   2.184   2.458   5.782
 5563SOL     OW17587   4.158   4.939   1.083
 5563SOL    HW117588   4.081   4.884   1.117
 5563SOL    HW217589   4.138   4.970   0.990
 5564SOL     OW17590   5.948   4.296   1.267
 5564SOL    HW117591   5.992   4.206   1.268
 5564SOL    HW217592   6.007   4.363   1.312
 5565SOL     OW17593   2.917   3.439   5.566
 5565SOL    HW117594   2.928   3.376   5.489
 5565SOL    HW217595   3.001   3.492   5.579
 5566SOL     OW17596   1.961   4.287   0.793
 5566SOL    HW117597   1.991   4.244   0.708
 5566SOL    HW217598   2.029   4.353   0.823
 5567SOL     OW17599   1.648   5.885   2.141
 5567SOL    HW117600   1.571   5.829   2.171
 5567SOL    HW217601   1.682   5.851   2.053
 5568SOL     OW17602   3.673   2.086   1.444
 5568SOL    HW117603   3.702   2.122   1.533
 5568SOL    HW217604   3.640   1.993   1.455
 5569SOL     OW17605   5.525   1.894   0.118
 5569SOL    HW117606   5.436   1.859   0.089
 5569SOL    HW217607   5.564   1.949   0.044
 5570SOL     OW17608   6.502   3.884   5.937
 5570SOL    HW117609   6.431   3.952   5.924
 5570SOL    HW217610   6.585   3.912   5.888
 5571SOL     OW17611   6.495   4.504   6.395
 5571SOL    HW117612   6.419   4.471   6.339
 5571SOL    HW217613   6.581   4.463   6.364
 5572SOL     OW17614   5.394   2.661   5.581
 5572SOL    HW117615   5.429   2.668   5.675
 5572SOL    HW217616   5.470   2.657   5.517
 5573SOL     OW17617   0.793   3.807   0.700
 5573SOL    HW117618   0.862   3.737   0.688
 5573SOL    HW217619   0.738   3.814   0.617
 5574SOL     OW17620   0.146   5.876   4.394
 5574SOL    HW117621   0.094   5.958   4.369
 5574SOL    HW217622   0.241   5.901   4.414
 5575SOL     OW17623   1.933   1.325   1.101
 5575SOL    HW117624   1.841   1.345   1.136
 5575SOL    HW217625   1.977   1.256   1.158
 5576SOL     OW17626   6.410   6.005   0.149
 5576SOL    HW117627   6.355   5.973   0.072
 5576SOL    HW217628   6.379   5.959   0.233
 5577SOL     OW17629   2.327   3.783   5.349
 5577SOL    HW117630   2.404   3.835   5.314
 5577SOL    HW217631   2.261   3.767   5.276
 5578SOL     OW17632   4.062   1.913   6.080
 5578SOL    HW117633   4.037   1.835   6.023
 5578SOL    HW217634   4.070   1.995   6.022
 5579SOL     OW17635   5.095   4.895   0.846
 5579SOL    HW117636   5.040   4.824   0.803
 5579SOL    HW217637   5.151   4.941   0.778
 5580SOL     OW17638   5.380   1.010   1.321
 5580SOL    HW117639   5.384   0.963   1.233
 5580SOL    HW217640   5.447   0.970   1.384
 5581SOL     OW17641   2.966   2.490   0.267
 5581SOL    HW117642   2.971   2.528   0.360
 5581SOL    HW217643   2.872   2.459   0.249
 5582SOL     OW17644   3.709   3.332   3.393
 5582SOL    HW117645   3.617   3.299   3.372
 5582SOL    HW217646   3.769   3.314   3.315
 5583SOL     OW17647   3.538   0.521   0.452
 5583SOL    HW117648   3.602   0.444   0.449
 5583SOL    HW217649   3.506   0.540   0.359
 5584SOL     OW17650   5.833   2.931   2.796
 5584SOL    HW117651   5.876   2.843   2.820
 5584SOL    HW217652   5.877   2.967   2.714
 5585SOL     OW17653   6.808   6.915   4.152
 5585SOL    HW117654   6.867   6.863   4.089
 5585SOL    HW217655   6.747   6.852   4.199
 5586SOL     OW17656   2.528   1.175   6.563
 5586SOL    HW117657   2.535   1.274   6.562
 5586SOL    HW217658   2.612   1.135   6.526
 5587SOL     OW17659   3.457   0.268   3.823
 5587SOL    HW117660   3.431   0.347   3.880
 5587SOL    HW217661   3.512   0.300   3.745
 5588SOL     OW17662   4.284   0.042   5.906
 5588SOL    HW117663   4.186   0.057   5.920
 5588SOL    HW217664   4.299   6.973   5.866
 5589SOL     OW17665   3.935   2.864   6.506
 5589SOL    HW117666   4.023   2.821   6.523
 5589SOL    HW217667   3.901   2.835   6.416
 5590SOL     OW17668   0.113   6.784   3.395
 5590SOL    HW117669   0.031   6.827   3.432
 5590SOL    HW217670   0.144   6.712   3.458
 5591SOL     OW17671   4.695   0.614   6.901
 5591SOL    HW117672   4.743   0.528   6.918
 5591SOL    HW217673   4.712   0.677   6.976
 5592SOL     OW17674   2.518   2.475   2.743
 5592SOL    HW117675   2.596   2.524   2.704
 5592SOL    HW217676   2.544   2.436   2.831
 5593SOL     OW17677   1.500   2.994   4.824
 5593SOL    HW117678   1.505   2.937   4.906
 5593SOL    HW217679   1.440   3.072   4.843
 5594SOL     OW17680   2.306   0.562   6.521
 5594SOL    HW117681   2.344   0.472   6.545
 5594SOL    HW217682   2.278   0.609   6.605
 5595SOL     OW17683   0.299   1.570   5.690
 5595SOL    HW117684   0.319   1.522   5.775
 5595SOL    HW217685   0.214   1.535   5.651
 5596SOL     OW17686   4.598   1.250   2.685
 5596SOL    HW117687   4.559   1.315   2.751
 5596SOL    HW217688   4.533   1.232   2.612
 5597SOL     OW17689   0.305   0.898   6.131
 5597SOL    HW117690   0.328   0.814   6.182
 5597SOL    HW217691   0.363   0.972   6.164
 5598SOL     OW17692   0.064   2.431   4.125
 5598SOL    HW117693   0.016   2.389   4.048
 5598SOL    HW217694   0.020   2.404   4.210
 5599SOL     OW17695   4.753   2.897   3.594
 5599SOL    HW117696   4.765   2.953   3.676
 5599SOL    HW217697   4.761   2.800   3.618
 5600SOL     OW17698   2.270   1.462   2.148
 5600SOL    HW117699   2.263   1.467   2.248
 5600SOL    HW217700   2.310   1.546   2.113
 5601SOL     OW17701   6.092   3.231   5.164
 5601SOL    HW117702   6.161   3.303   5.156
 5601SOL    HW217703   6.074   3.193   5.073
 5602SOL     OW17704   6.703   2.330   2.551
 5602SOL    HW117705   6.640   2.352   2.626
 5602SOL    HW217706   6.670   2.249   2.504
 5603SOL     OW17707   4.457   0.980   5.531
 5603SOL    HW117708   4.393   0.966   5.606
 5603SOL    HW217709   4.408   0.979   5.444
 5604SOL     OW17710   1.085   0.012   3.188
 5604SOL    HW117711   1.130   0.049   3.270
 5604SOL    HW217712   1.125   0.054   3.107
 5605SOL     OW17713   4.128   6.695   3.908
 5605SOL    HW117714   4.188   6.618   3.888
 5605SOL    HW217715   4.135   6.718   4.005
 5606SOL     OW17716   4.829   2.840   0.567
 5606SOL    HW117717   4.882   2.921   0.593
 5606SOL    HW217718   4.769   2.814   0.643
 5607SOL     OW17719   6.744   2.284   3.222
 5607SOL    HW117720   6.774   2.226   3.297
 5607SOL    HW217721   6.700   2.227   3.152
 5608SOL     OW17722   5.132   0.830   3.432
 5608SOL    HW117723   5.145   0.800   3.338
 5608SOL    HW217724   5.197   0.783   3.492
 5609SOL     OW17725   7.021   0.435   1.034
 5609SOL    HW117726   6.954   0.367   1.004
 5609SOL    HW217727   0.056   0.463   0.957
 5610SOL     OW17728   5.067   5.335   1.082
 5610SOL    HW117729   5.029   5.243   1.076
 5610SOL    HW217730   5.016   5.388   1.150
 5611SOL     OW17731   6.163   5.279   1.787
 5611SOL    HW117732   6.132   5.320   1.701
 5611SOL    HW217733   6.230   5.339   1.831
 5612SOL     OW17734   3.866   2.267   6.978
 5612SOL    HW117735   3.844   2.352   0.003
 5612SOL    HW217736   3.958   2.273   6.940
 5613SOL     OW17737   5.963   5.017   6.308
 5613SOL    HW117738   5.886   5.062   6.354
 5613SOL    HW217739   5.993   4.938   6.361
 5614SOL     OW17740   4.970   3.305   3.674
 5614SOL    HW117741   4.946   3.263   3.762
 5614SOL    HW217742   4.939   3.246   3.600
 5615SOL     OW17743   0.150   2.776   3.232
 5615SOL    HW117744   0.178   2.716   3.158
 5615SOL    HW217745   0.088   2.846   3.196
 5616SOL     OW17746   1.640   3.057   2.731
 5616SOL    HW117747   1.593   3.105   2.805
 5616SOL    HW217748   1.708   3.118   2.689
 5617SOL     OW17749   1.443   5.376   6.271
 5617SOL    HW117750   1.521   5.347   6.215
 5617SOL    HW217751   1.446   5.475   6.283
 5618SOL     OW17752   5.449   6.922   2.205
 5618SOL    HW117753   5.441   7.003   2.147
 5618SOL    HW217754   5.429   6.840   2.152
 5619SOL     OW17755   3.564   3.325   3.644
 5619SOL    HW117756   3.622   3.368   3.575
 5619SOL    HW217757   3.489   3.275   3.599
 5620SOL     OW17758   4.759   4.657   4.274
 5620SOL    HW117759   4.755   4.742   4.328
 5620SOL    HW217760   4.830   4.666   4.203
 5621SOL     OW17761   0.097   2.361   6.560
 5621SOL    HW117762   0.022   2.297   6.544
 5621SOL    HW217763   0.138   2.387   6.473
 5622SOL     OW17764   4.722   5.876   3.756
 5622SOL    HW117765   4.704   5.794   3.809
 5622SOL    HW217766   4.668   5.952   3.791
 5623SOL     OW17767   4.992   5.023   4.438
 5623SOL    HW117768   5.049   5.087   4.385
 5623SOL    HW217769   5.000   4.931   4.400
 5624SOL     OW17770   5.315   4.954   3.033
 5624SOL    HW117771   5.245   4.952   3.103
 5624SOL    HW217772   5.405   4.960   3.076
 5625SOL     OW17773   1.943   6.019   5.698
 5625SOL    HW117774   1.970   6.087   5.766
 5625SOL    HW217775   1.997   6.033   5.615
 5626SOL     OW17776   0.957   4.317   6.779
 5626SOL    HW117777   0.995   4.399   6.736
 5626SOL    HW217778   0.927   4.253   6.709
 5627SOL     OW17779   0.974   5.350   6.825
 5627SOL    HW117780   0.908   5.399   6.882
 5627SOL    HW217781   0.984   5.396   6.737
 5628SOL     OW17782   2.752   3.258   0.749
 5628SOL    HW117783   2.741   3.354   0.724
 5628SOL    HW217784   2.849   3.232   0.739
 5629SOL     OW17785   5.875   3.607   2.626
 5629SOL    HW117786   5.786   3.604   2.581
 5629SOL    HW217787   5.875   3.548   2.706
 5630SOL     OW17788   1.181   4.007   6.754
 5630SOL    HW117789   1.176   4.025   6.852
 5630SOL    HW217790   1.244   3.932   6.738
 5631SOL     OW17791   3.857   1.453   1.899
 5631SOL    HW117792   3.893   1.381   1.840
 5631SOL    HW217793   3.810   1.412   1.977
 5632SOL     OW17794   4.906   6.404   5.952
 5632SOL    HW117795   4.848   6.326   5.973
 5632SOL    HW217796   4.936   6.448   6.037
 5633SOL     OW17797   0.952   5.298   5.457
 5633SOL    HW117798   1.001   5.381   5.430
 5633SOL    HW217799   0.968   5.280   5.554
 5634SOL     OW17800   2.530   0.557   1.241
 5634SOL    HW117801   2.466   0.555   1.164
 5634SOL    HW217802   2.479   0.566   1.326
 5635SOL     OW17803   3.157   0.909   1.117
 5635SOL    HW117804   3.151   1.009   1.112
 5635SOL    HW217805   3.252   0.881   1.105
 5636SOL     OW17806   5.358   1.418   5.975
 5636SOL    HW117807   5.276   1.471   5.951
 5636SOL    HW217808   5.391   1.369   5.894
 5637SOL     OW17809   5.190   6.537   4.757
 5637SOL    HW117810   5.156   6.521   4.664
 5637SOL    HW217811   5.172   6.632   4.782
 5638SOL     OW17812   6.509   5.223   1.207
 5638SOL    HW117813   6.592   5.218   1.152
 5638SOL    HW217814   6.436   5.266   1.155
 5639SOL     OW17815   2.446   0.431   1.930
 5639SOL    HW117816   2.376   0.478   1.875
 5639SOL    HW217817   2.460   0.481   2.015
 5640SOL     OW17818   3.298   0.173   2.663
 5640SOL    HW117819   3.343   0.127   2.739
 5640SOL    HW217820   3.334   0.266   2.654
 5641SOL     OW17821   6.619   4.184   3.692
 5641SOL    HW117822   6.709   4.191   3.734
 5641SOL    HW217823   6.550   4.171   3.763
 5642SOL     OW17824   1.959   3.694   6.825
 5642SOL    HW117825   1.930   3.608   6.867
 5642SOL    HW217826   1.980   3.679   6.728
 5643SOL     OW17827   5.047   2.418   4.891
 5643SOL    HW117828   4.982   2.459   4.955
 5643SOL    HW217829   5.020   2.441   4.798
 5644SOL     OW17830   4.199   1.185   4.768
 5644SOL    HW117831   4.205   1.089   4.794
 5644SOL    HW217832   4.289   1.228   4.781
 5645SOL     OW17833   6.434   5.806   3.915
 5645SOL    HW117834   6.521   5.847   3.889
 5645SOL    HW217835   6.425   5.806   4.015
 5646SOL     OW17836   0.321   6.268   3.905
 5646SOL    HW117837   0.329   6.306   3.813
 5646SOL    HW217838   0.309   6.343   3.971
 5647SOL     OW17839   6.076   5.067   6.044
 5647SOL    HW117840   6.153   5.016   6.081
 5647SOL    HW217841   6.021   5.104   6.119
 5648SOL     OW17842   1.830   1.310   4.637
 5648SOL    HW117843   1.824   1.211   4.635
 5648SOL    HW217844   1.840   1.344   4.543
 5649SOL     OW17845   1.288   0.565   4.973
 5649SOL    HW117846   1.194   0.599   4.984
 5649SOL    HW217847   1.287   0.482   4.917
 5650SOL     OW17848   6.432   4.772   0.045
 5650SOL    HW117849   6.464   4.743   0.135
 5650SOL    HW217850   6.438   4.695   7.003
 5651SOL     OW17851   6.584   1.319   3.073
 5651SOL    HW117852   6.525   1.264   3.014
 5651SOL    HW217853   6.537   1.404   3.097
 5652SOL     OW17854   5.362   4.698   0.347
 5652SOL    HW117855   5.273   4.740   0.327
 5652SOL    HW217856   5.355   4.599   0.336
 5653SOL     OW17857   2.115   6.215   6.337
 5653SOL    HW117858   2.085   6.308   6.316
 5653SOL    HW217859   2.042   6.166   6.386
 5654SOL     OW17860   0.939   5.642   5.792
 5654SOL    HW117861   0.899   5.585   5.720
 5654SOL    HW217862   1.010   5.700   5.753
 5655SOL     OW17863   0.054   4.046   3.847
 5655SOL    HW117864   0.153   4.053   3.834
 5655SOL    HW217865   0.034   4.042   3.945
 5656SOL     OW17866   3.400   4.720   6.374
 5656SOL    HW117867   3.390   4.659   6.452
 5656SOL    HW217868   3.496   4.748   6.366
 5657SOL     OW17869   4.467   6.165   1.873
 5657SOL    HW117870   4.418   6.248   1.847
 5657SOL    HW217871   4.500   6.119   1.790
 5658SOL     OW17872   4.681   6.403   5.292
 5658SOL    HW117873   4.762   6.381   5.237
 5658SOL    HW217874   4.667   6.502   5.292
 5659SOL     OW17875   3.611   3.357   2.806
 5659SOL    HW117876   3.635   3.268   2.768
 5659SOL    HW217877   3.512   3.370   2.801
 5660SOL     OW17878   6.046   0.131   1.040
 5660SOL    HW117879   6.064   0.039   1.077
 5660SOL    HW217880   5.966   0.170   1.086
 5661SOL     OW17881   0.072   6.040   4.932
 5661SOL    HW117882   7.003   6.054   4.973
 5661SOL    HW217883   0.094   5.942   4.935
 5662SOL     OW17884   2.114   3.846   4.133
 5662SOL    HW117885   2.036   3.784   4.141
 5662SOL    HW217886   2.142   3.876   4.224
 5663SOL     OW17887   1.532   3.925   0.253
 5663SOL    HW117888   1.451   3.983   0.252
 5663SOL    HW217889   1.529   3.864   0.332
 5664SOL     OW17890   0.185   5.102   3.000
 5664SOL    HW117891   0.244   5.023   2.983
 5664SOL    HW217892   0.108   5.076   3.058
 5665SOL     OW17893   2.506   1.916   6.268
 5665SOL    HW117894   2.589   1.964   6.299
 5665SOL    HW217895   2.433   1.982   6.254
 5666SOL     OW17896   6.131   5.438   0.502
 5666SOL    HW117897   6.160   5.437   0.597
 5666SOL    HW217898   6.153   5.351   0.459
 5667SOL     OW17899   0.335   5.537   3.678
 5667SOL    HW117900   0.424   5.558   3.720
 5667SOL    HW217901   0.350   5.486   3.593
 5668SOL     OW17902   5.973   2.108   5.257
 5668SOL    HW117903   5.960   2.059   5.344
 5668SOL    HW217904   5.986   2.205   5.276
 5669SOL     OW17905   6.904   3.123   5.473
 5669SOL    HW117906   6.829   3.084   5.420
 5669SOL    HW217907   6.990   3.111   5.423
 5670SOL     OW17908   1.694   4.114   3.703
 5670SOL    HW117909   1.613   4.068   3.737
 5670SOL    HW217910   1.703   4.204   3.745
 5671SOL     OW17911   1.801   1.441   5.099
 5671SOL    HW117912   1.800   1.344   5.123
 5671SOL    HW217913   1.852   1.453   5.014
 5672SOL     OW17914   5.265   4.577   5.449
 5672SOL    HW117915   5.350   4.531   5.470
 5672SOL    HW217916   5.243   4.565   5.352
 5673SOL     OW17917   1.620   0.344   2.122
 5673SOL    HW117918   1.656   0.354   2.030
 5673SOL    HW217919   1.665   0.409   2.183
 5674SOL     OW17920   6.482   3.562   1.102
 5674SOL    HW117921   6.454   3.533   1.194
 5674SOL    HW217922   6.509   3.658   1.105
 5675SOL     OW17923   4.150   2.227   5.691
 5675SOL    HW117924   4.129   2.298   5.624
 5675SOL    HW217925   4.200   2.152   5.647
 5676SOL     OW17926   3.079   0.153   1.453
 5676SOL    HW117927   3.041   0.156   1.361
 5676SOL    HW217928   3.136   0.071   1.463
 5677SOL     OW17929   6.770   0.132   4.057
 5677SOL    HW117930   6.806   0.187   4.133
 5677SOL    HW217931   6.773   0.035   4.082
 5678SOL     OW17932   1.620   5.615   3.115
 5678SOL    HW117933   1.564   5.556   3.173
 5678SOL    HW217934   1.620   5.708   3.152
 5679SOL     OW17935   1.972   6.222   4.989
 5679SOL    HW117936   1.909   6.297   4.969
 5679SOL    HW217937   1.933   6.164   5.061
 5680SOL     OW17938   2.286   6.960   6.113
 5680SOL    HW117939   2.261   6.863   6.115
 5680SOL    HW217940   2.234   7.009   6.183
 5681SOL     OW17941   0.778   3.699   1.084
 5681SOL    HW117942   0.803   3.631   1.015
 5681SOL    HW217943   0.856   3.717   1.144
 5682SOL     OW17944   0.816   3.670   3.963
 5682SOL    HW117945   0.814   3.603   4.037
 5682SOL    HW217946   0.786   3.759   3.997
 5683SOL     OW17947   3.672   2.492   5.349
 5683SOL    HW117948   3.592   2.508   5.406
 5683SOL    HW217949   3.666   2.547   5.266
 5684SOL     OW17950   3.278   4.090   3.288
 5684SOL    HW117951   3.348   4.046   3.231
 5684SOL    HW217952   3.284   4.189   3.277
 5685SOL     OW17953   6.910   5.299   2.057
 5685SOL    HW117954   6.885   5.204   2.037
 5685SOL    HW217955   6.835   5.360   2.030
 5686SOL     OW17956   3.451   5.633   6.804
 5686SOL    HW117957   3.512   5.679   6.868
 5686SOL    HW217958   3.362   5.618   6.849
 5687SOL     OW17959   5.096   5.322   5.895
 5687SOL    HW117960   5.126   5.413   5.868
 5687SOL    HW217961   5.095   5.261   5.815
 5688SOL     OW17962   6.111   1.735   2.154
 5688SOL    HW117963   6.109   1.793   2.073
 5688SOL    HW217964   6.182   1.665   2.142
 5689SOL     OW17965   3.781   2.490   0.473
 5689SOL    HW117966   3.722   2.557   0.519
 5689SOL    HW217967   3.727   2.410   0.447
 5690SOL     OW17968   5.045   6.771   1.482
 5690SOL    HW117969   5.063   6.673   1.494
 5690SOL    HW217970   4.991   6.784   1.399
 5691SOL     OW17971   1.767   0.318   1.892
 5691SOL    HW117972   1.824   0.275   1.961
 5691SOL    HW217973   1.723   0.248   1.835
 5692SOL     OW17974   5.520   3.100   6.845
 5692SOL    HW117975   5.556   3.092   6.752
 5692SOL    HW217976   5.496   3.195   6.863
 5693SOL     OW17977   4.639   2.719   3.389
 5693SOL    HW117978   4.544   2.690   3.400
 5693SOL    HW217979   4.663   2.783   3.461
 5694SOL     OW17980   0.267   1.519   4.183
 5694SOL    HW117981   0.344   1.581   4.198
 5694SOL    HW217982   0.283   1.434   4.233
 5695SOL     OW17983   2.151   3.616   3.233
 5695SOL    HW117984   2.164   3.522   3.265
 5695SOL    HW217985   2.096   3.615   3.149
 5696SOL     OW17986   3.048   0.226   5.413
 5696SOL    HW117987   3.056   0.312   5.363
 5696SOL    HW217988   3.128   0.169   5.395
 5697SOL     OW17989   6.794   3.270   0.251
 5697SOL    HW117990   6.874   3.249   0.307
 5697SOL    HW217991   6.815   3.348   0.191
 5698SOL     OW17992   0.241   4.185   2.180
 5698SOL    HW117993   0.238   4.126   2.260
 5698SOL    HW217994   0.295   4.267   2.200
 5699SOL     OW17995   5.776   1.065   5.174
 5699SOL    HW117996   5.815   0.981   5.212
 5699SOL    HW217997   5.767   1.055   5.075
 5700SOL     OW17998   1.095   5.755   3.479
 5700SOL    HW117999   0.995   5.747   3.478
 5700SOL    HW218000   1.121   5.851   3.485
 5701SOL     OW18001   5.702   5.358   1.606
 5701SOL    HW118002   5.639   5.304   1.550
 5701SOL    HW218003   5.699   5.325   1.701
 5702SOL     OW18004   1.697   0.684   6.260
 5702SOL    HW118005   1.780   0.719   6.303
 5702SOL    HW218006   1.706   0.585   6.247
 5703SOL     OW18007   3.957   4.172   0.716
 5703SOL    HW118008   3.905   4.131   0.791
 5703SOL    HW218009   4.055   4.155   0.731
 5704SOL     OW18010   3.587   5.551   3.253
 5704SOL    HW118011   3.618   5.483   3.319
 5704SOL    HW218012   3.591   5.642   3.294
 5705SOL     OW18013   6.344   1.574   2.056
 5705SOL    HW118014   6.360   1.631   1.976
 5705SOL    HW218015   6.335   1.478   2.028
 5706SOL     OW18016   2.039   1.116   6.577
 5706SOL    HW118017   2.036   1.046   6.648
 5706SOL    HW218018   2.032   1.207   6.620
 5707SOL     OW18019   3.354   2.508   6.937
 5707SOL    HW118020   3.437   2.533   6.988
 5707SOL    HW218021   3.365   2.416   6.899
 5708SOL     OW18022   5.475   6.711   1.994
 5708SOL    HW118023   5.382   6.692   1.964
 5708SOL    HW218024   5.513   6.629   2.038
 5709SOL     OW18025   1.400   1.023   2.850
 5709SOL    HW118026   1.481   0.980   2.890
 5709SOL    HW218027   1.425   1.111   2.811
 5710SOL     OW18028   3.430   3.627   6.235
 5710SOL    HW118029   3.524   3.593   6.238
 5710SOL    HW218030   3.368   3.553   6.210
 5711SOL     OW18031   3.977   0.939   4.039
 5711SOL    HW118032   3.882   0.921   4.062
 5711SOL    HW218033   3.987   1.034   4.009
 5712SOL     OW18034   6.600   5.793   6.457
 5712SOL    HW118035   6.608   5.867   6.391
 5712SOL    HW218036   6.504   5.774   6.476
 5713SOL     OW18037   6.622   1.956   3.124
 5713SOL    HW118038   6.720   1.977   3.125
 5713SOL    HW218039   6.599   1.907   3.040
 5714SOL     OW18040   1.515   0.927   6.823
 5714SOL    HW118041   1.591   0.977   6.864
 5714SOL    HW218042   1.442   0.916   6.890
 5715SOL     OW18043   1.696   6.900   3.209
 5715SOL    HW118044   1.710   6.976   3.273
 5715SOL    HW218045   1.617   6.919   3.152
 5716SOL     OW18046   2.157   3.031   6.167
 5716SOL    HW118047   2.177   3.127   6.149
 5716SOL    HW218048   2.230   2.974   6.128
 5717SOL     OW18049   0.765   4.035   0.872
 5717SOL    HW118050   0.789   3.952   0.823
 5717SOL    HW218051   0.672   4.027   0.908
 5718SOL     OW18052   2.332   4.387   5.575
 5718SOL    HW118053   2.412   4.391   5.515
 5718SOL    HW218054   2.250   4.372   5.520
 5719SOL     OW18055   3.189   1.120   6.334
 5719SOL    HW118056   3.218   1.034   6.377
 5719SOL    HW218057   3.199   1.112   6.235
 5720SOL     OW18058   1.534   4.687   4.320
 5720SOL    HW118059   1.525   4.616   4.250
 5720SOL    HW218060   1.449   4.694   4.371
 5721SOL     OW18061   0.748   4.810   1.406
 5721SOL    HW118062   0.692   4.889   1.380
 5721SOL    HW218063   0.716   4.729   1.357
 5722SOL     OW18064   5.224   0.232   4.298
 5722SOL    HW118065   5.272   0.259   4.381
 5722SOL    HW218066   5.151   0.296   4.279
 5723SOL     OW18067   2.006   5.120   0.900
 5723SOL    HW118068   2.092   5.167   0.878
 5723SOL    HW218069   1.984   5.056   0.827
 5724SOL     OW18070   5.361   1.944   6.652
 5724SOL    HW118071   5.346   2.043   6.640
 5724SOL    HW218072   5.277   1.895   6.629
 5725SOL     OW18073   4.963   5.260   6.355
 5725SOL    HW118074   5.025   5.318   6.407
 5725SOL    HW218075   4.892   5.317   6.313
 5726SOL     OW18076   5.564   3.117   6.169
 5726SOL    HW118077   5.601   3.156   6.084
 5726SOL    HW218078   5.640   3.100   6.233
 5727SOL     OW18079   6.617   1.957   4.176
 5727SOL    HW118080   6.672   1.876   4.197
 5727SOL    HW218081   6.529   1.929   4.139
 5728SOL     OW18082   6.124   0.348   5.976
 5728SOL    HW118083   6.085   0.275   5.918
 5728SOL    HW218084   6.224   0.347   5.967
 5729SOL     OW18085   0.563   2.641   5.754
 5729SOL    HW118086   0.481   2.697   5.746
 5729SOL    HW218087   0.614   2.666   5.836
 5730SOL     OW18088   5.367   4.677   6.379
 5730SOL    HW118089   5.349   4.580   6.399
 5730SOL    HW218090   5.404   4.684   6.286
 5731SOL     OW18091   3.425   1.141   4.111
 5731SOL    HW118092   3.349   1.169   4.169
 5731SOL    HW218093   3.483   1.220   4.091
 5732SOL     OW18094   5.557   4.267   4.819
 5732SOL    HW118095   5.522   4.357   4.794
 5732SOL    HW218096   5.596   4.270   4.911
 5733SOL     OW18097   3.165   1.032   0.580
 5733SOL    HW118098   3.222   0.985   0.512
 5733SOL    HW218099   3.072   0.997   0.575
 5734SOL     OW18100   2.263   6.261   6.106
 5734SOL    HW118101   2.222   6.246   6.195
 5734SOL    HW218102   2.240   6.353   6.073
 5735SOL     OW18103   4.147   0.497   1.774
 5735SOL    HW118104   4.188   0.503   1.683
 5735SOL    HW218105   4.112   0.404   1.789
 5736SOL     OW18106   4.909   4.270   6.803
 5736SOL    HW118107   4.882   4.248   6.709
 5736SOL    HW218108   4.842   4.232   6.867
 5737SOL     OW18109   3.909   5.254   0.970
 5737SOL    HW118110   3.999   5.240   0.928
 5737SOL    HW218111   3.893   5.352   0.981
 5738SOL     OW18112   2.973   1.175   0.026
 5738SOL    HW118113   2.884   1.178   7.001
 5738SOL    HW218114   2.971   1.236   0.105
 5739SOL     OW18115   1.931   0.743   5.433
 5739SOL    HW118116   1.946   0.644   5.431
 5739SOL    HW218117   1.845   0.763   5.480
 5740SOL     OW18118   5.442   3.150   2.380
 5740SOL    HW118119   5.482   3.192   2.298
 5740SOL    HW218120   5.418   3.222   2.446
 5741SOL     OW18121   0.190   3.581   4.655
 5741SOL    HW118122   0.272   3.537   4.620
 5741SOL    HW218123   0.170   3.663   4.600
 5742SOL     OW18124   5.120   0.551   4.047
 5742SOL    HW118125   5.159   0.629   4.098
 5742SOL    HW218126   5.136   0.564   3.950
 5743SOL     OW18127   4.211   3.645   6.378
 5743SOL    HW118128   4.141   3.575   6.390
 5743SOL    HW218129   4.175   3.733   6.409
 5744SOL     OW18130   5.860   6.634   2.761
 5744SOL    HW118131   5.933   6.691   2.797
 5744SOL    HW218132   5.810   6.685   2.690
 5745SOL     OW18133   1.786   2.269   1.963
 5745SOL    HW118134   1.850   2.330   2.010
 5745SOL    HW218135   1.693   2.292   1.989
 5746SOL     OW18136   4.269   0.279   3.582
 5746SOL    HW118137   4.294   0.256   3.488
 5746SOL    HW218138   4.193   0.222   3.612
 5747SOL     OW18139   0.602   6.097   0.759
 5747SOL    HW118140   0.671   6.166   0.779
 5747SOL    HW218141   0.591   6.037   0.839
 5748SOL     OW18142   0.506   5.652   0.537
 5748SOL    HW118143   0.576   5.721   0.554
 5748SOL    HW218144   0.415   5.690   0.558
 5749SOL     OW18145   1.925   5.748   5.774
 5749SOL    HW118146   1.938   5.845   5.754
 5749SOL    HW218147   1.850   5.712   5.718
 5750SOL     OW18148   6.382   4.576   4.049
 5750SOL    HW118149   6.349   4.543   3.960
 5750SOL    HW218150   6.306   4.616   4.100
 5751SOL     OW18151   1.809   3.435   4.189
 5751SOL    HW118152   1.897   3.455   4.147
 5751SOL    HW218153   1.783   3.341   4.168
 5752SOL     OW18154   4.993   0.184   0.534
 5752SOL    HW118155   4.904   0.213   0.498
 5752SOL    HW218156   5.008   0.226   0.623
 5753SOL     OW18157   3.696   4.208   5.078
 5753SOL    HW118158   3.611   4.257   5.057
 5753SOL    HW218159   3.754   4.205   4.997
 5754SOL     OW18160   1.151   5.765   1.101
 5754SOL    HW118161   1.063   5.783   1.145
 5754SOL    HW218162   1.224   5.803   1.157
 5755SOL     OW18163   1.144   2.390   6.831
 5755SOL    HW118164   1.219   2.420   6.889
 5755SOL    HW218165   1.058   2.391   6.883
 5756SOL     OW18166   5.996   5.999   1.295
 5756SOL    HW118167   6.076   6.013   1.354
 5756SOL    HW218168   6.005   6.055   1.214
 5757SOL     OW18169   6.051   7.005   4.262
 5757SOL    HW118170   6.004   6.966   4.341
 5757SOL    HW218171   5.985   0.020   4.198
 5758SOL     OW18172   6.783   0.453   2.523
 5758SOL    HW118173   6.817   0.529   2.468
 5758SOL    HW218174   6.810   0.366   2.481
 5759SOL     OW18175   4.446   0.353   0.981
 5759SOL    HW118176   4.385   0.424   1.016
 5759SOL    HW218177   4.457   0.363   0.882
 5760SOL     OW18178   0.618   2.970   1.661
 5760SOL    HW118179   0.716   2.953   1.651
 5760SOL    HW218180   0.593   3.050   1.606
 5761SOL     OW18181   5.460   6.404   4.759
 5761SOL    HW118182   5.388   6.372   4.819
 5761SOL    HW218183   5.421   6.432   4.671
 5762SOL     OW18184   5.968   5.070   6.986
 5762SOL    HW118185   5.919   4.983   6.993
 5762SOL    HW218186   6.066   5.055   7.000
 5763SOL     OW18187   5.528   6.933   0.322
 5763SOL    HW118188   5.524   6.943   0.222
 5763SOL    HW218189   5.546   6.838   0.346
 5764SOL     OW18190   4.478   6.112   4.070
 5764SOL    HW118191   4.417   6.046   4.113
 5764SOL    HW218192   4.503   6.080   3.979
 5765SOL     OW18193   6.681   5.184   1.462
 5765SOL    HW118194   6.632   5.200   1.376
 5765SOL    HW218195   6.616   5.166   1.535
 5766SOL     OW18196   0.353   1.790   4.409
 5766SOL    HW118197   0.324   1.803   4.314
 5766SOL    HW218198   0.448   1.819   4.419
 5767SOL     OW18199   2.597   0.295   0.366
 5767SOL    HW118200   2.612   0.394   0.362
 5767SOL    HW218201   2.529   0.269   0.298
 5768SOL     OW18202   0.883   6.801   4.792
 5768SOL    HW118203   0.897   6.707   4.761
 5768SOL    HW218204   0.821   6.800   4.871
 5769SOL     OW18205   1.290   4.471   6.522
 5769SOL    HW118206   1.281   4.377   6.555
 5769SOL    HW218207   1.383   4.504   6.540
 5770SOL     OW18208   2.194   4.815   1.526
 5770SOL    HW118209   2.203   4.734   1.584
 5770SOL    HW218210   2.195   4.897   1.583
 5771SOL     OW18211   2.133   5.355   3.640
 5771SOL    HW118212   2.097   5.351   3.734
 5771SOL    HW218213   2.080   5.294   3.581
 5772SOL     OW18214   3.711   0.463   2.136
 5772SOL    HW118215   3.614   0.459   2.110
 5772SOL    HW218216   3.764   0.404   2.074
 5773SOL     OW18217   4.212   1.963   2.961
 5773SOL    HW118218   4.236   1.871   2.928
 5773SOL    HW218219   4.292   2.023   2.954
 5774SOL     OW18220   0.143   6.256   2.804
 5774SOL    HW118221   0.223   6.317   2.804
 5774SOL    HW218222   0.126   6.224   2.898
 5775SOL     OW18223   0.012   5.765   1.924
 5775SOL    HW118224   0.087   5.749   1.861
 5775SOL    HW218225   6.962   5.817   1.878
 5776SOL     OW18226   2.336   0.514   4.187
 5776SOL    HW118227   2.287   0.427   4.198
 5776SOL    HW218228   2.384   0.515   4.099
 5777SOL     OW18229   1.838   6.145   3.229
 5777SOL    HW118230   1.831   6.236   3.188
 5777SOL    HW218231   1.855   6.154   3.327
 5778SOL     OW18232   0.635   1.312   0.535
 5778SOL    HW118233   0.573   1.382   0.501
 5778SOL    HW218234   0.728   1.329   0.502
 5779SOL     OW18235   5.636   2.220   6.564
 5779SOL    HW118236   5.652   2.297   6.627
 5779SOL    HW218237   5.710   2.217   6.497
 5780SOL     OW18238   5.358   5.420   3.722
 5780SOL    HW118239   5.310   5.437   3.636
 5780SOL    HW218240   5.304   5.454   3.799
 5781SOL     OW18241   0.760   4.063   5.840
 5781SOL    HW118242   0.781   4.043   5.744
 5781SOL    HW218243   0.846   4.079   5.890
 5782SOL     OW18244   0.047   1.199   0.592
 5782SOL    HW118245   0.122   1.147   0.549
 5782SOL    HW218246   0.038   1.171   0.687
 5783SOL     OW18247   1.849   1.881   1.285
 5783SOL    HW118248   1.878   1.956   1.345
 5783SOL    HW218249   1.833   1.799   1.340
 5784SOL     OW18250   0.430   6.475   6.495
 5784SOL    HW118251   0.364   6.413   6.538
 5784SOL    HW218252   0.523   6.445   6.516
 5785SOL     OW18253   1.614   1.489   1.016
 5785SOL    HW118254   1.676   1.562   0.988
 5785SOL    HW218255   1.609   1.486   1.116
 5786SOL     OW18256   6.353   4.231   1.012
 5786SOL    HW118257   6.343   4.241   1.111
 5786SOL    HW218258   6.281   4.282   0.965
 5787SOL     OW18259   2.969   1.847   5.784
 5787SOL    HW118260   2.948   1.797   5.868
 5787SOL    HW218261   2.961   1.945   5.801
 5788SOL     OW18262   3.150   0.902   3.013
 5788SOL    HW118263   3.227   0.838   3.009
 5788SOL    HW218264   3.154   0.963   2.934
 5789SOL     OW18265   4.193   5.208   6.074
 5789SOL    HW118266   4.246   5.145   6.016
 5789SOL    HW218267   4.141   5.156   6.141
 5790SOL     OW18268   0.649   3.111   4.173
 5790SOL    HW118269   0.553   3.083   4.173
 5790SOL    HW218270   0.702   3.050   4.114
 5791SOL     OW18271   2.728   0.714   2.653
 5791SOL    HW118272   2.738   0.770   2.735
 5791SOL    HW218273   2.731   0.773   2.572
 5792SOL     OW18274   0.099   2.347   3.367
 5792SOL    HW118275   0.079   2.341   3.269
 5792SOL    HW218276   0.058   2.430   3.405
 5793SOL     OW18277   6.475   1.183   4.052
 5793SOL    HW118278   6.522   1.267   4.023
 5793SOL    HW218279   6.513   1.105   4.002
 5794SOL     OW18280   3.968   3.611   0.039
 5794SOL    HW118281   3.994   3.577   0.130
 5794SOL    HW218282   3.979   3.538   6.993
 5795SOL     OW18283   6.134   4.326   5.910
 5795SOL    HW118284   6.048   4.356   5.869
 5795SOL    HW218285   6.170   4.248   5.859
 5796SOL     OW18286   3.719   1.670   6.822
 5796SOL    HW118287   3.780   1.708   6.751
 5796SOL    HW218288   3.640   1.730   6.833
 5797SOL     OW18289   3.498   1.961   4.842
 5797SOL    HW118290   3.440   2.033   4.879
 5797SOL    HW218291   3.443   1.901   4.784
 5798SOL     OW18292   0.038   4.380   5.078
 5798SOL    HW118293   7.013   4.416   4.998
 5798SOL    HW218294   6.996   4.377   5.156
 5799SOL     OW18295   5.373   0.184   3.512
 5799SOL    HW118296   5.365   0.094   3.469
 5799SOL    HW218297   5.469   0.211   3.516
 5800SOL     OW18298   5.829   4.784   0.425
 5800SOL    HW118299   5.790   4.763   0.335
 5800SOL    HW218300   5.781   4.732   0.495
 5801SOL     OW18301   1.379   0.901   3.801
 5801SOL    HW118302   1.446   0.887   3.727
 5801SOL    HW218303   1.333   0.988   3.788
 5802SOL     OW18304   0.175   4.111   5.933
 5802SOL    HW118305   0.176   4.015   5.963
 5802SOL    HW218306   0.241   4.122   5.858
 5803SOL     OW18307   1.372   4.695   0.841
 5803SOL    HW118308   1.350   4.789   0.867
 5803SOL    HW218309   1.423   4.651   0.914
 5804SOL     OW18310   6.150   4.072   4.496
 5804SOL    HW118311   6.081   4.000   4.487
 5804SOL    HW218312   6.234   4.033   4.534
 5805SOL     OW18313   5.172   3.554   6.309
 5805SOL    HW118314   5.223   3.616   6.369
 5805SOL    HW218315   5.086   3.597   6.283
 5806SOL     OW18316   0.239   6.268   6.878
 5806SOL    HW118317   0.239   6.361   6.843
 5806SOL    HW218318   0.145   6.239   6.895
 5807SOL     OW18319   1.495   3.601   1.229
 5807SOL    HW118320   1.461   3.619   1.137
 5807SOL    HW218321   1.485   3.684   1.284
 5808SOL     OW18322   6.184   4.574   2.441
 5808SOL    HW118323   6.193   4.673   2.444
 5808SOL    HW218324   6.106   4.545   2.497
 5809SOL     OW18325   0.066   3.343   4.520
 5809SOL    HW118326   0.004   3.270   4.549
 5809SOL    HW218327   0.056   3.422   4.580
 5810SOL     OW18328   2.856   1.703   2.993
 5810SOL    HW118329   2.784   1.679   3.058
 5810SOL    HW218330   2.830   1.669   2.902
 5811SOL     OW18331   2.792   0.318   4.379
 5811SOL    HW118332   2.740   0.375   4.444
 5811SOL    HW218333   2.836   0.377   4.311
 5812SOL     OW18334   4.719   0.401   3.657
 5812SOL    HW118335   4.717   0.501   3.646
 5812SOL    HW218336   4.762   0.378   3.744
 5813SOL     OW18337   1.571   1.160   5.017
 5813SOL    HW118338   1.596   1.081   4.961
 5813SOL    HW218339   1.500   1.133   5.082
 5814SOL     OW18340   6.799   4.881   1.198
 5814SOL    HW118341   6.758   4.853   1.111
 5814SOL    HW218342   6.745   4.844   1.273
 5815SOL     OW18343   3.799   1.817   3.000
 5815SOL    HW118344   3.818   1.896   3.059
 5815SOL    HW218345   3.871   1.810   2.930
 5816SOL     OW18346   4.488   0.887   0.077
 5816SOL    HW118347   4.440   0.903   0.163
 5816SOL    HW218348   4.586   0.890   0.093
 5817SOL     OW18349   5.308   3.038   5.501
 5817SOL    HW118350   5.225   3.021   5.554
 5817SOL    HW218351   5.284   3.087   5.417
 5818SOL     OW18352   5.553   7.008   6.056
 5818SOL    HW118353   5.488   0.062   6.064
 5818SOL    HW218354   5.534   6.957   5.971
 5819SOL     OW18355   5.675   0.505   1.157
 5819SOL    HW118356   5.600   0.455   1.201
 5819SOL    HW218357   5.643   0.596   1.130
 5820SOL     OW18358   5.265   6.969   3.413
 5820SOL    HW118359   5.272   6.952   3.314
 5820SOL    HW218360   5.185   0.006   3.431
 5821SOL     OW18361   3.060   0.402   1.878
 5821SOL    HW118362   3.002   0.480   1.904
 5821SOL    HW218363   3.040   0.324   1.938
 5822SOL     OW18364   0.539   1.895   2.565
 5822SOL    HW118365   0.489   1.957   2.625
 5822SOL    HW218366   0.571   1.945   2.485
 5823SOL     OW18367   1.795   1.803   4.450
 5823SOL    HW118368   1.767   1.862   4.526
 5823SOL    HW218369   1.879   1.756   4.474
 5824SOL     OW18370   5.739   6.730   3.465
 5824SOL    HW118371   5.830   6.690   3.468
 5824SOL    HW218372   5.739   6.807   3.400
 5825SOL     OW18373   2.281   0.342   6.740
 5825SOL    HW118374   2.197   0.395   6.753
 5825SOL    HW218375   2.352   0.378   6.800
 5826SOL     OW18376   6.716   6.374   4.624
 5826SOL    HW118377   6.636   6.423   4.590
 5826SOL    HW218378   6.687   6.296   4.680
 5827SOL     OW18379   0.604   5.897   4.733
 5827SOL    HW118380   0.563   5.926   4.646
 5827SOL    HW218381   0.531   5.877   4.799
 5828SOL     OW18382   0.461   3.443   2.289
 5828SOL    HW118383   0.519   3.496   2.227
 5828SOL    HW218384   0.449   3.351   2.253
 5829SOL     OW18385   2.684   1.211   1.629
 5829SOL    HW118386   2.627   1.132   1.611
 5829SOL    HW218387   2.768   1.182   1.674
 5830SOL     OW18388   3.182   1.103   6.053
 5830SOL    HW118389   3.134   1.021   6.022
 5830SOL    HW218390   3.260   1.121   5.993
 5831SOL     OW18391   5.302   6.936   3.139
 5831SOL    HW118392   5.305   0.010   3.109
 5831SOL    HW218393   5.250   6.882   3.074
 5832SOL     OW18394   4.157   3.795   5.141
 5832SOL    HW118395   4.106   3.872   5.104
 5832SOL    HW218396   4.111   3.710   5.118
 5833SOL     OW18397   3.440   3.586   4.095
 5833SOL    HW118398   3.419   3.561   4.001
 5833SOL    HW218399   3.355   3.602   4.145
 5834SOL     OW18400   5.724   1.932   0.631
 5834SOL    HW118401   5.789   2.002   0.601
 5834SOL    HW218402   5.635   1.949   0.590
 5835SOL     OW18403   5.178   2.146   3.706
 5835SOL    HW118404   5.197   2.226   3.764
 5835SOL    HW218405   5.237   2.148   3.626
 5836SOL     OW18406   3.559   6.048   1.990
 5836SOL    HW118407   3.652   6.013   1.984
 5836SOL    HW218408   3.561   6.139   2.031
 5837SOL     OW18409   4.732   3.987   0.755
 5837SOL    HW118410   4.726   3.941   0.844
 5837SOL    HW218411   4.766   3.922   0.687
 5838SOL     OW18412   1.584   1.717   5.666
 5838SOL    HW118413   1.535   1.769   5.596
 5838SOL    HW218414   1.642   1.649   5.622
 5839SOL     OW18415   6.811   3.320   3.060
 5839SOL    HW118416   6.778   3.410   3.088
 5839SOL    HW218417   6.852   3.274   3.139
 5840SOL     OW18418   1.750   5.426   6.797
 5840SOL    HW118419   1.783   5.370   6.721
 5840SOL    HW218420   1.823   5.437   6.864
 5841SOL     OW18421   6.470   2.301   3.555
 5841SOL    HW118422   6.401   2.259   3.613
 5841SOL    HW218423   6.521   2.229   3.506
 5842SOL     OW18424   3.912   2.822   1.135
 5842SOL    HW118425   3.880   2.906   1.178
 5842SOL    HW218426   3.996   2.791   1.179
 5843SOL     OW18427   1.884   3.176   2.708
 5843SOL    HW118428   1.921   3.180   2.615
 5843SOL    HW218429   1.924   3.097   2.756
 5844SOL     OW18430   0.453   6.194   6.386
 5844SOL    HW118431   0.461   6.196   6.486
 5844SOL    HW218432   0.523   6.254   6.346
 5845SOL     OW18433   1.105   2.537   4.196
 5845SOL    HW118434   1.138   2.452   4.154
 5845SOL    HW218435   1.184   2.591   4.226
 5846SOL     OW18436   0.194   2.195   5.465
 5846SOL    HW118437   0.275   2.168   5.412
 5846SOL    HW218438   0.153   2.276   5.424
 5847SOL     OW18439   2.244   2.696   2.494
 5847SOL    HW118440   2.240   2.765   2.566
 5847SOL    HW218441   2.256   2.741   2.405
 5848SOL     OW18442   1.280   4.969   3.304
 5848SOL    HW118443   1.286   4.872   3.330
 5848SOL    HW218444   1.355   5.020   3.346
 5849SOL     OW18445   1.705   0.779   5.617
 5849SOL    HW118446   1.671   0.872   5.610
 5849SOL    HW218447   1.628   0.717   5.635
 5850SOL     OW18448   0.820   4.592   2.458
 5850SOL    HW118449   0.884   4.664   2.433
 5850SOL    HW218450   0.746   4.588   2.390
 5851SOL     OW18451   6.051   3.935   2.178
 5851SOL    HW118452   5.964   3.886   2.190
 5851SOL    HW218453   6.093   3.907   2.092
 5852SOL     OW18454   3.981   6.214   2.019
 5852SOL    HW118455   4.031   6.201   2.105
 5852SOL    HW218456   3.916   6.139   2.007
 5853SOL     OW18457   2.873   4.478   5.921
 5853SOL    HW118458   2.876   4.456   5.824
 5853SOL    HW218459   2.818   4.560   5.935
 5854SOL     OW18460   6.878   1.520   5.934
 5854SOL    HW118461   6.783   1.517   5.902
 5854SOL    HW218462   6.923   1.601   5.897
 5855SOL     OW18463   1.513   1.195   4.599
 5855SOL    HW118464   1.445   1.148   4.655
 5855SOL    HW218465   1.474   1.280   4.564
 5856SOL     OW18466   1.770   5.060   3.488
 5856SOL    HW118467   1.784   5.071   3.587
 5856SOL    HW218468   1.802   5.141   3.440
 5857SOL     OW18469   6.487   2.807   4.665
 5857SOL    HW118470   6.532   2.794   4.577
 5857SOL    HW218471   6.542   2.869   4.721
 5858SOL     OW18472   3.520   1.167   2.357
 5858SOL    HW118473   3.568   1.177   2.444
 5858SOL    HW218474   3.510   1.070   2.336
 5859SOL     OW18475   6.787   6.693   1.160
 5859SOL    HW118476   6.694   6.662   1.141
 5859SOL    HW218477   6.817   6.753   1.085
 5860SOL     OW18478   1.658   4.352   1.714
 5860SOL    HW118479   1.622   4.263   1.688
 5860SOL    HW218480   1.584   4.410   1.746
 5861SOL     OW18481   5.508   2.268   4.309
 5861SOL    HW118482   5.584   2.219   4.265
 5861SOL    HW218483   5.442   2.296   4.239
 5862SOL     OW18484   4.240   4.970   2.623
 5862SOL    HW118485   4.178   4.927   2.688
 5862SOL    HW218486   4.256   4.907   2.547
 5863SOL     OW18487   1.886   0.904   6.102
 5863SOL    HW118488   1.973   0.945   6.073
 5863SOL    HW218489   1.875   0.815   6.059
 5864SOL     OW18490   4.232   4.191   1.674
 5864SOL    HW118491   4.236   4.102   1.628
 5864SOL    HW218492   4.314   4.203   1.730
 5865SOL     OW18493   4.972   0.745   3.001
 5865SOL    HW118494   5.039   0.699   3.059
 5865SOL    HW218495   4.897   0.682   2.980
 5866SOL     OW18496   3.755   6.347   5.803
 5866SOL    HW118497   3.711   6.260   5.824
 5866SOL    HW218498   3.824   6.334   5.732
 5867SOL     OW18499   0.687   2.975   2.141
 5867SOL    HW118500   0.646   2.888   2.116
 5867SOL    HW218501   0.634   3.050   2.100
 5868SOL     OW18502   1.459   0.359   5.769
 5868SOL    HW118503   1.470   0.440   5.826
 5868SOL    HW218504   1.361   0.337   5.762
 5869SOL     OW18505   2.802   4.916   4.691
 5869SOL    HW118506   2.849   4.878   4.772
 5869SOL    HW218507   2.704   4.914   4.706
 5870SOL     OW18508   5.122   5.091   4.158
 5870SOL    HW118509   5.194   5.120   4.220
 5870SOL    HW218510   5.159   5.026   4.092
 5871SOL     OW18511   3.704   2.917   0.469
 5871SOL    HW118512   3.781   2.861   0.498
 5871SOL    HW218513   3.619   2.864   0.475
 5872SOL     OW18514   3.698   5.716   6.152
 5872SOL    HW118515   3.697   5.624   6.114
 5872SOL    HW218516   3.727   5.713   6.247
 5873SOL     OW18517   3.339   3.306   0.153
 5873SOL    HW118518   3.385   3.327   0.067
 5873SOL    HW218519   3.330   3.207   0.163
 5874SOL     OW18520   2.229   3.581   1.657
 5874SOL    HW118521   2.273   3.562   1.744
 5874SOL    HW218522   2.286   3.547   1.582
 5875SOL     OW18523   3.496   1.996   0.132
 5875SOL    HW118524   3.536   1.950   0.212
 5875SOL    HW218525   3.543   2.084   0.117
 5876SOL     OW18526   3.108   3.603   6.829
 5876SOL    HW118527   3.057   3.517   6.816
 5876SOL    HW218528   3.048   3.680   6.806
 5877SOL     OW18529   6.363   0.731   2.068
 5877SOL    HW118530   6.266   0.705   2.074
 5877SOL    HW218531   6.402   0.736   2.160
 5878SOL     OW18532   4.651   4.711   1.889
 5878SOL    HW118533   4.566   4.668   1.918
 5878SOL    HW218534   4.631   4.783   1.822
 5879SOL     OW18535   3.821   3.124   6.322
 5879SOL    HW118536   3.829   3.202   6.259
 5879SOL    HW218537   3.763   3.054   6.280
 5880SOL     OW18538   5.097   3.348   5.665
 5880SOL    HW118539   5.052   3.305   5.744
 5880SOL    HW218540   5.082   3.292   5.584
 5881SOL     OW18541   1.547   6.294   1.696
 5881SOL    HW118542   1.634   6.338   1.718
 5881SOL    HW218543   1.483   6.306   1.772
 5882SOL     OW18544   1.688   5.799   6.169
 5882SOL    HW118545   1.722   5.887   6.201
 5882SOL    HW218546   1.754   5.759   6.104
 5883SOL     OW18547   6.984   4.267   1.176
 5883SOL    HW118548   6.912   4.244   1.110
 5883SOL    HW218549   6.996   4.190   1.239
 5884SOL     OW18550   6.368   2.005   3.771
 5884SOL    HW118551   6.407   1.973   3.857
 5884SOL    HW218552   6.316   1.931   3.728
 5885SOL     OW18553   0.208   5.340   6.793
 5885SOL    HW118554   0.234   5.397   6.871
 5885SOL    HW218555   0.234   5.385   6.708
 5886SOL     OW18556   1.474   4.020   3.862
 5886SOL    HW118557   1.440   4.004   3.769
 5886SOL    HW218558   1.459   3.938   3.918
 5887SOL     OW18559   1.913   2.745   0.860
 5887SOL    HW118560   1.826   2.795   0.863
 5887SOL    HW218561   1.933   2.717   0.766
 5888SOL     OW18562   3.148   7.011   1.023
 5888SOL    HW118563   3.056   0.027   1.016
 5888SOL    HW218564   3.181   7.018   1.117
 5889SOL     OW18565   6.788   0.984   1.528
 5889SOL    HW118566   6.827   0.902   1.487
 5889SOL    HW218567   6.726   0.959   1.603
 5890SOL     OW18568   2.944   6.397   2.393
 5890SOL    HW118569   2.860   6.346   2.410
 5890SOL    HW218570   2.934   6.490   2.429
 5891SOL     OW18571   2.492   3.544   0.545
 5891SOL    HW118572   2.465   3.593   0.462
 5891SOL    HW218573   2.564   3.477   0.522
 5892SOL     OW18574   0.857   3.513   0.907
 5892SOL    HW118575   0.873   3.585   0.839
 5892SOL    HW218576   0.846   3.425   0.861
 5893SOL     OW18577   0.642   5.627   2.274
 5893SOL    HW118578   0.624   5.655   2.368
 5893SOL    HW218579   0.652   5.707   2.216
 5894SOL     OW18580   2.208   5.467   6.085
 5894SOL    HW118581   2.167   5.509   6.004
 5894SOL    HW218582   2.149   5.481   6.164
 5895SOL     OW18583   5.429   2.740   4.573
 5895SOL    HW118584   5.492   2.684   4.627
 5895SOL    HW218585   5.335   2.710   4.590
 5896SOL     OW18586   5.856   2.630   2.075
 5896SOL    HW118587   5.788   2.699   2.103
 5896SOL    HW218588   5.812   2.564   2.013
 5897SOL     OW18589   4.583   1.972   0.946
 5897SOL    HW118590   4.592   1.917   0.863
 5897SOL    HW218591   4.626   1.924   1.022
 5898SOL     OW18592   2.108   1.447   5.119
 5898SOL    HW118593   2.065   1.397   5.195
 5898SOL    HW218594   2.194   1.402   5.095
 5899SOL     OW18595   6.759   5.186   5.748
 5899SOL    HW118596   6.795   5.149   5.662
 5899SOL    HW218597   6.833   5.227   5.800
 5900SOL     OW18598   6.064   6.296   3.253
 5900SOL    HW118599   6.149   6.252   3.281
 5900SOL    HW218600   6.084   6.371   3.190
 5901SOL     OW18601   1.850   0.333   5.650
 5901SOL    HW118602   1.867   0.235   5.660
 5901SOL    HW218603   1.888   0.381   5.729
 5902SOL     OW18604   5.195   4.586   5.201
 5902SOL    HW118605   5.270   4.523   5.179
 5902SOL    HW218606   5.108   4.535   5.201
 5903SOL     OW18607   6.340   1.784   6.222
 5903SOL    HW118608   6.333   1.709   6.156
 5903SOL    HW218609   6.343   1.871   6.173
 5904SOL     OW18610   2.414   4.334   2.332
 5904SOL    HW118611   2.402   4.303   2.426
 5904SOL    HW218612   2.347   4.290   2.273
 5905SOL     OW18613   6.357   1.359   4.430
 5905SOL    HW118614   6.269   1.312   4.428
 5905SOL    HW218615   6.369   1.404   4.519
 5906SOL     OW18616   4.793   0.517   5.043
 5906SOL    HW118617   4.794   0.582   5.119
 5906SOL    HW218618   4.837   0.432   5.071
 5907SOL     OW18619   1.661   3.036   6.868
 5907SOL    HW118620   1.741   3.095   6.856
 5907SOL    HW218621   1.687   2.941   6.851
 5908SOL     OW18622   4.615   3.201   6.152
 5908SOL    HW118623   4.678   3.267   6.194
 5908SOL    HW218624   4.666   3.135   6.098
 5909SOL     OW18625   6.878   5.154   4.341
 5909SOL    HW118626   6.926   5.073   4.373
 5909SOL    HW218627   6.900   5.170   4.245
 5910SOL     OW18628   2.193   4.037   1.342
 5910SOL    HW118629   2.126   3.976   1.385
 5910SOL    HW218630   2.260   3.982   1.291
 5911SOL     OW18631   6.442   6.398   6.162
 5911SOL    HW118632   6.372   6.428   6.226
 5911SOL    HW218633   6.402   6.388   6.071
 5912SOL     OW18634   6.774   3.609   6.819
 5912SOL    HW118635   6.825   3.590   6.735
 5912SOL    HW218636   6.723   3.694   6.809
 5913SOL     OW18637   1.931   1.495   6.075
 5913SOL    HW118638   1.969   1.577   6.033
 5913SOL    HW218639   1.952   1.415   6.018
 5914SOL     OW18640   1.736   6.299   0.153
 5914SOL    HW118641   1.717   6.388   0.112
 5914SOL    HW218642   1.748   6.231   0.080
 5915SOL     OW18643   4.801   2.652   2.605
 5915SOL    HW118644   4.806   2.623   2.510
 5915SOL    HW218645   4.857   2.733   2.619
 5916SOL     OW18646   3.872   0.339   5.904
 5916SOL    HW118647   3.841   0.373   5.815
 5916SOL    HW218648   3.822   0.386   5.977
 5917SOL     OW18649   2.941   3.704   3.369
 5917SOL    HW118650   2.845   3.727   3.382
 5917SOL    HW218651   2.980   3.762   3.297
 5918SOL     OW18652   2.184   3.299   4.248
 5918SOL    HW118653   2.142   3.309   4.338
 5918SOL    HW218654   2.215   3.205   4.235
 5919SOL     OW18655   1.485   3.264   6.636
 5919SOL    HW118656   1.405   3.313   6.601
 5919SOL    HW218657   1.478   3.254   6.735
 5920SOL     OW18658   3.620   6.741   7.008
 5920SOL    HW118659   3.660   6.819   6.961
 5920SOL    HW218660   3.523   6.756   0.001
 5921SOL     OW18661   3.976   4.827   5.040
 5921SOL    HW118662   4.060   4.798   4.994
 5921SOL    HW218663   3.903   4.838   4.974
 5922SOL     OW18664   5.928   4.236   2.426
 5922SOL    HW118665   5.939   4.308   2.494
 5922SOL    HW218666   5.945   4.147   2.467
 5923SOL     OW18667   0.132   6.939   3.839
 5923SOL    HW118668   0.219   6.896   3.815
 5923SOL    HW218669   0.103   7.000   3.765
 5924SOL     OW18670   5.289   2.367   4.479
 5924SOL    HW118671   5.381   2.369   4.440
 5924SOL    HW218672   5.284   2.299   4.551
 5925SOL     OW18673   5.848   6.117   1.049
 5925SOL    HW118674   5.815   6.053   0.980
 5925SOL    HW218675   5.786   6.116   1.128
 5926SOL     OW18676   3.608   5.027   1.480
 5926SOL    HW118677   3.515   5.051   1.507
 5926SOL    HW218678   3.606   4.949   1.417
 5927SOL     OW18679   3.074   5.770   2.447
 5927SOL    HW118680   3.122   5.743   2.531
 5927SOL    HW218681   3.141   5.802   2.380
 5928SOL     OW18682   1.328   6.985   2.341
 5928SOL    HW118683   1.357   0.060   2.343
 5928SOL    HW218684   1.384   6.933   2.406
 5929SOL     OW18685   1.247   6.874   6.338
 5929SOL    HW118686   1.260   6.828   6.250
 5929SOL    HW218687   1.257   6.972   6.326
 5930SOL     OW18688   6.782   1.423   4.543
 5930SOL    HW118689   6.743   1.461   4.459
 5930SOL    HW218690   6.882   1.432   4.541
 5931SOL     OW18691   6.649   5.661   1.210
 5931SOL    HW118692   6.685   5.711   1.131
 5931SOL    HW218693   6.717   5.663   1.284
 5932SOL     OW18694   3.040   0.105   0.718
 5932SOL    HW118695   3.090   0.110   0.804
 5932SOL    HW218696   2.991   0.018   0.712
 5933SOL     OW18697   6.520   3.872   3.090
 5933SOL    HW118698   6.532   3.796   3.154
 5933SOL    HW218699   6.607   3.922   3.082
 5934SOL     OW18700   3.786   3.607   2.792
 5934SOL    HW118701   3.733   3.522   2.801
 5934SOL    HW218702   3.808   3.642   2.883
 5935SOL     OW18703   4.108   3.508   4.109
 5935SOL    HW118704   4.135   3.482   4.016
 5935SOL    HW218705   4.038   3.444   4.142
 5936SOL     OW18706   5.038   5.628   6.362
 5936SOL    HW118707   5.092   5.549   6.333
 5936SOL    HW218708   5.053   5.645   6.459
 5937SOL     OW18709   1.954   3.429   1.112
 5937SOL    HW118710   1.856   3.413   1.106
 5937SOL    HW218711   2.001   3.378   1.039
 5938SOL     OW18712   1.692   4.350   2.480
 5938SOL    HW118713   1.705   4.449   2.491
 5938SOL    HW218714   1.594   4.332   2.467
 5939SOL     OW18715   3.718   6.996   3.019
 5939SOL    HW118716   3.668   6.926   3.070
 5939SOL    HW218717   3.682   0.065   3.043
 5940SOL     OW18718   4.036   6.054   2.953
 5940SOL    HW118719   3.950   6.031   2.907
 5940SOL    HW218720   4.061   6.148   2.930
 5941SOL     OW18721   6.240   4.824   2.345
 5941SOL    HW118722   6.272   4.918   2.361
 5941SOL    HW218723   6.204   4.817   2.252
 5942SOL     OW18724   4.446   2.985   6.085
 5942SOL    HW118725   4.486   3.013   6.173
 5942SOL    HW218726   4.455   2.886   6.075
 5943SOL     OW18727   1.393   6.053   0.358
 5943SOL    HW118728   1.368   6.016   0.448
 5943SOL    HW218729   1.473   6.113   0.368
 5944SOL     OW18730   5.370   1.850   2.557
 5944SOL    HW118731   5.416   1.924   2.507
 5944SOL    HW218732   5.382   1.864   2.655
 5945SOL     OW18733   6.579   4.951   5.866
 5945SOL    HW118734   6.619   4.884   5.803
 5945SOL    HW218735   6.542   5.028   5.813
 5946SOL     OW18736   4.506   3.069   5.298
 5946SOL    HW118737   4.455   2.983   5.300
 5946SOL    HW218738   4.597   3.055   5.338
 5947SOL     OW18739   4.336   3.589   1.717
 5947SOL    HW118740   4.414   3.651   1.708
 5947SOL    HW218741   4.268   3.629   1.777
 5948SOL     OW18742   3.542   4.951   2.374
 5948SOL    HW118743   3.480   4.873   2.361
 5948SOL    HW218744   3.629   4.918   2.411
 5949SOL     OW18745   4.567   4.679   1.444
 5949SOL    HW118746   4.527   4.744   1.509
 5949SOL    HW218747   4.521   4.591   1.453
 5950SOL     OW18748   6.635   2.561   4.109
 5950SOL    HW118749   6.664   2.467   4.127
 5950SOL    HW218750   6.542   2.561   4.073
 5951SOL     OW18751   2.172   5.657   3.622
 5951SOL    HW118752   2.164   5.568   3.666
 5951SOL    HW218753   2.113   5.660   3.542
 5952SOL     OW18754   0.106   6.623   4.262
 5952SOL    HW118755   0.077   6.637   4.356
 5952SOL    HW218756   0.035   6.655   4.199
 5953SOL     OW18757   6.942   3.117   6.553
 5953SOL    HW118758   6.850   3.103   6.587
 5953SOL    HW218759   6.940   3.124   6.453
 5954SOL     OW18760   0.178   4.893   6.643
 5954SOL    HW118761   0.120   4.811   6.640
 5954SOL    HW218762   0.271   4.867   6.670
 5955SOL     OW18763   4.877   5.225   1.635
 5955SOL    HW118764   4.808   5.212   1.707
 5955SOL    HW218765   4.967   5.233   1.677
 5956SOL     OW18766   5.500   2.278   6.892
 5956SOL    HW118767   5.456   2.314   6.809
 5956SOL    HW218768   5.571   2.341   6.923
 5957SOL     OW18769   5.880   6.185   6.242
 5957SOL    HW118770   5.957   6.134   6.282
 5957SOL    HW218771   5.863   6.152   6.149
 5958SOL     OW18772   6.697   5.489   1.984
 5958SOL    HW118773   6.627   5.424   1.956
 5958SOL    HW218774   6.656   5.561   2.039
 5959SOL     OW18775   2.042   1.749   6.013
 5959SOL    HW118776   2.136   1.723   5.990
 5959SOL    HW218777   2.025   1.841   5.978
 5960SOL     OW18778   3.308   0.441   3.602
 5960SOL    HW118779   3.348   0.389   3.678
 5960SOL    HW218780   3.213   0.412   3.588
 5961SOL     OW18781   3.011   0.942   5.475
 5961SOL    HW118782   3.067   1.001   5.418
 5961SOL    HW218783   2.969   0.871   5.419
 5962SOL     OW18784   5.246   5.307   2.493
 5962SOL    HW118785   5.186   5.253   2.433
 5962SOL    HW218786   5.338   5.310   2.453
 5963SOL     OW18787   4.013   3.863   2.332
 5963SOL    HW118788   4.022   3.788   2.397
 5963SOL    HW218789   4.053   3.946   2.372
 5964SOL     OW18790   0.438   5.150   5.416
 5964SOL    HW118791   0.528   5.106   5.409
 5964SOL    HW218792   0.408   5.150   5.512
 5965SOL     OW18793   2.654   2.492   5.627
 5965SOL    HW118794   2.651   2.565   5.696
 5965SOL    HW218795   2.676   2.405   5.671
 5966SOL     OW18796   3.021   5.752   4.216
 5966SOL    HW118797   3.002   5.783   4.124
 5966SOL    HW218798   2.942   5.770   4.275
 5967SOL     OW18799   4.611   6.757   2.450
 5967SOL    HW118800   4.708   6.763   2.426
 5967SOL    HW218801   4.600   6.772   2.548
 5968SOL     OW18802   6.818   2.555   3.814
 5968SOL    HW118803   6.724   2.544   3.780
 5968SOL    HW218804   6.834   2.493   3.890
 5969SOL     OW18805   5.884   3.703   3.445
 5969SOL    HW118806   5.897   3.801   3.430
 5969SOL    HW218807   5.801   3.673   3.397
 5970SOL     OW18808   1.257   3.324   2.867
 5970SOL    HW118809   1.221   3.237   2.833
 5970SOL    HW218810   1.238   3.331   2.965
 5971SOL     OW18811   2.221   6.947   2.428
 5971SOL    HW118812   2.122   6.938   2.422
 5971SOL    HW218813   2.255   7.000   2.350
 5972SOL     OW18814   4.970   6.467   0.410
 5972SOL    HW118815   4.986   6.549   0.464
 5972SOL    HW218816   4.873   6.458   0.390
 5973SOL     OW18817   1.211   4.688   3.321
 5973SOL    HW118818   1.272   4.609   3.324
 5973SOL    HW218819   1.133   4.667   3.263
 5974SOL     OW18820   0.274   3.905   0.199
 5974SOL    HW118821   0.333   3.829   0.226
 5974SOL    HW218822   0.329   3.989   0.193
 5975SOL     OW18823   2.702   2.806   0.862
 5975SOL    HW118824   2.610   2.775   0.840
 5975SOL    HW218825   2.697   2.899   0.899
 5976SOL     OW18826   2.946   3.252   4.841
 5976SOL    HW118827   2.951   3.316   4.765
 5976SOL    HW218828   2.872   3.280   4.903
 5977SOL     OW18829   1.040   3.942   2.450
 5977SOL    HW118830   1.091   4.019   2.488
 5977SOL    HW218831   1.028   3.871   2.519
 5978SOL     OW18832   5.595   4.996   1.666
 5978SOL    HW118833   5.515   4.958   1.712
 5978SOL    HW218834   5.665   4.925   1.657
 5979SOL     OW18835   6.796   0.774   3.371
 5979SOL    HW118836   6.746   0.688   3.386
 5979SOL    HW218837   6.888   0.766   3.410
 5980SOL     OW18838   6.095   3.903   0.390
 5980SOL    HW118839   6.052   3.976   0.444
 5980SOL    HW218840   6.174   3.868   0.440
 5981SOL     OW18841   5.266   1.172   2.291
 5981SOL    HW118842   5.208   1.201   2.368
 5981SOL    HW218843   5.294   1.251   2.238
 5982SOL     OW18844   6.735   1.762   6.360
 5982SOL    HW118845   6.704   1.809   6.277
 5982SOL    HW218846   6.821   1.802   6.391
 5983SOL     OW18847   1.715   0.989   4.215
 5983SOL    HW118848   1.647   1.061   4.235
 5983SOL    HW218849   1.796   1.004   4.272
 5984SOL     OW18850   0.158   6.491   5.049
 5984SOL    HW118851   0.139   6.413   5.109
 5984SOL    HW218852   0.071   6.532   5.020
 5985SOL     OW18853   4.418   1.799   4.311
 5985SOL    HW118854   4.324   1.824   4.289
 5985SOL    HW218855   4.478   1.826   4.236
 5986SOL     OW18856   3.402   2.844   2.573
 5986SOL    HW118857   3.394   2.762   2.517
 5986SOL    HW218858   3.492   2.885   2.559
 5987SOL     OW18859   3.930   6.574   4.932
 5987SOL    HW118860   3.985   6.627   4.868
 5987SOL    HW218861   3.928   6.620   5.021
 5988SOL     OW18862   4.092   6.720   4.191
 5988SOL    HW118863   4.165   6.666   4.233
 5988SOL    HW218864   4.003   6.688   4.224
 5989SOL     OW18865   2.933   0.634   5.814
 5989SOL    HW118866   2.866   0.604   5.882
 5989SOL    HW218867   2.888   0.690   5.745
 5990SOL     OW18868   3.214   4.757   1.420
 5990SOL    HW118869   3.139   4.761   1.486
 5990SOL    HW218870   3.269   4.840   1.426
 5991SOL     OW18871   2.882   5.211   4.788
 5991SOL    HW118872   2.970   5.254   4.768
 5991SOL    HW218873   2.896   5.117   4.817
 5992SOL     OW18874   4.420   0.438   3.777
 5992SOL    HW118875   4.456   0.518   3.730
 5992SOL    HW218876   4.356   0.390   3.717
 5993SOL     OW18877   2.664   6.025   5.081
 5993SOL    HW118878   2.701   5.950   5.135
 5993SOL    HW218879   2.632   6.098   5.142
 5994SOL     OW18880   6.507   2.356   2.747
 5994SOL    HW118881   6.438   2.285   2.753
 5994SOL    HW218882   6.488   2.427   2.815
 5995SOL     OW18883   0.124   4.814   1.170
 5995SOL    HW118884   0.120   4.740   1.103
 5995SOL    HW218885   0.102   4.901   1.126
 5996SOL     OW18886   6.964   5.067   5.570
 5996SOL    HW118887   6.883   5.093   5.519
 5996SOL    HW218888   6.973   4.967   5.569
 5997SOL     OW18889   0.801   6.883   2.323
 5997SOL    HW118890   0.765   6.804   2.274
 5997SOL    HW218891   0.861   6.852   2.397
 5998SOL     OW18892   5.532   2.235   2.677
 5998SOL    HW118893   5.534   2.333   2.697
 5998SOL    HW218894   5.454   2.214   2.619
 5999SOL     OW18895   1.015   1.782   2.530
 5999SOL    HW118896   0.966   1.784   2.617
 5999SOL    HW218897   1.096   1.840   2.536
 6000SOL     OW18898   4.587   5.774   2.144
 6000SOL    HW118899   4.613   5.783   2.240
 6000SOL    HW218900   4.618   5.855   2.094
 6001SOL     OW18901   6.972   2.109   6.632
 6001SOL    HW118902   6.989   2.174   6.706
 6001SOL    HW218903   6.874   2.088   6.628
 6002SOL     OW18904   2.142   0.487   1.831
 6002SOL    HW118905   2.077   0.446   1.767
 6002SOL    HW218906   2.130   0.586   1.832
 6003SOL     OW18907   4.879   4.197   4.965
 6003SOL    HW118908   4.800   4.189   5.025
 6003SOL    HW218909   4.867   4.136   4.886
 6004SOL     OW18910   0.307   3.310   2.465
 6004SOL    HW118911   0.214   3.345   2.475
 6004SOL    HW218912   0.348   3.347   2.382
 6005SOL     OW18913   2.739   5.847   2.881
 6005SOL    HW118914   2.817   5.797   2.919
 6005SOL    HW218915   2.723   5.931   2.934
 6006SOL     OW18916   2.424   6.640   6.493
 6006SOL    HW118917   2.488   6.710   6.460
 6006SOL    HW218918   2.471   6.578   6.554
 6007SOL     OW18919   5.991   2.526   4.332
 6007SOL    HW118920   5.899   2.507   4.300
 6007SOL    HW218921   5.987   2.591   4.408
 6008SOL     OW18922   2.946   4.464   6.484
 6008SOL    HW118923   2.967   4.475   6.387
 6008SOL    HW218924   3.025   4.426   6.532
 6009SOL     OW18925   2.841   1.906   4.511
 6009SOL    HW118926   2.861   1.911   4.609
 6009SOL    HW218927   2.771   1.975   4.488
 6010SOL     OW18928   1.708   4.010   3.144
 6010SOL    HW118929   1.757   3.931   3.109
 6010SOL    HW218930   1.673   3.991   3.235
 6011SOL     OW18931   4.996   3.343   2.598
 6011SOL    HW118932   4.960   3.432   2.627
 6011SOL    HW218933   4.999   3.281   2.676
 6012SOL     OW18934   6.711   3.185   0.749
 6012SOL    HW118935   6.659   3.229   0.823
 6012SOL    HW218936   6.650   3.167   0.672
 6013SOL     OW18937   5.476   0.921   2.564
 6013SOL    HW118938   5.419   0.872   2.498
 6013SOL    HW218939   5.422   0.994   2.606
 6014SOL     OW18940   6.179   0.471   0.498
 6014SOL    HW118941   6.163   0.387   0.446
 6014SOL    HW218942   6.117   0.474   0.577
 6015SOL     OW18943   6.186   1.752   4.166
 6015SOL    HW118944   6.101   1.758   4.219
 6015SOL    HW218945   6.174   1.799   4.079
 6016SOL     OW18946   2.060   0.657   5.057
 6016SOL    HW118947   2.081   0.707   5.142
 6016SOL    HW218948   2.045   0.561   5.078
 6017SOL     OW18949   6.554   5.398   3.038
 6017SOL    HW118950   6.551   5.311   3.087
 6017SOL    HW218951   6.537   5.383   2.941
 6018SOL     OW18952   2.555   3.649   0.829
 6018SOL    HW118953   2.651   3.650   0.858
 6018SOL    HW218954   2.549   3.611   0.736
 6019SOL     OW18955   3.735   0.447   4.237
 6019SOL    HW118956   3.661   0.380   4.223
 6019SOL    HW218957   3.746   0.464   4.335
 6020SOL     OW18958   3.792   0.772   2.693
 6020SOL    HW118959   3.774   0.801   2.787
 6020SOL    HW218960   3.706   0.762   2.644
 6021SOL     OW18961   4.356   1.194   2.217
 6021SOL    HW118962   4.436   1.239   2.178
 6021SOL    HW218963   4.273   1.239   2.184
 6022SOL     OW18964   4.339   1.428   3.746
 6022SOL    HW118965   4.368   1.336   3.721
 6022SOL    HW218966   4.415   1.492   3.732
 6023SOL     OW18967   0.313   1.321   2.689
 6023SOL    HW118968   0.291   1.276   2.603
 6023SOL    HW218969   0.261   1.406   2.697
 6024SOL     OW18970   0.569   4.802   1.917
 6024SOL    HW118971   0.618   4.889   1.924
 6024SOL    HW218972   0.631   4.731   1.882
 6025SOL     OW18973   4.664   1.683   1.185
 6025SOL    HW118974   4.662   1.651   1.090
 6025SOL    HW218975   4.732   1.756   1.194
 6026SOL     OW18976   6.895   4.641   5.206
 6026SOL    HW118977   6.874   4.546   5.229
 6026SOL    HW218978   6.969   4.673   5.265
 6027SOL     OW18979   3.091   3.424   0.061
 6027SOL    HW118980   3.043   3.384   7.004
 6027SOL    HW218981   3.184   3.388   0.065
 6028SOL     OW18982   1.165   3.232   0.260
 6028SOL    HW118983   1.238   3.208   0.324
 6028SOL    HW218984   1.081   3.250   0.311
 6029SOL     OW18985   2.052   6.142   1.385
 6029SOL    HW118986   1.954   6.161   1.379
 6029SOL    HW218987   2.066   6.053   1.429
 6030SOL     OW18988   1.711   0.657   1.627
 6030SOL    HW118989   1.617   0.681   1.651
 6030SOL    HW218990   1.775   0.702   1.690
 6031SOL     OW18991   5.016   6.869   5.373
 6031SOL    HW118992   5.025   6.848   5.275
 6031SOL    HW218993   5.081   6.813   5.425
 6032SOL     OW18994   0.829   3.013   2.780
 6032SOL    HW118995   0.894   2.972   2.716
 6032SOL    HW218996   0.743   2.963   2.777
 6033SOL     OW18997   0.967   1.051   4.088
 6033SOL    HW118998   0.893   1.023   4.028
 6033SOL    HW218999   0.987   1.148   4.075
 6034SOL     OW19000   1.709   4.053   4.913
 6034SOL    HW119001   1.807   4.046   4.932
 6034SOL    HW219002   1.659   3.988   4.970
 6035SOL     OW19003   6.084   0.590   4.028
 6035SOL    HW119004   6.020   0.585   3.951
 6035SOL    HW219005   6.172   0.624   3.996
 6036SOL     OW19006   0.679   6.127   5.286
 6036SOL    HW119007   0.751   6.164   5.227
 6036SOL    HW219008   0.595   6.180   5.273
 6037SOL     OW19009   6.143   5.941   4.730
 6037SOL    HW119010   6.044   5.946   4.721
 6037SOL    HW219011   6.167   5.877   4.803
 6038SOL     OW19012   5.888   3.560   6.060
 6038SOL    HW119013   5.825   3.532   6.133
 6038SOL    HW219014   5.840   3.620   5.996
 6039SOL     OW19015   3.355   3.234   2.381
 6039SOL    HW119016   3.304   3.309   2.340
 6039SOL    HW219017   3.295   3.155   2.391
 6040SOL     OW19018   0.156   1.896   0.182
 6040SOL    HW119019   0.171   1.963   0.255
 6040SOL    HW219020   0.060   1.869   0.181
 6041SOL     OW19021   1.380   2.478   6.985
 6041SOL    HW119022   1.416   2.385   6.995
 6041SOL    HW219023   1.421   2.537   0.033
 6042SOL     OW19024   4.622   5.314   3.262
 6042SOL    HW119025   4.533   5.339   3.300
 6042SOL    HW219026   4.642   5.372   3.183
 6043SOL     OW19027   0.928   4.518   4.585
 6043SOL    HW119028   0.959   4.428   4.555
 6043SOL    HW219029   0.916   4.518   4.684
 6044SOL     OW19030   0.802   0.911   1.338
 6044SOL    HW119031   0.749   0.965   1.272
 6044SOL    HW219032   0.899   0.925   1.323
 6045SOL     OW19033   6.818   3.937   2.161
 6045SOL    HW119034   6.760   3.894   2.230
 6045SOL    HW219035   6.902   3.972   2.204
 6046SOL     OW19036   3.075   2.197   0.562
 6046SOL    HW119037   3.060   2.286   0.606
 6046SOL    HW219038   3.121   2.211   0.475
 6047SOL     OW19039   6.319   0.019   4.333
 6047SOL    HW119040   6.339   6.978   4.408
 6047SOL    HW219041   6.220   0.022   4.317
 6048SOL     OW19042   4.354   6.647   5.060
 6048SOL    HW119043   4.406   6.715   5.009
 6048SOL    HW219044   4.332   6.570   4.999
 6049SOL     OW19045   6.107   4.520   0.131
 6049SOL    HW119046   6.050   4.513   0.213
 6049SOL    HW219047   6.191   4.467   0.144
 6050SOL     OW19048   4.395   4.934   5.475
 6050SOL    HW119049   4.468   4.892   5.529
 6050SOL    HW219050   4.325   4.970   5.537
 6051SOL     OW19051   1.517   1.932   2.636
 6051SOL    HW119052   1.540   2.028   2.622
 6051SOL    HW219053   1.578   1.875   2.581
 6052SOL     OW19054   6.995   1.251   0.892
 6052SOL    HW119055   0.050   1.307   0.861
 6052SOL    HW219056   6.911   1.305   0.891
 6053SOL     OW19057   1.767   6.595   6.704
 6053SOL    HW119058   1.796   6.566   6.795
 6053SOL    HW219059   1.847   6.624   6.651
 6054SOL     OW19060   2.127   4.219   0.299
 6054SOL    HW119061   2.054   4.182   0.241
 6054SOL    HW219062   2.204   4.247   0.241
 6055SOL     OW19063   5.008   0.950   4.926
 6055SOL    HW119064   4.941   0.976   4.995
 6055SOL    HW219065   5.038   1.030   4.875
 6056SOL     OW19066   4.645   1.910   6.753
 6056SOL    HW119067   4.679   1.902   6.846
 6056SOL    HW219068   4.623   2.006   6.734
 6057SOL     OW19069   3.015   1.047   5.058
 6057SOL    HW119070   3.067   1.031   4.974
 6057SOL    HW219071   3.044   1.134   5.098
 6058SOL     OW19072   5.754   2.301   3.922
 6058SOL    HW119073   5.766   2.259   3.832
 6058SOL    HW219074   5.659   2.333   3.931
 6059SOL     OW19075   5.865   4.454   6.985
 6059SOL    HW119076   5.792   4.514   7.017
 6059SOL    HW219077   5.894   4.393   0.037
 6060SOL     OW19078   4.210   5.593   5.879
 6060SOL    HW119079   4.146   5.576   5.954
 6060SOL    HW219080   4.227   5.691   5.872
 6061SOL     OW19081   3.152   1.848   6.345
 6061SOL    HW119082   3.203   1.819   6.426
 6061SOL    HW219083   3.074   1.786   6.330
 6062SOL     OW19084   1.958   0.500   4.579
 6062SOL    HW119085   1.953   0.431   4.507
 6062SOL    HW219086   1.866   0.534   4.600
 6063SOL     OW19087   4.150   0.368   6.542
 6063SOL    HW119088   4.137   0.464   6.517
 6063SOL    HW219089   4.096   0.311   6.480
 6064SOL     OW19090   1.320   5.577   3.568
 6064SOL    HW119091   1.278   5.662   3.537
 6064SOL    HW219092   1.250   5.509   3.586
 6065SOL     OW19093   6.837   0.118   0.385
 6065SOL    HW119094   6.841   0.208   0.429
 6065SOL    HW219095   6.821   0.129   0.287
 6066SOL     OW19096   4.269   2.540   0.549
 6066SOL    HW119097   4.187   2.483   0.538
 6066SOL    HW219098   4.308   2.558   0.459
 6067SOL     OW19099   6.298   1.456   6.615
 6067SOL    HW119100   6.267   1.461   6.519
 6067SOL    HW219101   6.279   1.365   6.651
 6068SOL     OW19102   4.478   2.497   4.546
 6068SOL    HW119103   4.527   2.550   4.614
 6068SOL    HW219104   4.381   2.491   4.571
 6069SOL     OW19105   6.906   4.457   4.879
 6069SOL    HW119106   6.904   4.554   4.903
 6069SOL    HW219107   6.822   4.434   4.829
 6070SOL     OW19108   4.002   2.522   5.897
 6070SOL    HW119109   4.012   2.469   5.982
 6070SOL    HW219110   4.071   2.594   5.894
 6071SOL     OW19111   3.789   6.395   5.518
 6071SOL    HW119112   3.801   6.494   5.513
 6071SOL    HW219113   3.876   6.351   5.495
 6072SOL     OW19114   0.086   2.232   1.497
 6072SOL    HW119115   0.060   2.136   1.510
 6072SOL    HW219116   0.046   2.266   1.412
 6073SOL     OW19117   6.287   2.518   0.625
 6073SOL    HW119118   6.238   2.432   0.613
 6073SOL    HW219119   6.235   2.578   0.686
 6074SOL     OW19120   0.708   6.826   5.027
 6074SOL    HW119121   0.615   6.828   4.991
 6074SOL    HW219122   0.732   6.732   5.051
 6075SOL     OW19123   5.584   3.966   0.290
 6075SOL    HW119124   5.621   3.962   0.197
 6075SOL    HW219125   5.631   3.900   0.347
 6076SOL     OW19126   1.930   5.698   4.281
 6076SOL    HW119127   1.979   5.620   4.243
 6076SOL    HW219128   1.832   5.682   4.276
 6077SOL     OW19129   6.100   6.283   2.033
 6077SOL    HW119130   6.156   6.364   2.013
 6077SOL    HW219131   6.085   6.277   2.132
 6078SOL     OW19132   2.674   4.627   4.027
 6078SOL    HW119133   2.687   4.688   3.949
 6078SOL    HW219134   2.597   4.565   4.008
 6079SOL     OW19135   2.655   1.831   6.545
 6079SOL    HW119136   2.677   1.831   6.642
 6079SOL    HW219137   2.641   1.925   6.514
 6080SOL     OW19138   5.919   2.431   1.811
 6080SOL    HW119139   5.913   2.336   1.840
 6080SOL    HW219140   5.832   2.477   1.826
 6081SOL     OW19141   6.798   3.385   3.655
 6081SOL    HW119142   6.787   3.373   3.754
 6081SOL    HW219143   6.709   3.391   3.611
 6082SOL     OW19144   4.249   1.332   3.239
 6082SOL    HW119145   4.343   1.366   3.230
 6082SOL    HW219146   4.201   1.383   3.310
 6083SOL     OW19147   1.503   6.329   6.729
 6083SOL    HW119148   1.424   6.271   6.709
 6083SOL    HW219149   1.476   6.425   6.725
 6084SOL     OW19150   0.043   5.502   5.735
 6084SOL    HW119151   0.011   5.596   5.727
 6084SOL    HW219152   0.036   5.456   5.647
 6085SOL     OW19153   5.467   3.673   0.416
 6085SOL    HW119154   5.497   3.672   0.321
 6085SOL    HW219155   5.521   3.606   0.468
 6086SOL     OW19156   3.240   1.948   4.250
 6086SOL    HW119157   3.293   2.033   4.241
 6086SOL    HW219158   3.196   1.927   4.162
 6087SOL     OW19159   5.867   6.398   6.583
 6087SOL    HW119160   5.942   6.337   6.558
 6087SOL    HW219161   5.895   6.455   6.660
 6088SOL     OW19162   1.054   0.162   5.171
 6088SOL    HW119163   1.046   0.065   5.146
 6088SOL    HW219164   1.013   0.218   5.099
 6089SOL     OW19165   6.841   3.410   1.022
 6089SOL    HW119166   6.775   3.468   0.974
 6089SOL    HW219167   6.868   3.453   1.108
 6090SOL     OW19168   1.111   5.034   4.975
 6090SOL    HW119169   1.095   4.963   5.044
 6090SOL    HW219170   1.023   5.072   4.946
 6091SOL     OW19171   6.638   1.883   2.012
 6091SOL    HW119172   6.674   1.975   2.027
 6091SOL    HW219173   6.624   1.868   1.914
 6092SOL     OW19174   1.873   1.795   2.324
 6092SOL    HW119175   1.873   1.859   2.248
 6092SOL    HW219176   1.910   1.707   2.294
 6093SOL     OW19177   1.330   2.640   1.210
 6093SOL    HW119178   1.398   2.639   1.136
 6093SOL    HW219179   1.264   2.567   1.196
 6094SOL     OW19180   1.003   1.193   1.653
 6094SOL    HW119181   1.077   1.179   1.586
 6094SOL    HW219182   0.945   1.111   1.656
 6095SOL     OW19183   6.092   3.247   6.377
 6095SOL    HW119184   6.134   3.230   6.288
 6095SOL    HW219185   6.076   3.345   6.388
 6096SOL     OW19186   4.067   2.192   3.646
 6096SOL    HW119187   4.112   2.150   3.568
 6096SOL    HW219188   3.969   2.203   3.627
 6097SOL     OW19189   2.654   1.824   2.515
 6097SOL    HW119190   2.589   1.897   2.540
 6097SOL    HW219191   2.613   1.735   2.535
 6098SOL     OW19192   1.906   2.548   5.900
 6098SOL    HW119193   1.849   2.603   5.961
 6098SOL    HW219194   1.861   2.537   5.812
 6099SOL     OW19195   6.222   6.270   5.237
 6099SOL    HW119196   6.154   6.238   5.170
 6099SOL    HW219197   6.311   6.277   5.192
 6100SOL     OW19198   6.595   2.637   6.984
 6100SOL    HW119199   6.549   2.567   6.930
 6100SOL    HW219200   6.567   2.629   0.058
 6101SOL     OW19201   6.868   1.144   5.486
 6101SOL    HW119202   6.875   1.188   5.396
 6101SOL    HW219203   6.783   1.092   5.491
 6102SOL     OW19204   3.080   0.534   4.497
 6102SOL    HW119205   3.129   0.621   4.497
 6102SOL    HW219206   3.024   0.527   4.415
 6103SOL     OW19207   6.336   6.872   5.380
 6103SOL    HW119208   6.243   6.870   5.417
 6103SOL    HW219209   6.365   6.779   5.356
 6104SOL     OW19210   6.511   1.951   6.754
 6104SOL    HW119211   6.492   1.906   6.668
 6104SOL    HW219212   6.559   1.888   6.816
 6105SOL     OW19213   3.380   5.901   5.037
 6105SOL    HW119214   3.344   5.832   4.974
 6105SOL    HW219215   3.433   5.969   4.986
 6106SOL     OW19216   3.437   5.206   5.738
 6106SOL    HW119217   3.489   5.121   5.737
 6106SOL    HW219218   3.345   5.189   5.704
 6107SOL     OW19219   2.068   4.773   5.170
 6107SOL    HW119220   2.012   4.763   5.252
 6107SOL    HW219221   2.009   4.769   5.089
 6108SOL     OW19222   0.601   1.963   4.637
 6108SOL    HW119223   0.689   1.945   4.594
 6108SOL    HW219224   0.563   1.877   4.672
 6109SOL     OW19225   5.750   4.070   1.102
 6109SOL    HW119226   5.728   4.127   1.023
 6109SOL    HW219227   5.746   3.973   1.075
 6110SOL     OW19228   3.329   1.476   4.903
 6110SOL    HW119229   3.371   1.410   4.965
 6110SOL    HW219230   3.387   1.489   4.822
 6111SOL     OW19231   1.569   5.126   3.220
 6111SOL    HW119232   1.599   5.040   3.262
 6111SOL    HW219233   1.646   5.190   3.217
 6112SOL     OW19234   0.576   1.707   3.186
 6112SOL    HW119235   0.536   1.773   3.123
 6112SOL    HW219236   0.659   1.668   3.145
 6113SOL     OW19237   1.663   6.643   5.589
 6113SOL    HW119238   1.677   6.698   5.507
 6113SOL    HW219239   1.609   6.696   5.655
 6114SOL     OW19240   4.692   5.746   0.521
 6114SOL    HW119241   4.693   5.685   0.601
 6114SOL    HW219242   4.787   5.767   0.495
 6115SOL     OW19243   5.503   5.240   2.513
 6115SOL    HW119244   5.529   5.144   2.528
 6115SOL    HW219245   5.540   5.296   2.587
 6116SOL     OW19246   3.737   0.946   2.149
 6116SOL    HW119247   3.651   0.981   2.112
 6116SOL    HW219248   3.757   0.857   2.109
 6117SOL     OW19249   5.409   6.948   4.688
 6117SOL    HW119250   5.463   6.971   4.769
 6117SOL    HW219251   5.333   6.888   4.714
 6118SOL     OW19252   6.062   0.759   3.731
 6118SOL    HW119253   6.112   0.740   3.647
 6118SOL    HW219254   6.120   0.811   3.793
 6119SOL     OW19255   6.595   5.367   4.760
 6119SOL    HW119256   6.590   5.462   4.731
 6119SOL    HW219257   6.624   5.309   4.684
 6120SOL     OW19258   2.734   0.847   2.930
 6120SOL    HW119259   2.682   0.827   3.013
 6120SOL    HW219260   2.831   0.858   2.953
 6121SOL     OW19261   0.418   2.376   4.412
 6121SOL    HW119262   0.408   2.316   4.333
 6121SOL    HW219263   0.383   2.467   4.390
 6122SOL     OW19264   4.202   5.536   3.149
 6122SOL    HW119265   4.105   5.553   3.133
 6122SOL    HW219266   4.255   5.614   3.115
 6123SOL     OW19267   5.849   1.377   2.308
 6123SOL    HW119268   5.829   1.368   2.405
 6123SOL    HW219269   5.869   1.473   2.287
 6124SOL     OW19270   3.392   0.204   5.797
 6124SOL    HW119271   3.318   0.239   5.739
 6124SOL    HW219272   3.471   0.181   5.739
 6125SOL     OW19273   2.301   6.016   2.055
 6125SOL    HW119274   2.393   5.983   2.036
 6125SOL    HW219275   2.270   5.982   2.144
 6126SOL     OW19276   5.027   5.293   2.892
 6126SOL    HW119277   5.031   5.195   2.912
 6126SOL    HW219278   5.035   5.308   2.794
 6127SOL     OW19279   2.038   5.549   1.357
 6127SOL    HW119280   2.049   5.644   1.386
 6127SOL    HW219281   2.057   5.543   1.259
 6128SOL     OW19282   5.212   2.039   0.400
 6128SOL    HW119283   5.198   1.987   0.315
 6128SOL    HW219284   5.128   2.039   0.453
 6129SOL     OW19285   6.185   4.583   3.444
 6129SOL    HW119286   6.244   4.629   3.510
 6129SOL    HW219287   6.106   4.641   3.424
 6130SOL     OW19288   5.181   3.743   2.596
 6130SOL    HW119289   5.118   3.740   2.673
 6130SOL    HW219290   5.262   3.795   2.620
 6131SOL     OW19291   6.136   1.109   5.580
 6131SOL    HW119292   6.071   1.038   5.552
 6131SOL    HW219293   6.220   1.066   5.613
 6132SOL     OW19294   4.701   2.630   0.759
 6132SOL    HW119295   4.656   2.548   0.724
 6132SOL    HW219296   4.631   2.696   0.788
 6133SOL     OW19297   0.926   4.383   1.204
 6133SOL    HW119298   0.991   4.323   1.158
 6133SOL    HW219299   0.840   4.335   1.218
 6134SOL     OW19300   4.395   3.616   6.204
 6134SOL    HW119301   4.314   3.616   6.262
 6134SOL    HW219302   4.385   3.687   6.133
 6135SOL     OW19303   5.876   0.146   1.393
 6135SOL    HW119304   5.976   0.141   1.395
 6135SOL    HW219305   5.846   0.181   1.304
 6136SOL     OW19306   0.919   2.206   1.600
 6136SOL    HW119307   1.000   2.261   1.578
 6136SOL    HW219308   0.883   2.233   1.689
 6137SOL     OW19309   2.908   6.335   6.143
 6137SOL    HW119310   2.990   6.299   6.188
 6137SOL    HW219311   2.892   6.429   6.172
 6138SOL     OW19312   3.761   5.993   2.591
 6138SOL    HW119313   3.847   6.040   2.569
 6138SOL    HW219314   3.686   6.036   2.540
 6139SOL     OW19315   2.002   4.803   4.568
 6139SOL    HW119316   1.945   4.885   4.560
 6139SOL    HW219317   2.093   4.822   4.531
 6140SOL     OW19318   1.935   6.545   0.780
 6140SOL    HW119319   1.906   6.476   0.846
 6140SOL    HW219320   1.906   6.635   0.811
 6141SOL     OW19321   6.293   5.591   6.273
 6141SOL    HW119322   6.370   5.539   6.234
 6141SOL    HW219323   6.218   5.594   6.206
 6142SOL     OW19324   0.307   4.495   1.385
 6142SOL    HW119325   0.355   4.468   1.468
 6142SOL    HW219326   0.210   4.469   1.392
 6143SOL     OW19327   5.509   5.273   6.215
 6143SOL    HW119328   5.521   5.332   6.295
 6143SOL    HW219329   5.412   5.268   6.192
 6144SOL     OW19330   0.421   4.702   3.900
 6144SOL    HW119331   0.403   4.620   3.954
 6144SOL    HW219332   0.449   4.776   3.961
 6145SOL     OW19333   5.160   5.672   2.640
 6145SOL    HW119334   5.072   5.654   2.684
 6145SOL    HW219335   5.225   5.600   2.664
 6146SOL     OW19336   6.004   1.612   3.750
 6146SOL    HW119337   5.935   1.661   3.697
 6146SOL    HW219338   6.046   1.541   3.693
 6147SOL     OW19339   1.754   3.573   2.636
 6147SOL    HW119340   1.828   3.520   2.596
 6147SOL    HW219341   1.688   3.511   2.680
 6148SOL     OW19342   6.280   6.388   4.284
 6148SOL    HW119343   6.283   6.292   4.254
 6148SOL    HW219344   6.189   6.425   4.265
 6149SOL     OW19345   2.688   6.068   3.021
 6149SOL    HW119346   2.680   6.133   2.945
 6149SOL    HW219347   2.606   6.072   3.077
 6150SOL     OW19348   4.763   5.849   5.879
 6150SOL    HW119349   4.813   5.866   5.794
 6150SOL    HW219350   4.676   5.804   5.858
 6151SOL     OW19351   5.077   2.617   5.691
 6151SOL    HW119352   5.113   2.653   5.605
 6151SOL    HW219353   4.985   2.651   5.706
 6152SOL     OW19354   6.612   4.125   6.555
 6152SOL    HW119355   6.568   4.181   6.624
 6152SOL    HW219356   6.711   4.134   6.562
 6153SOL     OW19357   4.032   3.375   1.536
 6153SOL    HW119358   4.014   3.302   1.470
 6153SOL    HW219359   3.996   3.348   1.625
 6154SOL     OW19360   5.618   3.324   2.727
 6154SOL    HW119361   5.535   3.320   2.782
 6154SOL    HW219362   5.696   3.342   2.787
 6155SOL     OW19363   0.193   3.919   5.324
 6155SOL    HW119364   0.277   3.962   5.357
 6155SOL    HW219365   0.206   3.889   5.230
 6156SOL     OW19366   6.522   0.238   3.971
 6156SOL    HW119367   6.621   0.234   3.962
 6156SOL    HW219368   6.483   0.147   3.956
 6157SOL     OW19369   2.833   1.057   3.943
 6157SOL    HW119370   2.880   1.041   3.856
 6157SOL    HW219371   2.850   1.150   3.974
 6158SOL     OW19372   4.683   1.562   5.493
 6158SOL    HW119373   4.732   1.524   5.414
 6158SOL    HW219374   4.700   1.504   5.573
 6159SOL     OW19375   5.303   3.129   6.577
 6159SOL    HW119376   5.394   3.096   6.600
 6159SOL    HW219377   5.294   3.135   6.477
 6160SOL     OW19378   5.825   5.926   2.182
 6160SOL    HW119379   5.828   5.965   2.090
 6160SOL    HW219380   5.890   5.975   2.241
 6161SOL     OW19381   5.594   0.811   5.891
 6161SOL    HW119382   5.563   0.906   5.886
 6161SOL    HW219383   5.597   0.782   5.987
 6162SOL     OW19384   6.508   4.638   4.886
 6162SOL    HW119385   6.604   4.663   4.872
 6162SOL    HW219386   6.468   4.695   4.957
 6163SOL     OW19387   6.521   4.130   2.179
 6163SOL    HW119388   6.516   4.087   2.089
 6163SOL    HW219389   6.613   4.167   2.194
 6164SOL     OW19390   3.933   1.992   0.718
 6164SOL    HW119391   3.856   2.050   0.693
 6164SOL    HW219392   3.902   1.922   0.782
 6165SOL     OW19393   3.666   5.926   0.190
 6165SOL    HW119394   3.748   5.949   0.243
 6165SOL    HW219395   3.684   5.846   0.134
 6166SOL     OW19396   2.694   1.578   5.818
 6166SOL    HW119397   2.683   1.486   5.856
 6166SOL    HW219398   2.616   1.635   5.844
 6167SOL     OW19399   0.421   4.123   3.401
 6167SOL    HW119400   0.351   4.106   3.470
 6167SOL    HW219401   0.383   4.180   3.328
 6168SOL     OW19402   0.245   3.560   2.939
 6168SOL    HW119403   0.224   3.472   2.982
 6168SOL    HW219404   0.320   3.548   2.874
 6169SOL     OW19405   1.768   4.130   2.272
 6169SOL    HW119406   1.840   4.149   2.206
 6169SOL    HW219407   1.745   4.213   2.322
 6170SOL     OW19408   0.561   3.352   5.152
 6170SOL    HW119409   0.629   3.303   5.097
 6170SOL    HW219410   0.598   3.440   5.181
 6171SOL     OW19411   0.057   0.361   6.482
 6171SOL    HW119412   6.985   0.329   6.472
 6171SOL    HW219413   0.118   0.282   6.495
 6172SOL     OW19414   0.333   3.574   3.237
 6172SOL    HW119415   0.296   3.642   3.300
 6172SOL    HW219416   0.411   3.613   3.188
 6173SOL     OW19417   6.915   6.615   3.216
 6173SOL    HW119418   6.955   6.666   3.140
 6173SOL    HW219419   6.818   6.640   3.225
 6174SOL     OW19420   5.379   3.892   2.671
 6174SOL    HW119421   5.382   3.990   2.688
 6174SOL    HW219422   5.463   3.849   2.706
 6175SOL     OW19423   2.636   2.207   5.681
 6175SOL    HW119424   2.544   2.189   5.648
 6175SOL    HW219425   2.658   2.144   5.755
 6176SOL     OW19426   4.534   3.800   5.708
 6176SOL    HW119427   4.524   3.899   5.724
 6176SOL    HW219428   4.464   3.770   5.644
 6177SOL     OW19429   6.201   1.090   2.004
 6177SOL    HW119430   6.115   1.056   1.966
 6177SOL    HW219431   6.207   1.065   2.101
 6178SOL     OW19432   3.963   4.310   1.417
 6178SOL    HW119433   4.044   4.353   1.455
 6178SOL    HW219434   3.890   4.378   1.408
 6179SOL     OW19435   5.688   4.671   3.167
 6179SOL    HW119436   5.655   4.644   3.257
 6179SOL    HW219437   5.669   4.598   3.101
 6180SOL     OW19438   2.762   4.319   0.380
 6180SOL    HW119439   2.796   4.412   0.369
 6180SOL    HW219440   2.837   4.260   0.412
 6181SOL     OW19441   5.204   5.363   6.382
 6181SOL    HW119442   5.192   5.336   6.286
 6181SOL    HW219443   5.302   5.374   6.400
 6182SOL     OW19444   3.380   2.517   0.446
 6182SOL    HW119445   3.387   2.454   0.523
 6182SOL    HW219446   3.305   2.488   0.387
 6183SOL     OW19447   0.930   1.216   1.056
 6183SOL    HW119448   0.847   1.217   1.000
 6183SOL    HW219449   0.915   1.272   1.138
 6184SOL     OW19450   2.322   0.660   5.620
 6184SOL    HW119451   2.363   0.631   5.534
 6184SOL    HW219452   2.394   0.680   5.686
 6185SOL     OW19453   3.302   2.905   5.416
 6185SOL    HW119454   3.355   2.836   5.466
 6185SOL    HW219455   3.314   2.994   5.461
 6186SOL     OW19456   6.538   1.829   2.284
 6186SOL    HW119457   6.526   1.730   2.290
 6186SOL    HW219458   6.579   1.853   2.197
 6187SOL     OW19459   5.557   1.896   5.585
 6187SOL    HW119460   5.505   1.981   5.585
 6187SOL    HW219461   5.533   1.841   5.665
 6188SOL     OW19462   1.062   1.785   5.057
 6188SOL    HW119463   1.141   1.745   5.009
 6188SOL    HW219464   1.062   1.884   5.044
 6189SOL     OW19465   6.517   6.409   1.304
 6189SOL    HW119466   6.492   6.473   1.377
 6189SOL    HW219467   6.439   6.348   1.286
 6190SOL     OW19468   0.509   2.477   5.328
 6190SOL    HW119469   0.509   2.394   5.272
 6190SOL    HW219470   0.550   2.457   5.417
 6191SOL     OW19471   4.172   3.582   6.678
 6191SOL    HW119472   4.236   3.562   6.604
 6191SOL    HW219473   4.206   3.659   6.733
 6192SOL     OW19474   2.652   1.499   0.244
 6192SOL    HW119475   2.582   1.479   0.312
 6192SOL    HW219476   2.618   1.475   0.153
 6193SOL     OW19477   4.750   5.269   6.730
 6193SOL    HW119478   4.781   5.215   6.808
 6193SOL    HW219479   4.829   5.313   6.687
 6194SOL     OW19480   5.849   0.373   5.933
 6194SOL    HW119481   5.827   0.385   5.836
 6194SOL    HW219482   5.940   0.410   5.951
 6195SOL     OW19483   6.606   6.620   5.862
 6195SOL    HW119484   6.528   6.557   5.863
 6195SOL    HW219485   6.615   6.659   5.770
 6196SOL     OW19486   5.652   4.143   3.150
 6196SOL    HW119487   5.653   4.117   3.053
 6196SOL    HW219488   5.559   4.169   3.176
 6197SOL     OW19489   3.630   5.863   1.479
 6197SOL    HW119490   3.604   5.903   1.567
 6197SOL    HW219491   3.672   5.933   1.421
 6198SOL     OW19492   6.516   6.809   0.045
 6198SOL    HW119493   6.461   6.848   6.994
 6198SOL    HW219494   6.606   6.852   0.046
 6199SOL     OW19495   1.227   0.202   0.518
 6199SOL    HW119496   1.221   0.281   0.579
 6199SOL    HW219497   1.142   0.194   0.466
 6200SOL     OW19498   2.001   1.913   2.565
 6200SOL    HW119499   1.946   1.885   2.486
 6200SOL    HW219500   2.005   2.013   2.570
 6201SOL     OW19501   6.867   4.203   3.809
 6201SOL    HW119502   6.866   4.275   3.879
 6201SOL    HW219503   6.949   4.148   3.819
 6202SOL     OW19504   6.482   1.873   2.910
 6202SOL    HW119505   6.515   1.913   2.824
 6202SOL    HW219506   6.406   1.928   2.945
 6203SOL     OW19507   6.905   6.704   1.897
 6203SOL    HW119508   6.911   6.695   1.996
 6203SOL    HW219509   6.992   6.677   1.855
 6204SOL     OW19510   2.410   0.401   5.170
 6204SOL    HW119511   2.499   0.372   5.133
 6204SOL    HW219512   2.380   0.483   5.123
 6205SOL     OW19513   4.939   4.644   2.923
 6205SOL    HW119514   4.892   4.671   2.839
 6205SOL    HW219515   5.036   4.666   2.915
 6206SOL     OW19516   5.626   1.924   3.365
 6206SOL    HW119517   5.685   2.003   3.380
 6206SOL    HW219518   5.677   1.853   3.317
 6207SOL     OW19519   2.298   4.841   4.819
 6207SOL    HW119520   2.350   4.835   4.904
 6207SOL    HW219521   2.301   4.934   4.784
 6208SOL     OW19522   3.630   3.464   5.289
 6208SOL    HW119523   3.677   3.545   5.254
 6208SOL    HW219524   3.626   3.468   5.389
 6209SOL     OW19525   3.606   2.429   1.418
 6209SOL    HW119526   3.671   2.448   1.345
 6209SOL    HW219527   3.561   2.341   1.401
 6210SOL     OW19528   4.789   1.742   4.155
 6210SOL    HW119529   4.820   1.649   4.132
 6210SOL    HW219530   4.832   1.807   4.093
 6211SOL     OW19531   5.173   4.876   5.252
 6211SOL    HW119532   5.237   4.921   5.190
 6211SOL    HW219533   5.176   4.777   5.236
 6212SOL     OW19534   4.429   4.857   5.069
 6212SOL    HW119535   4.366   4.860   5.146
 6212SOL    HW219536   4.448   4.950   5.038
 6213SOL     OW19537   3.990   6.066   0.556
 6213SOL    HW119538   3.972   6.074   0.654
 6213SOL    HW219539   4.069   6.124   0.532
 6214SOL     OW19540   6.083   5.666   6.114
 6214SOL    HW119541   6.023   5.726   6.167
 6214SOL    HW219542   6.041   5.646   6.026
 6215SOL     OW19543   5.535   2.574   5.805
 6215SOL    HW119544   5.625   2.560   5.764
 6215SOL    HW219545   5.505   2.489   5.849
 6216SOL     OW19546   4.472   2.485   3.168
 6216SOL    HW119547   4.389   2.437   3.140
 6216SOL    HW219548   4.506   2.447   3.254
 6217SOL     OW19549   0.346   4.492   2.254
 6217SOL    HW119550   0.252   4.515   2.276
 6217SOL    HW219551   0.394   4.463   2.337
 6218SOL     OW19552   4.754   6.680   0.066
 6218SOL    HW119553   4.825   6.695   0.134
 6218SOL    HW219554   4.692   6.758   0.064
 6219SOL     OW19555   1.226   0.485   6.098
 6219SOL    HW119556   1.315   0.524   6.074
 6219SOL    HW219557   1.183   0.541   6.169
 6220SOL     OW19558   4.054   0.658   0.844
 6220SOL    HW119559   4.122   0.627   0.777
 6220SOL    HW219560   3.972   0.600   0.838
 6221SOL     OW19561   5.763   5.522   6.862
 6221SOL    HW119562   5.817   5.505   6.944
 6221SOL    HW219563   5.694   5.592   6.881
 6222SOL     OW19564   6.432   1.576   2.333
 6222SOL    HW119565   6.374   1.575   2.414
 6222SOL    HW219566   6.375   1.562   2.251
 6223SOL     OW19567   0.174   5.091   3.330
 6223SOL    HW119568   0.105   5.061   3.264
 6223SOL    HW219569   0.240   5.017   3.346
 6224SOL     OW19570   4.047   1.211   6.685
 6224SOL    HW119571   4.126   1.207   6.747
 6224SOL    HW219572   4.037   1.304   6.650
 6225SOL     OW19573   4.478   6.240   6.749
 6225SOL    HW119574   4.533   6.168   6.790
 6225SOL    HW219575   4.521   6.329   6.766
 6226SOL     OW19576   1.585   1.194   4.314
 6226SOL    HW119577   1.612   1.283   4.276
 6226SOL    HW219578   1.604   1.193   4.413
 6227SOL     OW19579   2.899   4.539   5.462
 6227SOL    HW119580   2.937   4.511   5.374
 6227SOL    HW219581   2.834   4.614   5.448
 6228SOL     OW19582   1.305   3.586   3.809
 6228SOL    HW119583   1.326   3.629   3.721
 6228SOL    HW219584   1.210   3.553   3.807
 6229SOL     OW19585   0.860   4.080   4.108
 6229SOL    HW119586   0.953   4.088   4.142
 6229SOL    HW219587   0.844   4.149   4.038
 6230SOL     OW19588   0.118   0.643   2.331
 6230SOL    HW119589   0.137   0.628   2.428
 6230SOL    HW219590   0.175   0.719   2.297
 6231SOL     OW19591   1.346   5.056   6.799
 6231SOL    HW119592   1.382   4.964   6.788
 6231SOL    HW219593   1.422   5.121   6.810
 6232SOL     OW19594   4.328   1.066   6.369
 6232SOL    HW119595   4.410   1.071   6.312
 6232SOL    HW219596   4.266   1.141   6.343
 6233SOL     OW19597   6.976   3.892   1.546
 6233SOL    HW119598   6.941   3.801   1.523
 6233SOL    HW219599   6.984   3.899   1.645
 6234SOL     OW19600   4.254   5.764   4.826
 6234SOL    HW119601   4.309   5.848   4.817
 6234SOL    HW219602   4.246   5.720   4.736
 6235SOL     OW19603   6.269   0.756   2.831
 6235SOL    HW119604   6.207   0.694   2.880
 6235SOL    HW219605   6.324   0.807   2.897
 6236SOL     OW19606   0.861   5.513   1.288
 6236SOL    HW119607   0.854   5.476   1.381
 6236SOL    HW219608   0.900   5.605   1.293
 6237SOL     OW19609   3.485   1.510   0.446
 6237SOL    HW119610   3.419   1.577   0.482
 6237SOL    HW219611   3.548   1.555   0.383
 6238SOL     OW19612   2.596   0.180   4.191
 6238SOL    HW119613   2.508   0.175   4.240
 6238SOL    HW219614   2.664   0.224   4.250
 6239SOL     OW19615   4.383   1.187   3.608
 6239SOL    HW119616   4.283   1.192   3.614
 6239SOL    HW219617   4.408   1.107   3.554
 6240SOL     OW19618   3.940   3.319   3.570
 6240SOL    HW119619   3.867   3.332   3.502
 6240SOL    HW219620   3.902   3.330   3.662
 6241SOL     OW19621   3.663   0.331   2.811
 6241SOL    HW119622   3.580   0.330   2.757
 6241SOL    HW219623   3.741   0.355   2.753
 6242SOL     OW19624   2.796   1.975   3.377
 6242SOL    HW119625   2.862   2.041   3.340
 6242SOL    HW219626   2.705   1.996   3.342
 6243SOL     OW19627   5.002   1.339   6.035
 6243SOL    HW119628   4.952   1.262   6.076
 6243SOL    HW219629   4.974   1.349   5.940
 6244SOL     OW19630   4.764   4.459   2.527
 6244SOL    HW119631   4.754   4.442   2.625
 6244SOL    HW219632   4.763   4.372   2.478
 6245SOL     OW19633   0.125   4.407   2.583
 6245SOL    HW119634   0.044   4.348   2.593
 6245SOL    HW219635   0.174   4.412   2.670
 6246SOL     OW19636   6.652   6.718   4.204
 6246SOL    HW119637   6.553   6.723   4.218
 6246SOL    HW219638   6.685   6.629   4.236
 6247SOL     OW19639   6.528   6.628   3.116
 6247SOL    HW119640   6.444   6.678   3.096
 6247SOL    HW219641   6.510   6.530   3.112
 6248SOL     OW19642   3.545   3.029   5.968
 6248SOL    HW119643   3.628   2.981   5.938
 6248SOL    HW219644   3.482   2.963   6.008
 6249SOL     OW19645   5.733   2.946   1.402
 6249SOL    HW119646   5.766   2.862   1.359
 6249SOL    HW219647   5.634   2.955   1.386
 6250SOL     OW19648   6.387   0.235   0.460
 6250SOL    HW119649   6.412   0.185   0.377
 6250SOL    HW219650   6.333   0.175   0.520
 6251SOL     OW19651   2.403   6.899   4.346
 6251SOL    HW119652   2.380   6.995   4.360
 6251SOL    HW219653   2.469   6.891   4.271
 6252SOL     OW19654   3.073   5.683   6.907
 6252SOL    HW119655   3.075   5.647   6.814
 6252SOL    HW219656   3.002   5.753   6.915
 6253SOL     OW19657   3.501   5.088   4.822
 6253SOL    HW119658   3.561   5.048   4.753
 6253SOL    HW219659   3.420   5.126   4.777
 6254SOL     OW19660   0.691   0.130   1.122
 6254SOL    HW119661   0.638   0.189   1.061
 6254SOL    HW219662   0.680   0.035   1.094
 6255SOL     OW19663   0.446   1.533   1.997
 6255SOL    HW119664   0.397   1.504   1.915
 6255SOL    HW219665   0.380   1.558   2.068
 6256SOL     OW19666   4.957   6.009   2.348
 6256SOL    HW119667   5.016   5.929   2.348
 6256SOL    HW219668   4.905   6.013   2.433
 6257SOL     OW19669   3.245   3.965   1.334
 6257SOL    HW119670   3.173   4.016   1.379
 6257SOL    HW219671   3.333   3.987   1.376
 6258SOL     OW19672   3.690   5.262   4.894
 6258SOL    HW119673   3.740   5.284   4.811
 6258SOL    HW219674   3.616   5.198   4.873
 6259SOL     OW19675   3.433   0.417   4.235
 6259SOL    HW119676   3.456   0.504   4.279
 6259SOL    HW219677   3.348   0.381   4.273
 6260SOL     OW19678   1.388   1.884   0.296
 6260SOL    HW119679   1.415   1.879   0.392
 6260SOL    HW219680   1.453   1.833   0.240
 6261SOL     OW19681   3.287   0.591   0.938
 6261SOL    HW119682   3.310   0.542   0.854
 6261SOL    HW219683   3.195   0.630   0.930
 6262SOL     OW19684   5.618   0.232   2.581
 6262SOL    HW119685   5.586   0.140   2.605
 6262SOL    HW219686   5.684   0.226   2.507
 6263SOL     OW19687   6.236   5.933   5.968
 6263SOL    HW119688   6.251   5.839   5.996
 6263SOL    HW219689   6.316   5.989   5.991
 6264SOL     OW19690   1.975   0.471   0.263
 6264SOL    HW119691   2.006   0.380   0.235
 6264SOL    HW219692   1.927   0.465   0.350
 6265SOL     OW19693   4.866   0.408   6.898
 6265SOL    HW119694   4.862   0.308   6.896
 6265SOL    HW219695   4.878   0.443   6.806
 6266SOL     OW19696   2.510   5.080   2.916
 6266SOL    HW119697   2.513   5.147   2.842
 6266SOL    HW219698   2.512   4.988   2.879
 6267SOL     OW19699   2.233   6.323   4.573
 6267SOL    HW119700   2.319   6.306   4.622
 6267SOL    HW219701   2.162   6.263   4.609
 6268SOL     OW19702   3.319   1.437   1.249
 6268SOL    HW119703   3.378   1.357   1.239
 6268SOL    HW219704   3.271   1.433   1.337
 6269SOL     OW19705   6.199   5.193   0.409
 6269SOL    HW119706   6.158   5.227   0.324
 6269SOL    HW219707   6.286   5.148   0.388
 6270SOL     OW19708   2.125   5.937   0.804
 6270SOL    HW119709   2.110   6.030   0.837
 6270SOL    HW219710   2.132   5.939   0.704
 6271SOL     OW19711   5.708   3.168   5.931
 6271SOL    HW119712   5.744   3.080   5.901
 6271SOL    HW219713   5.783   3.227   5.959
 6272SOL     OW19714   0.526   6.884   0.794
 6272SOL    HW119715   0.465   6.961   0.813
 6272SOL    HW219716   0.605   6.917   0.743
 6273SOL     OW19717   0.646   6.712   1.435
 6273SOL    HW119718   0.642   6.762   1.521
 6273SOL    HW219719   0.741   6.705   1.405
 6274SOL     OW19720   3.228   5.698   3.665
 6274SOL    HW119721   3.281   5.678   3.747
 6274SOL    HW219722   3.226   5.617   3.605
 6275SOL     OW19723   2.097   5.372   6.847
 6275SOL    HW119724   2.101   5.434   6.925
 6275SOL    HW219725   2.190   5.353   6.816
 6276SOL     OW19726   1.672   5.628   2.839
 6276SOL    HW119727   1.641   5.611   2.932
 6276SOL    HW219728   1.721   5.547   2.805
 6277SOL     OW19729   5.120   3.491   1.172
 6277SOL    HW119730   5.126   3.418   1.240
 6277SOL    HW219731   5.031   3.489   1.128
 6278SOL     OW19732   2.793   1.517   6.645
 6278SOL    HW119733   2.732   1.580   6.692
 6278SOL    HW219734   2.809   1.550   6.552
 6279SOL     OW19735   2.479   6.972   1.751
 6279SOL    HW119736   2.398   6.922   1.721
 6279SOL    HW219737   2.544   6.979   1.675
 6280SOL     OW19738   6.304   2.408   0.255
 6280SOL    HW119739   6.284   2.383   0.350
 6280SOL    HW219740   6.219   2.428   0.207
 6281SOL     OW19741   5.581   3.935   6.270
 6281SOL    HW119742   5.544   3.848   6.301
 6281SOL    HW219743   5.512   3.984   6.217
 6282SOL     OW19744   0.182   3.344   6.238
 6282SOL    HW119745   0.115   3.406   6.196
 6282SOL    HW219746   0.190   3.365   6.336
 6283SOL     OW19747   1.315   6.334   4.966
 6283SOL    HW119748   1.302   6.252   5.021
 6283SOL    HW219749   1.226   6.374   4.945
 6284SOL     OW19750   1.401   4.373   6.088
 6284SOL    HW119751   1.471   4.439   6.060
 6284SOL    HW219752   1.314   4.397   6.047
 6285SOL     OW19753   1.009   3.828   3.000
 6285SOL    HW119754   1.022   3.809   3.098
 6285SOL    HW219755   1.099   3.845   2.958
 6286SOL     OW19756   0.810   2.493   0.406
 6286SOL    HW119757   0.801   2.554   0.485
 6286SOL    HW219758   0.724   2.491   0.356
 6287SOL     OW19759   5.155   4.807   4.882
 6287SOL    HW119760   5.087   4.774   4.816
 6287SOL    HW219761   5.237   4.749   4.878
 6288SOL     OW19762   3.617   3.350   6.297
 6288SOL    HW119763   3.570   3.275   6.342
 6288SOL    HW219764   3.674   3.399   6.363
 6289SOL     OW19765   2.645   4.521   5.678
 6289SOL    HW119766   2.687   4.603   5.639
 6289SOL    HW219767   2.712   4.448   5.682
 6290SOL     OW19768   5.360   5.883   4.251
 6290SOL    HW119769   5.388   5.960   4.194
 6290SOL    HW219770   5.260   5.877   4.252
 6291SOL     OW19771   4.072   3.655   2.762
 6291SOL    HW119772   4.081   3.669   2.861
 6291SOL    HW219773   3.982   3.618   2.742
 6292SOL     OW19774   1.616   3.302   4.550
 6292SOL    HW119775   1.606   3.277   4.454
 6292SOL    HW219776   1.608   3.221   4.607
 6293SOL     OW19777   3.532   1.122   6.597
 6293SOL    HW119778   3.546   1.032   6.555
 6293SOL    HW219779   3.435   1.146   6.593
 6294SOL     OW19780   1.549   1.747   2.838
 6294SOL    HW119781   1.577   1.795   2.921
 6294SOL    HW219782   1.524   1.813   2.768
 6295SOL     OW19783   5.468   3.623   5.635
 6295SOL    HW119784   5.505   3.603   5.544
 6295SOL    HW219785   5.430   3.539   5.675
 6296SOL     OW19786   0.887   2.981   0.253
 6296SOL    HW119787   0.815   3.023   0.198
 6296SOL    HW219788   0.972   3.033   0.241
 6297SOL     OW19789   6.147   1.161   4.390
 6297SOL    HW119790   6.204   1.104   4.450
 6297SOL    HW219791   6.178   1.150   4.295
 6298SOL     OW19792   6.539   5.891   0.690
 6298SOL    HW119793   6.608   5.955   0.656
 6298SOL    HW219794   6.585   5.807   0.720
 6299SOL     OW19795   4.084   1.131   2.831
 6299SOL    HW119796   3.998   1.180   2.823
 6299SOL    HW219797   4.084   1.052   2.769
 6300SOL     OW19798   2.429   1.064   6.252
 6300SOL    HW119799   2.373   1.137   6.290
 6300SOL    HW219800   2.452   1.086   6.157
 6301SOL     OW19801   3.738   6.358   0.076
 6301SOL    HW119802   3.644   6.359   0.043
 6301SOL    HW219803   3.792   6.424   0.023
 6302SOL     OW19804   3.081   2.460   6.592
 6302SOL    HW119805   3.032   2.478   6.507
 6302SOL    HW219806   3.147   2.534   6.608
 6303SOL     OW19807   0.761   6.309   4.961
 6303SOL    HW119808   0.845   6.299   5.014
 6303SOL    HW219809   0.759   6.240   4.889
 6304SOL     OW19810   4.017   1.178   3.896
 6304SOL    HW119811   3.936   1.217   3.941
 6304SOL    HW219812   4.099   1.223   3.931
 6305SOL     OW19813   0.587   5.794   6.270
 6305SOL    HW119814   0.554   5.705   6.301
 6305SOL    HW219815   0.684   5.789   6.248
 6306SOL     OW19816   6.960   5.086   4.078
 6306SOL    HW119817   6.970   4.986   4.080
 6306SOL    HW219818   6.938   5.115   3.985
 6307SOL     OW19819   4.014   3.044   2.339
 6307SOL    HW119820   4.069   2.961   2.342
 6307SOL    HW219821   3.993   3.067   2.244
 6308SOL     OW19822   0.217   2.667   0.825
 6308SOL    HW119823   0.206   2.601   0.900
 6308SOL    HW219824   0.278   2.627   0.756
 6309SOL     OW19825   2.504   6.140   4.484
 6309SOL    HW119826   2.438   6.200   4.440
 6309SOL    HW219827   2.585   6.193   4.510
 6310SOL     OW19828   1.811   6.892   2.822
 6310SOL    HW119829   1.812   6.992   2.818
 6310SOL    HW219830   1.773   6.863   2.910
 6311SOL     OW19831   5.772   1.277   6.225
 6311SOL    HW119832   5.778   1.242   6.131
 6311SOL    HW219833   5.790   1.203   6.289
 6312SOL     OW19834   3.622   5.876   6.600
 6312SOL    HW119835   3.675   5.879   6.685
 6312SOL    HW219836   3.674   5.919   6.526
 6313SOL     OW19837   5.271   5.178   4.708
 6313SOL    HW119838   5.182   5.145   4.739
 6313SOL    HW219839   5.262   5.268   4.666
 6314SOL     OW19840   1.784   6.853   2.238
 6314SOL    HW119841   1.728   6.926   2.200
 6314SOL    HW219842   1.855   6.828   2.171
 6315SOL     OW19843   2.260   2.419   4.640
 6315SOL    HW119844   2.208   2.415   4.725
 6315SOL    HW219845   2.323   2.496   4.643
 6316SOL     OW19846   4.890   1.023   4.670
 6316SOL    HW119847   4.837   0.941   4.692
 6316SOL    HW219848   4.924   1.017   4.576
 6317SOL     OW19849   5.325   4.831   1.503
 6317SOL    HW119850   5.349   4.755   1.443
 6317SOL    HW219851   5.228   4.853   1.492
 6318SOL     OW19852   6.697   6.518   0.367
 6318SOL    HW119853   6.604   6.551   0.353
 6318SOL    HW219854   6.763   6.588   0.340
 6319SOL     OW19855   5.087   1.069   4.053
 6319SOL    HW119856   5.018   0.997   4.064
 6319SOL    HW219857   5.047   1.147   4.004
 6320SOL     OW19858   6.314   0.953   5.764
 6320SOL    HW119859   6.330   0.994   5.854
 6320SOL    HW219860   6.394   0.900   5.737
 6321SOL     OW19861   6.186   2.426   6.673
 6321SOL    HW119862   6.278   2.462   6.654
 6321SOL    HW219863   6.127   2.500   6.703
 6322SOL     OW19864   1.285   1.458   2.036
 6322SOL    HW119865   1.326   1.515   2.107
 6322SOL    HW219866   1.190   1.485   2.023
 6323SOL     OW19867   2.357   4.648   1.101
 6323SOL    HW119868   2.283   4.591   1.138
 6323SOL    HW219869   2.445   4.611   1.132
 6324SOL     OW19870   4.477   1.777   1.336
 6324SOL    HW119871   4.554   1.742   1.281
 6324SOL    HW219872   4.511   1.846   1.400
 6325SOL     OW19873   1.774   3.107   3.910
 6325SOL    HW119874   1.719   3.189   3.926
 6325SOL    HW219875   1.840   3.097   3.985
 6326SOL     OW19876   5.515   4.708   6.145
 6326SOL    HW119877   5.609   4.724   6.174
 6326SOL    HW219878   5.509   4.717   6.045
 6327SOL     OW19879   0.326   0.455   3.893
 6327SOL    HW119880   0.229   0.462   3.871
 6327SOL    HW219881   0.365   0.377   3.845
 6328SOL     OW19882   4.433   3.555   5.297
 6328SOL    HW119883   4.522   3.548   5.252
 6328SOL    HW219884   4.361   3.562   5.228
 6329SOL     OW19885   0.671   2.689   5.992
 6329SOL    HW119886   0.687   2.757   6.064
 6329SOL    HW219887   0.643   2.602   6.033
 6330SOL     OW19888   5.320   1.519   3.224
 6330SOL    HW119889   5.302   1.421   3.220
 6330SOL    HW219890   5.418   1.534   3.239
 6331SOL     OW19891   1.043   3.401   3.898
 6331SOL    HW119892   0.978   3.445   3.837
 6331SOL    HW219893   1.029   3.302   3.896
 6332SOL     OW19894   3.196   1.526   0.165
 6332SOL    HW119895   3.104   1.491   0.147
 6332SOL    HW219896   3.213   1.606   0.107
 6333SOL     OW19897   5.312   1.591   0.502
 6333SOL    HW119898   5.323   1.498   0.467
 6333SOL    HW219899   5.301   1.588   0.601
 6334SOL     OW19900   1.517   1.592   1.889
 6334SOL    HW119901   1.477   1.667   1.941
 6334SOL    HW219902   1.491   1.505   1.930
 6335SOL     OW19903   6.332   1.707   0.045
 6335SOL    HW119904   6.293   1.682   0.133
 6335SOL    HW219905   6.277   1.668   6.993
 6336SOL     OW19906   0.857   3.723   5.656
 6336SOL    HW119907   0.935   3.746   5.715
 6336SOL    HW219908   0.781   3.692   5.713
 6337SOL     OW19909   4.801   5.701   5.448
 6337SOL    HW119910   4.876   5.637   5.435
 6337SOL    HW219911   4.745   5.672   5.526
 6338SOL     OW19912   2.121   1.449   3.134
 6338SOL    HW119913   2.166   1.538   3.139
 6338SOL    HW219914   2.045   1.446   3.198
 6339SOL     OW19915   0.570   5.019   3.478
 6339SOL    HW119916   0.496   5.069   3.522
 6339SOL    HW219917   0.608   5.074   3.403
 6340SOL     OW19918   2.380   4.074   0.677
 6340SOL    HW119919   2.402   4.079   0.774
 6340SOL    HW219920   2.453   4.024   0.629
 6341SOL     OW19921   0.298   5.371   3.018
 6341SOL    HW119922   0.211   5.413   2.994
 6341SOL    HW219923   0.310   5.286   2.966
 6342SOL     OW19924   2.223   0.899   1.101
 6342SOL    HW119925   2.242   0.991   1.067
 6342SOL    HW219926   2.276   0.884   1.184
 6343SOL     OW19927   1.049   5.294   0.819
 6343SOL    HW119928   1.001   5.219   0.865
 6343SOL    HW219929   1.052   5.374   0.880
 6344SOL     OW19930   6.896   1.031   4.166
 6344SOL    HW119931   6.824   0.981   4.213
 6344SOL    HW219932   6.862   1.121   4.139
 6345SOL     OW19933   5.779   3.277   1.961
 6345SOL    HW119934   5.779   3.376   1.949
 6345SOL    HW219935   5.684   3.243   1.961
 6346SOL     OW19936   6.957   4.411   5.740
 6346SOL    HW119937   7.021   4.440   5.668
 6346SOL    HW219938   6.868   4.454   5.724
 6347SOL     OW19939   1.783   2.009   3.046
 6347SOL    HW119940   1.793   2.106   3.063
 6347SOL    HW219941   1.831   1.985   2.961
 6348SOL     OW19942   0.528   2.036   6.008
 6348SOL    HW119943   0.602   1.973   6.030
 6348SOL    HW219944   0.565   2.123   5.979
 6349SOL     OW19945   6.916   0.835   0.015
 6349SOL    HW119946   6.909   0.901   6.961
 6349SOL    HW219947   6.918   0.885   0.102
 6350SOL     OW19948   0.861   5.574   2.068
 6350SOL    HW119949   0.938   5.607   2.125
 6350SOL    HW219950   0.780   5.564   2.126
 6351SOL     OW19951   5.430   3.088   2.034
 6351SOL    HW119952   5.394   3.019   2.097
 6351SOL    HW219953   5.460   3.168   2.085
 6352SOL     OW19954   2.985   0.867   4.332
 6352SOL    HW119955   2.987   0.829   4.240
 6352SOL    HW219956   2.912   0.825   4.385
 6353SOL     OW19957   3.184   6.542   5.327
 6353SOL    HW119958   3.262   6.479   5.333
 6353SOL    HW219959   3.099   6.489   5.333
 6354SOL     OW19960   4.934   5.502   1.221
 6354SOL    HW119961   4.849   5.503   1.274
 6354SOL    HW219962   4.930   5.575   1.152
 6355SOL     OW19963   2.556   4.346   0.762
 6355SOL    HW119964   2.646   4.379   0.733
 6355SOL    HW219965   2.491   4.354   0.687
 6356SOL     OW19966   6.611   5.018   6.310
 6356SOL    HW119967   6.671   4.947   6.345
 6356SOL    HW219968   6.651   5.059   6.228
 6357SOL     OW19969   5.846   1.470   1.935
 6357SOL    HW119970   5.942   1.483   1.958
 6357SOL    HW219971   5.790   1.494   2.014
 6358SOL     OW19972   1.425   2.151   5.748
 6358SOL    HW119973   1.420   2.251   5.750
 6358SOL    HW219974   1.379   2.114   5.828
 6359SOL     OW19975   5.339   6.592   0.797
 6359SOL    HW119976   5.309   6.581   0.892
 6359SOL    HW219977   5.406   6.521   0.774
 6360SOL     OW19978   0.637   1.998   2.344
 6360SOL    HW119979   0.559   1.992   2.282
 6360SOL    HW219980   0.709   2.052   2.302
 6361SOL     OW19981   0.090   0.573   6.632
 6361SOL    HW119982   0.102   0.663   6.589
 6361SOL    HW219983   0.079   0.503   6.561
 6362SOL     OW19984   1.313   5.485   0.363
 6362SOL    HW119985   1.227   5.522   0.328
 6362SOL    HW219986   1.318   5.500   0.462
 6363SOL     OW19987   2.438   4.433   2.913
 6363SOL    HW119988   2.450   4.479   2.825
 6363SOL    HW219989   2.355   4.377   2.910
 6364SOL     OW19990   2.377   2.740   4.375
 6364SOL    HW119991   2.406   2.675   4.445
 6364SOL    HW219992   2.331   2.818   4.418
 6365SOL     OW19993   5.213   6.779   2.888
 6365SOL    HW119994   5.164   6.695   2.912
 6365SOL    HW219995   5.266   6.763   2.805
 6366SOL     OW19996   6.173   0.378   4.983
 6366SOL    HW119997   6.257   0.336   4.947
 6366SOL    HW219998   6.192   0.472   5.010
 6367SOL     OW19999   1.898   1.951   2.036
 6367SOL    HW120000   1.996   1.939   2.055
 6367SOL    HW220001   1.885   2.022   1.968
 6368SOL     OW20002   4.869   3.369   4.526
 6368SOL    HW120003   4.814   3.321   4.458
 6368SOL    HW220004   4.889   3.308   4.602
 6369SOL     OW20005   4.447   5.173   0.071
 6369SOL    HW120006   4.421   5.122   0.153
 6369SOL    HW220007   4.445   5.112   7.013
 6370SOL     OW20008   5.339   3.405   4.440
 6370SOL    HW120009   5.397   3.431   4.363
 6370SOL    HW220010   5.357   3.465   4.518
 6371SOL     OW20011   5.283   4.279   0.979
 6371SOL    HW120012   5.339   4.305   0.901
 6371SOL    HW220013   5.267   4.180   0.977
 6372SOL     OW20014   6.838   1.420   2.167
 6372SOL    HW120015   6.761   1.480   2.148
 6372SOL    HW220016   6.835   1.341   2.105
 6373SOL     OW20017   4.764   4.277   1.407
 6373SOL    HW120018   4.732   4.295   1.500
 6373SOL    HW220019   4.794   4.363   1.365
 6374SOL     OW20020   4.585   3.675   6.607
 6374SOL    HW120021   4.654   3.603   6.602
 6374SOL    HW220022   4.572   3.717   6.517
 6375SOL     OW20023   5.187   2.246   1.860
 6375SOL    HW120024   5.118   2.281   1.923
 6375SOL    HW220025   5.210   2.152   1.884
 6376SOL     OW20026   3.506   1.012   0.025
 6376SOL    HW120027   3.407   1.020   0.032
 6376SOL    HW220028   3.550   1.071   0.093
 6377SOL     OW20029   0.302   0.689   0.247
 6377SOL    HW120030   0.344   0.598   0.251
 6377SOL    HW220031   0.371   0.758   0.267
 6378SOL     OW20032   5.361   4.919   1.758
 6378SOL    HW120033   5.276   4.961   1.788
 6378SOL    HW220034   5.345   4.868   1.674
 6379SOL     OW20035   2.015   5.502   6.548
 6379SOL    HW120036   2.102   5.461   6.519
 6379SOL    HW220037   1.947   5.430   6.563
 6380SOL     OW20038   1.404   3.636   4.933
 6380SOL    HW120039   1.475   3.669   4.870
 6380SOL    HW220040   1.341   3.576   4.884
 6381SOL     OW20041   4.487   2.313   0.304
 6381SOL    HW120042   4.532   2.322   0.392
 6381SOL    HW220043   4.394   2.279   0.317
 6382SOL     OW20044   1.502   1.887   0.562
 6382SOL    HW120045   1.598   1.905   0.543
 6382SOL    HW220046   1.490   1.791   0.589
 6383SOL     OW20047   2.415   2.096   2.006
 6383SOL    HW120048   2.400   2.164   2.078
 6383SOL    HW220049   2.513   2.092   1.985
 6384SOL     OW20050   6.628   2.723   2.427
 6384SOL    HW120051   6.567   2.676   2.362
 6384SOL    HW220052   6.675   2.797   2.380
 6385SOL     OW20053   6.880   3.016   0.880
 6385SOL    HW120054   6.866   3.090   0.814
 6385SOL    HW220055   6.803   3.012   0.943
 6386SOL     OW20056   2.544   3.847   0.585
 6386SOL    HW120057   2.477   3.812   0.651
 6386SOL    HW220058   2.636   3.829   0.620
 6387SOL     OW20059   6.730   6.811   6.660
 6387SOL    HW120060   6.799   6.843   6.596
 6387SOL    HW220061   6.759   6.723   6.699
 6388SOL     OW20062   6.450   5.550   2.376
 6388SOL    HW120063   6.357   5.543   2.337
 6388SOL    HW220064   6.445   5.594   2.465
 6389SOL     OW20065   0.545   0.847   0.263
 6389SOL    HW120066   0.578   0.924   0.208
 6389SOL    HW220067   0.544   0.873   0.360
 6390SOL     OW20068   5.471   0.415   6.639
 6390SOL    HW120069   5.527   0.485   6.594
 6390SOL    HW220070   5.526   0.333   6.653
 6391SOL     OW20071   0.928   1.568   5.127
 6391SOL    HW120072   0.834   1.557   5.161
 6391SOL    HW220073   0.952   1.665   5.127
 6392SOL     OW20074   3.828   6.872   3.259
 6392SOL    HW120075   3.860   6.863   3.165
 6392SOL    HW220076   3.815   6.968   3.281
 6393SOL     OW20077   0.782   4.976   6.991
 6393SOL    HW120078   0.696   4.989   0.019
 6393SOL    HW220079   0.796   4.878   6.973
 6394SOL     OW20080   1.577   5.760   1.284
 6394SOL    HW120081   1.676   5.747   1.297
 6394SOL    HW220082   1.528   5.723   1.362
 6395SOL     OW20083   2.235   4.240   2.903
 6395SOL    HW120084   2.187   4.158   2.871
 6395SOL    HW220085   2.242   4.238   3.002
 6396SOL     OW20086   0.871   3.716   6.572
 6396SOL    HW120087   0.858   3.745   6.667
 6396SOL    HW220088   0.926   3.784   6.524
 6397SOL     OW20089   5.854   3.301   4.285
 6397SOL    HW120090   5.782   3.246   4.243
 6397SOL    HW220091   5.828   3.397   4.282
 6398SOL     OW20092   2.119   0.463   1.135
 6398SOL    HW120093   2.033   0.421   1.105
 6398SOL    HW220094   2.103   0.559   1.158
 6399SOL     OW20095   2.805   0.920   6.024
 6399SOL    HW120096   2.894   0.924   6.069
 6399SOL    HW220097   2.766   0.829   6.035
 6400SOL     OW20098   1.674   6.293   3.507
 6400SOL    HW120099   1.662   6.388   3.480
 6400SOL    HW220100   1.768   6.278   3.538
 6401SOL     OW20101   3.949   5.607   3.147
 6401SOL    HW120102   3.906   5.522   3.180
 6401SOL    HW220103   3.940   5.678   3.217
 6402SOL     OW20104   2.098   4.449   5.143
 6402SOL    HW120105   2.185   4.405   5.163
 6402SOL    HW220106   2.108   4.548   5.154
 6403SOL     OW20107   4.573   5.404   5.196
 6403SOL    HW120108   4.635   5.428   5.121
 6403SOL    HW220109   4.501   5.472   5.202
 6404SOL     OW20110   4.675   0.030   1.769
 6404SOL    HW120111   4.608   0.084   1.820
 6404SOL    HW220112   4.767   0.052   1.800
 6405SOL     OW20113   5.369   1.919   2.824
 6405SOL    HW120114   5.357   2.018   2.814
 6405SOL    HW220115   5.289   1.881   2.870
 6406SOL     OW20116   6.989   3.117   3.529
 6406SOL    HW120117   6.979   3.121   3.628
 6406SOL    HW220118   0.003   3.028   3.502
 6407SOL     OW20119   0.740   6.052   2.406
 6407SOL    HW120120   0.793   6.132   2.435
 6407SOL    HW220121   0.802   5.984   2.365
 6408SOL     OW20122   6.484   0.613   2.313
 6408SOL    HW120123   6.479   0.612   2.413
 6408SOL    HW220124   6.579   0.610   2.284
 6409SOL     OW20125   5.194   5.499   3.463
 6409SOL    HW120126   5.257   5.477   3.388
 6409SOL    HW220127   5.111   5.540   3.426
 6410SOL     OW20128   1.878   1.594   6.542
 6410SOL    HW120129   1.804   1.527   6.540
 6410SOL    HW220130   1.932   1.587   6.458
 6411SOL     OW20131   0.688   2.455   2.341
 6411SOL    HW120132   0.684   2.536   2.399
 6411SOL    HW220133   0.752   2.471   2.266
 6412SOL     OW20134   3.596   0.900   0.405
 6412SOL    HW120135   3.671   0.845   0.367
 6412SOL    HW220136   3.612   0.915   0.502
 6413SOL     OW20137   4.614   6.512   3.108
 6413SOL    HW120138   4.613   6.561   3.021
 6413SOL    HW220139   4.522   6.478   3.128
 6414SOL     OW20140   1.308   0.384   0.062
 6414SOL    HW120141   1.238   0.436   0.112
 6414SOL    HW220142   1.396   0.395   0.108
 6415SOL     OW20143   0.145   2.325   3.671
 6415SOL    HW120144   0.177   2.414   3.703
 6415SOL    HW220145   0.103   2.335   3.581
 6416SOL     OW20146   2.250   6.792   0.224
 6416SOL    HW120147   2.151   6.800   0.214
 6416SOL    HW220148   2.280   6.703   0.189
 6417SOL     OW20149   4.223   2.282   0.120
 6417SOL    HW120150   4.174   2.196   0.138
 6417SOL    HW220151   4.265   2.278   0.029
 6418SOL     OW20152   4.788   4.097   0.406
 6418SOL    HW120153   4.837   4.028   0.460
 6418SOL    HW220154   4.850   4.141   0.342
 6419SOL     OW20155   1.311   6.364   6.086
 6419SOL    HW120156   1.247   6.416   6.143
 6419SOL    HW220157   1.335   6.279   6.134
 6420SOL     OW20158   2.163   3.967   4.398
 6420SOL    HW120159   2.175   4.063   4.373
 6420SOL    HW220160   2.252   3.926   4.417
 6421SOL     OW20161   3.910   6.871   2.411
 6421SOL    HW120162   3.872   6.930   2.482
 6421SOL    HW220163   3.843   6.857   2.339
 6422SOL     OW20164   5.907   2.164   4.457
 6422SOL    HW120165   5.986   2.103   4.448
 6422SOL    HW220166   5.823   2.109   4.461
 6423SOL     OW20167   1.723   4.326   4.559
 6423SOL    HW120168   1.796   4.364   4.616
 6423SOL    HW220169   1.716   4.227   4.574
 6424SOL     OW20170   6.673   4.821   5.233
 6424SOL    HW120171   6.732   4.754   5.189
 6424SOL    HW220172   6.691   4.912   5.195
 6425SOL     OW20173   6.550   5.435   4.035
 6425SOL    HW120174   6.645   5.436   4.065
 6425SOL    HW220175   6.546   5.442   3.936
 6426SOL     OW20176   4.918   3.976   5.168
 6426SOL    HW120177   4.996   4.038   5.172
 6426SOL    HW220178   4.919   3.926   5.082
 6427SOL     OW20179   3.961   3.189   2.778
 6427SOL    HW120180   3.991   3.162   2.870
 6427SOL    HW220181   3.864   3.167   2.767
 6428SOL     OW20182   5.457   2.952   0.291
 6428SOL    HW120183   5.534   2.889   0.287
 6428SOL    HW220184   5.374   2.903   0.317
 6429SOL     OW20185   2.068   1.138   5.131
 6429SOL    HW120186   1.969   1.148   5.126
 6429SOL    HW220187   2.099   1.152   5.225
 6430SOL     OW20188   6.368   0.341   5.253
 6430SOL    HW120189   6.274   0.353   5.285
 6430SOL    HW220190   6.410   0.430   5.238
 6431SOL     OW20191   3.623   4.721   1.580
 6431SOL    HW120192   3.604   4.667   1.661
 6431SOL    HW220193   3.677   4.801   1.605
 6432SOL     OW20194   5.179   4.466   5.969
 6432SOL    HW120195   5.186   4.393   5.902
 6432SOL    HW220196   5.084   4.477   5.997
 6433SOL     OW20197   3.435   4.706   6.740
 6433SOL    HW120198   3.505   4.678   6.806
 6433SOL    HW220199   3.421   4.633   6.673
 6434SOL     OW20200   4.389   5.333   6.452
 6434SOL    HW120201   4.402   5.368   6.360
 6434SOL    HW220202   4.292   5.317   6.469
 6435SOL     OW20203   5.348   1.884   1.240
 6435SOL    HW120204   5.396   1.919   1.320
 6435SOL    HW220205   5.405   1.896   1.159
 6436SOL     OW20206   6.477   4.415   4.257
 6436SOL    HW120207   6.440   4.450   4.171
 6436SOL    HW220208   6.464   4.484   4.329
 6437SOL     OW20209   1.057   2.178   5.496
 6437SOL    HW120210   1.143   2.129   5.510
 6437SOL    HW220211   0.983   2.130   5.544
 6438SOL     OW20212   0.792   4.893   0.984
 6438SOL    HW120213   0.809   4.799   1.014
 6438SOL    HW220214   0.736   4.940   1.051
 6439SOL     OW20215   4.939   0.152   3.310
 6439SOL    HW120216   4.839   0.155   3.315
 6439SOL    HW220217   4.967   0.070   3.260
 6440SOL     OW20218   3.322   2.069   6.553
 6440SOL    HW120219   3.260   2.071   6.631
 6440SOL    HW220220   3.297   2.140   6.488
 6441SOL     OW20221   0.635   1.535   2.392
 6441SOL    HW120222   0.550   1.578   2.422
 6441SOL    HW220223   0.695   1.604   2.352
 6442SOL     OW20224   2.685   2.311   4.945
 6442SOL    HW120225   2.737   2.296   5.029
 6442SOL    HW220226   2.593   2.272   4.955
 6443SOL     OW20227   4.596   3.011   0.288
 6443SOL    HW120228   4.574   2.928   0.339
 6443SOL    HW220229   4.516   3.070   0.285
 6444SOL     OW20230   6.608   3.447   4.801
 6444SOL    HW120231   6.569   3.525   4.851
 6444SOL    HW220232   6.552   3.366   4.818
 6445SOL     OW20233   3.178   3.141   3.366
 6445SOL    HW120234   3.108   3.195   3.412
 6445SOL    HW220235   3.149   3.119   3.273
 6446SOL     OW20236   1.835   1.052   6.399
 6446SOL    HW120237   1.835   1.111   6.318
 6446SOL    HW220238   1.899   1.089   6.466
 6447SOL     OW20239   5.763   3.427   1.465
 6447SOL    HW120240   5.679   3.406   1.415
 6447SOL    HW220241   5.756   3.389   1.558
 6448SOL     OW20242   3.184   5.450   1.319
 6448SOL    HW120243   3.210   5.431   1.413
 6448SOL    HW220244   3.218   5.378   1.259
 6449SOL     OW20245   2.413   5.704   1.075
 6449SOL    HW120246   2.353   5.705   0.995
 6449SOL    HW220247   2.408   5.614   1.118
 6450SOL     OW20248   0.871   4.510   0.900
 6450SOL    HW120249   0.833   4.547   0.984
 6450SOL    HW220250   0.953   4.561   0.874
 6451SOL     OW20251   4.928   2.323   1.346
 6451SOL    HW120252   4.953   2.251   1.410
 6451SOL    HW220253   4.924   2.411   1.394
 6452SOL     OW20254   4.696   1.904   3.554
 6452SOL    HW120255   4.688   1.826   3.491
 6452SOL    HW220256   4.607   1.923   3.595
 6453SOL     OW20257   2.611   0.942   1.621
 6453SOL    HW120258   2.702   0.931   1.660
 6453SOL    HW220259   2.615   0.932   1.522
 6454SOL     OW20260   5.366   2.453   3.178
 6454SOL    HW120261   5.319   2.487   3.259
 6454SOL    HW220262   5.464   2.463   3.189
 6455SOL     OW20263   6.308   3.678   3.597
 6455SOL    HW120264   6.211   3.675   3.621
 6455SOL    HW220265   6.337   3.773   3.589
 6456SOL     OW20266   5.793   1.161   2.849
 6456SOL    HW120267   5.715   1.099   2.840
 6456SOL    HW220268   5.877   1.107   2.857
 6457SOL     OW20269   3.618   0.073   1.854
 6457SOL    HW120270   3.673   0.105   1.931
 6457SOL    HW220271   3.557   0.000   1.884
 6458SOL     OW20272   6.870   5.548   3.831
 6458SOL    HW120273   6.826   5.515   3.914
 6458SOL    HW220274   6.969   5.531   3.836
 6459SOL     OW20275   6.954   3.265   2.843
 6459SOL    HW120276   6.899   3.191   2.805
 6459SOL    HW220277   6.913   3.297   2.928
 6460SOL     OW20278   0.639   5.479   6.385
 6460SOL    HW120279   0.612   5.383   6.372
 6460SOL    HW220280   0.592   5.515   6.466
 6461SOL     OW20281   1.398   5.384   1.171
 6461SOL    HW120282   1.396   5.399   1.269
 6461SOL    HW220283   1.396   5.472   1.123
 6462SOL     OW20284   1.817   3.681   5.513
 6462SOL    HW120285   1.845   3.587   5.533
 6462SOL    HW220286   1.754   3.681   5.435
 6463SOL     OW20287   5.085   1.940   1.163
 6463SOL    HW120288   5.102   1.945   1.064
 6463SOL    HW220289   5.172   1.933   1.211
 6464SOL     OW20290   0.921   4.516   3.839
 6464SOL    HW120291   0.980   4.511   3.758
 6464SOL    HW220292   0.978   4.537   3.919
 6465SOL     OW20293   3.504   1.345   3.719
 6465SOL    HW120294   3.422   1.294   3.746
 6465SOL    HW220295   3.479   1.413   3.650
 6466SOL     OW20296   6.879   3.935   0.573
 6466SOL    HW120297   6.841   4.019   0.535
 6466SOL    HW220298   6.805   3.881   0.614
 6467SOL     OW20299   2.804   2.796   0.608
 6467SOL    HW120300   2.775   2.866   0.542
 6467SOL    HW220301   2.755   2.811   0.694
 6468SOL     OW20302   2.374   1.239   0.850
 6468SOL    HW120303   2.294   1.290   0.879
 6468SOL    HW220304   2.378   1.237   0.750
 6469SOL     OW20305   3.269   1.425   2.505
 6469SOL    HW120306   3.368   1.420   2.493
 6469SOL    HW220307   3.245   1.514   2.543
 6470SOL     OW20308   6.756   1.917   0.024
 6470SOL    HW120309   6.817   1.889   0.098
 6470SOL    HW220310   6.678   1.854   0.019
 6471SOL     OW20311   1.057   6.510   5.777
 6471SOL    HW120312   1.000   6.555   5.846
 6471SOL    HW220313   1.074   6.416   5.805
 6472SOL     OW20314   6.578   6.392   2.573
 6472SOL    HW120315   6.646   6.336   2.526
 6472SOL    HW220316   6.546   6.344   2.654
 6473SOL     OW20317   2.568   1.496   3.663
 6473SOL    HW120318   2.507   1.417   3.661
 6473SOL    HW220319   2.648   1.475   3.718
 6474SOL     OW20320   3.565   5.675   4.687
 6474SOL    HW120321   3.541   5.670   4.784
 6474SOL    HW220322   3.532   5.593   4.640
 6475SOL     OW20323   5.912   5.259   2.789
 6475SOL    HW120324   5.980   5.221   2.726
 6475SOL    HW220325   5.907   5.358   2.777
 6476SOL     OW20326   3.943   1.696   6.628
 6476SOL    HW120327   3.939   1.786   6.583
 6476SOL    HW220328   4.026   1.691   6.684
 6477SOL     OW20329   6.412   5.943   1.228
 6477SOL    HW120330   6.385   5.847   1.230
 6477SOL    HW220331   6.411   5.980   1.320
 6478SOL     OW20332   3.250   5.710   0.954
 6478SOL    HW120333   3.169   5.767   0.939
 6478SOL    HW220334   3.304   5.748   1.030
 6479SOL     OW20335   3.465   6.239   3.342
 6479SOL    HW120336   3.479   6.234   3.243
 6479SOL    HW220337   3.371   6.211   3.363
 6480SOL     OW20338   4.011   2.244   6.483
 6480SOL    HW120339   3.936   2.254   6.418
 6480SOL    HW220340   4.084   2.308   6.460
 6481SOL     OW20341   3.411   2.711   1.744
 6481SOL    HW120342   3.428   2.779   1.816
 6481SOL    HW220343   3.476   2.635   1.754
 6482SOL     OW20344   5.741   4.125   5.960
 6482SOL    HW120345   5.742   4.025   5.964
 6482SOL    HW220346   5.786   4.162   6.041
 6483SOL     OW20347   1.785   6.410   4.915
 6483SOL    HW120348   1.738   6.323   4.905
 6483SOL    HW220349   1.720   6.480   4.945
 6484SOL     OW20350   2.597   1.037   3.559
 6484SOL    HW120351   2.613   1.042   3.460
 6484SOL    HW220352   2.668   1.089   3.607
 6485SOL     OW20353   2.130   6.469   4.980
 6485SOL    HW120354   2.119   6.479   4.881
 6485SOL    HW220355   2.096   6.380   5.009
 6486SOL     OW20356   1.394   5.420   2.939
 6486SOL    HW120357   1.372   5.443   3.034
 6486SOL    HW220358   1.492   5.428   2.925
 6487SOL     OW20359   5.397   4.508   4.006
 6487SOL    HW120360   5.312   4.456   4.015
 6487SOL    HW220361   5.395   4.588   4.066
 6488SOL     OW20362   4.239   5.087   4.700
 6488SOL    HW120363   4.223   5.086   4.799
 6488SOL    HW220364   4.306   5.158   4.678
 6489SOL     OW20365   4.812   2.640   5.735
 6489SOL    HW120366   4.732   2.609   5.684
 6489SOL    HW220367   4.797   2.733   5.767
 6490SOL     OW20368   2.077   2.461   6.990
 6490SOL    HW120369   2.123   2.537   0.013
 6490SOL    HW220370   1.995   2.494   6.943
 6491SOL     OW20371   2.514   6.757   1.482
 6491SOL    HW120372   2.477   6.677   1.436
 6491SOL    HW220373   2.528   6.736   1.579
 6492SOL     OW20374   3.694   3.258   4.515
 6492SOL    HW120375   3.790   3.277   4.495
 6492SOL    HW220376   3.684   3.234   4.611
 6493SOL     OW20377   0.955   4.170   5.454
 6493SOL    HW120378   0.911   4.085   5.482
 6493SOL    HW220379   1.047   4.150   5.420
 6494SOL     OW20380   6.543   0.598   1.583
 6494SOL    HW120381   6.554   0.662   1.659
 6494SOL    HW220382   6.505   0.512   1.617
 6495SOL     OW20383   6.126   0.219   3.777
 6495SOL    HW120384   6.068   0.269   3.713
 6495SOL    HW220385   6.162   0.137   3.732
 6496SOL     OW20386   3.686   1.463   1.439
 6496SOL    HW120387   3.760   1.494   1.379
 6496SOL    HW220388   3.692   1.512   1.527
 6497SOL     OW20389   0.146   1.437   0.787
 6497SOL    HW120390   0.164   1.528   0.823
 6497SOL    HW220391   0.090   1.445   0.704
 6498SOL     OW20392   0.890   4.813   4.174
 6498SOL    HW120393   0.946   4.858   4.243
 6498SOL    HW220394   0.871   4.878   4.100
 6499SOL     OW20395   4.889   3.554   3.288
 6499SOL    HW120396   4.897   3.471   3.232
 6499SOL    HW220397   4.801   3.598   3.268
 6500SOL     OW20398   1.346   4.404   2.826
 6500SOL    HW120399   1.435   4.357   2.821
 6500SOL    HW220400   1.294   4.367   2.902
 6501SOL     OW20401   6.100   1.866   1.894
 6501SOL    HW120402   6.009   1.849   1.856
 6501SOL    HW220403   6.128   1.959   1.873
 6502SOL     OW20404   6.834   3.468   2.203
 6502SOL    HW120405   6.884   3.552   2.225
 6502SOL    HW220406   6.737   3.481   2.220
 6503SOL     OW20407   6.788   3.366   5.477
 6503SOL    HW120408   6.703   3.353   5.427
 6503SOL    HW220409   6.835   3.278   5.486
 6504SOL     OW20410   4.880   6.039   6.409
 6504SOL    HW120411   4.912   6.112   6.469
 6504SOL    HW220412   4.780   6.034   6.414
 6505SOL     OW20413   6.902   5.917   0.044
 6505SOL    HW120414   6.917   5.865   6.982
 6505SOL    HW220415   6.963   5.996   0.046
 6506SOL     OW20416   6.983   3.681   2.277
 6506SOL    HW120417   0.019   3.748   2.230
 6506SOL    HW220418   6.919   3.728   2.338
 6507SOL     OW20419   3.603   5.008   0.065
 6507SOL    HW120420   3.639   5.026   6.995
 6507SOL    HW220421   3.640   4.922   0.099
 6508SOL     OW20422   0.799   0.112   2.650
 6508SOL    HW120423   0.790   0.142   2.555
 6508SOL    HW220424   0.736   0.036   2.667
 6509SOL     OW20425   2.765   1.733   6.224
 6509SOL    HW120426   2.823   1.686   6.291
 6509SOL    HW220427   2.677   1.753   6.266
 6510SOL     OW20428   3.445   5.681   5.696
 6510SOL    HW120429   3.542   5.662   5.712
 6510SOL    HW220430   3.436   5.762   5.638
 6511SOL     OW20431   3.019   1.370   0.919
 6511SOL    HW120432   2.960   1.304   0.872
 6511SOL    HW220433   2.968   1.416   0.990
 6512SOL     OW20434   3.707   1.508   0.034
 6512SOL    HW120435   3.798   1.470   0.047
 6512SOL    HW220436   3.695   1.532   6.959
 6513SOL     OW20437   2.526   4.823   2.817
 6513SOL    HW120438   2.580   4.774   2.749
 6513SOL    HW220439   2.429   4.814   2.796
 6514SOL     OW20440   5.052   6.503   5.551
 6514SOL    HW120441   5.149   6.488   5.533
 6514SOL    HW220442   4.998   6.428   5.513
 6515SOL     OW20443   1.638   4.661   2.438
 6515SOL    HW120444   1.700   4.720   2.489
 6515SOL    HW220445   1.675   4.645   2.346
 6516SOL     OW20446   6.546   3.812   1.493
 6516SOL    HW120447   6.452   3.800   1.460
 6516SOL    HW220448   6.549   3.886   1.559
 6517SOL     OW20449   0.081   3.668   0.979
 6517SOL    HW120450   0.063   3.577   0.941
 6517SOL    HW220451   0.080   3.735   0.906
 6518SOL     OW20452   0.605   1.762   2.801
 6518SOL    HW120453   0.592   1.810   2.714
 6518SOL    HW220454   0.557   1.810   2.874
 6519SOL     OW20455   1.439   1.227   3.414
 6519SOL    HW120456   1.518   1.172   3.386
 6519SOL    HW220457   1.453   1.322   3.387
 6520SOL     OW20458   0.071   5.114   6.752
 6520SOL    HW120459   0.113   5.041   6.698
 6520SOL    HW220460   0.134   5.192   6.757
 6521SOL     OW20461   1.389   4.092   3.584
 6521SOL    HW120462   1.385   4.014   3.522
 6521SOL    HW220463   1.455   4.159   3.549
 6522SOL     OW20464   2.469   3.015   5.433
 6522SOL    HW120465   2.480   2.997   5.336
 6522SOL    HW220466   2.395   2.959   5.470
 6523SOL     OW20467   6.060   0.227   0.387
 6523SOL    HW120468   6.074   0.129   0.372
 6523SOL    HW220469   5.965   0.243   0.414
 6524SOL     OW20470   2.434   2.723   0.836
 6524SOL    HW120471   2.435   2.666   0.919
 6524SOL    HW220472   2.367   2.685   0.772
 6525SOL     OW20473   1.018   5.435   3.363
 6525SOL    HW120474   1.001   5.415   3.266
 6525SOL    HW220475   1.055   5.527   3.372
 6526SOL     OW20476   0.816   5.887   6.878
 6526SOL    HW120477   0.733   5.932   6.844
 6526SOL    HW220478   0.892   5.952   6.877
 6527SOL     OW20479   6.942   1.757   0.207
 6527SOL    HW120480   6.884   1.770   0.287
 6527SOL    HW220481   6.962   1.659   0.197
 6528SOL     OW20482   4.660   0.056   6.936
 6528SOL    HW120483   4.573   0.083   6.895
 6528SOL    HW220484   4.661   0.083   0.011
 6529SOL     OW20485   5.866   0.850   2.882
 6529SOL    HW120486   5.784   0.877   2.831
 6529SOL    HW220487   5.882   0.752   2.871
 6530SOL     OW20488   0.802   3.299   2.833
 6530SOL    HW120489   0.786   3.341   2.744
 6530SOL    HW220490   0.810   3.200   2.822
 6531SOL     OW20491   3.641   4.253   5.349
 6531SOL    HW120492   3.611   4.348   5.356
 6531SOL    HW220493   3.648   4.227   5.252
 6532SOL     OW20494   1.377   0.527   0.556
 6532SOL    HW120495   1.435   0.592   0.508
 6532SOL    HW220496   1.381   0.545   0.654
 6533SOL     OW20497   4.917   3.495   0.967
 6533SOL    HW120498   4.820   3.512   0.986
 6533SOL    HW220499   4.932   3.397   0.961
 6534SOL     OW20500   6.844   4.832   3.009
 6534SOL    HW120501   6.878   4.848   2.916
 6534SOL    HW220502   6.746   4.817   3.007
 6535SOL     OW20503   5.456   2.862   5.321
 6535SOL    HW120504   5.416   2.920   5.392
 6535SOL    HW220505   5.493   2.779   5.363
 6536SOL     OW20506   0.709   4.268   5.384
 6536SOL    HW120507   0.787   4.219   5.424
 6536SOL    HW220508   0.637   4.278   5.452
 6537SOL     OW20509   6.409   5.529   4.296
 6537SOL    HW120510   6.440   5.613   4.342
 6537SOL    HW220511   6.442   5.528   4.202
 6538SOL     OW20512   1.687   3.064   5.833
 6538SOL    HW120513   1.691   3.045   5.931
 6538SOL    HW220514   1.639   3.150   5.817
 6539SOL     OW20515   5.191   0.976   5.843
 6539SOL    HW120516   5.284   0.981   5.879
 6539SOL    HW220517   5.126   0.971   5.920
 6540SOL     OW20518   6.099   2.561   5.466
 6540SOL    HW120519   6.189   2.537   5.428
 6540SOL    HW220520   6.109   2.637   5.530
 6541SOL     OW20521   6.184   1.149   5.129
 6541SOL    HW120522   6.278   1.119   5.115
 6541SOL    HW220523   6.177   1.196   5.217
 6542SOL     OW20524   1.356   4.467   3.337
 6542SOL    HW120525   1.384   4.473   3.241
 6542SOL    HW220526   1.314   4.378   3.354
 6543SOL     OW20527   3.738   1.995   5.033
 6543SOL    HW120528   3.829   1.989   4.992
 6543SOL    HW220529   3.671   2.017   4.962
 6544SOL     OW20530   1.123   6.683   1.581
 6544SOL    HW120531   1.069   6.712   1.660
 6544SOL    HW220532   1.185   6.758   1.555
 6545SOL     OW20533   4.556   6.673   0.749
 6545SOL    HW120534   4.630   6.607   0.735
 6545SOL    HW220535   4.592   6.754   0.797
 6546SOL     OW20536   4.669   3.615   6.184
 6546SOL    HW120537   4.573   3.596   6.207
 6546SOL    HW220538   4.674   3.647   6.090
 6547SOL     OW20539   6.999   5.462   6.285
 6547SOL    HW120540   0.035   5.398   6.236
 6547SOL    HW220541   6.967   5.420   6.370
 6548SOL     OW20542   0.585   1.405   5.356
 6548SOL    HW120543   0.587   1.363   5.447
 6548SOL    HW220544   0.491   1.428   5.331
 6549SOL     OW20545   4.761   1.198   2.189
 6549SOL    HW120546   4.777   1.166   2.282
 6549SOL    HW220547   4.797   1.290   2.178
 6550SOL     OW20548   5.980   6.611   3.466
 6550SOL    HW120549   6.048   6.558   3.517
 6550SOL    HW220550   5.925   6.550   3.410
 6551SOL     OW20551   3.243   3.806   0.637
 6551SOL    HW120552   3.310   3.817   0.711
 6551SOL    HW220553   3.217   3.710   0.630
 6552SOL     OW20554   1.978   6.043   0.447
 6552SOL    HW120555   2.005   6.022   0.353
 6552SOL    HW220556   1.903   5.983   0.474
 6553SOL     OW20557   0.577   1.087   3.703
 6553SOL    HW120558   0.619   1.085   3.794
 6553SOL    HW220559   0.547   1.180   3.683
 6554SOL     OW20560   2.203   1.453   4.052
 6554SOL    HW120561   2.141   1.530   4.062
 6554SOL    HW220562   2.163   1.386   3.989
 6555SOL     OW20563   6.344   4.064   3.608
 6555SOL    HW120564   6.303   4.055   3.699
 6555SOL    HW220565   6.434   4.021   3.609
 6556SOL     OW20566   4.797   2.874   2.818
 6556SOL    HW120567   4.842   2.922   2.742
 6556SOL    HW220568   4.698   2.873   2.801
 6557SOL     OW20569   2.464   0.562   2.166
 6557SOL    HW120570   2.396   0.531   2.232
 6557SOL    HW220571   2.471   0.662   2.170
 6558SOL     OW20572   5.499   5.443   6.420
 6558SOL    HW120573   5.483   5.539   6.439
 6558SOL    HW220574   5.553   5.403   6.494
 6559SOL     OW20575   0.133   1.905   6.036
 6559SOL    HW120576   0.120   2.004   6.029
 6559SOL    HW220577   0.206   1.877   5.974
 6560SOL     OW20578   5.479   4.796   0.592
 6560SOL    HW120579   5.458   4.770   0.498
 6560SOL    HW220580   5.412   4.863   0.624
 6561SOL     OW20581   3.256   4.497   6.950
 6561SOL    HW120582   3.295   4.536   0.012
 6561SOL    HW220583   3.321   4.432   6.911
 6562SOL     OW20584   5.482   2.693   1.041
 6562SOL    HW120585   5.558   2.754   1.065
 6562SOL    HW220586   5.503   2.600   1.069
 6563SOL     OW20587   5.313   5.807   5.085
 6563SOL    HW120588   5.351   5.730   5.033
 6563SOL    HW220589   5.216   5.791   5.100
 6564SOL     OW20590   6.224   3.602   2.868
 6564SOL    HW120591   6.261   3.588   2.776
 6564SOL    HW220592   6.298   3.589   2.935
 6565SOL     OW20593   5.400   0.836   3.185
 6565SOL    HW120594   5.321   0.894   3.171
 6565SOL    HW220595   5.426   0.793   3.099
 6566SOL     OW20596   4.989   6.273   3.156
 6566SOL    HW120597   4.917   6.219   3.200
 6566SOL    HW220598   5.070   6.276   3.214
 6567SOL     OW20599   4.197   0.868   1.110
 6567SOL    HW120600   4.294   0.843   1.105
 6567SOL    HW220601   4.184   0.957   1.065
 6568SOL     OW20602   4.251   1.637   1.197
 6568SOL    HW120603   4.246   1.684   1.109
 6568SOL    HW220604   4.307   1.690   1.260
 6569SOL     OW20605   0.186   4.139   5.620
 6569SOL    HW120606   0.233   4.225   5.639
 6569SOL    HW220607   0.247   4.079   5.567
 6570SOL     OW20608   4.158   0.176   1.870
 6570SOL    HW120609   4.148   0.079   1.895
 6570SOL    HW220610   4.251   0.192   1.837
 6571SOL     OW20611   3.373   5.409   2.645
 6571SOL    HW120612   3.366   5.381   2.549
 6571SOL    HW220613   3.285   5.394   2.691
 6572SOL     OW20614   1.072   5.792   4.203
 6572SOL    HW120615   1.089   5.812   4.299
 6572SOL    HW220616   0.979   5.757   4.192
 6573SOL     OW20617   1.817   1.577   3.512
 6573SOL    HW120618   1.783   1.510   3.577
 6573SOL    HW220619   1.785   1.668   3.538
 6574SOL     OW20620   1.877   5.498   1.796
 6574SOL    HW120621   1.899   5.543   1.882
 6574SOL    HW220622   1.931   5.538   1.722
 6575SOL     OW20623   6.873   1.314   3.069
 6575SOL    HW120624   6.773   1.310   3.074
 6575SOL    HW220625   6.908   1.363   3.149
 6576SOL     OW20626   4.460   6.126   1.063
 6576SOL    HW120627   4.428   6.206   1.013
 6576SOL    HW220628   4.540   6.150   1.118
 6577SOL     OW20629   2.898   1.093   3.652
 6577SOL    HW120630   2.916   1.182   3.610
 6577SOL    HW220631   2.984   1.049   3.674
 6578SOL     OW20632   1.382   4.798   1.688
 6578SOL    HW120633   1.418   4.799   1.594
 6578SOL    HW220634   1.284   4.781   1.685
 6579SOL     OW20635   6.391   1.056   4.324
 6579SOL    HW120636   6.463   1.082   4.388
 6579SOL    HW220637   6.413   1.091   4.233
 6580SOL     OW20638   2.299   1.582   6.725
 6580SOL    HW120639   2.359   1.593   6.645
 6580SOL    HW220640   2.211   1.625   6.706
 6581SOL     OW20641   0.407   2.141   0.637
 6581SOL    HW120642   0.307   2.136   0.639
 6581SOL    HW220643   0.445   2.083   0.709
 6582SOL     OW20644   6.790   1.294   3.483
 6582SOL    HW120645   6.858   1.326   3.417
 6582SOL    HW220646   6.802   1.196   3.498
 6583SOL     OW20647   3.763   5.555   6.633
 6583SOL    HW120648   3.675   5.518   6.663
 6583SOL    HW220649   3.818   5.579   6.713
 6584SOL     OW20650   3.662   2.642   0.664
 6584SOL    HW120651   3.680   2.676   0.756
 6584SOL    HW220652   3.574   2.679   0.632
 6585SOL     OW20653   5.951   6.607   1.084
 6585SOL    HW120654   5.967   6.509   1.099
 6585SOL    HW220655   5.854   6.623   1.065
 6586SOL     OW20656   6.705   2.080   6.621
 6586SOL    HW120657   6.633   2.032   6.671
 6586SOL    HW220658   6.686   2.077   6.523
 6587SOL     OW20659   1.856   4.785   5.418
 6587SOL    HW120660   1.767   4.809   5.381
 6587SOL    HW220661   1.849   4.699   5.469
 6588SOL     OW20662   6.463   2.824   0.703
 6588SOL    HW120663   6.559   2.827   0.733
 6588SOL    HW220664   6.404   2.815   0.783
 6589SOL     OW20665   0.142   0.529   2.056
 6589SOL    HW120666   0.235   0.506   2.026
 6589SOL    HW220667   0.146   0.582   2.141
 6590SOL     OW20668   1.459   6.845   3.665
 6590SOL    HW120669   1.450   6.887   3.575
 6590SOL    HW220670   1.535   6.780   3.664
 6591SOL     OW20671   5.732   4.323   4.521
 6591SOL    HW120672   5.804   4.285   4.463
 6591SOL    HW220673   5.643   4.299   4.484
 6592SOL     OW20674   6.420   0.124   3.240
 6592SOL    HW120675   6.449   0.044   3.293
 6592SOL    HW220676   6.379   0.094   3.154
 6593SOL     OW20677   2.819   2.187   2.290
 6593SOL    HW120678   2.848   2.236   2.209
 6593SOL    HW220679   2.752   2.116   2.265
 6594SOL     OW20680   5.022   0.732   6.419
 6594SOL    HW120681   5.053   0.771   6.332
 6594SOL    HW220682   4.945   0.671   6.403
 6595SOL     OW20683   1.246   2.637   5.571
 6595SOL    HW120684   1.217   2.647   5.666
 6595SOL    HW220685   1.231   2.723   5.522
 6596SOL     OW20686   6.020   6.754   2.353
 6596SOL    HW120687   6.098   6.735   2.412
 6596SOL    HW220688   6.049   6.811   2.276
 6597SOL     OW20689   1.053   4.510   2.179
 6597SOL    HW120690   1.025   4.566   2.101
 6597SOL    HW220691   1.054   4.566   2.261
 6598SOL     OW20692   1.466   4.431   4.196
 6598SOL    HW120693   1.474   4.414   4.294
 6598SOL    HW220694   1.507   4.355   4.145
 6599SOL     OW20695   5.907   5.293   6.459
 6599SOL    HW120696   5.924   5.262   6.365
 6599SOL    HW220697   5.959   5.235   6.522
 6600SOL     OW20698   4.512   6.887   4.909
 6600SOL    HW120699   4.563   6.837   4.980
 6600SOL    HW220700   4.567   6.964   4.877
 6601SOL     OW20701   1.771   2.508   1.621
 6601SOL    HW120702   1.784   2.513   1.522
 6601SOL    HW220703   1.683   2.550   1.645
 6602SOL     OW20704   1.481   6.125   1.497
 6602SOL    HW120705   1.522   6.199   1.551
 6602SOL    HW220706   1.461   6.047   1.558
 6603SOL     OW20707   0.354   3.825   2.915
 6603SOL    HW120708   0.291   3.749   2.925
 6603SOL    HW220709   0.414   3.809   2.837
 6604SOL     OW20710   2.398   6.061   2.674
 6604SOL    HW120711   2.494   6.085   2.659
 6604SOL    HW220712   2.340   6.137   2.645
 6605SOL     OW20713   6.687   5.138   0.996
 6605SOL    HW120714   6.744   5.066   1.036
 6605SOL    HW220715   6.744   5.199   0.941
 6606SOL     OW20716   1.932   3.600   3.063
 6606SOL    HW120717   1.873   3.677   3.038
 6606SOL    HW220718   1.896   3.516   3.024
 6607SOL     OW20719   5.866   4.027   3.448
 6607SOL    HW120720   5.810   4.042   3.529
 6607SOL    HW220721   5.962   4.024   3.474
 6608SOL     OW20722   1.515   6.037   6.063
 6608SOL    HW120723   1.554   5.948   6.040
 6608SOL    HW220724   1.558   6.108   6.007
 6609SOL     OW20725   4.692   1.764   5.812
 6609SOL    HW120726   4.722   1.827   5.884
 6609SOL    HW220727   4.694   1.811   5.724
 6610SOL     OW20728   2.958   5.085   0.811
 6610SOL    HW120729   2.869   5.039   0.807
 6610SOL    HW220730   3.025   5.025   0.854
 6611SOL     OW20731   4.237   1.555   4.624
 6611SOL    HW120732   4.211   1.566   4.528
 6611SOL    HW220733   4.166   1.503   4.672
 6612SOL     OW20734   0.198   0.484   6.248
 6612SOL    HW120735   0.247   0.567   6.274
 6612SOL    HW220736   0.149   0.448   6.327
 6613SOL     OW20737   4.701   6.517   0.324
 6613SOL    HW120738   4.742   6.509   0.233
 6613SOL    HW220739   4.601   6.517   0.316
 6614SOL     OW20740   4.427   5.613   0.915
 6614SOL    HW120741   4.398   5.679   0.984
 6614SOL    HW220742   4.484   5.543   0.958
 6615SOL     OW20743   3.302   4.527   6.544
 6615SOL    HW120744   3.283   4.495   6.452
 6615SOL    HW220745   3.229   4.499   6.605
 6616SOL     OW20746   4.030   0.971   5.575
 6616SOL    HW120747   4.117   0.939   5.612
 6616SOL    HW220748   3.995   1.045   5.632
 6617SOL     OW20749   3.848   0.685   4.105
 6617SOL    HW120750   3.912   0.693   4.181
 6617SOL    HW220751   3.792   0.603   4.117
 6618SOL     OW20752   6.982   2.540   3.491
 6618SOL    HW120753   6.939   2.618   3.446
 6618SOL    HW220754   6.998   2.561   3.587
 6619SOL     OW20755   4.779   6.066   4.149
 6619SOL    HW120756   4.761   6.093   4.244
 6619SOL    HW220757   4.707   6.103   4.090
 6620SOL     OW20758   0.475   3.452   3.659
 6620SOL    HW120759   0.385   3.458   3.703
 6620SOL    HW220760   0.464   3.457   3.559
 6621SOL     OW20761   4.012   3.246   4.532
 6621SOL    HW120762   4.067   3.224   4.612
 6621SOL    HW220763   4.032   3.340   4.503
 6622SOL     OW20764   0.919   5.488   0.598
 6622SOL    HW120765   0.901   5.400   0.643
 6622SOL    HW220766   0.906   5.562   0.663
 6623SOL     OW20767   3.511   3.585   5.539
 6623SOL    HW120768   3.448   3.512   5.512
 6623SOL    HW220769   3.524   3.582   5.638
 6624SOL     OW20770   1.599   2.021   3.501
 6624SOL    HW120771   1.669   2.072   3.551
 6624SOL    HW220772   1.573   2.071   3.419
 6625SOL     OW20773   6.220   3.710   5.860
 6625SOL    HW120774   6.263   3.723   5.949
 6625SOL    HW220775   6.122   3.730   5.867
 6626SOL     OW20776   2.545   6.312   5.109
 6626SOL    HW120777   2.541   6.353   5.200
 6626SOL    HW220778   2.601   6.368   5.049
 6627SOL     OW20779   1.676   5.650   4.322
 6627SOL    HW120780   1.618   5.666   4.243
 6627SOL    HW220781   1.643   5.704   4.400
 6628SOL     OW20782   4.066   6.104   4.322
 6628SOL    HW120783   4.037   6.104   4.227
 6628SOL    HW220784   4.080   6.009   4.353
 6629SOL     OW20785   4.941   5.717   6.001
 6629SOL    HW120786   4.961   5.759   6.090
 6629SOL    HW220787   4.859   5.758   5.963
 6630SOL     OW20788   1.832   0.922   1.273
 6630SOL    HW120789   1.892   0.998   1.300
 6630SOL    HW220790   1.762   0.910   1.343
 6631SOL     OW20791   1.588   3.866   6.134
 6631SOL    HW120792   1.650   3.921   6.078
 6631SOL    HW220793   1.506   3.844   6.081
 6632SOL     OW20794   1.194   1.303   1.310
 6632SOL    HW120795   1.159   1.367   1.379
 6632SOL    HW220796   1.215   1.353   1.226
 6633SOL     OW20797   3.604   5.487   6.064
 6633SOL    HW120798   3.520   5.511   6.016
 6633SOL    HW220799   3.582   5.456   6.157
 6634SOL     OW20800   4.155   1.847   4.281
 6634SOL    HW120801   4.089   1.861   4.207
 6634SOL    HW220802   4.105   1.830   4.366
 6635SOL     OW20803   5.190   5.111   3.621
 6635SOL    HW120804   5.162   5.015   3.618
 6635SOL    HW220805   5.227   5.137   3.532
 6636SOL     OW20806   4.128   0.596   6.974
 6636SOL    HW120807   4.124   0.505   6.934
 6636SOL    HW220808   4.036   0.637   6.973
 6637SOL     OW20809   1.276   1.700   1.679
 6637SOL    HW120810   1.355   1.740   1.725
 6637SOL    HW220811   1.301   1.679   1.584
 6638SOL     OW20812   3.315   3.607   3.854
 6638SOL    HW120813   3.312   3.551   3.771
 6638SOL    HW220814   3.229   3.597   3.904
 6639SOL     OW20815   5.037   2.631   1.654
 6639SOL    HW120816   5.072   2.721   1.629
 6639SOL    HW220817   5.085   2.597   1.734
 6640SOL     OW20818   1.121   2.975   4.975
 6640SOL    HW120819   1.044   2.917   5.001
 6640SOL    HW220820   1.148   3.032   5.052
 6641SOL     OW20821   5.066   1.895   0.881
 6641SOL    HW120822   5.149   1.850   0.913
 6641SOL    HW220823   5.081   1.994   0.875
 6642SOL     OW20824   0.967   6.022   0.174
 6642SOL    HW120825   1.029   5.953   0.211
 6642SOL    HW220826   0.984   6.033   0.076
 6643SOL     OW20827   3.899   6.301   6.770
 6643SOL    HW120828   3.997   6.296   6.752
 6643SOL    HW220829   3.879   6.380   6.828
 6644SOL     OW20830   1.923   6.560   3.692
 6644SOL    HW120831   1.996   6.564   3.760
 6644SOL    HW220832   1.919   6.468   3.653
 6645SOL     OW20833   5.537   2.674   0.326
 6645SOL    HW120834   5.539   2.672   0.426
 6645SOL    HW220835   5.483   2.596   0.293
 6646SOL     OW20836   4.555   6.965   6.134
 6646SOL    HW120837   4.631   6.923   6.084
 6646SOL    HW220838   4.478   6.979   6.072
 6647SOL     OW20839   4.662   5.190   1.263
 6647SOL    HW120840   4.658   5.165   1.166
 6647SOL    HW220841   4.756   5.216   1.287
 6648SOL     OW20842   2.649   6.173   6.074
 6648SOL    HW120843   2.625   6.163   6.170
 6648SOL    HW220844   2.746   6.194   6.065
 6649SOL     OW20845   5.263   3.178   0.029
 6649SOL    HW120846   5.201   3.140   0.098
 6649SOL    HW220847   5.240   3.140   6.961
 6650SOL     OW20848   2.333   1.596   5.192
 6650SOL    HW120849   2.321   1.674   5.253
 6650SOL    HW220850   2.249   1.579   5.142
 6651SOL     OW20851   6.724   1.542   6.546
 6651SOL    HW120852   6.696   1.625   6.498
 6651SOL    HW220853   6.693   1.547   6.641
 6652SOL     OW20854   0.138   4.472   0.723
 6652SOL    HW120855   0.231   4.500   0.745
 6652SOL    HW220856   0.114   4.505   0.632
 6653SOL     OW20857   5.684   4.631   0.585
 6653SOL    HW120858   5.597   4.678   0.596
 6653SOL    HW220859   5.742   4.650   0.664
 6654SOL     OW20860   6.709   4.416   3.138
 6654SOL    HW120861   6.732   4.352   3.211
 6654SOL    HW220862   6.733   4.509   3.166
 6655SOL     OW20863   6.588   5.134   2.240
 6655SOL    HW120864   6.572   5.037   2.258
 6655SOL    HW220865   6.618   5.180   2.323
 6656SOL     OW20866   4.096   1.538   2.728
 6656SOL    HW120867   4.123   1.481   2.805
 6656SOL    HW220868   3.996   1.544   2.724
 6657SOL     OW20869   5.667   2.596   3.433
 6657SOL    HW120870   5.752   2.552   3.403
 6657SOL    HW220871   5.613   2.624   3.354
 6658SOL     OW20872   6.525   5.696   5.617
 6658SOL    HW120873   6.450   5.665   5.558
 6658SOL    HW220874   6.545   5.792   5.599
 6659SOL     OW20875   0.678   5.019   2.305
 6659SOL    HW120876   0.665   5.105   2.256
 6659SOL    HW220877   0.753   4.968   2.263
 6660SOL     OW20878   7.001   6.397   3.633
 6660SOL    HW120879   6.973   6.306   3.664
 6660SOL    HW220880   6.977   6.407   3.536
 6661SOL     OW20881   3.868   6.002   4.112
 6661SOL    HW120882   3.909   5.976   4.025
 6661SOL    HW220883   3.893   5.935   4.182
 6662SOL     OW20884   3.583   6.702   2.527
 6662SOL    HW120885   3.507   6.666   2.581
 6662SOL    HW220886   3.667   6.694   2.580
 6663SOL     OW20887   1.219   4.043   6.002
 6663SOL    HW120888   1.128   4.049   6.045
 6663SOL    HW220889   1.217   4.090   5.914
 6664SOL     OW20890   2.675   0.347   1.105
 6664SOL    HW120891   2.641   0.435   1.139
 6664SOL    HW220892   2.748   0.362   1.039
 6665SOL     OW20893   2.366   0.642   6.071
 6665SOL    HW120894   2.271   0.614   6.087
 6665SOL    HW220895   2.379   0.661   5.974
 6666SOL     OW20896   4.037   6.266   5.439
 6666SOL    HW120897   4.032   6.200   5.364
 6666SOL    HW220898   4.097   6.342   5.413
 6667SOL     OW20899   6.807   6.294   0.232
 6667SOL    HW120900   6.748   6.352   0.287
 6667SOL    HW220901   6.761   6.206   0.215
 6668SOL     OW20902   0.495   5.273   0.534
 6668SOL    HW120903   0.528   5.244   0.444
 6668SOL    HW220904   0.473   5.193   0.589
 6669SOL     OW20905   1.486   0.980   3.156
 6669SOL    HW120906   1.399   0.987   3.205
 6669SOL    HW220907   1.516   1.071   3.128
 6670SOL     OW20908   4.258   2.423   1.167
 6670SOL    HW120909   4.166   2.424   1.206
 6670SOL    HW220910   4.315   2.359   1.220
 6671SOL     OW20911   4.574   6.006   0.488
 6671SOL    HW120912   4.476   5.997   0.505
 6671SOL    HW220913   4.617   5.915   0.492
 6672SOL     OW20914   1.927   2.303   0.881
 6672SOL    HW120915   2.012   2.349   0.904
 6672SOL    HW220916   1.850   2.352   0.923
 6673SOL     OW20917   6.102   3.335   3.556
 6673SOL    HW120918   6.046   3.406   3.599
 6673SOL    HW220919   6.180   3.377   3.509
 6674SOL     OW20920   0.191   2.276   0.063
 6674SOL    HW120921   0.190   2.338   0.141
 6674SOL    HW220922   0.200   2.330   7.000
 6675SOL     OW20923   5.416   1.703   6.790
 6675SOL    HW120924   5.423   1.787   6.737
 6675SOL    HW220925   5.463   1.629   6.741
 6676SOL     OW20926   1.406   3.876   3.401
 6676SOL    HW120927   1.343   3.865   3.324
 6676SOL    HW220928   1.496   3.902   3.367
 6677SOL     OW20929   0.025   1.495   0.284
 6677SOL    HW120930   6.990   1.506   0.365
 6677SOL    HW220931   0.023   1.400   0.254
 6678SOL     OW20932   2.137   4.187   6.851
 6678SOL    HW120933   2.113   4.268   6.797
 6678SOL    HW220934   2.110   4.105   6.801
 6679SOL     OW20935   1.818   0.676   3.858
 6679SOL    HW120936   1.885   0.664   3.931
 6679SOL    HW220937   1.745   0.608   3.869
 6680SOL     OW20938   6.027   6.860   1.138
 6680SOL    HW120939   6.011   6.768   1.101
 6680SOL    HW220940   5.941   6.900   1.168
 6681SOL     OW20941   3.395   6.391   1.779
 6681SOL    HW120942   3.350   6.316   1.826
 6681SOL    HW220943   3.486   6.407   1.819
 6682SOL     OW20944   3.190   4.683   6.183
 6682SOL    HW120945   3.166   4.779   6.167
 6682SOL    HW220946   3.268   4.679   6.245
 6683SOL     OW20947   6.696   3.780   6.516
 6683SOL    HW120948   6.630   3.796   6.442
 6683SOL    HW220949   6.788   3.800   6.483
 6684SOL     OW20950   2.654   6.810   0.766
 6684SOL    HW120951   2.743   6.821   0.721
 6684SOL    HW220952   2.607   6.898   0.766
 6685SOL     OW20953   4.952   3.677   6.756
 6685SOL    HW120954   4.864   3.630   6.766
 6685SOL    HW220955   4.994   3.688   6.846
 6686SOL     OW20956   4.649   5.100   3.833
 6686SOL    HW120957   4.685   5.008   3.819
 6686SOL    HW220958   4.667   5.156   3.752
 6687SOL     OW20959   6.550   2.316   1.855
 6687SOL    HW120960   6.579   2.405   1.819
 6687SOL    HW220961   6.623   2.249   1.842
 6688SOL     OW20962   4.553   5.598   0.320
 6688SOL    HW120963   4.601   5.656   0.385
 6688SOL    HW220964   4.457   5.591   0.346
 6689SOL     OW20965   2.021   4.545   5.988
 6689SOL    HW120966   1.973   4.465   5.952
 6689SOL    HW220967   2.119   4.525   5.994
 6690SOL     OW20968   0.808   6.902   5.613
 6690SOL    HW120969   0.815   6.802   5.611
 6690SOL    HW220970   0.713   6.929   5.598
 6691SOL     OW20971   2.430   2.681   3.123
 6691SOL    HW120972   2.507   2.735   3.087
 6691SOL    HW220973   2.457   2.639   3.210
 6692SOL     OW20974   4.930   5.217   1.332
 6692SOL    HW120975   4.895   5.227   1.425
 6692SOL    HW220976   5.029   5.210   1.333
 6693SOL     OW20977   4.404   1.897   4.711
 6693SOL    HW120978   4.472   1.865   4.646
 6693SOL    HW220979   4.393   1.996   4.701
 6694SOL     OW20980   3.090   4.364   1.258
 6694SOL    HW120981   3.051   4.445   1.302
 6694SOL    HW220982   3.190   4.369   1.262
 6695SOL     OW20983   2.798   2.262   6.091
 6695SOL    HW120984   2.827   2.166   6.087
 6695SOL    HW220985   2.819   2.300   6.181
 6696SOL     OW20986   3.960   3.522   4.464
 6696SOL    HW120987   3.868   3.520   4.425
 6696SOL    HW220988   3.999   3.614   4.453
 6697SOL     OW20989   4.354   2.284   2.650
 6697SOL    HW120990   4.416   2.302   2.726
 6697SOL    HW220991   4.261   2.269   2.685
 6698SOL     OW20992   3.221   3.971   1.052
 6698SOL    HW120993   3.201   3.944   1.146
 6698SOL    HW220994   3.292   3.911   1.014
 6699SOL     OW20995   1.541   4.419   5.667
 6699SOL    HW120996   1.570   4.324   5.676
 6699SOL    HW220997   1.523   4.440   5.571
 6700SOL     OW20998   5.863   6.813   0.015
 6700SOL    HW120999   5.781   6.770   0.051
 6700SOL    HW221000   5.900   6.757   6.963
 6701SOL     OW21001   6.171   0.630   1.539
 6701SOL    HW121002   6.072   0.645   1.543
 6701SOL    HW221003   6.194   0.579   1.456
 6702SOL     OW21004   2.889   2.599   0.842
 6702SOL    HW121005   2.981   2.630   0.869
 6702SOL    HW221006   2.830   2.678   0.829
 6703SOL     OW21007   0.299   1.135   6.682
 6703SOL    HW121008   0.298   1.108   6.778
 6703SOL    HW221009   0.206   1.152   6.651
 6704SOL     OW21010   3.006   0.524   5.408
 6704SOL    HW121011   3.092   0.572   5.427
 6704SOL    HW221012   2.957   0.508   5.494
 6705SOL     OW21013   6.526   3.507   2.276
 6705SOL    HW121014   6.455   3.578   2.274
 6705SOL    HW221015   6.525   3.456   2.190
 6706SOL     OW21016   0.410   6.889   1.937
 6706SOL    HW121017   0.421   6.909   2.034
 6706SOL    HW221018   0.370   6.968   1.891
 6707SOL     OW21019   5.714   0.549   2.139
 6707SOL    HW121020   5.764   0.635   2.124
 6707SOL    HW221021   5.616   0.568   2.141
 6708SOL     OW21022   0.737   4.108   1.659
 6708SOL    HW121023   0.721   4.184   1.597
 6708SOL    HW221024   0.832   4.111   1.692
 6709SOL     OW21025   2.226   5.265   2.606
 6709SOL    HW121026   2.156   5.258   2.677
 6709SOL    HW221027   2.315   5.282   2.650
 6710SOL     OW21028   4.099   1.413   0.987
 6710SOL    HW121029   4.169   1.430   1.056
 6710SOL    HW221030   4.011   1.399   1.032
 6711SOL     OW21031   3.829   5.944   6.425
 6711SOL    HW121032   3.870   5.903   6.506
 6711SOL    HW221033   3.887   5.927   6.346
 6712SOL     OW21034   5.599   3.871   1.512
 6712SOL    HW121035   5.580   3.789   1.457
 6712SOL    HW221036   5.674   3.922   1.471
 6713SOL     OW21037   1.531   6.161   4.570
 6713SOL    HW121038   1.528   6.065   4.598
 6713SOL    HW221039   1.480   6.216   4.636
 6714SOL     OW21040   5.140   1.165   0.663
 6714SOL    HW121041   5.128   1.147   0.761
 6714SOL    HW221042   5.219   1.224   0.649
 6715SOL     OW21043   1.464   0.978   0.482
 6715SOL    HW121044   1.375   0.962   0.525
 6715SOL    HW221045   1.504   1.062   0.519
 6716SOL     OW21046   6.647   5.574   3.210
 6716SOL    HW121047   6.622   5.560   3.306
 6716SOL    HW221048   6.615   5.496   3.156
 6717SOL     OW21049   4.407   1.558   5.734
 6717SOL    HW121050   4.407   1.596   5.827
 6717SOL    HW221051   4.502   1.542   5.706
 6718SOL     OW21052   3.470   0.407   1.669
 6718SOL    HW121053   3.401   0.444   1.731
 6718SOL    HW221054   3.482   0.470   1.592
 6719SOL     OW21055   1.676   0.934   0.058
 6719SOL    HW121056   1.636   0.843   0.054
 6719SOL    HW221057   1.679   0.965   0.153
 6720SOL     OW21058   1.436   0.590   5.909
 6720SOL    HW121059   1.435   0.634   5.819
 6720SOL    HW221060   1.492   0.644   5.972
 6721SOL     OW21061   0.254   1.693   0.379
 6721SOL    HW121062   0.182   1.627   0.353
 6721SOL    HW221063   0.240   1.778   0.329
 6722SOL     OW21064   6.522   3.096   0.564
 6722SOL    HW121065   6.530   2.999   0.590
 6722SOL    HW221066   6.434   3.111   0.519
 6723SOL     OW21067   1.601   2.181   6.529
 6723SOL    HW121068   1.510   2.153   6.497
 6723SOL    HW221069   1.591   2.236   6.613
 6724SOL     OW21070   1.846   3.779   5.777
 6724SOL    HW121071   1.802   3.713   5.839
 6724SOL    HW221072   1.847   3.742   5.685
 6725SOL     OW21073   5.455   2.823   3.524
 6725SOL    HW121074   5.478   2.756   3.454
 6725SOL    HW221075   5.484   2.790   3.613
 6726SOL     OW21076   0.167   0.966   5.258
 6726SOL    HW121077   0.110   0.920   5.326
 6726SOL    HW221078   0.263   0.958   5.285
 6727SOL     OW21079   1.054   5.108   5.931
 6727SOL    HW121080   1.009   5.063   6.008
 6727SOL    HW221081   1.072   5.204   5.954
 6728SOL     OW21082   4.030   2.119   3.910
 6728SOL    HW121083   3.933   2.141   3.919
 6728SOL    HW221084   4.057   2.130   3.814
 6729SOL     OW21085   4.682   1.531   2.055
 6729SOL    HW121086   4.728   1.600   2.109
 6729SOL    HW221087   4.740   1.505   1.977
 6730SOL     OW21088   0.824   1.377   1.743
 6730SOL    HW121089   0.734   1.334   1.742
 6730SOL    HW221090   0.893   1.310   1.714
 6731SOL     OW21091   3.262   6.588   6.795
 6731SOL    HW121092   3.221   6.516   6.850
 6731SOL    HW221093   3.326   6.548   6.729
 6732SOL     OW21094   6.751   5.831   4.815
 6732SOL    HW121095   6.827   5.768   4.802
 6732SOL    HW221096   6.786   5.919   4.847
 6733SOL     OW21097   4.373   5.113   6.277
 6733SOL    HW121098   4.323   5.178   6.334
 6733SOL    HW221099   4.318   5.092   6.196
 6734SOL     OW21100   5.865   1.458   4.695
 6734SOL    HW121101   5.962   1.477   4.710
 6734SOL    HW221102   5.856   1.383   4.628
 6735SOL     OW21103   5.997   3.074   3.511
 6735SOL    HW121104   5.905   3.068   3.472
 6735SOL    HW221105   6.028   3.170   3.510
 6736SOL     OW21106   3.415   4.056   0.516
 6736SOL    HW121107   3.318   4.068   0.496
 6736SOL    HW221108   3.454   3.987   0.455
 6737SOL     OW21109   0.271   3.939   1.316
 6737SOL    HW121110   0.187   3.979   1.281
 6737SOL    HW221111   0.286   3.849   1.274
 6738SOL     OW21112   1.904   5.866   3.782
 6738SOL    HW121113   1.894   5.766   3.782
 6738SOL    HW221114   1.919   5.898   3.875
 6739SOL     OW21115   6.585   6.854   4.668
 6739SOL    HW121116   6.618   6.807   4.750
 6739SOL    HW221117   6.663   6.883   4.613
 6740SOL     OW21118   0.603   6.585   3.587
 6740SOL    HW121119   0.561   6.648   3.522
 6740SOL    HW221120   0.692   6.622   3.616
 6741SOL     OW21121   4.395   1.896   5.793
 6741SOL    HW121122   4.452   1.975   5.818
 6741SOL    HW221123   4.366   1.905   5.698
 6742SOL     OW21124   5.711   4.573   3.437
 6742SOL    HW121125   5.685   4.658   3.482
 6742SOL    HW221126   5.699   4.497   3.501
 6743SOL     OW21127   4.601   4.102   1.035
 6743SOL    HW121128   4.638   4.092   1.128
 6743SOL    HW221129   4.539   4.026   1.015
 6744SOL     OW21130   0.149   5.785   6.081
 6744SOL    HW121131   0.223   5.719   6.078
 6744SOL    HW221132   0.070   5.745   6.127
 6745SOL     OW21133   6.897   5.922   4.542
 6745SOL    HW121134   6.900   5.871   4.628
 6745SOL    HW221135   6.978   5.901   4.488
 6746SOL     OW21136   2.018   1.469   2.482
 6746SOL    HW121137   2.100   1.506   2.527
 6746SOL    HW221138   2.013   1.504   2.388
 6747SOL     OW21139   1.101   6.363   6.363
 6747SOL    HW121140   1.098   6.263   6.369
 6747SOL    HW221141   1.165   6.399   6.431
 6748SOL     OW21142   2.348   1.579   4.434
 6748SOL    HW121143   2.368   1.648   4.503
 6748SOL    HW221144   2.336   1.490   4.478
 6749SOL     OW21145   3.310   4.580   0.946
 6749SOL    HW121146   3.375   4.627   1.006
 6749SOL    HW221147   3.219   4.618   0.959
 6750SOL     OW21148   3.138   1.104   4.816
 6750SOL    HW121149   3.149   1.202   4.827
 6750SOL    HW221150   3.219   1.065   4.772
 6751SOL     OW21151   4.047   0.152   4.023
 6751SOL    HW121152   4.115   0.089   3.985
 6751SOL    HW221153   4.076   0.246   4.008
 6752SOL     OW21154   2.229   5.930   2.345
 6752SOL    HW121155   2.191   6.021   2.361
 6752SOL    HW221156   2.328   5.933   2.358
 6753SOL     OW21157   4.044   2.912   5.270
 6753SOL    HW121158   3.990   2.929   5.187
 6753SOL    HW221159   4.004   2.964   5.346
 6754SOL     OW21160   6.358   1.968   1.553
 6754SOL    HW121161   6.406   1.881   1.543
 6754SOL    HW221162   6.343   2.008   1.462
 6755SOL     OW21163   2.247   5.399   6.423
 6755SOL    HW121164   2.257   5.302   6.398
 6755SOL    HW221165   2.333   5.447   6.406
 6756SOL     OW21166   2.439   2.374   5.251
 6756SOL    HW121167   2.437   2.423   5.164
 6756SOL    HW221168   2.478   2.283   5.237
 6757SOL     OW21169   3.776   0.797   0.670
 6757SOL    HW121170   3.820   0.710   0.694
 6757SOL    HW221171   3.846   0.863   0.646
 6758SOL     OW21172   6.051   2.298   2.357
 6758SOL    HW121173   5.988   2.262   2.426
 6758SOL    HW221174   6.064   2.229   2.285
 6759SOL     OW21175   0.504   3.383   3.100
 6759SOL    HW121176   0.437   3.437   3.151
 6759SOL    HW221177   0.510   3.415   3.006
 6760SOL     OW21178   5.090   2.571   2.751
 6760SOL    HW121179   5.005   2.565   2.803
 6760SOL    HW221180   5.149   2.642   2.790
 6761SOL     OW21181   4.784   2.005   4.662
 6761SOL    HW121182   4.748   1.914   4.643
 6761SOL    HW221183   4.722   2.074   4.624
 6762SOL     OW21184   6.758   5.912   4.185
 6762SOL    HW121185   6.692   5.914   4.109
 6762SOL    HW221186   6.763   6.003   4.226
 6763SOL     OW21187   4.890   5.491   5.203
 6763SOL    HW121188   4.835   5.465   5.281
 6763SOL    HW221189   4.845   5.463   5.118
 6764SOL     OW21190   1.801   5.661   1.467
 6764SOL    HW121191   1.808   5.714   1.383
 6764SOL    HW221192   1.873   5.591   1.469
 6765SOL     OW21193   6.500   5.220   2.822
 6765SOL    HW121194   6.591   5.193   2.854
 6765SOL    HW221195   6.431   5.165   2.869
 6766SOL     OW21196   5.222   0.320   0.497
 6766SOL    HW121197   5.142   0.260   0.493
 6766SOL    HW221198   5.295   0.282   0.440
 6767SOL     OW21199   2.844   1.025   0.507
 6767SOL    HW121200   2.823   1.095   0.439
 6767SOL    HW221201   2.874   0.942   0.461
 6768SOL     OW21202   1.627   0.859   1.039
 6768SOL    HW121203   1.537   0.892   1.066
 6768SOL    HW221204   1.694   0.881   1.109
 6769SOL     OW21205   4.238   2.509   1.678
 6769SOL    HW121206   4.268   2.589   1.626
 6769SOL    HW221207   4.175   2.455   1.621
 6770SOL     OW21208   6.809   0.065   2.080
 6770SOL    HW121209   6.776   0.135   2.017
 6770SOL    HW221210   6.880   0.103   2.139
 6771SOL     OW21211   4.001   2.120   2.978
 6771SOL    HW121212   4.049   2.034   2.992
 6771SOL    HW221213   3.953   2.146   3.061
 6772SOL     OW21214   2.861   1.921   2.681
 6772SOL    HW121215   2.813   1.970   2.607
 6772SOL    HW221216   2.842   1.823   2.673
 6773SOL     OW21217   6.738   4.288   2.218
 6773SOL    HW121218   6.776   4.317   2.305
 6773SOL    HW221219   6.812   4.272   2.153
 6774SOL     OW21220   0.715   2.542   6.511
 6774SOL    HW121221   0.748   2.487   6.588
 6774SOL    HW221222   0.629   2.587   6.536
 6775SOL     OW21223   2.615   4.553   1.074
 6775SOL    HW121224   2.597   4.570   0.977
 6775SOL    HW221225   2.702   4.595   1.100
 6776SOL     OW21226   5.829   5.182   0.256
 6776SOL    HW121227   5.853   5.096   0.211
 6776SOL    HW221228   5.730   5.183   0.272
 6777SOL     OW21229   4.532   4.562   6.082
 6777SOL    HW121230   4.553   4.521   6.170
 6777SOL    HW221231   4.606   4.541   6.017
 6778SOL     OW21232   0.712   5.075   3.087
 6778SOL    HW121233   0.648   5.126   3.144
 6778SOL    HW221234   0.740   5.130   3.009
 6779SOL     OW21235   0.342   4.810   0.606
 6779SOL    HW121236   0.306   4.858   0.526
 6779SOL    HW221237   0.431   4.769   0.583
 6780SOL     OW21238   0.523   2.754   2.780
 6780SOL    HW121239   0.524   2.838   2.833
 6780SOL    HW221240   0.543   2.774   2.684
 6781SOL     OW21241   5.156   5.907   5.921
 6781SOL    HW121242   5.072   5.856   5.940
 6781SOL    HW221243   5.148   5.950   5.831
 6782SOL     OW21244   6.714   1.520   2.811
 6782SOL    HW121245   6.669   1.522   2.722
 6782SOL    HW221246   6.645   1.513   2.883
 6783SOL     OW21247   6.844   6.308   6.430
 6783SOL    HW121248   6.899   6.387   6.401
 6783SOL    HW221249   6.903   6.243   6.478
 6784SOL     OW21250   4.169   4.096   7.008
 6784SOL    HW121251   4.154   4.163   0.059
 6784SOL    HW221252   4.125   4.010   0.011
 6785SOL     OW21253   5.919   5.786   1.913
 6785SOL    HW121254   5.995   5.842   1.947
 6785SOL    HW221255   5.954   5.697   1.884
 6786SOL     OW21256   1.332   2.779   6.425
 6786SOL    HW121257   1.317   2.680   6.430
 6786SOL    HW221258   1.422   2.800   6.463
 6787SOL     OW21259   1.647   3.955   1.806
 6787SOL    HW121260   1.601   3.899   1.875
 6787SOL    HW221261   1.734   3.913   1.781
 6788SOL     OW21262   2.973   3.930   1.831
 6788SOL    HW121263   3.003   4.019   1.796
 6788SOL    HW221264   3.039   3.860   1.805
 6789SOL     OW21265   1.112   6.688   2.147
 6789SOL    HW121266   1.205   6.720   2.129
 6789SOL    HW221267   1.046   6.757   2.117
 6790SOL     OW21268   1.871   2.931   0.147
 6790SOL    HW121269   1.918   2.906   0.062
 6790SOL    HW221270   1.932   2.986   0.204
 6791SOL     OW21271   4.160   2.764   6.948
 6791SOL    HW121272   4.221   2.723   7.015
 6791SOL    HW221273   4.115   2.844   6.989
 6792SOL     OW21274   5.979   6.444   0.145
 6792SOL    HW121275   6.064   6.443   0.094
 6792SOL    HW221276   5.910   6.389   0.097
 6793SOL     OW21277   1.476   2.499   0.998
 6793SOL    HW121278   1.410   2.425   0.982
 6793SOL    HW221279   1.560   2.461   1.035
 6794SOL     OW21280   4.698   0.867   4.419
 6794SOL    HW121281   4.795   0.882   4.402
 6794SOL    HW221282   4.672   0.907   4.506
 6795SOL     OW21283   2.724   5.886   0.585
 6795SOL    HW121284   2.753   5.799   0.624
 6795SOL    HW221285   2.723   5.956   0.657
 6796SOL     OW21286   5.410   1.304   2.825
 6796SOL    HW121287   5.442   1.312   2.920
 6796SOL    HW221288   5.362   1.388   2.799
 6797SOL     OW21289   5.777   3.619   2.028
 6797SOL    HW121290   5.744   3.616   1.934
 6797SOL    HW221291   5.703   3.591   2.090
 6798SOL     OW21292   5.459   5.761   2.301
 6798SOL    HW121293   5.409   5.845   2.323
 6798SOL    HW221294   5.402   5.682   2.324
 6799SOL     OW21295   4.920   5.903   0.244
 6799SOL    HW121296   4.906   5.848   0.326
 6799SOL    HW221297   4.966   5.988   0.268
 6800SOL     OW21298   1.892   4.723   0.044
 6800SOL    HW121299   1.815   4.660   0.032
 6800SOL    HW221300   1.977   4.671   0.051
 6801SOL     OW21301   1.808   2.509   2.364
 6801SOL    HW121302   1.757   2.537   2.445
 6801SOL    HW221303   1.879   2.578   2.344
 6802SOL     OW21304   1.888   6.395   1.010
 6802SOL    HW121305   1.809   6.348   1.050
 6802SOL    HW221306   1.971   6.344   1.030
 6803SOL     OW21307   5.004   2.021   6.170
 6803SOL    HW121308   5.090   2.004   6.121
 6803SOL    HW221309   4.987   2.120   6.174
 6804SOL     OW21310   1.817   5.720   3.455
 6804SOL    HW121311   1.741   5.666   3.491
 6804SOL    HW221312   1.876   5.662   3.398
 6805SOL     OW21313   6.033   0.196   4.843
 6805SOL    HW121314   6.057   0.291   4.862
 6805SOL    HW221315   6.098   0.158   4.777
 6806SOL     OW21316   4.325   1.271   4.509
 6806SOL    HW121317   4.405   1.220   4.540
 6806SOL    HW221318   4.281   1.316   4.587
 6807SOL     OW21319   3.091   2.913   6.757
 6807SOL    HW121320   3.186   2.921   6.788
 6807SOL    HW221321   3.057   2.821   6.779
 6808SOL     OW21322   6.916   2.644   5.027
 6808SOL    HW121323   6.900   2.704   4.949
 6808SOL    HW221324   7.009   2.607   5.023
 6809SOL     OW21325   2.497   4.007   6.503
 6809SOL    HW121326   2.561   3.965   6.567
 6809SOL    HW221327   2.501   4.107   6.512
 6810SOL     OW21328   0.180   0.545   2.571
 6810SOL    HW121329   0.109   0.476   2.587
 6810SOL    HW221330   0.250   0.538   2.643
 6811SOL     OW21331   6.207   4.888   0.993
 6811SOL    HW121332   6.301   4.920   0.982
 6811SOL    HW221333   6.209   4.791   1.017
 6812SOL     OW21334   4.008   3.440   3.051
 6812SOL    HW121335   4.072   3.441   2.974
 6812SOL    HW221336   4.058   3.422   3.135
 6813SOL     OW21337   4.807   2.222   1.133
 6813SOL    HW121338   4.847   2.264   1.214
 6813SOL    HW221339   4.749   2.287   1.086
 6814SOL     OW21340   2.751   3.520   1.148
 6814SOL    HW121341   2.723   3.567   1.232
 6814SOL    HW221342   2.760   3.586   1.074
 6815SOL     OW21343   2.724   0.377   1.976
 6815SOL    HW121344   2.750   0.417   2.064
 6815SOL    HW221345   2.628   0.395   1.958
 6816SOL     OW21346   6.435   4.936   6.836
 6816SOL    HW121347   6.347   4.936   6.788
 6816SOL    HW221348   6.431   4.870   6.911
 6817SOL     OW21349   6.731   1.670   5.739
 6817SOL    HW121350   6.757   1.612   5.661
 6817SOL    HW221351   6.784   1.755   5.736
 6818SOL     OW21352   3.394   6.678   2.320
 6818SOL    HW121353   3.451   6.700   2.399
 6818SOL    HW221354   3.304   6.720   2.330
 6819SOL     OW21355   3.175   0.688   3.853
 6819SOL    HW121356   3.230   0.714   3.774
 6819SOL    HW221357   3.091   0.642   3.821
 6820SOL     OW21358   1.169   4.255   3.374
 6820SOL    HW121359   1.173   4.237   3.473
 6820SOL    HW221360   1.093   4.318   3.356
 6821SOL     OW21361   2.199   2.369   4.947
 6821SOL    HW121362   2.103   2.377   4.918
 6821SOL    HW221363   2.238   2.461   4.954
 6822SOL     OW21364   5.736   1.735   5.771
 6822SOL    HW121365   5.782   1.778   5.694
 6822SOL    HW221366   5.654   1.787   5.795
 6823SOL     OW21367   3.475   3.191   3.348
 6823SOL    HW121368   3.377   3.172   3.353
 6823SOL    HW221369   3.509   3.171   3.256
 6824SOL     OW21370   0.469   4.157   6.493
 6824SOL    HW121371   0.426   4.067   6.507
 6824SOL    HW221372   0.528   4.178   6.570
 6825SOL     OW21373   5.364   0.296   2.170
 6825SOL    HW121374   5.343   0.220   2.109
 6825SOL    HW221375   5.391   0.261   2.260
 6826SOL     OW21376   2.120   3.360   2.721
 6826SOL    HW121377   2.134   3.285   2.656
 6826SOL    HW221378   2.131   3.325   2.814
 6827SOL     OW21379   5.427   5.706   6.460
 6827SOL    HW121380   5.454   5.723   6.365
 6827SOL    HW221381   5.422   5.793   6.508
 6828SOL     OW21382   1.466   2.405   1.303
 6828SOL    HW121383   1.468   2.326   1.365
 6828SOL    HW221384   1.372   2.419   1.271
 6829SOL     OW21385   5.185   6.399   3.575
 6829SOL    HW121386   5.270   6.442   3.605
 6829SOL    HW221387   5.146   6.346   3.651
 6830SOL     OW21388   5.206   1.770   3.245
 6830SOL    HW121389   5.224   1.673   3.228
 6830SOL    HW221390   5.273   1.806   3.309
 6831SOL     OW21391   0.806   0.798   5.732
 6831SOL    HW121392   0.872   0.754   5.793
 6831SOL    HW221393   0.780   0.734   5.659
 6832SOL     OW21394   2.879   4.818   2.219
 6832SOL    HW121395   2.818   4.793   2.143
 6832SOL    HW221396   2.967   4.847   2.183
 6833SOL     OW21397   3.725   4.768   0.107
 6833SOL    HW121398   3.771   4.705   0.044
 6833SOL    HW221399   3.739   4.738   0.201
 6834SOL     OW21400   4.334   6.724   2.091
 6834SOL    HW121401   4.269   6.785   2.137
 6834SOL    HW221402   4.296   6.697   2.002
 6835SOL     OW21403   3.665   6.866   4.689
 6835SOL    HW121404   3.643   6.780   4.737
 6835SOL    HW221405   3.595   6.934   4.710
 6836SOL     OW21406   3.173   6.388   0.287
 6836SOL    HW121407   3.193   6.486   0.294
 6836SOL    HW221408   3.231   6.338   0.352
 6837SOL     OW21409   1.949   3.644   1.631
 6837SOL    HW121410   1.911   3.676   1.718
 6837SOL    HW221411   2.046   3.625   1.641
 6838SOL     OW21412   2.300   1.432   6.939
 6838SOL    HW121413   2.215   1.451   6.988
 6838SOL    HW221414   2.299   1.478   6.851
 6839SOL     OW21415   4.364   1.038   0.729
 6839SOL    HW121416   4.416   1.061   0.811
 6839SOL    HW221417   4.272   1.008   0.756
 6840SOL     OW21418   2.088   1.528   6.313
 6840SOL    HW121419   2.052   1.500   6.223
 6840SOL    HW221420   2.122   1.622   6.307
 6841SOL     OW21421   6.641   2.916   6.292
 6841SOL    HW121422   6.686   2.957   6.212
 6841SOL    HW221423   6.611   2.989   6.354
 6842SOL     OW21424   1.909   5.197   1.990
 6842SOL    HW121425   1.941   5.284   1.952
 6842SOL    HW221426   1.955   5.121   1.945
 6843SOL     OW21427   5.269   6.378   6.763
 6843SOL    HW121428   5.207   6.446   6.724
 6843SOL    HW221429   5.301   6.318   6.690
 6844SOL     OW21430   5.018   0.718   4.334
 6844SOL    HW121431   5.045   0.802   4.381
 6844SOL    HW221432   5.080   0.644   4.360
 6845SOL     OW21433   4.920   2.698   3.003
 6845SOL    HW121434   4.892   2.738   2.915
 6845SOL    HW221435   4.839   2.676   3.057
 6846SOL     OW21436   2.816   3.793   0.582
 6846SOL    HW121437   2.889   3.776   0.515
 6846SOL    HW221438   2.837   3.876   0.633
 6847SOL     OW21439   5.875   3.966   4.421
 6847SOL    HW121440   5.847   3.917   4.503
 6847SOL    HW221441   5.795   3.995   4.369
 6848SOL     OW21442   5.108   4.529   3.438
 6848SOL    HW121443   5.162   4.482   3.508
 6848SOL    HW221444   5.162   4.603   3.399
 6849SOL     OW21445   3.744   3.492   6.539
 6849SOL    HW121446   3.821   3.448   6.586
 6849SOL    HW221447   3.776   3.576   6.495
 6850SOL     OW21448   4.033   1.573   3.149
 6850SOL    HW121449   4.096   1.650   3.160
 6850SOL    HW221450   4.072   1.508   3.084
 6851SOL     OW21451   1.824   3.312   3.262
 6851SOL    HW121452   1.905   3.369   3.250
 6851SOL    HW221453   1.794   3.317   3.357
 6852SOL     OW21454   2.727   5.178   0.222
 6852SOL    HW121455   2.641   5.224   0.246
 6852SOL    HW221456   2.788   5.178   0.301
 6853SOL     OW21457   5.086   2.891   6.258
 6853SOL    HW121458   4.987   2.895   6.267
 6853SOL    HW221459   5.114   2.927   6.169
 6854SOL     OW21460   5.602   6.129   6.055
 6854SOL    HW121461   5.594   6.136   6.155
 6854SOL    HW221462   5.522   6.080   6.019
 6855SOL     OW21463   3.811   4.984   3.233
 6855SOL    HW121464   3.838   4.926   3.310
 6855SOL    HW221465   3.731   5.037   3.259
 6856SOL     OW21466   1.083   2.113   0.057
 6856SOL    HW121467   1.092   2.062   0.143
 6856SOL    HW221468   1.073   2.211   0.077
 6857SOL     OW21469   1.019   3.800   6.040
 6857SOL    HW121470   1.016   3.825   5.943
 6857SOL    HW221471   1.014   3.883   6.096
 6858SOL     OW21472   3.099   4.251   1.704
 6858SOL    HW121473   3.036   4.304   1.761
 6858SOL    HW221474   3.175   4.220   1.761
 6859SOL     OW21475   0.748   1.112   2.743
 6859SOL    HW121476   0.752   1.077   2.650
 6859SOL    HW221477   0.691   1.194   2.746
 6860SOL     OW21478   0.755   6.634   1.798
 6860SOL    HW121479   0.726   6.673   1.711
 6860SOL    HW221480   0.852   6.654   1.812
 6861SOL     OW21481   4.703   2.874   5.152
 6861SOL    HW121482   4.720   2.849   5.247
 6861SOL    HW221483   4.720   2.972   5.140
 6862SOL     OW21484   0.610   5.106   5.739
 6862SOL    HW121485   0.680   5.165   5.701
 6862SOL    HW221486   0.521   5.129   5.699
 6863SOL     OW21487   6.782   0.172   5.040
 6863SOL    HW121488   6.757   0.097   5.101
 6863SOL    HW221489   6.792   0.137   4.947
 6864SOL     OW21490   1.664   3.868   5.127
 6864SOL    HW121491   1.665   3.795   5.196
 6864SOL    HW221492   1.597   3.937   5.154
 6865SOL     OW21493   1.752   0.013   4.545
 6865SOL    HW121494   1.739   0.112   4.555
 6865SOL    HW221495   1.696   6.987   4.613
 6866SOL     OW21496   0.292   4.304   1.803
 6866SOL    HW121497   0.251   4.218   1.834
 6866SOL    HW221498   0.253   4.380   1.854
 6867SOL     OW21499   2.081   3.259   0.363
 6867SOL    HW121500   2.111   3.300   0.450
 6867SOL    HW221501   2.095   3.324   0.289
 6868SOL     OW21502   2.628   5.136   4.975
 6868SOL    HW121503   2.727   5.141   4.990
 6868SOL    HW221504   2.588   5.228   4.982
 6869SOL     OW21505   3.630   0.205   6.197
 6869SOL    HW121506   3.665   0.290   6.237
 6869SOL    HW221507   3.537   0.220   6.164
 6870SOL     OW21508   0.228   2.733   0.471
 6870SOL    HW121509   0.229   2.810   0.535
 6870SOL    HW221510   0.177   2.759   0.389
 6871SOL     OW21511   0.225   4.043   2.733
 6871SOL    HW121512   0.241   4.054   2.832
 6871SOL    HW221513   0.211   3.946   2.713
 6872SOL     OW21514   2.259   2.952   1.197
 6872SOL    HW121515   2.340   3.003   1.227
 6872SOL    HW221516   2.207   2.922   1.277
 6873SOL     OW21517   1.145   4.008   4.913
 6873SOL    HW121518   1.081   4.062   4.968
 6873SOL    HW221519   1.094   3.958   4.843
 6874SOL     OW21520   5.548   6.134   2.778
 6874SOL    HW121521   5.530   6.226   2.815
 6874SOL    HW221522   5.592   6.078   2.848
 6875SOL     OW21523   1.452   2.840   1.312
 6875SOL    HW121524   1.419   2.754   1.272
 6875SOL    HW221525   1.551   2.836   1.321
 6876SOL     OW21526   4.518   5.583   3.211
 6876SOL    HW121527   4.441   5.519   3.217
 6876SOL    HW221528   4.487   5.670   3.175
 6877SOL     OW21529   1.508   3.406   2.293
 6877SOL    HW121530   1.524   3.360   2.380
 6877SOL    HW221531   1.473   3.340   2.227
 6878SOL     OW21532   2.070   0.305   4.100
 6878SOL    HW121533   1.996   0.327   4.037
 6878SOL    HW221534   2.068   0.208   4.123
 6879SOL     OW21535   2.208   1.870   0.374
 6879SOL    HW121536   2.308   1.870   0.372
 6879SOL    HW221537   2.174   1.784   0.337
 6880SOL     OW21538   1.482   5.508   6.824
 6880SOL    HW121539   1.578   5.480   6.819
 6880SOL    HW221540   1.467   5.558   6.909
 6881SOL     OW21541   1.026   3.313   0.616
 6881SOL    HW121542   1.123   3.287   0.624
 6881SOL    HW221543   0.992   3.287   0.526
 6882SOL     OW21544   2.637   6.747   0.015
 6882SOL    HW121545   2.701   6.691   0.067
 6882SOL    HW221546   2.587   6.807   0.077
 6883SOL     OW21547   5.296   0.112   6.620
 6883SOL    HW121548   5.388   0.148   6.637
 6883SOL    HW221549   5.268   0.054   6.697
 6884SOL     OW21550   2.087   3.990   2.878
 6884SOL    HW121551   2.114   3.933   2.955
 6884SOL    HW221552   2.078   3.933   2.796
 6885SOL     OW21553   5.472   6.097   4.086
 6885SOL    HW121554   5.532   6.163   4.040
 6885SOL    HW221555   5.425   6.143   4.161
 6886SOL     OW21556   4.571   1.554   6.451
 6886SOL    HW121557   4.646   1.527   6.511
 6886SOL    HW221558   4.607   1.608   6.375
 6887SOL     OW21559   5.249   6.028   6.151
 6887SOL    HW121560   5.271   5.999   6.058
 6887SOL    HW221561   5.171   5.974   6.185
 6888SOL     OW21562   5.862   4.974   6.577
 6888SOL    HW121563   5.764   4.981   6.556
 6888SOL    HW221564   5.896   4.886   6.547
 6889SOL     OW21565   0.918   3.048   6.974
 6889SOL    HW121566   1.003   3.021   7.020
 6889SOL    HW221567   0.920   3.015   6.880
 6890SOL     OW21568   4.107   5.408   2.515
 6890SOL    HW121569   4.129   5.405   2.417
 6890SOL    HW221570   4.024   5.463   2.529
 6891SOL     OW21571   2.032   1.770   1.103
 6891SOL    HW121572   2.064   1.697   1.164
 6891SOL    HW221573   1.979   1.836   1.155
 6892SOL     OW21574   3.412   0.874   4.164
 6892SOL    HW121575   3.398   0.972   4.154
 6892SOL    HW221576   3.456   0.838   4.081
 6893SOL     OW21577   6.607   2.892   6.899
 6893SOL    HW121578   6.644   2.935   6.981
 6893SOL    HW221579   6.573   2.801   6.921
 6894SOL     OW21580   5.637   5.258   0.577
 6894SOL    HW121581   5.560   5.256   0.641
 6894SOL    HW221582   5.713   5.306   0.619
 6895SOL     OW21583   1.208   6.154   1.514
 6895SOL    HW121584   1.299   6.155   1.472
 6895SOL    HW221585   1.174   6.247   1.520
 6896SOL     OW21586   4.715   2.359   4.728
 6896SOL    HW121587   4.809   2.384   4.703
 6896SOL    HW221588   4.661   2.345   4.645
 6897SOL     OW21589   5.202   4.056   5.140
 6897SOL    HW121590   5.235   4.137   5.093
 6897SOL    HW221591   5.214   3.976   5.082
 6898SOL     OW21592   2.270   1.450   1.215
 6898SOL    HW121593   2.190   1.493   1.257
 6898SOL    HW221594   2.277   1.477   1.119
 6899SOL     OW21595   6.143   6.122   2.973
 6899SOL    HW121596   6.159   6.103   2.876
 6899SOL    HW221597   6.085   6.203   2.982
 6900SOL     OW21598   6.467   4.356   5.822
 6900SOL    HW121599   6.485   4.405   5.907
 6900SOL    HW221600   6.531   4.386   5.751
 6901SOL     OW21601   4.561   4.325   6.786
 6901SOL    HW121602   4.598   4.289   6.872
 6901SOL    HW221603   4.469   4.361   6.802
 6902SOL     OW21604   0.414   5.933   6.411
 6902SOL    HW121605   0.406   6.031   6.391
 6902SOL    HW221606   0.469   5.889   6.340
 6903SOL     OW21607   2.622   5.103   4.486
 6903SOL    HW121608   2.694   5.076   4.550
 6903SOL    HW221609   2.641   5.064   4.396
 6904SOL     OW21610   0.203   6.598   4.776
 6904SOL    HW121611   0.226   6.531   4.847
 6904SOL    HW221612   0.108   6.627   4.786
 6905SOL     OW21613   5.174   5.593   5.860
 6905SOL    HW121614   5.193   5.614   5.764
 6905SOL    HW221615   5.098   5.649   5.892
 6906SOL     OW21616   3.801   1.677   3.539
 6906SOL    HW121617   3.843   1.735   3.470
 6906SOL    HW221618   3.725   1.726   3.583
 6907SOL     OW21619   6.260   1.365   0.919
 6907SOL    HW121620   6.163   1.388   0.928
 6907SOL    HW221621   6.277   1.275   0.959
 6908SOL     OW21622   2.765   4.445   0.079
 6908SOL    HW121623   2.745   4.371   0.143
 6908SOL    HW221624   2.854   4.428   0.036
 6909SOL     OW21625   5.918   5.472   2.222
 6909SOL    HW121626   5.944   5.385   2.181
 6909SOL    HW221627   5.820   5.487   2.210
 6910SOL     OW21628   1.477   2.742   3.715
 6910SOL    HW121629   1.424   2.818   3.677
 6910SOL    HW221630   1.562   2.732   3.662
 6911SOL     OW21631   2.615   0.104   5.994
 6911SOL    HW121632   2.668   0.146   5.921
 6911SOL    HW221633   2.560   0.029   5.957
 6912SOL     OW21634   2.047   3.376   5.912
 6912SOL    HW121635   2.089   3.461   5.943
 6912SOL    HW221636   1.962   3.396   5.863
 6913SOL     OW21637   4.574   5.992   6.156
 6913SOL    HW121638   4.600   5.955   6.244
 6913SOL    HW221639   4.558   6.090   6.165
 6914SOL     OW21640   6.733   3.536   1.779
 6914SOL    HW121641   6.696   3.611   1.834
 6914SOL    HW221642   6.661   3.499   1.720
 6915SOL     OW21643   1.039   3.467   2.690
 6915SOL    HW121644   1.111   3.434   2.752
 6915SOL    HW221645   0.957   3.489   2.743
 6916SOL     OW21646   4.402   6.323   0.137
 6916SOL    HW121647   4.424   6.400   0.078
 6916SOL    HW221648   4.468   6.249   0.123
 6917SOL     OW21649   5.723   5.625   1.570
 6917SOL    HW121650   5.705   5.527   1.564
 6917SOL    HW221651   5.757   5.658   1.481
 6918SOL     OW21652   2.149   3.234   1.839
 6918SOL    HW121653   2.069   3.290   1.863
 6918SOL    HW221654   2.232   3.278   1.874
 6919SOL     OW21655   6.667   6.267   3.034
 6919SOL    HW121656   6.576   6.303   3.016
 6919SOL    HW221657   6.677   6.249   3.132
 6920SOL     OW21658   5.293   0.496   5.556
 6920SOL    HW121659   5.264   0.585   5.521
 6920SOL    HW221660   5.369   0.509   5.620
 6921SOL     OW21661   3.710   0.119   4.241
 6921SOL    HW121662   3.626   0.171   4.233
 6921SOL    HW221663   3.788   0.177   4.217
 6922SOL     OW21664   1.155   5.823   5.726
 6922SOL    HW121665   1.226   5.826   5.656
 6922SOL    HW221666   1.156   5.908   5.779
 6923SOL     OW21667   6.292   6.897   2.221
 6923SOL    HW121668   6.312   6.799   2.214
 6923SOL    HW221669   6.378   6.948   2.221
 6924SOL     OW21670   3.481   6.597   0.469
 6924SOL    HW121671   3.548   6.586   0.395
 6924SOL    HW221672   3.394   6.627   0.431
 6925SOL     OW21673   5.903   5.795   6.287
 6925SOL    HW121674   5.829   5.782   6.220
 6925SOL    HW221675   5.866   5.783   6.379
 6926SOL     OW21676   2.753   2.038   0.343
 6926SOL    HW121677   2.735   1.971   0.415
 6926SOL    HW221678   2.697   2.017   0.263
 6927SOL     OW21679   4.450   0.647   0.398
 6927SOL    HW121680   4.359   0.612   0.422
 6927SOL    HW221681   4.479   0.606   0.311
 6928SOL     OW21682   4.408   4.922   0.871
 6928SOL    HW121683   4.320   4.943   0.828
 6928SOL    HW221684   4.410   4.960   0.963
 6929SOL     OW21685   5.996   5.532   1.085
 6929SOL    HW121686   5.958   5.551   0.994
 6929SOL    HW221687   6.042   5.613   1.119
 6930SOL     OW21688   0.552   0.613   0.613
 6930SOL    HW121689   0.528   0.527   0.567
 6930SOL    HW221690   0.614   0.593   0.689
 6931SOL     OW21691   2.557   2.729   1.342
 6931SOL    HW121692   2.602   2.816   1.361
 6931SOL    HW221693   2.531   2.686   1.429
 6932SOL     OW21694   4.590   5.428   0.094
 6932SOL    HW121695   4.548   5.339   0.077
 6932SOL    HW221696   4.570   5.458   0.187
 6933SOL     OW21697   2.682   5.737   6.684
 6933SOL    HW121698   2.666   5.793   6.602
 6933SOL    HW221699   2.616   5.662   6.686
 6934SOL     OW21700   5.144   4.031   6.460
 6934SOL    HW121701   5.111   3.949   6.507
 6934SOL    HW221702   5.079   4.058   6.389
 6935SOL     OW21703   5.510   5.201   1.509
 6935SOL    HW121704   5.514   5.182   1.411
 6935SOL    HW221705   5.531   5.118   1.560
 6936SOL     OW21706   0.991   2.103   4.744
 6936SOL    HW121707   0.964   2.199   4.732
 6936SOL    HW221708   1.090   2.095   4.732
 6937SOL     OW21709   5.512   5.725   0.404
 6937SOL    HW121710   5.426   5.721   0.352
 6937SOL    HW221711   5.503   5.669   0.487
 6938SOL     OW21712   1.015   0.582   4.900
 6938SOL    HW121713   1.035   0.570   4.803
 6938SOL    HW221714   0.958   0.663   4.913
 6939SOL     OW21715   6.035   4.668   3.774
 6939SOL    HW121716   6.073   4.754   3.807
 6939SOL    HW221717   5.955   4.644   3.829
 6940SOL     OW21718   3.968   6.634   0.826
 6940SOL    HW121719   3.975   6.580   0.742
 6940SOL    HW221720   4.059   6.664   0.855
 6941SOL     OW21721   3.641   3.200   2.372
 6941SOL    HW121722   3.550   3.239   2.361
 6941SOL    HW221723   3.635   3.100   2.376
 6942SOL     OW21724   6.063   6.815   1.655
 6942SOL    HW121725   6.105   6.737   1.702
 6942SOL    HW221726   5.993   6.855   1.713
 6943SOL     OW21727   4.167   4.761   6.500
 6943SOL    HW121728   4.161   4.860   6.506
 6943SOL    HW221729   4.086   4.725   6.454
 6944SOL     OW21730   1.186   4.081   5.308
 6944SOL    HW121731   1.249   4.099   5.232
 6944SOL    HW221732   1.148   3.989   5.297
 6945SOL     OW21733   5.492   2.431   1.113
 6945SOL    HW121734   5.482   2.360   1.183
 6945SOL    HW221735   5.578   2.416   1.063
 6946SOL     OW21736   4.580   5.918   2.441
 6946SOL    HW121737   4.552   5.955   2.530
 6946SOL    HW221738   4.650   5.849   2.454
 6947SOL     OW21739   4.894   5.344   5.679
 6947SOL    HW121740   4.877   5.247   5.660
 6947SOL    HW221741   4.815   5.383   5.727
 6948SOL     OW21742   0.540   4.881   0.242
 6948SOL    HW121743   0.557   4.783   0.250
 6948SOL    HW221744   0.540   4.906   0.145
 6949SOL     OW21745   2.785   2.299   3.984
 6949SOL    HW121746   2.735   2.212   3.984
 6949SOL    HW221747   2.873   2.287   4.030
 6950SOL     OW21748   0.767   0.082   5.015
 6950SOL    HW121749   0.760   7.004   5.019
 6950SOL    HW221750   0.824   0.108   4.936
 6951SOL     OW21751   6.886   4.992   6.456
 6951SOL    HW121752   6.961   5.054   6.434
 6951SOL    HW221753   6.847   5.016   6.545
 6952SOL     OW21754   3.582   5.202   2.733
 6952SOL    HW121755   3.648   5.238   2.666
 6952SOL    HW221756   3.498   5.257   2.730
 6953SOL     OW21757   4.859   1.051   1.203
 6953SOL    HW121758   4.853   1.121   1.275
 6953SOL    HW221759   4.914   0.975   1.235
 6954SOL     OW21760   6.427   3.574   0.375
 6954SOL    HW121761   6.476   3.569   0.288
 6954SOL    HW221762   6.425   3.484   0.418
 6955SOL     OW21763   5.033   6.654   2.339
 6955SOL    HW121764   5.074   6.679   2.427
 6955SOL    HW221765   5.045   6.729   2.274
 6956SOL     OW21766   5.285   5.559   2.318
 6956SOL    HW121767   5.225   5.618   2.372
 6956SOL    HW221768   5.264   5.571   2.221
 6957SOL     OW21769   5.246   5.291   6.112
 6957SOL    HW121770   5.257   5.191   6.110
 6957SOL    HW221771   5.182   5.318   6.040
 6958SOL     OW21772   2.993   3.238   3.773
 6958SOL    HW121773   2.931   3.271   3.702
 6958SOL    HW221774   3.088   3.261   3.749
 6959SOL     OW21775   1.116   4.279   2.966
 6959SOL    HW121776   1.197   4.239   3.008
 6959SOL    HW221777   1.039   4.215   2.973
 6960SOL     OW21778   2.841   4.963   0.541
 6960SOL    HW121779   2.790   4.896   0.487
 6960SOL    HW221780   2.882   4.918   0.620
 6961SOL     OW21781   4.341   2.369   5.781
 6961SOL    HW121782   4.329   2.454   5.729
 6961SOL    HW221783   4.267   2.305   5.757
 6962SOL     OW21784   2.887   6.636   5.968
 6962SOL    HW121785   2.980   6.646   6.002
 6962SOL    HW221786   2.890   6.612   5.871
 6963SOL     OW21787   5.120   6.798   0.981
 6963SOL    HW121788   5.187   6.840   0.920
 6963SOL    HW221789   5.151   6.707   1.007
 6964SOL     OW21790   1.623   0.161   5.836
 6964SOL    HW121791   1.563   0.239   5.821
 6964SOL    HW221792   1.684   0.151   5.757
 6965SOL     OW21793   0.408   1.895   6.808
 6965SOL    HW121794   0.504   1.910   6.830
 6965SOL    HW221795   0.350   1.958   6.860
 6966SOL     OW21796   1.269   0.417   1.696
 6966SOL    HW121797   1.314   0.494   1.650
 6966SOL    HW221798   1.294   0.417   1.793
 6967SOL     OW21799   4.487   1.191   5.847
 6967SOL    HW121800   4.503   1.268   5.909
 6967SOL    HW221801   4.425   1.126   5.890
 6968SOL     OW21802   3.865   6.347   2.583
 6968SOL    HW121803   3.904   6.440   2.581
 6968SOL    HW221804   3.910   6.294   2.655
 6969SOL     OW21805   1.968   1.675   1.668
 6969SOL    HW121806   2.016   1.750   1.622
 6969SOL    HW221807   2.033   1.602   1.690
 6970SOL     OW21808   3.614   4.478   6.242
 6970SOL    HW121809   3.672   4.464   6.162
 6970SOL    HW221810   3.618   4.575   6.268
 6971SOL     OW21811   0.234   4.399   0.379
 6971SOL    HW121812   0.172   4.344   0.436
 6971SOL    HW221813   0.181   4.461   0.322
 6972SOL     OW21814   4.999   3.875   2.398
 6972SOL    HW121815   4.915   3.822   2.410
 6972SOL    HW221816   5.074   3.829   2.447
 6973SOL     OW21817   1.043   3.238   3.594
 6973SOL    HW121818   1.040   3.201   3.687
 6973SOL    HW221819   1.137   3.234   3.560
 6974SOL     OW21820   3.703   3.782   2.598
 6974SOL    HW121821   3.752   3.869   2.596
 6974SOL    HW221822   3.751   3.718   2.659
 6975SOL     OW21823   3.234   5.739   4.873
 6975SOL    HW121824   3.269   5.774   4.786
 6975SOL    HW221825   3.135   5.730   4.868
 6976SOL     OW21826   5.014   4.139   6.034
 6976SOL    HW121827   5.093   4.081   6.014
 6976SOL    HW221828   5.035   4.198   6.112
 6977SOL     OW21829   3.889   4.478   1.175
 6977SOL    HW121830   3.946   4.399   1.154
 6977SOL    HW221831   3.796   4.463   1.140
 6978SOL     OW21832   5.313   3.682   2.005
 6978SOL    HW121833   5.361   3.731   1.932
 6978SOL    HW221834   5.260   3.748   2.059
 6979SOL     OW21835   1.220   3.975   1.862
 6979SOL    HW121836   1.288   4.034   1.906
 6979SOL    HW221837   1.222   3.885   1.904
 6980SOL     OW21838   1.463   6.177   2.917
 6980SOL    HW121839   1.484   6.227   3.002
 6980SOL    HW221840   1.545   6.176   2.859
 6981SOL     OW21841   3.745   3.155   6.657
 6981SOL    HW121842   3.756   3.241   6.707
 6981SOL    HW221843   3.671   3.164   6.590
 6982SOL     OW21844   1.793   0.856   3.672
 6982SOL    HW121845   1.820   0.792   3.744
 6982SOL    HW221846   1.864   0.925   3.660
 6983SOL     OW21847   4.902   0.825   4.113
 6983SOL    HW121848   4.872   0.751   4.054
 6983SOL    HW221849   4.945   0.788   4.195
 6984SOL     OW21850   0.437   2.787   3.368
 6984SOL    HW121851   0.350   2.764   3.325
 6984SOL    HW221852   0.457   2.721   3.441
 6985SOL     OW21853   6.384   3.213   0.269
 6985SOL    HW121854   6.384   3.209   0.169
 6985SOL    HW221855   6.474   3.189   0.303
 6986SOL     OW21856   3.987   4.904   5.497
 6986SOL    HW121857   4.032   4.820   5.528
 6986SOL    HW221858   3.920   4.933   5.565
 6987SOL     OW21859   0.834   1.776   6.024
 6987SOL    HW121860   0.829   1.677   6.011
 6987SOL    HW221861   0.758   1.806   6.082
 6988SOL     OW21862   3.186   1.479   6.479
 6988SOL    HW121863   3.157   1.451   6.387
 6988SOL    HW221864   3.228   1.401   6.525
 6989SOL     OW21865   0.075   5.515   2.940
 6989SOL    HW121866   0.028   5.435   2.902
 6989SOL    HW221867   0.034   5.538   3.028
 6990SOL     OW21868   3.542   2.462   1.682
 6990SOL    HW121869   3.577   2.432   1.594
 6990SOL    HW221870   3.597   2.421   1.755
 6991SOL     OW21871   5.825   3.800   2.302
 6991SOL    HW121872   5.746   3.787   2.363
 6991SOL    HW221873   5.813   3.743   2.220
 6992SOL     OW21874   0.717   6.667   0.107
 6992SOL    HW121875   0.655   6.743   0.085
 6992SOL    HW221876   0.687   6.623   0.191
 6993SOL     OW21877   4.726   1.211   1.621
 6993SOL    HW121878   4.635   1.221   1.662
 6993SOL    HW221879   4.720   1.149   1.542
 6994SOL     OW21880   2.209   0.094   3.770
 6994SOL    HW121881   2.241   0.084   3.676
 6994SOL    HW221882   2.253   0.026   3.828
 6995SOL     OW21883   0.300   3.667   1.195
 6995SOL    HW121884   0.297   3.581   1.247
 6995SOL    HW221885   0.227   3.667   1.126
 6996SOL     OW21886   0.870   1.827   6.712
 6996SOL    HW121887   0.958   1.783   6.698
 6996SOL    HW221888   0.858   1.848   6.810
 6997SOL     OW21889   6.089   5.480   5.116
 6997SOL    HW121890   6.009   5.522   5.073
 6997SOL    HW221891   6.145   5.437   5.045
 6998SOL     OW21892   6.570   1.419   0.144
 6998SOL    HW121893   6.662   1.416   0.105
 6998SOL    HW221894   6.560   1.503   0.199
 6999SOL     OW21895   0.627   3.550   0.628
 6999SOL    HW121896   0.587   3.462   0.653
 6999SOL    HW221897   0.623   3.612   0.706
 7000SOL     OW21898   6.676   6.905   2.765
 7000SOL    HW121899   6.752   6.923   2.703
 7000SOL    HW221900   6.698   6.941   2.856
 7001SOL     OW21901   0.771   1.484   4.295
 7001SOL    HW121902   0.833   1.548   4.250
 7001SOL    HW221903   0.771   1.501   4.394
 7002SOL     OW21904   6.763   5.616   2.830
 7002SOL    HW121905   6.735   5.616   2.926
 7002SOL    HW221906   6.715   5.688   2.780
 7003SOL     OW21907   6.454   4.966   1.312
 7003SOL    HW121908   6.486   4.899   1.244
 7003SOL    HW221909   6.434   5.053   1.266
 7004SOL     OW21910   2.008   5.940   0.164
 7004SOL    HW121911   1.961   5.853   0.149
 7004SOL    HW221912   2.087   5.947   0.102
 7005SOL     OW21913   1.089   6.794   0.108
 7005SOL    HW121914   1.087   6.700   0.141
 7005SOL    HW221915   1.051   6.798   0.015
 7006SOL     OW21916   0.962   0.130   4.503
 7006SOL    HW121917   0.930   0.135   4.409
 7006SOL    HW221918   1.010   0.214   4.527
 7007SOL     OW21919   3.504   0.006   5.446
 7007SOL    HW121920   3.545   0.085   5.492
 7007SOL    HW221921   3.486   6.956   5.513
 7008SOL     OW21922   6.114   4.212   3.876
 7008SOL    HW121923   6.058   4.221   3.794
 7008SOL    HW221924   6.197   4.266   3.865
 7009SOL     OW21925   4.676   5.578   1.275
 7009SOL    HW121926   4.587   5.572   1.321
 7009SOL    HW221927   4.668   5.540   1.183
 7010SOL     OW21928   5.346   4.023   2.191
 7010SOL    HW121929   5.255   3.983   2.190
 7010SOL    HW221930   5.377   4.039   2.097
 7011SOL     OW21931   3.276   6.059   0.030
 7011SOL    HW121932   3.230   6.014   6.976
 7011SOL    HW221933   3.211   6.076   0.104
 7012SOL     OW21934   6.831   2.165   0.272
 7012SOL    HW121935   6.734   2.160   0.250
 7012SOL    HW221936   6.843   2.168   0.371
 7013SOL     OW21937   2.574   1.636   6.806
 7013SOL    HW121938   2.564   1.600   6.899
 7013SOL    HW221939   2.485   1.634   6.760
 7014SOL     OW21940   6.347   3.243   1.660
 7014SOL    HW121941   6.350   3.177   1.735
 7014SOL    HW221942   6.265   3.300   1.669
 7015SOL     OW21943   5.237   5.794   0.879
 7015SOL    HW121944   5.267   5.719   0.938
 7015SOL    HW221945   5.181   5.858   0.931
 7016SOL     OW21946   3.444   4.880   0.368
 7016SOL    HW121947   3.459   4.913   0.275
 7016SOL    HW221948   3.348   4.894   0.394
 7017SOL     OW21949   4.869   5.172   4.191
 7017SOL    HW121950   4.963   5.137   4.187
 7017SOL    HW221951   4.815   5.131   4.117
 7018SOL     OW21952   4.918   3.357   4.130
 7018SOL    HW121953   4.962   3.293   4.193
 7018SOL    HW221954   4.865   3.306   4.062
 7019SOL     OW21955   5.122   4.934   1.943
 7019SOL    HW121956   5.128   4.835   1.930
 7019SOL    HW221957   5.045   4.970   1.891
 7020SOL     OW21958   0.445   2.828   6.204
 7020SOL    HW121959   0.400   2.804   6.291
 7020SOL    HW221960   0.530   2.877   6.223
 7021SOL     OW21961   0.754   1.970   5.302
 7021SOL    HW121962   0.792   2.049   5.254
 7021SOL    HW221963   0.717   1.905   5.235
 7022SOL     OW21964   3.791   1.639   0.746
 7022SOL    HW121965   3.794   1.711   0.815
 7022SOL    HW221966   3.737   1.671   0.668
 7023SOL     OW21967   0.559   2.108   1.329
 7023SOL    HW121968   0.552   2.038   1.258
 7023SOL    HW221969   0.492   2.089   1.401
 7024SOL     OW21970   3.752   3.408   3.816
 7024SOL    HW121971   3.728   3.410   3.913
 7024SOL    HW221972   3.675   3.371   3.763
 7025SOL     OW21973   3.804   6.715   0.454
 7025SOL    HW121974   3.810   6.741   0.550
 7025SOL    HW221975   3.896   6.708   0.416
 7026SOL     OW21976   3.707   2.429   1.171
 7026SOL    HW121977   3.630   2.375   1.136
 7026SOL    HW221978   3.777   2.436   1.100
 7027SOL     OW21979   2.066   4.996   1.892
 7027SOL    HW121980   2.110   5.026   1.808
 7027SOL    HW221981   2.134   4.987   1.965
 7028SOL     OW21982   3.385   0.035   3.253
 7028SOL    HW121983   3.448   6.980   3.243
 7028SOL    HW221984   3.407   0.105   3.185
 7029SOL     OW21985   3.427   3.354   5.150
 7029SOL    HW121986   3.489   3.406   5.208
 7029SOL    HW221987   3.402   3.409   5.070
 7030SOL     OW21988   6.289   1.590   5.008
 7030SOL    HW121989   6.296   1.682   5.046
 7030SOL    HW221990   6.301   1.593   4.908
 7031SOL     OW21991   4.456   6.799   0.509
 7031SOL    HW121992   4.488   6.712   0.547
 7031SOL    HW221993   4.367   6.821   0.547
 7032SOL     OW21994   3.647   6.621   4.845
 7032SOL    HW121995   3.734   6.637   4.892
 7032SOL    HW221996   3.586   6.570   4.905
 7033SOL     OW21997   1.358   2.003   5.256
 7033SOL    HW121998   1.331   2.036   5.346
 7033SOL    HW221999   1.276   1.980   5.203
 7034SOL     OW22000   6.561   1.640   3.210
 7034SOL    HW122001   6.651   1.636   3.253
 7034SOL    HW222002   6.508   1.714   3.251
 7035SOL     OW22003   1.744   0.586   0.921
 7035SOL    HW122004   1.693   0.663   0.959
 7035SOL    HW222005   1.772   0.608   0.828
 7036SOL     OW22006   0.162   1.289   2.174
 7036SOL    HW122007   0.213   1.335   2.247
 7036SOL    HW222008   0.106   1.355   2.125
 7037SOL     OW22009   0.867   0.583   6.072
 7037SOL    HW122010   0.935   0.545   6.009
 7037SOL    HW222011   0.794   0.627   6.020
 7038SOL     OW22012   1.400   3.074   6.431
 7038SOL    HW122013   1.367   2.984   6.459
 7038SOL    HW222014   1.419   3.129   6.512
 7039SOL     OW22015   0.289   6.102   3.094
 7039SOL    HW122016   0.348   6.166   3.045
 7039SOL    HW222017   0.286   6.126   3.191
 7040SOL     OW22018   4.683   2.504   5.299
 7040SOL    HW122019   4.620   2.481   5.225
 7040SOL    HW222020   4.768   2.540   5.261
 7041SOL     OW22021   1.609   0.371   3.626
 7041SOL    HW122022   1.627   0.273   3.638
 7041SOL    HW222023   1.516   0.391   3.654
 7042SOL     OW22024   4.468   6.085   5.384
 7042SOL    HW122025   4.445   6.057   5.477
 7042SOL    HW222026   4.417   6.168   5.361
 7043SOL     OW22027   2.042   4.360   2.428
 7043SOL    HW122028   1.988   4.384   2.347
 7043SOL    HW222029   2.071   4.443   2.475
 7044SOL     OW22030   4.994   6.310   4.076
 7044SOL    HW122031   5.071   6.363   4.113
 7044SOL    HW222032   5.011   6.213   4.090
 7045SOL     OW22033   6.131   6.030   2.715
 7045SOL    HW122034   6.040   5.989   2.720
 7045SOL    HW222035   6.134   6.096   2.640
 7046SOL     OW22036   3.044   2.240   4.528
 7046SOL    HW122037   3.141   2.226   4.550
 7046SOL    HW222038   2.988   2.217   4.608
 7047SOL     OW22039   0.885   6.961   0.455
 7047SOL    HW122040   0.823   6.889   0.485
 7047SOL    HW222041   0.892   6.959   0.356
 7048SOL     OW22042   6.645   5.647   5.037
 7048SOL    HW122043   6.642   5.720   4.969
 7048SOL    HW222044   6.684   5.565   4.995
 7049SOL     OW22045   3.629   1.107   2.644
 7049SOL    HW122046   3.690   1.184   2.658
 7049SOL    HW222047   3.681   1.030   2.605
 7050SOL     OW22048   4.147   3.650   1.017
 7050SOL    HW122049   4.218   3.690   1.075
 7050SOL    HW222050   4.072   3.617   1.073
 7051SOL     OW22051   0.607   0.482   1.323
 7051SOL    HW122052   0.649   0.538   1.252
 7051SOL    HW222053   0.679   0.444   1.381
 7052SOL     OW22054   5.798   0.193   2.375
 7052SOL    HW122055   5.898   0.191   2.365
 7052SOL    HW222056   5.758   0.125   2.313
 7053SOL     OW22057   1.723   2.646   3.586
 7053SOL    HW122058   1.748   2.553   3.560
 7053SOL    HW222059   1.798   2.709   3.565
 7054SOL     OW22060   6.779   0.370   0.442
 7054SOL    HW122061   6.755   0.405   0.351
 7054SOL    HW222062   6.699   0.378   0.502
 7055SOL     OW22063   2.293   0.706   6.773
 7055SOL    HW122064   2.353   0.734   6.847
 7055SOL    HW222065   2.229   0.637   6.806
 7056SOL     OW22066   6.931   5.048   1.373
 7056SOL    HW122067   6.920   5.005   1.283
 7056SOL    HW222068   6.846   5.095   1.398
 7057SOL     OW22069   3.166   4.853   5.051
 7057SOL    HW122070   3.265   4.836   5.054
 7057SOL    HW222071   3.149   4.951   5.064
 7058SOL     OW22072   5.099   2.928   5.688
 7058SOL    HW122073   5.058   3.011   5.726
 7058SOL    HW222074   5.136   2.873   5.763
 7059SOL     OW22075   1.955   0.875   4.874
 7059SOL    HW122076   1.977   0.819   4.953
 7059SOL    HW222077   1.856   0.890   4.869
 7060SOL     OW22078   3.516   0.380   2.379
 7060SOL    HW122079   3.448   0.352   2.312
 7060SOL    HW222080   3.599   0.325   2.369
 7061SOL     OW22081   1.159   2.406   3.266
 7061SOL    HW122082   1.177   2.495   3.224
 7061SOL    HW222083   1.230   2.386   3.333
 7062SOL     OW22084   3.772   1.594   3.150
 7062SOL    HW122085   3.866   1.564   3.167
 7062SOL    HW222086   3.774   1.678   3.095
 7063SOL     OW22087   0.792   0.981   1.949
 7063SOL    HW122088   0.795   0.968   1.850
 7063SOL    HW222089   0.885   0.982   1.985
 7064SOL     OW22090   4.647   2.128   5.159
 7064SOL    HW122091   4.650   2.046   5.217
 7064SOL    HW222092   4.566   2.182   5.183
 7065SOL     OW22093   3.705   4.020   5.759
 7065SOL    HW122094   3.712   3.992   5.663
 7065SOL    HW222095   3.635   4.090   5.769
 7066SOL     OW22096   3.919   0.319   0.139
 7066SOL    HW122097   3.864   0.393   0.101
 7066SOL    HW222098   3.863   0.236   0.146
 7067SOL     OW22099   1.738   3.544   6.944
 7067SOL    HW122100   1.671   3.571   7.014
 7067SOL    HW222101   1.692   3.535   6.856
 7068SOL     OW22102   4.759   4.090   4.356
 7068SOL    HW122103   4.858   4.103   4.360
 7068SOL    HW222104   4.717   4.127   4.439
 7069SOL     OW22105   5.911   0.127   6.333
 7069SOL    HW122106   5.862   0.132   6.246
 7069SOL    HW222107   5.950   0.217   6.355
 7070SOL     OW22108   0.409   6.527   5.162
 7070SOL    HW122109   0.330   6.512   5.102
 7070SOL    HW222110   0.384   6.588   5.236
 7071SOL     OW22111   5.044   5.876   6.268
 7071SOL    HW122112   4.995   5.933   6.334
 7071SOL    HW222113   5.032   5.780   6.293
 7072SOL     OW22114   0.150   3.576   6.767
 7072SOL    HW122115   0.113   3.486   6.742
 7072SOL    HW222116   0.084   3.647   6.741
 7073SOL     OW22117   5.493   1.288   3.073
 7073SOL    HW122118   5.558   1.254   3.141
 7073SOL    HW222119   5.400   1.281   3.110
 7074SOL     OW22120   5.425   4.311   2.881
 7074SOL    HW122121   5.433   4.292   2.783
 7074SOL    HW222122   5.370   4.241   2.925
 7075SOL     OW22123   3.374   5.636   3.859
 7075SOL    HW122124   3.354   5.630   3.957
 7075SOL    HW222125   3.441   5.566   3.834
 7076SOL     OW22126   5.719   2.630   2.422
 7076SOL    HW122127   5.677   2.720   2.409
 7076SOL    HW222128   5.814   2.633   2.391
 7077SOL     OW22129   3.650   5.577   0.893
 7077SOL    HW122130   3.640   5.661   0.839
 7077SOL    HW222131   3.584   5.509   0.862
 7078SOL     OW22132   5.133   0.172   6.988
 7078SOL    HW122133   5.090   0.188   0.056
 7078SOL    HW222134   5.077   0.214   6.917
 7079SOL     OW22135   1.353   0.059   4.416
 7079SOL    HW122136   1.393   6.989   4.413
 7079SOL    HW222137   1.253   0.051   4.423
 7080SOL     OW22138   4.142   1.732   5.191
 7080SOL    HW122139   4.069   1.799   5.200
 7080SOL    HW222140   4.114   1.662   5.124
 7081SOL     OW22141   1.283   1.210   7.000
 7081SOL    HW122142   1.345   1.186   0.053
 7081SOL    HW222143   1.336   1.228   6.917
 7082SOL     OW22144   6.384   4.759   2.820
 7082SOL    HW122145   6.409   4.687   2.755
 7082SOL    HW222146   6.373   4.846   2.771
 7083SOL     OW22147   0.052   3.390   2.552
 7083SOL    HW122148   7.016   3.328   2.606
 7083SOL    HW222149   0.074   3.471   2.607
 7084SOL     OW22150   0.797   5.507   6.991
 7084SOL    HW122151   0.798   5.596   0.015
 7084SOL    HW222152   0.767   5.437   0.035
 7085SOL     OW22153   1.038   3.278   2.059
 7085SOL    HW122154   0.986   3.344   2.113
 7085SOL    HW222155   1.102   3.326   1.999
 7086SOL     OW22156   5.792   1.198   4.289
 7086SOL    HW122157   5.742   1.129   4.236
 7086SOL    HW222158   5.824   1.270   4.228
 7087SOL     OW22159   5.407   3.369   3.136
 7087SOL    HW122160   5.319   3.416   3.138
 7087SOL    HW222161   5.418   3.322   3.049
 7088SOL     OW22162   6.133   1.953   4.917
 7088SOL    HW122163   6.059   2.019   4.925
 7088SOL    HW222164   6.147   1.907   5.004
 7089SOL     OW22165   3.083   5.508   1.699
 7089SOL    HW122166   3.120   5.565   1.772
 7089SOL    HW222167   2.984   5.500   1.710
 7090SOL     OW22168   4.657   2.016   1.454
 7090SOL    HW122169   4.752   2.046   1.445
 7090SOL    HW222170   4.634   2.003   1.550
 7091SOL     OW22171   6.984   6.547   6.353
 7091SOL    HW122172   0.044   6.503   6.316
 7091SOL    HW222173   6.923   6.573   6.279
 7092SOL     OW22174   4.277   1.849   6.599
 7092SOL    HW122175   4.310   1.768   6.552
 7092SOL    HW222176   4.278   1.833   6.698
 7093SOL     OW22177   3.375   3.549   1.202
 7093SOL    HW122178   3.463   3.502   1.210
 7093SOL    HW222179   3.327   3.545   1.290
 7094SOL     OW22180   3.147   0.276   5.045
 7094SOL    HW122181   3.180   0.186   5.014
 7094SOL    HW222182   3.193   0.300   5.130
 7095SOL     OW22183   2.591   4.647   5.263
 7095SOL    HW122184   2.525   4.702   5.211
 7095SOL    HW222185   2.656   4.605   5.199
 7096SOL     OW22186   0.012   0.877   1.137
 7096SOL    HW122187   6.974   0.957   1.137
 7096SOL    HW222188   0.057   0.870   1.226
 7097SOL     OW22189   4.854   0.639   1.671
 7097SOL    HW122190   4.790   0.709   1.701
 7097SOL    HW222191   4.845   0.626   1.572
 7098SOL     OW22192   0.800   6.549   4.198
 7098SOL    HW122193   0.760   6.534   4.108
 7098SOL    HW222194   0.747   6.500   4.267
 7099SOL     OW22195   3.209   2.188   3.987
 7099SOL    HW122196   3.170   2.201   4.078
 7099SOL    HW222197   3.143   2.220   3.918
 7100SOL     OW22198   5.794   4.026   1.387
 7100SOL    HW122199   5.775   4.081   1.306
 7100SOL    HW222200   5.864   3.957   1.364
 7101SOL     OW22201   2.171   6.274   5.269
 7101SOL    HW122202   2.199   6.184   5.234
 7101SOL    HW222203   2.072   6.282   5.263
 7102SOL     OW22204   5.774   0.899   1.675
 7102SOL    HW122205   5.836   0.951   1.733
 7102SOL    HW222206   5.681   0.906   1.710
 7103SOL     OW22207   4.595   4.409   2.792
 7103SOL    HW122208   4.525   4.428   2.861
 7103SOL    HW222209   4.566   4.448   2.705
 7104SOL     OW22210   5.234   3.694   3.620
 7104SOL    HW122211   5.190   3.776   3.583
 7104SOL    HW222212   5.181   3.613   3.595
 7105SOL     OW22213   3.461   4.120   4.219
 7105SOL    HW122214   3.479   4.033   4.174
 7105SOL    HW222215   3.459   4.193   4.151
 7106SOL     OW22216   3.116   2.791   1.114
 7106SOL    HW122217   3.118   2.693   1.134
 7106SOL    HW222218   3.199   2.834   1.150
 7107SOL     OW22219   3.727   0.483   6.524
 7107SOL    HW122220   3.651   0.508   6.465
 7107SOL    HW222221   3.812   0.521   6.488
 7108SOL     OW22222   4.130   0.330   2.248
 7108SOL    HW122223   4.182   0.391   2.188
 7108SOL    HW222224   4.078   0.265   2.193
 7109SOL     OW22225   2.036   6.459   5.955
 7109SOL    HW122226   2.113   6.417   5.909
 7109SOL    HW222227   1.954   6.450   5.899
 7110SOL     OW22228   3.395   6.360   4.191
 7110SOL    HW122229   3.322   6.425   4.171
 7110SOL    HW222230   3.375   6.273   4.146
 7111SOL     OW22231   6.954   0.398   4.494
 7111SOL    HW122232   6.921   0.491   4.511
 7111SOL    HW222233   0.018   0.402   4.442
 7112SOL     OW22234   1.934   5.208   4.483
 7112SOL    HW122235   1.966   5.243   4.571
 7112SOL    HW222236   1.870   5.274   4.442
 7113SOL     OW22237   3.958   5.164   5.868
 7113SOL    HW122238   3.901   5.243   5.891
 7113SOL    HW222239   3.988   5.120   5.952
 7114SOL     OW22240   5.123   5.511   0.595
 7114SOL    HW122241   5.210   5.493   0.550
 7114SOL    HW222242   5.132   5.497   0.693
 7115SOL     OW22243   6.267   3.755   6.881
 7115SOL    HW122244   6.268   3.855   6.876
 7115SOL    HW222245   6.346   3.718   6.831
 7116SOL     OW22246   6.444   4.157   4.144
 7116SOL    HW122247   6.455   4.229   4.213
 7116SOL    HW222248   6.358   4.108   4.162
 7117SOL     OW22249   6.105   7.013   2.972
 7117SOL    HW122250   6.058   0.075   2.999
 7117SOL    HW222251   6.204   0.006   2.976
 7118SOL     OW22252   4.175   4.324   5.341
 7118SOL    HW122253   4.083   4.296   5.315
 7118SOL    HW222254   4.233   4.328   5.259
 7119SOL     OW22255   3.620   6.277   5.293
 7119SOL    HW122256   3.673   6.357   5.321
 7119SOL    HW222257   3.658   6.240   5.208
 7120SOL     OW22258   4.967   0.751   0.350
 7120SOL    HW122259   4.926   0.676   0.403
 7120SOL    HW222260   4.990   0.827   0.412
 7121SOL     OW22261   1.487   6.146   2.477
 7121SOL    HW122262   1.449   6.220   2.532
 7121SOL    HW222263   1.578   6.123   2.510
 7122SOL     OW22264   2.537   0.819   6.211
 7122SOL    HW122265   2.457   0.767   6.180
 7122SOL    HW222266   2.508   0.899   6.262
 7123SOL     OW22267   5.222   5.009   6.148
 7123SOL    HW122268   5.271   4.933   6.106
 7123SOL    HW222269   5.124   4.993   6.143
 7124SOL     OW22270   1.806   2.219   1.328
 7124SOL    HW122271   1.853   2.162   1.395
 7124SOL    HW222272   1.787   2.309   1.369
 7125SOL     OW22273   1.290   6.298   0.989
 7125SOL    HW122274   1.319   6.291   1.085
 7125SOL    HW222275   1.238   6.382   0.976
 7126SOL     OW22276   3.594   5.449   1.287
 7126SOL    HW122277   3.604   5.469   1.384
 7126SOL    HW222278   3.565   5.531   1.239
 7127SOL     OW22279   2.659   0.320   5.057
 7127SOL    HW122280   2.618   0.260   4.987
 7127SOL    HW222281   2.745   0.280   5.089
 7128SOL     OW22282   4.307   3.850   6.070
 7128SOL    HW122283   4.287   3.926   6.131
 7128SOL    HW222284   4.222   3.802   6.046
 7129SOL     OW22285   0.607   0.096   0.679
 7129SOL    HW122286   0.604   0.061   0.585
 7129SOL    HW222287   0.575   0.190   0.681
 7130SOL     OW22288   3.425   6.730   4.248
 7130SOL    HW122289   3.406   6.694   4.340
 7130SOL    HW222290   3.494   6.802   4.254
 7131SOL     OW22291   3.660   0.870   2.896
 7131SOL    HW122292   3.598   0.947   2.879
 7131SOL    HW222293   3.686   0.870   2.992
 7132SOL     OW22294   5.667   4.498   0.961
 7132SOL    HW122295   5.606   4.537   0.893
 7132SOL    HW222296   5.718   4.571   1.006
 7133SOL     OW22297   4.161   5.290   2.879
 7133SOL    HW122298   4.073   5.257   2.846
 7133SOL    HW222299   4.147   5.359   2.949
 7134SOL     OW22300   5.742   5.256   0.963
 7134SOL    HW122301   5.679   5.186   0.928
 7134SOL    HW222302   5.823   5.260   0.905
 7135SOL     OW22303   2.063   3.093   1.013
 7135SOL    HW122304   2.136   3.158   1.034
 7135SOL    HW222305   2.085   3.004   1.053
 7136SOL     OW22306   1.765   1.829   1.827
 7136SOL    HW122307   1.798   1.865   1.914
 7136SOL    HW222308   1.834   1.770   1.786
 7137SOL     OW22309   2.573   2.414   1.429
 7137SOL    HW122310   2.648   2.364   1.472
 7137SOL    HW222311   2.563   2.384   1.334
 7138SOL     OW22312   1.009   2.327   0.850
 7138SOL    HW122313   0.921   2.348   0.808
 7138SOL    HW222314   1.007   2.236   0.890
 7139SOL     OW22315   6.412   6.162   1.044
 7139SOL    HW122316   6.389   6.088   1.108
 7139SOL    HW222317   6.510   6.182   1.049
 7140SOL     OW22318   0.066   3.225   0.587
 7140SOL    HW122319   0.003   3.287   0.634
 7140SOL    HW222320   0.095   3.265   0.500
 7141SOL     OW22321   3.572   0.596   0.964
 7141SOL    HW122322   3.479   0.613   0.930
 7141SOL    HW222323   3.568   0.526   1.035
 7142SOL     OW22324   3.239   0.048   4.941
 7142SOL    HW122325   3.198   6.979   4.953
 7142SOL    HW222326   3.318   0.041   4.880
 7143SOL     OW22327   3.103   4.440   6.730
 7143SOL    HW122328   3.056   4.357   6.758
 7143SOL    HW222329   3.170   4.466   6.801
 7144SOL     OW22330   6.662   0.523   5.424
 7144SOL    HW122331   6.580   0.527   5.366
 7144SOL    HW222332   6.636   0.536   5.520
 7145SOL     OW22333   4.962   1.896   6.433
 7145SOL    HW122334   4.956   1.910   6.334
 7145SOL    HW222335   4.942   1.982   6.480
 7146SOL     OW22336   1.756   2.047   5.423
 7146SOL    HW122337   1.676   1.988   5.427
 7146SOL    HW222338   1.839   1.990   5.421
 7147SOL     OW22339   6.271   6.473   1.902
 7147SOL    HW122340   6.362   6.444   1.872
 7147SOL    HW222341   6.267   6.573   1.906
 7148SOL     OW22342   6.513   6.859   0.892
 7148SOL    HW122343   6.520   6.760   0.909
 7148SOL    HW222344   6.417   6.881   0.872
 7149SOL     OW22345   6.196   4.650   5.412
 7149SOL    HW122346   6.290   4.642   5.443
 7149SOL    HW222347   6.137   4.594   5.470
 7150SOL     OW22348   3.782   3.369   6.825
 7150SOL    HW122349   3.723   3.446   6.802
 7150SOL    HW222350   3.876   3.401   6.836
 7151SOL     OW22351   3.675   1.057   1.244
 7151SOL    HW122352   3.651   1.024   1.153
 7151SOL    HW222353   3.773   1.046   1.259
 7152SOL     OW22354   6.159   1.120   6.269
 7152SOL    HW122355   6.177   1.090   6.175
 7152SOL    HW222356   6.201   1.210   6.284
 7153SOL     OW22357   3.414   5.847   1.299
 7153SOL    HW122358   3.475   5.864   1.377
 7153SOL    HW222359   3.466   5.803   1.226
 7154SOL     OW22360   4.299   1.715   1.910
 7154SOL    HW122361   4.275   1.691   2.004
 7154SOL    HW222362   4.225   1.768   1.869
 7155SOL     OW22363   3.065   1.268   2.200
 7155SOL    HW122364   3.062   1.366   2.184
 7155SOL    HW222365   2.972   1.233   2.214
 7156SOL     OW22366   6.125   3.552   6.616
 7156SOL    HW122367   6.127   3.510   6.706
 7156SOL    HW222368   6.214   3.592   6.595
 7157SOL     OW22369   6.581   4.614   6.640
 7157SOL    HW122370   6.604   4.531   6.692
 7157SOL    HW222371   6.545   4.588   6.550
 7158SOL     OW22372   4.534   6.560   4.052
 7158SOL    HW122373   4.519   6.542   3.955
 7158SOL    HW222374   4.505   6.480   4.105
 7159SOL     OW22375   1.018   6.357   3.020
 7159SOL    HW122376   0.943   6.365   2.956
 7159SOL    HW222377   1.090   6.300   2.981
 7160SOL     OW22378   6.852   0.045   3.404
 7160SOL    HW122379   6.787   0.009   3.471
 7160SOL    HW222380   6.869   0.142   3.423
 7161SOL     OW22381   3.951   3.140   3.336
 7161SOL    HW122382   3.887   3.063   3.331
 7161SOL    HW222383   3.974   3.158   3.431
 7162SOL     OW22384   0.559   6.009   1.336
 7162SOL    HW122385   0.611   5.926   1.356
 7162SOL    HW222386   0.467   6.002   1.375
 7163SOL     OW22387   0.376   1.664   2.518
 7163SOL    HW122388   0.313   1.640   2.592
 7163SOL    HW222389   0.422   1.750   2.539
 7164SOL     OW22390   1.930   0.801   6.403
 7164SOL    HW122391   2.027   0.794   6.376
 7164SOL    HW222392   1.902   0.896   6.399
 7165SOL     OW22393   5.555   1.309   0.344
 7165SOL    HW122394   5.591   1.346   0.430
 7165SOL    HW222395   5.610   1.229   0.317
 7166SOL     OW22396   6.200   6.508   5.939
 7166SOL    HW122397   6.263   6.586   5.939
 7166SOL    HW222398   6.232   6.438   5.876
 7167SOL     OW22399   5.835   2.383   4.618
 7167SOL    HW122400   5.884   2.311   4.570
 7167SOL    HW222401   5.842   2.469   4.567
 7168SOL     OW22402   2.754   1.197   2.021
 7168SOL    HW122403   2.813   1.207   1.940
 7168SOL    HW222404   2.694   1.118   2.009
 7169SOL     OW22405   1.386   3.833   6.715
 7169SOL    HW122406   1.440   3.857   6.635
 7169SOL    HW222407   1.443   3.839   6.797
 7170SOL     OW22408   3.811   1.398   0.591
 7170SOL    HW122409   3.805   1.493   0.620
 7170SOL    HW222410   3.731   1.374   0.536
 7171SOL     OW22411   6.741   4.346   0.904
 7171SOL    HW122412   6.708   4.421   0.961
 7171SOL    HW222413   6.708   4.259   0.941
 7172SOL     OW22414   1.672   1.554   4.082
 7172SOL    HW122415   1.596   1.492   4.101
 7172SOL    HW222416   1.734   1.510   4.016
 7173SOL     OW22417   4.695   5.349   6.196
 7173SOL    HW122418   4.749   5.392   6.122
 7173SOL    HW222419   4.600   5.378   6.189
 7174SOL     OW22420   6.601   4.219   1.866
 7174SOL    HW122421   6.579   4.307   1.824
 7174SOL    HW222422   6.700   4.212   1.878
 7175SOL     OW22423   5.757   3.340   6.848
 7175SOL    HW122424   5.816   3.381   6.917
 7175SOL    HW222425   5.662   3.368   6.865
 7176SOL     OW22426   0.695   0.673   5.473
 7176SOL    HW122427   0.646   0.592   5.503
 7176SOL    HW222428   0.765   0.647   5.407
 7177SOL     OW22429   1.561   5.643   3.481
 7177SOL    HW122430   1.565   5.581   3.403
 7177SOL    HW222431   1.484   5.619   3.539
 7178SOL     OW22432   1.594   0.515   4.919
 7178SOL    HW122433   1.633   0.503   5.010
 7178SOL    HW222434   1.494   0.517   4.926
 7179SOL     OW22435   3.537   5.670   6.417
 7179SOL    HW122436   3.594   5.677   6.499
 7179SOL    HW222437   3.495   5.758   6.398
 7180SOL     OW22438   1.547   4.030   1.252
 7180SOL    HW122439   1.544   4.089   1.171
 7180SOL    HW222440   1.455   3.997   1.272
 7181SOL     OW22441   2.519   1.814   5.837
 7181SOL    HW122442   2.559   1.904   5.852
 7181SOL    HW222443   2.518   1.793   5.739
 7182SOL     OW22444   1.401   1.817   4.560
 7182SOL    HW122445   1.461   1.851   4.632
 7182SOL    HW222446   1.407   1.878   4.481
 7183SOL     OW22447   1.035   6.772   1.831
 7183SOL    HW122448   0.963   6.818   1.883
 7183SOL    HW222449   1.125   6.800   1.866
 7184SOL     OW22450   6.124   6.889   3.997
 7184SOL    HW122451   6.101   6.827   4.072
 7184SOL    HW222452   6.063   6.967   3.998
 7185SOL     OW22453   4.084   1.095   4.389
 7185SOL    HW122454   4.045   1.171   4.337
 7185SOL    HW222455   4.158   1.129   4.447
 7186SOL     OW22456   0.410   0.241   6.601
 7186SOL    HW122457   0.451   0.332   6.597
 7186SOL    HW222458   0.366   0.221   6.513
 7187SOL     OW22459   3.203   2.992   4.100
 7187SOL    HW122460   3.146   2.934   4.157
 7187SOL    HW222461   3.147   3.064   4.059
 7188SOL     OW22462   3.750   4.169   6.959
 7188SOL    HW122463   3.713   4.076   6.967
 7188SOL    HW222464   3.696   4.231   7.015
 7189SOL     OW22465   6.315   2.601   5.762
 7189SOL    HW122466   6.357   2.549   5.836
 7189SOL    HW222467   6.220   2.624   5.786
 7190SOL     OW22468   6.007   5.404   1.590
 7190SOL    HW122469   6.022   5.416   1.492
 7190SOL    HW222470   5.909   5.393   1.608
 7191SOL     OW22471   0.269   4.941   4.104
 7191SOL    HW122472   0.361   4.902   4.100
 7191SOL    HW222473   0.221   4.923   4.018
 7192SOL     OW22474   2.012   4.402   6.726
 7192SOL    HW122475   1.955   4.345   6.668
 7192SOL    HW222476   1.976   4.496   6.727
 7193SOL     OW22477   2.596   1.999   2.239
 7193SOL    HW122478   2.524   1.996   2.308
 7193SOL    HW222479   2.584   1.924   2.174
 7194SOL     OW22480   3.032   2.804   6.156
 7194SOL    HW122481   2.949   2.858   6.168
 7194SOL    HW222482   3.099   2.830   6.225
 7195SOL     OW22483   0.020   4.221   5.403
 7195SOL    HW122484   0.025   4.160   5.324
 7195SOL    HW222485   0.096   4.201   5.465
 7196SOL     OW22486   3.308   4.118   1.848
 7196SOL    HW122487   3.265   4.150   1.932
 7196SOL    HW222488   3.407   4.135   1.852
 7197SOL     OW22489   2.594   3.704   5.685
 7197SOL    HW122490   2.659   3.713   5.609
 7197SOL    HW222491   2.562   3.795   5.712
 7198SOL     OW22492   0.440   0.527   1.907
 7198SOL    HW122493   0.449   0.468   1.827
 7198SOL    HW222494   0.400   0.615   1.880
 7199SOL     OW22495   0.162   1.059   2.438
 7199SOL    HW122496   0.096   1.063   2.512
 7199SOL    HW222497   0.135   1.122   2.365
 7200SOL     OW22498   1.022   2.494   1.060
 7200SOL    HW122499   0.941   2.546   1.089
 7200SOL    HW222500   1.011   2.465   0.965
 7201SOL     OW22501   5.506   5.652   4.121
 7201SOL    HW122502   5.416   5.613   4.141
 7201SOL    HW222503   5.515   5.740   4.169
 7202SOL     OW22504   4.635   0.701   5.509
 7202SOL    HW122505   4.705   0.761   5.470
 7202SOL    HW222506   4.679   0.620   5.548
 7203SOL     OW22507   0.491   1.826   1.187
 7203SOL    HW122508   0.543   1.826   1.272
 7203SOL    HW222509   0.554   1.815   1.110
 7204SOL     OW22510   6.514   0.099   1.562
 7204SOL    HW122511   6.613   0.084   1.572
 7204SOL    HW222512   6.466   0.013   1.580
 7205SOL     OW22513   3.122   1.874   4.487
 7205SOL    HW122514   3.022   1.880   4.487
 7205SOL    HW222515   3.156   1.899   4.396
 7206SOL     OW22516   1.794   3.274   0.667
 7206SOL    HW122517   1.808   3.207   0.595
 7206SOL    HW222518   1.848   3.356   0.647
 7207SOL     OW22519   1.780   0.986   3.949
 7207SOL    HW122520   1.762   0.970   4.046
 7207SOL    HW222521   1.755   0.904   3.897
 7208SOL     OW22522   2.945   0.501   4.201
 7208SOL    HW122523   3.014   0.529   4.134
 7208SOL    HW222524   2.868   0.564   4.197
 7209SOL     OW22525   2.865   1.768   2.353
 7209SOL    HW122526   2.933   1.835   2.323
 7209SOL    HW222527   2.811   1.807   2.428
 7210SOL     OW22528   2.741   1.301   3.370
 7210SOL    HW122529   2.810   1.309   3.442
 7210SOL    HW222530   2.685   1.384   3.369
 7211SOL     OW22531   3.268   5.450   5.021
 7211SOL    HW122532   3.330   5.416   5.092
 7211SOL    HW222533   3.275   5.549   5.014
 7212SOL     OW22534   6.695   4.034   5.800
 7212SOL    HW122535   6.657   4.064   5.713
 7212SOL    HW222536   6.789   4.069   5.809
 7213SOL     OW22537   4.002   1.583   0.389
 7213SOL    HW122538   4.048   1.512   0.443
 7213SOL    HW222539   4.043   1.672   0.409
 7214SOL     OW22540   0.086   0.804   6.451
 7214SOL    HW122541   0.181   0.817   6.425
 7214SOL    HW222542   0.037   0.891   6.445
 7215SOL     OW22543   6.989   2.842   2.753
 7215SOL    HW122544   6.964   2.748   2.776
 7215SOL    HW222545   0.060   2.843   2.715
 7216SOL     OW22546   3.298   6.200   2.541
 7216SOL    HW122547   3.224   6.183   2.606
 7216SOL    HW222548   3.261   6.237   2.456
 7217SOL     OW22549   1.349   3.466   3.309
 7217SOL    HW122550   1.324   3.549   3.260
 7217SOL    HW222551   1.440   3.478   3.350
 7218SOL     OW22552   6.379   4.745   4.677
 7218SOL    HW122553   6.299   4.794   4.712
 7218SOL    HW222554   6.407   4.676   4.744
 7219SOL     OW22555   3.297   5.972   2.042
 7219SOL    HW122556   3.394   5.995   2.056
 7219SOL    HW222557   3.283   5.941   1.948
 7220SOL     OW22558   5.728   4.634   4.774
 7220SOL    HW122559   5.801   4.613   4.708
 7220SOL    HW222560   5.743   4.726   4.812
 7221SOL     OW22561   3.712   5.743   4.311
 7221SOL    HW122562   3.617   5.774   4.318
 7221SOL    HW222563   3.714   5.643   4.322
 7222SOL     OW22564   0.242   6.320   4.301
 7222SOL    HW122565   0.301   6.347   4.225
 7222SOL    HW222566   0.202   6.401   4.343
 7223SOL     OW22567   0.182   2.999   1.561
 7223SOL    HW122568   0.171   3.074   1.495
 7223SOL    HW222569   0.188   2.912   1.512
 7224SOL     OW22570   3.852   2.185   3.287
 7224SOL    HW122571   3.833   2.138   3.373
 7224SOL    HW222572   3.786   2.157   3.218
 7225SOL     OW22573   1.225   0.219   0.853
 7225SOL    HW122574   1.293   0.159   0.810
 7225SOL    HW222575   1.233   0.213   0.952
 7226SOL     OW22576   6.290   6.407   0.998
 7226SOL    HW122577   6.328   6.432   0.908
 7226SOL    HW222578   6.329   6.320   1.027
 7227SOL     OW22579   2.526   1.070   1.951
 7227SOL    HW122580   2.541   0.974   1.926
 7227SOL    HW222581   2.441   1.102   1.908
 7228SOL     OW22582   0.193   3.556   2.196
 7228SOL    HW122583   0.101   3.585   2.225
 7228SOL    HW222584   0.261   3.594   2.258
 7229SOL     OW22585   0.415   0.366   4.879
 7229SOL    HW122586   0.406   0.302   4.956
 7229SOL    HW222587   0.361   0.332   4.802
 7230SOL     OW22588   2.276   5.079   4.552
 7230SOL    HW122589   2.275   4.986   4.517
 7230SOL    HW222590   2.344   5.087   4.625
 7231SOL     OW22591   4.593   1.325   6.277
 7231SOL    HW122592   4.667   1.280   6.327
 7231SOL    HW222593   4.558   1.402   6.331
 7232SOL     OW22594   5.715   6.948   3.271
 7232SOL    HW122595   5.813   6.961   3.255
 7232SOL    HW222596   5.667   0.013   3.261
 7233SOL     OW22597   6.461   1.110   5.141
 7233SOL    HW122598   6.534   1.179   5.134
 7233SOL    HW222599   6.461   1.054   5.058
 7234SOL     OW22600   5.044   4.199   2.706
 7234SOL    HW122601   4.982   4.258   2.758
 7234SOL    HW222602   4.999   4.172   2.620
 7235SOL     OW22603   0.466   6.287   1.353
 7235SOL    HW122604   0.370   6.264   1.342
 7235SOL    HW222605   0.522   6.204   1.342
 7236SOL     OW22606   2.205   2.726   3.517
 7236SOL    HW122607   2.205   2.630   3.545
 7236SOL    HW222608   2.258   2.780   3.582
 7237SOL     OW22609   5.212   0.855   0.186
 7237SOL    HW122610   5.122   0.822   0.216
 7237SOL    HW222611   5.254   0.786   0.128
 7238SOL     OW22612   4.264   2.949   0.574
 7238SOL    HW122613   4.330   3.022   0.595
 7238SOL    HW222614   4.174   2.975   0.607
 7239SOL     OW22615   0.577   3.034   2.421
 7239SOL    HW122616   0.614   3.126   2.427
 7239SOL    HW222617   0.627   2.982   2.352
 7240SOL     OW22618   6.997   1.756   5.862
 7240SOL    HW122619   6.949   1.840   5.834
 7240SOL    HW222620   0.020   1.771   5.950
 7241SOL     OW22621   2.875   1.903   2.082
 7241SOL    HW122622   2.810   1.870   2.151
 7241SOL    HW222623   2.889   1.833   2.012
 7242SOL     OW22624   6.791   5.439   4.936
 7242SOL    HW122625   6.741   5.377   4.876
 7242SOL    HW222626   6.787   5.405   5.030
 7243SOL     OW22627   6.369   3.660   6.564
 7243SOL    HW122628   6.405   3.621   6.479
 7243SOL    HW222629   6.442   3.704   6.615
 7244SOL     OW22630   6.843   6.563   6.774
 7244SOL    HW122631   6.934   6.559   6.733
 7244SOL    HW222632   6.851   6.551   6.873
 7245SOL     OW22633   1.106   2.943   6.760
 7245SOL    HW122634   1.175   2.883   6.801
 7245SOL    HW222635   1.061   2.895   6.684
 7246SOL     OW22636   3.103   0.227   3.898
 7246SOL    HW122637   3.157   0.149   3.868
 7246SOL    HW222638   3.162   0.306   3.912
 7247SOL     OW22639   2.606   2.595   5.377
 7247SOL    HW122640   2.657   2.558   5.454
 7247SOL    HW222641   2.563   2.520   5.326
 7248SOL     OW22642   3.546   1.066   4.692
 7248SOL    HW122643   3.602   0.986   4.714
 7248SOL    HW222644   3.583   1.146   4.739
 7249SOL     OW22645   3.814   5.242   1.588
 7249SOL    HW122646   3.737   5.186   1.558
 7249SOL    HW222647   3.780   5.320   1.641
 7250SOL     OW22648   5.056   5.980   5.532
 7250SOL    HW122649   5.045   6.026   5.444
 7250SOL    HW222650   5.037   6.045   5.606
 7251SOL     OW22651   0.240   6.011   5.529
 7251SOL    HW122652   0.183   6.029   5.609
 7251SOL    HW222653   0.308   5.940   5.552
 7252SOL     OW22654   3.143   4.058   2.064
 7252SOL    HW122655   3.212   3.986   2.070
 7252SOL    HW222656   3.074   4.034   1.996
 7253SOL     OW22657   1.424   5.608   5.302
 7253SOL    HW122658   1.480   5.537   5.260
 7253SOL    HW222659   1.341   5.622   5.249
 7254SOL     OW22660   5.037   3.925   3.927
 7254SOL    HW122661   5.007   3.913   4.022
 7254SOL    HW222662   4.964   3.900   3.865
 7255SOL     OW22663   5.223   3.295   6.773
 7255SOL    HW122664   5.219   3.389   6.741
 7255SOL    HW222665   5.251   3.235   6.697
 7256SOL     OW22666   3.577   6.141   6.391
 7256SOL    HW122667   3.646   6.201   6.432
 7256SOL    HW222668   3.582   6.146   6.291
 7257SOL     OW22669   1.041   1.153   4.586
 7257SOL    HW122670   0.964   1.215   4.604
 7257SOL    HW222671   1.027   1.107   4.499
 7258SOL     OW22672   6.002   1.834   3.176
 7258SOL    HW122673   5.936   1.772   3.216
 7258SOL    HW222674   5.978   1.853   3.081
 7259SOL     OW22675   0.930   4.087   3.013
 7259SOL    HW122676   0.968   3.995   2.999
 7259SOL    HW222677   0.862   4.084   3.086
 7260SOL     OW22678   5.254   2.954   0.542
 7260SOL    HW122679   5.221   2.936   0.635
 7260SOL    HW222680   5.233   2.875   0.484
 7261SOL     OW22681   0.223   4.065   0.518
 7261SOL    HW122682   0.196   3.970   0.500
 7261SOL    HW222683   0.146   4.126   0.500
 7262SOL     OW22684   5.844   2.143   6.109
 7262SOL    HW122685   5.831   2.080   6.032
 7262SOL    HW222686   5.942   2.158   6.123
 7263SOL     OW22687   0.502   5.281   0.059
 7263SOL    HW122688   0.572   5.332   0.109
 7263SOL    HW222689   0.432   5.344   0.026
 7264SOL     OW22690   5.475   0.930   0.288
 7264SOL    HW122691   5.393   0.905   0.236
 7264SOL    HW222692   5.452   0.935   0.385
 7265SOL     OW22693   4.252   5.823   5.541
 7265SOL    HW122694   4.277   5.728   5.559
 7265SOL    HW222695   4.246   5.838   5.442
 7266SOL     OW22696   0.058   0.481   3.892
 7266SOL    HW122697   0.004   0.515   3.815
 7266SOL    HW222698   0.048   0.543   3.970
 7267SOL     OW22699   6.395   5.597   5.010
 7267SOL    HW122700   6.491   5.619   5.027
 7267SOL    HW222701   6.387   5.501   4.984
 7268SOL     OW22702   6.249   6.088   4.314
 7268SOL    HW122703   6.294   6.099   4.402
 7268SOL    HW222704   6.157   6.052   4.329
 7269SOL     OW22705   2.454   5.233   5.514
 7269SOL    HW122706   2.455   5.220   5.415
 7269SOL    HW222707   2.372   5.193   5.553
 7270SOL     OW22708   0.704   1.415   4.001
 7270SOL    HW122709   0.629   1.361   4.038
 7270SOL    HW222710   0.787   1.400   4.056
 7271SOL     OW22711   0.671   4.409   3.469
 7271SOL    HW122712   0.689   4.408   3.371
 7271SOL    HW222713   0.572   4.416   3.484
 7272SOL     OW22714   6.025   5.798   2.479
 7272SOL    HW122715   6.008   5.897   2.480
 7272SOL    HW222716   6.028   5.764   2.572
 7273SOL     OW22717   7.017   2.704   5.719
 7273SOL    HW122718   6.958   2.699   5.638
 7273SOL    HW222719   0.029   2.797   5.730
 7274SOL     OW22720   0.485   4.488   0.407
 7274SOL    HW122721   0.396   4.447   0.385
 7274SOL    HW222722   0.554   4.416   0.411
 7275SOL     OW22723   6.383   0.119   2.727
 7275SOL    HW122724   6.454   0.185   2.700
 7275SOL    HW222725   6.313   0.114   2.656
 7276SOL     OW22726   4.590   6.504   3.771
 7276SOL    HW122727   4.666   6.478   3.832
 7276SOL    HW222728   4.611   6.592   3.728
 7277SOL     OW22729   4.525   0.636   5.816
 7277SOL    HW122730   4.582   0.660   5.737
 7277SOL    HW222731   4.449   0.578   5.786
 7278SOL     OW22732   3.364   3.874   2.315
 7278SOL    HW122733   3.418   3.826   2.384
 7278SOL    HW222734   3.336   3.963   2.352
 7279SOL     OW22735   3.904   5.965   0.295
 7279SOL    HW122736   3.940   5.980   0.203
 7279SOL    HW222737   3.963   6.012   0.361
 7280SOL     OW22738   4.537   0.163   5.557
 7280SOL    HW122739   4.637   0.163   5.555
 7280SOL    HW222740   4.505   0.182   5.650
 7281SOL     OW22741   3.809   1.993   6.182
 7281SOL    HW122742   3.815   2.080   6.231
 7281SOL    HW222743   3.899   1.969   6.145
 7282SOL     OW22744   5.584   5.728   2.053
 7282SOL    HW122745   5.683   5.731   2.066
 7282SOL    HW222746   5.538   5.750   2.138
 7283SOL     OW22747   2.784   1.134   2.994
 7283SOL    HW122748   2.718   1.084   2.938
 7283SOL    HW222749   2.827   1.071   3.059
 7284SOL     OW22750   6.948   3.686   5.113
 7284SOL    HW122751   6.985   3.603   5.155
 7284SOL    HW222752   0.001   3.747   5.087
 7285SOL     OW22753   4.651   5.790   1.780
 7285SOL    HW122754   4.623   5.816   1.872
 7285SOL    HW222755   4.745   5.756   1.782
 7286SOL     OW22756   2.453   2.589   1.093
 7286SOL    HW122757   2.523   2.517   1.096
 7286SOL    HW222758   2.470   2.654   1.167
 7287SOL     OW22759   6.542   0.813   6.616
 7287SOL    HW122760   6.457   0.762   6.629
 7287SOL    HW222761   6.522   0.903   6.577
 7288SOL     OW22762   3.883   0.038   6.438
 7288SOL    HW122763   3.905   6.962   6.437
 7288SOL    HW222764   3.826   0.057   6.518
 7289SOL     OW22765   5.737   1.708   3.231
 7289SOL    HW122766   5.687   1.737   3.149
 7289SOL    HW222767   5.694   1.626   3.268
 7290SOL     OW22768   2.441   5.268   5.231
 7290SOL    HW122769   2.528   5.288   5.185
 7290SOL    HW222770   2.368   5.318   5.185
 7291SOL     OW22771   2.754   6.476   1.296
 7291SOL    HW122772   2.675   6.524   1.258
 7291SOL    HW222773   2.729   6.381   1.315
 7292SOL     OW22774   2.927   6.632   3.145
 7292SOL    HW122775   2.983   6.685   3.081
 7292SOL    HW222776   2.983   6.603   3.223
 7293SOL     OW22777   1.495   1.757   4.834
 7293SOL    HW122778   1.401   1.735   4.858
 7293SOL    HW222779   1.552   1.675   4.842
 7294SOL     OW22780   2.654   5.107   6.983
 7294SOL    HW122781   2.667   5.160   0.045
 7294SOL    HW222782   2.610   5.020   7.004
 7295SOL     OW22783   0.502   1.973   0.432
 7295SOL    HW122784   0.550   1.889   0.454
 7295SOL    HW222785   0.484   2.024   0.517
 7296SOL     OW22786   2.971   4.782   0.738
 7296SOL    HW122787   3.023   4.738   0.666
 7296SOL    HW222788   3.022   4.777   0.824
 7297SOL     OW22789   4.231   6.446   0.606
 7297SOL    HW122790   4.263   6.362   0.650
 7297SOL    HW222791   4.138   6.467   0.638
 7298SOL     OW22792   5.549   3.785   4.449
 7298SOL    HW122793   5.619   3.769   4.379
 7298SOL    HW222794   5.506   3.873   4.434
 7299SOL     OW22795   6.550   2.501   0.542
 7299SOL    HW122796   6.524   2.519   0.448
 7299SOL    HW222797   6.481   2.538   0.604
 7300SOL     OW22798   4.779   5.935   0.871
 7300SOL    HW122799   4.682   5.913   0.865
 7300SOL    HW222800   4.792   6.034   0.864
 7301SOL     OW22801   6.885   0.197   5.922
 7301SOL    HW122802   6.943   0.220   6.000
 7301SOL    HW222803   6.821   0.124   5.949
 7302SOL     OW22804   0.009   1.233   0.130
 7302SOL    HW122805   0.092   1.212   0.078
 7302SOL    HW222806   6.981   1.149   0.149
 7303SOL     OW22807   3.663   0.302   6.903
 7303SOL    HW122808   3.663   0.375   6.971
 7303SOL    HW222809   3.572   0.296   6.861
 7304SOL     OW22810   4.363   3.584   5.864
 7304SOL    HW122811   4.422   3.526   5.919
 7304SOL    HW222812   4.406   3.674   5.854
 7305SOL     OW22813   5.238   2.220   6.972
 7305SOL    HW122814   5.334   2.233   6.947
 7305SOL    HW222815   5.216   2.279   0.028
 7306SOL     OW22816   5.063   4.058   1.456
 7306SOL    HW122817   5.051   4.111   1.540
 7306SOL    HW222818   5.054   4.118   1.377
 7307SOL     OW22819   3.123   6.771   1.751
 7307SOL    HW122820   3.215   6.739   1.774
 7307SOL    HW222821   3.062   6.693   1.738
 7308SOL     OW22822   6.775   3.568   3.954
 7308SOL    HW122823   6.689   3.574   3.903
 7308SOL    HW222824   6.850   3.603   3.898
 7309SOL     OW22825   5.247   6.223   0.709
 7309SOL    HW122826   5.227   6.136   0.663
 7309SOL    HW222827   5.342   6.249   0.693
 7310SOL     OW22828   2.323   5.484   1.260
 7310SOL    HW122829   2.247   5.547   1.277
 7310SOL    HW222830   2.293   5.390   1.274
 7311SOL     OW22831   2.719   2.085   1.964
 7311SOL    HW122832   2.757   2.015   2.025
 7311SOL    HW222833   2.781   2.164   1.961
 7312SOL     OW22834   0.045   1.992   5.592
 7312SOL    HW122835   0.095   2.059   5.538
 7312SOL    HW222836   0.085   1.901   5.580
 7313SOL     OW22837   4.388   2.344   6.482
 7313SOL    HW122838   4.408   2.247   6.499
 7313SOL    HW222839   4.459   2.400   6.524
 7314SOL     OW22840   6.496   3.891   5.405
 7314SOL    HW122841   6.431   3.885   5.329
 7314SOL    HW222842   6.467   3.829   5.478
 7315SOL     OW22843   5.893   6.983   3.870
 7315SOL    HW122844   5.873   6.951   3.963
 7315SOL    HW222845   5.853   0.052   3.857
 7316SOL     OW22846   3.656   2.935   5.405
 7316SOL    HW122847   3.592   3.005   5.435
 7316SOL    HW222848   3.744   2.977   5.384
 7317SOL     OW22849   4.073   0.687   2.367
 7317SOL    HW122850   4.019   0.770   2.361
 7317SOL    HW222851   4.013   0.607   2.371
 7318SOL     OW22852   0.820   1.618   1.589
 7318SOL    HW122853   0.826   1.545   1.658
 7318SOL    HW222854   0.731   1.663   1.596
 7319SOL     OW22855   6.270   4.068   0.211
 7319SOL    HW122856   6.210   4.008   0.263
 7319SOL    HW222857   6.249   4.061   0.113
 7320SOL     OW22858   0.473   3.592   2.521
 7320SOL    HW122859   0.417   3.529   2.468
 7320SOL    HW222860   0.561   3.549   2.542
 7321SOL     OW22861   2.532   1.296   4.609
 7321SOL    HW122862   2.530   1.391   4.580
 7321SOL    HW222863   2.440   1.259   4.612
 7322SOL     OW22864   1.226   3.925   3.189
 7322SOL    HW122865   1.252   4.008   3.141
 7322SOL    HW222866   1.131   3.933   3.219
 7323SOL     OW22867   1.543   2.199   3.283
 7323SOL    HW122868   1.452   2.181   3.244
 7323SOL    HW222869   1.587   2.273   3.232
 7324SOL     OW22870   5.607   0.717   3.589
 7324SOL    HW122871   5.632   0.620   3.594
 7324SOL    HW222872   5.687   0.769   3.559
 7325SOL     OW22873   4.282   6.309   6.282
 7325SOL    HW122874   4.380   6.292   6.273
 7325SOL    HW222875   4.235   6.223   6.301
 7326SOL     OW22876   2.379   6.054   5.355
 7326SOL    HW122877   2.360   6.053   5.256
 7326SOL    HW222878   2.377   5.961   5.390
 7327SOL     OW22879   0.846   3.096   5.903
 7327SOL    HW122880   0.935   3.061   5.875
 7327SOL    HW222881   0.822   3.056   5.992
 7328SOL     OW22882   3.009   0.431   0.086
 7328SOL    HW122883   3.085   0.461   0.029
 7328SOL    HW222884   3.039   0.426   0.181
 7329SOL     OW22885   4.417   3.219   1.285
 7329SOL    HW122886   4.347   3.287   1.308
 7329SOL    HW222887   4.487   3.217   1.356
 7330SOL     OW22888   3.497   1.803   6.944
 7330SOL    HW122889   3.400   1.782   6.933
 7330SOL    HW222890   3.507   1.895   6.983
 7331SOL     OW22891   5.263   1.252   1.882
 7331SOL    HW122892   5.346   1.304   1.902
 7331SOL    HW222893   5.189   1.284   1.941
 7332SOL     OW22894   2.590   6.333   6.954
 7332SOL    HW122895   2.685   6.364   6.957
 7332SOL    HW222896   2.570   6.298   6.862
 7333SOL     OW22897   0.726   4.759   3.102
 7333SOL    HW122898   0.737   4.729   3.007
 7333SOL    HW222899   0.738   4.858   3.107
 7334SOL     OW22900   3.608   5.567   5.229
 7334SOL    HW122901   3.513   5.597   5.232
 7334SOL    HW222902   3.667   5.646   5.212
 7335SOL     OW22903   1.620   2.549   2.574
 7335SOL    HW122904   1.529   2.508   2.588
 7335SOL    HW222905   1.618   2.645   2.600
 7336SOL     OW22906   1.505   5.862   3.947
 7336SOL    HW122907   1.532   5.857   3.851
 7336SOL    HW222908   1.569   5.807   4.002
 7337SOL     OW22909   1.440   2.980   2.198
 7337SOL    HW122910   1.420   2.915   2.271
 7337SOL    HW222911   1.524   2.953   2.151
 7338SOL     OW22912   6.685   2.564   1.822
 7338SOL    HW122913   6.765   2.557   1.763
 7338SOL    HW222914   6.712   2.595   1.912
 7339SOL     OW22915   6.311   6.093   4.001
 7339SOL    HW122916   6.348   6.018   4.055
 7339SOL    HW222917   6.222   6.121   4.038
 7340SOL     OW22918   2.446   0.421   6.929
 7340SOL    HW122919   2.530   0.403   6.878
 7340SOL    HW222920   2.463   0.407   0.005
 7341SOL     OW22921   6.212   2.086   0.380
 7341SOL    HW122922   6.277   2.018   0.413
 7341SOL    HW222923   6.229   2.106   0.284
 7342SOL     OW22924   6.558   6.665   2.843
 7342SOL    HW122925   6.555   6.659   2.943
 7342SOL    HW222926   6.598   6.753   2.816
 7343SOL     OW22927   4.979   2.689   0.412
 7343SOL    HW122928   5.006   2.595   0.433
 7343SOL    HW222929   4.902   2.716   0.471
 7344SOL     OW22930   1.154   6.253   5.879
 7344SOL    HW122931   1.190   6.301   5.959
 7344SOL    HW222932   1.228   6.208   5.830
 7345SOL     OW22933   3.731   3.096   5.638
 7345SOL    HW122934   3.636   3.099   5.667
 7345SOL    HW222935   3.782   3.170   5.684
 7346SOL     OW22936   3.375   5.834   2.383
 7346SOL    HW122937   3.439   5.909   2.400
 7346SOL    HW222938   3.335   5.803   2.470
 7347SOL     OW22939   6.541   2.039   0.379
 7347SOL    HW122940   6.531   2.069   0.284
 7347SOL    HW222941   6.526   2.116   0.440
 7348SOL     OW22942   1.862   4.440   3.062
 7348SOL    HW122943   1.950   4.487   3.066
 7348SOL    HW222944   1.876   4.341   3.066
 7349SOL     OW22945   4.262   0.550   1.075
 7349SOL    HW122946   4.300   0.595   1.156
 7349SOL    HW222947   4.203   0.614   1.025
 7350SOL     OW22948   2.876   0.631   5.173
 7350SOL    HW122949   2.898   0.619   5.076
 7350SOL    HW222950   2.929   0.566   5.228
 7351SOL     OW22951   4.431   4.841   3.784
 7351SOL    HW122952   4.521   4.883   3.797
 7351SOL    HW222953   4.379   4.892   3.716
 7352SOL     OW22954   0.366   2.382   3.473
 7352SOL    HW122955   0.271   2.380   3.444
 7352SOL    HW222956   0.391   2.475   3.501
 7353SOL     OW22957   6.213   0.141   6.766
 7353SOL    HW122958   6.212   0.163   6.864
 7353SOL    HW222959   6.144   0.196   6.719
 7354SOL     OW22960   1.478   1.708   3.294
 7354SOL    HW122961   1.474   1.679   3.390
 7354SOL    HW222962   1.389   1.693   3.252
 7355SOL     OW22963   0.288   1.768   6.418
 7355SOL    HW122964   0.226   1.838   6.456
 7355SOL    HW222965   0.321   1.799   6.329
 7356SOL     OW22966   3.865   3.444   5.672
 7356SOL    HW122967   3.934   3.371   5.674
 7356SOL    HW222968   3.780   3.409   5.711
 7357SOL     OW22969   5.043   5.617   1.631
 7357SOL    HW122970   5.084   5.703   1.661
 7357SOL    HW222971   5.103   5.541   1.655
 7358SOL     OW22972   5.989   2.389   2.698
 7358SOL    HW122973   6.081   2.397   2.658
 7358SOL    HW222974   5.974   2.465   2.761
 7359SOL     OW22975   4.460   0.796   6.047
 7359SOL    HW122976   4.489   0.739   5.970
 7359SOL    HW222977   4.540   0.833   6.093
 7360SOL     OW22978   2.617   3.443   5.420
 7360SOL    HW122979   2.703   3.451   5.471
 7360SOL    HW222980   2.637   3.420   5.325
 7361SOL     OW22981   4.728   0.260   2.297
 7361SOL    HW122982   4.776   0.275   2.383
 7361SOL    HW222983   4.768   0.182   2.250
 7362SOL     OW22984   4.202   5.566   6.494
 7362SOL    HW122985   4.215   5.601   6.587
 7362SOL    HW222986   4.259   5.619   6.430
 7363SOL     OW22987   3.847   1.052   0.855
 7363SOL    HW122988   3.785   1.130   0.862
 7363SOL    HW222989   3.873   1.022   0.946
 7364SOL     OW22990   4.309   0.230   1.600
 7364SOL    HW122991   4.236   0.169   1.569
 7364SOL    HW222992   4.294   0.321   1.562
 7365SOL     OW22993   6.476   4.750   2.514
 7365SOL    HW122994   6.538   4.821   2.549
 7365SOL    HW222995   6.413   4.791   2.448
 7366SOL     OW22996   2.595   1.212   3.945
 7366SOL    HW122997   2.646   1.141   3.993
 7366SOL    HW222998   2.632   1.302   3.969
 7367SOL     OW22999   4.890   1.512   6.514
 7367SOL    HW123000   4.866   1.419   6.538
 7367SOL    HW223001   4.959   1.547   6.577
 7368SOL     OW23002   4.105   3.244   2.531
 7368SOL    HW123003   4.094   3.171   2.464
 7368SOL    HW223004   4.057   3.219   2.616
 7369SOL     OW23005   4.466   2.577   0.351
 7369SOL    HW123006   4.457   2.487   0.308
 7369SOL    HW223007   4.535   2.630   0.302
 7370SOL     OW23008   2.002   1.588   4.903
 7370SOL    HW123009   2.065   1.666   4.902
 7370SOL    HW223010   2.038   1.518   4.964
 7371SOL     OW23011   4.188   6.784   3.513
 7371SOL    HW123012   4.162   6.861   3.455
 7371SOL    HW223013   4.118   6.770   3.583
 7372SOL     OW23014   3.867   0.145   4.768
 7372SOL    HW123015   3.931   0.222   4.772
 7372SOL    HW223016   3.915   0.060   4.789
 7373SOL     OW23017   4.971   2.465   4.632
 7373SOL    HW123018   4.902   2.509   4.575
 7373SOL    HW223019   4.992   2.375   4.594
 7374SOL     OW23020   0.864   1.281   4.756
 7374SOL    HW123021   0.848   1.379   4.761
 7374SOL    HW223022   0.903   1.249   4.842
 7375SOL     OW23023   1.998   3.027   2.054
 7375SOL    HW123024   1.970   2.968   1.979
 7375SOL    HW223025   2.074   3.084   2.026
 7376SOL     OW23026   0.537   3.571   1.143
 7376SOL    HW123027   0.457   3.626   1.168
 7376SOL    HW223028   0.615   3.632   1.126
 7377SOL     OW23029   3.094   5.829   0.574
 7377SOL    HW123030   3.027   5.877   0.519
 7377SOL    HW223031   3.098   5.733   0.546
 7378SOL     OW23032   1.752   6.483   4.043
 7378SOL    HW123033   1.727   6.465   3.948
 7378SOL    HW223034   1.709   6.415   4.103
 7379SOL     OW23035   4.407   0.649   1.290
 7379SOL    HW123036   4.391   0.680   1.383
 7379SOL    HW223037   4.498   0.678   1.260
 7380SOL     OW23038   6.008   4.354   3.587
 7380SOL    HW123039   6.048   4.272   3.547
 7380SOL    HW223040   6.047   4.435   3.543
 7381SOL     OW23041   3.931   1.078   0.227
 7381SOL    HW123042   3.890   1.066   0.317
 7381SOL    HW223043   3.863   1.118   0.165
 7382SOL     OW23044   0.104   1.578   6.118
 7382SOL    HW123045   0.178   1.641   6.093
 7382SOL    HW223046   0.109   1.557   6.216
 7383SOL     OW23047   1.662   0.050   1.812
 7383SOL    HW123048   1.600   0.102   1.752
 7383SOL    HW223049   1.733   0.007   1.757
 7384SOL     OW23050   0.681   6.912   1.024
 7384SOL    HW123051   0.726   6.822   1.024
 7384SOL    HW223052   0.619   6.919   0.947
 7385SOL     OW23053   4.489   5.098   2.671
 7385SOL    HW123054   4.518   5.121   2.579
 7385SOL    HW223055   4.397   5.060   2.669
 7386SOL     OW23056   6.194   3.050   0.814
 7386SOL    HW123057   6.243   2.968   0.843
 7386SOL    HW223058   6.205   3.061   0.715
 7387SOL     OW23059   6.488   4.606   5.431
 7387SOL    HW123060   6.536   4.597   5.518
 7387SOL    HW223061   6.541   4.664   5.369
 7388SOL     OW23062   1.882   6.415   2.292
 7388SOL    HW123063   1.866   6.325   2.253
 7388SOL    HW223064   1.897   6.481   2.218
 7389SOL     OW23065   6.861   3.056   0.496
 7389SOL    HW123066   6.801   3.062   0.576
 7389SOL    HW223067   6.952   3.091   0.520
 7390SOL     OW23068   2.643   2.158   2.808
 7390SOL    HW123069   2.690   2.158   2.720
 7390SOL    HW223070   2.638   2.064   2.842
 7391SOL     OW23071   3.258   2.937   2.787
 7391SOL    HW123072   3.282   2.910   2.880
 7391SOL    HW223073   3.320   2.891   2.722
 7392SOL     OW23074   4.399   5.026   6.851
 7392SOL    HW123075   4.430   5.053   6.760
 7392SOL    HW223076   4.319   4.966   6.843
 7393SOL     OW23077   6.032   5.160   4.612
 7393SOL    HW123078   5.980   5.234   4.570
 7393SOL    HW223079   6.126   5.161   4.577
 7394SOL     OW23080   2.092   2.447   6.138
 7394SOL    HW123081   2.045   2.359   6.149
 7394SOL    HW223082   2.123   2.457   6.044
 7395SOL     OW23083   2.709   4.124   0.865
 7395SOL    HW123084   2.691   4.135   0.962
 7395SOL    HW223085   2.658   4.192   0.813
 7396SOL     OW23086   2.538   5.254   1.543
 7396SOL    HW123087   2.616   5.195   1.566
 7396SOL    HW223088   2.461   5.197   1.514
 7397SOL     OW23089   5.699   3.532   4.203
 7397SOL    HW123090   5.730   3.542   4.108
 7397SOL    HW223091   5.601   3.514   4.204
 7398SOL     OW23092   2.060   4.637   2.857
 7398SOL    HW123093   2.042   4.545   2.820
 7398SOL    HW223094   2.079   4.630   2.954
 7399SOL     OW23095   5.230   1.892   4.613
 7399SOL    HW123096   5.184   1.917   4.698
 7399SOL    HW223097   5.275   1.973   4.574
 7400SOL     OW23098   5.378   2.375   5.565
 7400SOL    HW123099   5.426   2.330   5.640
 7400SOL    HW223100   5.375   2.474   5.581
 7401SOL     OW23101   1.000   2.863   4.071
 7401SOL    HW123102   1.041   2.772   4.078
 7401SOL    HW223103   1.066   2.928   4.035
 7402SOL     OW23104   2.812   5.859   5.227
 7402SOL    HW123105   2.888   5.856   5.161
 7402SOL    HW223106   2.833   5.926   5.298
 7403SOL     OW23107   1.278   2.715   4.236
 7403SOL    HW123108   1.365   2.689   4.195
 7403SOL    HW223109   1.262   2.813   4.223
 7404SOL     OW23110   3.052   3.750   1.278
 7404SOL    HW123111   3.127   3.814   1.267
 7404SOL    HW223112   2.975   3.796   1.322
 7405SOL     OW23113   3.056   5.797   5.647
 7405SOL    HW123114   3.071   5.824   5.742
 7405SOL    HW223115   3.017   5.873   5.596
 7406SOL     OW23116   0.871   0.808   4.930
 7406SOL    HW123117   0.828   0.789   4.842
 7406SOL    HW223118   0.817   0.876   4.979
 7407SOL     OW23119   0.706   6.207   6.238
 7407SOL    HW123120   0.727   6.110   6.252
 7407SOL    HW223121   0.745   6.237   6.151
 7408SOL     OW23122   3.564   3.803   5.394
 7408SOL    HW123123   3.648   3.826   5.444
 7408SOL    HW223124   3.525   3.720   5.432
 7409SOL     OW23125   6.112   4.373   0.432
 7409SOL    HW123126   6.210   4.387   0.417
 7409SOL    HW223127   6.071   4.458   0.463
 7410SOL     OW23128   0.069   0.247   1.391
 7410SOL    HW123129   0.051   0.161   1.342
 7410SOL    HW223130   7.008   0.303   1.389
 7411SOL     OW23131   0.921   2.404   5.570
 7411SOL    HW123132   0.986   2.336   5.537
 7411SOL    HW223133   0.955   2.446   5.654
 7412SOL     OW23134   3.746   0.048   0.142
 7412SOL    HW123135   3.728   0.029   0.046
 7412SOL    HW223136   3.816   7.007   0.176
 7413SOL     OW23137   4.149   6.046   3.197
 7413SOL    HW123138   4.085   6.062   3.122
 7413SOL    HW223139   4.235   6.012   3.160
 7414SOL     OW23140   2.353   2.134   4.105
 7414SOL    HW123141   2.274   2.074   4.097
 7414SOL    HW223142   2.327   2.218   4.153
 7415SOL     OW23143   4.244   6.073   6.944
 7415SOL    HW123144   4.282   6.164   6.931
 7415SOL    HW223145   4.257   6.019   6.861
 7416SOL     OW23146   0.813   1.742   2.341
 7416SOL    HW123147   0.745   1.814   2.354
 7416SOL    HW223148   0.891   1.757   2.401
 7417SOL     OW23149   1.073   1.829   3.905
 7417SOL    HW123150   1.064   1.925   3.877
 7417SOL    HW223151   0.995   1.777   3.870
 7418SOL     OW23152   1.241   3.777   6.313
 7418SOL    HW123153   1.265   3.686   6.281
 7418SOL    HW223154   1.230   3.838   6.235
 7419SOL     OW23155   6.436   4.097   3.883
 7419SOL    HW123156   6.442   4.125   3.978
 7419SOL    HW223157   6.493   4.016   3.868
 7420SOL     OW23158   6.738   0.195   1.838
 7420SOL    HW123159   6.731   0.176   1.740
 7420SOL    HW223160   6.650   0.228   1.872
 7421SOL     OW23161   5.013   3.880   1.768
 7421SOL    HW123162   4.990   3.978   1.771
 7421SOL    HW223163   4.929   3.826   1.774
 7422SOL     OW23164   5.729   2.871   2.007
 7422SOL    HW123165   5.753   2.912   1.919
 7422SOL    HW223166   5.747   2.937   2.081
 7423SOL     OW23167   5.440   1.730   5.780
 7423SOL    HW123168   5.384   1.809   5.807
 7423SOL    HW223169   5.380   1.653   5.757
 7424SOL     OW23170   0.354   0.956   4.617
 7424SOL    HW123171   0.438   0.907   4.643
 7424SOL    HW223172   0.308   0.907   4.544
 7425SOL     OW23173   5.583   0.122   0.473
 7425SOL    HW123174   5.544   0.058   0.407
 7425SOL    HW223175   5.627   0.071   0.547
 7426SOL     OW23176   3.527   2.731   5.839
 7426SOL    HW123177   3.498   2.776   5.923
 7426SOL    HW223178   3.614   2.683   5.855
 7427SOL     OW23179   3.794   1.685   3.952
 7427SOL    HW123180   3.849   1.738   4.017
 7427SOL    HW223181   3.840   1.598   3.932
 7428SOL     OW23182   4.425   6.022   5.625
 7428SOL    HW123183   4.370   5.938   5.632
 7428SOL    HW223184   4.413   6.076   5.708
 7429SOL     OW23185   1.890   0.272   2.280
 7429SOL    HW123186   1.867   0.370   2.277
 7429SOL    HW223187   1.925   0.244   2.191
 7430SOL     OW23188   6.272   5.115   2.987
 7430SOL    HW123189   6.242   5.209   2.972
 7430SOL    HW223190   6.193   5.057   3.006
 7431SOL     OW23191   1.682   2.041   4.666
 7431SOL    HW123192   1.676   1.990   4.751
 7431SOL    HW223193   1.640   2.131   4.678
 7432SOL     OW23194   1.622   0.106   3.355
 7432SOL    HW123195   1.631   0.137   3.450
 7432SOL    HW223196   1.592   0.183   3.298
 7433SOL     OW23197   2.310   0.087   6.644
 7433SOL    HW123198   2.367   0.015   6.685
 7433SOL    HW223199   2.331   0.175   6.687
 7434SOL     OW23200   4.074   6.033   5.615
 7434SOL    HW123201   4.138   5.959   5.595
 7434SOL    HW223202   4.059   6.088   5.533
 7435SOL     OW23203   4.904   6.562   3.144
 7435SOL    HW123204   4.921   6.553   3.243
 7435SOL    HW223205   4.833   6.499   3.116
 7436SOL     OW23206   5.338   3.098   6.312
 7436SOL    HW123207   5.328   2.999   6.307
 7436SOL    HW223208   5.422   3.125   6.264
 7437SOL     OW23209   4.227   6.339   1.214
 7437SOL    HW123210   4.153   6.398   1.245
 7437SOL    HW223211   4.289   6.391   1.154
 7438SOL     OW23212   2.611   0.944   6.851
 7438SOL    HW123213   2.562   0.860   6.872
 7438SOL    HW223214   2.565   0.993   6.777
 7439SOL     OW23215   0.880   4.726   6.442
 7439SOL    HW123216   0.921   4.635   6.431
 7439SOL    HW223217   0.870   4.746   6.539
 7440SOL     OW23218   5.234   3.210   3.669
 7440SOL    HW123219   5.137   3.235   3.662
 7440SOL    HW223220   5.261   3.157   3.589
 7441SOL     OW23221   6.266   6.424   1.544
 7441SOL    HW123222   6.357   6.383   1.539
 7441SOL    HW223223   6.204   6.362   1.591
 7442SOL     OW23224   4.912   0.689   5.275
 7442SOL    HW123225   4.939   0.618   5.210
 7442SOL    HW223226   4.960   0.676   5.361
 7443SOL     OW23227   7.016   0.224   1.802
 7443SOL    HW123228   6.917   0.240   1.796
 7443SOL    HW223229   0.042   0.298   1.753
 7444SOL     OW23230   0.473   6.541   6.229
 7444SOL    HW123231   0.484   6.511   6.323
 7444SOL    HW223232   0.522   6.628   6.216
 7445SOL     OW23233   4.538   5.736   1.542
 7445SOL    HW123234   4.589   5.786   1.472
 7445SOL    HW223235   4.579   5.754   1.631
 7446SOL     OW23236   5.076   3.711   0.305
 7446SOL    HW123237   4.987   3.693   0.347
 7446SOL    HW223238   5.141   3.640   0.333
 7447SOL     OW23239   0.921   4.755   1.659
 7447SOL    HW123240   0.943   4.847   1.691
 7447SOL    HW223241   0.864   4.759   1.578
 7448SOL     OW23242   4.933   5.047   6.143
 7448SOL    HW123243   4.871   5.091   6.078
 7448SOL    HW223244   4.958   5.111   6.215
 7449SOL     OW23245   0.450   4.387   0.078
 7449SOL    HW123246   0.438   4.300   0.125
 7449SOL    HW223247   0.489   4.371   7.009
 7450SOL     OW23248   5.251   1.524   5.714
 7450SOL    HW123249   5.159   1.562   5.699
 7450SOL    HW223250   5.275   1.465   5.637
 7451SOL     OW23251   5.696   4.950   2.206
 7451SOL    HW123252   5.723   5.005   2.285
 7451SOL    HW223253   5.730   4.857   2.216
 7452SOL     OW23254   5.743   5.434   5.080
 7452SOL    HW123255   5.799   5.386   5.148
 7452SOL    HW223256   5.761   5.532   5.085
 7453SOL     OW23257   4.205   5.639   6.767
 7453SOL    HW123258   4.254   5.570   6.820
 7453SOL    HW223259   4.237   5.730   6.793
 7454SOL     OW23260   3.726   2.153   0.665
 7454SOL    HW123261   3.675   2.125   0.746
 7454SOL    HW223262   3.663   2.195   0.599
 7455SOL     OW23263   6.718   2.762   3.093
 7455SOL    HW123264   6.624   2.756   3.126
 7455SOL    HW223265   6.726   2.716   3.005
 7456SOL     OW23266   3.166   2.227   5.595
 7456SOL    HW123267   3.244   2.165   5.590
 7456SOL    HW223268   3.124   2.236   5.504
 7457SOL     OW23269   2.915   6.980   3.017
 7457SOL    HW123270   2.994   6.931   2.978
 7457SOL    HW223271   2.945   0.014   3.094
 7458SOL     OW23272   1.398   5.862   5.606
 7458SOL    HW123273   1.469   5.891   5.670
 7458SOL    HW223274   1.440   5.816   5.528
 7459SOL     OW23275   6.088   1.092   3.299
 7459SOL    HW123276   6.067   1.189   3.308
 7459SOL    HW223277   6.171   1.070   3.350
 7460SOL     OW23278   1.289   0.221   1.146
 7460SOL    HW123279   1.190   0.233   1.141
 7460SOL    HW223280   1.324   0.265   1.229
 7461SOL     OW23281   1.099   5.426   5.881
 7461SOL    HW123282   1.189   5.434   5.923
 7461SOL    HW223283   1.050   5.513   5.892
 7462SOL     OW23284   1.242   5.040   1.285
 7462SOL    HW123285   1.232   5.101   1.207
 7462SOL    HW223286   1.163   4.980   1.291
 7463SOL     OW23287   3.927   4.396   0.412
 7463SOL    HW123288   3.919   4.448   0.327
 7463SOL    HW223289   3.876   4.310   0.404
 7464SOL     OW23290   6.486   6.073   5.439
 7464SOL    HW123291   6.388   6.090   5.448
 7464SOL    HW223292   6.502   6.014   5.359
 7465SOL     OW23293   2.319   5.122   0.075
 7465SOL    HW123294   2.341   5.170   0.159
 7465SOL    HW223295   2.329   5.185   7.019
 7466SOL     OW23296   0.483   6.728   4.618
 7466SOL    HW123297   0.452   6.762   4.706
 7466SOL    HW223298   0.532   6.642   4.631
 7467SOL     OW23299   0.198   3.228   5.940
 7467SOL    HW123300   0.297   3.237   5.928
 7467SOL    HW223301   0.175   3.245   6.036
 7468SOL     OW23302   6.178   3.428   5.832
 7468SOL    HW123303   6.114   3.410   5.757
 7468SOL    HW223304   6.210   3.522   5.827
 7469SOL     OW23305   6.779   2.320   0.865
 7469SOL    HW123306   6.759   2.385   0.791
 7469SOL    HW223307   6.792   2.369   0.950
 7470SOL     OW23308   5.644   3.720   3.825
 7470SOL    HW123309   5.725   3.670   3.856
 7470SOL    HW223310   5.580   3.656   3.782
 7471SOL     OW23311   5.364   5.550   6.052
 7471SOL    HW123312   5.280   5.574   6.004
 7471SOL    HW223313   5.350   5.466   6.105
 7472SOL     OW23314   6.202   6.165   5.479
 7472SOL    HW123315   6.137   6.089   5.472
 7472SOL    HW223316   6.218   6.203   5.388
 7473SOL     OW23317   3.843   6.308   3.893
 7473SOL    HW123318   3.799   6.243   3.955
 7473SOL    HW223319   3.836   6.400   3.931
 7474SOL     OW23320   6.692   1.926   5.396
 7474SOL    HW123321   6.649   1.992   5.457
 7474SOL    HW223322   6.791   1.932   5.405
 7475SOL     OW23323   4.665   2.429   1.016
 7475SOL    HW123324   4.633   2.478   1.097
 7475SOL    HW223325   4.667   2.492   0.938
 7476SOL     OW23326   2.254   1.237   3.069
 7476SOL    HW123327   2.191   1.313   3.086
 7476SOL    HW223328   2.277   1.234   2.972
 7477SOL     OW23329   1.003   4.266   5.713
 7477SOL    HW123330   0.946   4.251   5.632
 7477SOL    HW223331   1.027   4.362   5.721
 7478SOL     OW23332   0.701   1.572   5.535
 7478SOL    HW123333   0.795   1.577   5.503
 7478SOL    HW223334   0.644   1.529   5.465
 7479SOL     OW23335   6.214   3.068   6.835
 7479SOL    HW123336   6.235   3.004   6.909
 7479SOL    HW223337   6.118   3.094   6.839
 7480SOL     OW23338   3.663   5.207   2.324
 7480SOL    HW123339   3.711   5.121   2.343
 7480SOL    HW223340   3.565   5.191   2.326
 7481SOL     OW23341   0.112   4.019   6.825
 7481SOL    HW123342   0.157   3.936   6.859
 7481SOL    HW223343   0.134   4.030   6.728
 7482SOL     OW23344   3.945   2.199   2.514
 7482SOL    HW123345   3.872   2.150   2.466
 7482SOL    HW223346   3.991   2.261   2.451
 7483SOL     OW23347   4.350   2.470   6.027
 7483SOL    HW123348   4.284   2.428   6.090
 7483SOL    HW223349   4.342   2.427   5.938
 7484SOL     OW23350   2.988   6.383   4.254
 7484SOL    HW123351   3.059   6.435   4.207
 7484SOL    HW223352   2.935   6.331   4.187
 7485SOL     OW23353   2.642   6.962   4.575
 7485SOL    HW123354   2.566   0.005   4.565
 7485SOL    HW223355   2.616   6.890   4.639
 7486SOL     OW23356   2.109   6.492   0.454
 7486SOL    HW123357   2.052   6.418   0.420
 7486SOL    HW223358   2.067   6.580   0.431
 7487SOL     OW23359   3.709   6.486   3.633
 7487SOL    HW123360   3.736   6.413   3.696
 7487SOL    HW223361   3.757   6.570   3.657
 7488SOL     OW23362   0.842   5.658   4.138
 7488SOL    HW123363   0.848   5.558   4.133
 7488SOL    HW223364   0.794   5.692   4.057
 7489SOL     OW23365   6.513   3.573   6.897
 7489SOL    HW123366   6.569   3.635   6.842
 7489SOL    HW223367   6.532   3.478   6.871
 7490SOL     OW23368   1.240   2.290   2.194
 7490SOL    HW123369   1.252   2.190   2.189
 7490SOL    HW223370   1.162   2.310   2.253
 7491SOL     OW23371   4.411   3.228   0.244
 7491SOL    HW123372   4.325   3.218   0.195
 7491SOL    HW223373   4.401   3.295   0.317
 7492SOL     OW23374   1.731   0.316   4.225
 7492SOL    HW123375   1.722   0.282   4.131
 7492SOL    HW223376   1.653   0.285   4.279
 7493SOL     OW23377   6.362   4.323   5.340
 7493SOL    HW123378   6.262   4.332   5.333
 7493SOL    HW223379   6.399   4.407   5.380
 7494SOL     OW23380   5.852   1.344   3.061
 7494SOL    HW123381   5.850   1.272   2.992
 7494SOL    HW223382   5.940   1.391   3.059
 7495SOL     OW23383   2.148   3.464   4.951
 7495SOL    HW123384   2.246   3.445   4.957
 7495SOL    HW223385   2.097   3.382   4.977
 7496SOL     OW23386   5.478   4.168   2.394
 7496SOL    HW123387   5.420   4.113   2.334
 7496SOL    HW223388   5.574   4.154   2.368
 7497SOL     OW23389   0.320   6.686   0.448
 7497SOL    HW123390   0.226   6.720   0.445
 7497SOL    HW223391   0.335   6.639   0.536
 7498SOL     OW23392   3.354   0.209   2.991
 7498SOL    HW123393   3.326   0.118   2.960
 7498SOL    HW223394   3.280   0.274   2.976
 7499SOL     OW23395   3.804   2.070   3.540
 7499SOL    HW123396   3.820   1.984   3.588
 7499SOL    HW223397   3.710   2.100   3.555
 7500SOL     OW23398   3.989   6.305   2.860
 7500SOL    HW123399   3.910   6.306   2.921
 7500SOL    HW223400   4.034   6.395   2.862
 7501SOL     OW23401   6.086   2.458   4.776
 7501SOL    HW123402   6.184   2.479   4.781
 7501SOL    HW223403   6.052   2.479   4.685
 7502SOL     OW23404   4.116   0.189   4.285
 7502SOL    HW123405   4.166   0.275   4.295
 7502SOL    HW223406   4.088   0.178   4.189
 7503SOL     OW23407   1.454   6.004   1.242
 7503SOL    HW123408   1.511   5.923   1.251
 7503SOL    HW223409   1.451   6.053   1.329
 7504SOL     OW23410   6.328   6.685   3.448
 7504SOL    HW123411   6.285   6.668   3.359
 7504SOL    HW223412   6.282   6.631   3.518
 7505SOL     OW23413   0.987   6.757   5.305
 7505SOL    HW123414   0.921   6.806   5.248
 7505SOL    HW223415   0.941   6.720   5.386
 7506SOL     OW23416   2.406   1.796   3.531
 7506SOL    HW123417   2.387   1.813   3.435
 7506SOL    HW223418   2.481   1.855   3.561
 7507SOL     OW23419   6.379   4.029   4.819
 7507SOL    HW123420   6.309   4.051   4.887
 7507SOL    HW223421   6.342   3.963   4.753
 7508SOL     OW23422   1.791   5.918   6.807
 7508SOL    HW123423   1.777   6.005   6.760
 7508SOL    HW223424   1.799   5.845   6.739
 7509SOL     OW23425   5.021   4.090   0.642
 7509SOL    HW123426   5.102   4.034   0.660
 7509SOL    HW223427   4.970   4.102   0.727
 7510SOL     OW23428   3.972   3.952   4.015
 7510SOL    HW123429   3.920   4.022   4.065
 7510SOL    HW223430   4.040   3.912   4.077
 7511SOL     OW23431   3.628   5.657   2.966
 7511SOL    HW123432   3.652   5.604   3.048
 7511SOL    HW223433   3.532   5.682   2.969
 7512SOL     OW23434   3.094   6.585   6.277
 7512SOL    HW123435   3.016   6.607   6.336
 7512SOL    HW223436   3.110   6.486   6.280
 7513SOL     OW23437   1.115   2.230   3.025
 7513SOL    HW123438   1.110   2.272   3.115
 7513SOL    HW223439   1.168   2.145   3.031
 7514SOL     OW23440   2.361   4.208   2.582
 7514SOL    HW123441   2.273   4.160   2.578
 7514SOL    HW223442   2.408   4.182   2.666
 7515SOL     OW23443   0.475   4.441   4.576
 7515SOL    HW123444   0.473   4.487   4.488
 7515SOL    HW223445   0.566   4.403   4.592
 7516SOL     OW23446   1.065   5.558   5.435
 7516SOL    HW123447   1.006   5.626   5.478
 7516SOL    HW223448   1.110   5.598   5.355
 7517SOL     OW23449   0.351   1.729   0.021
 7517SOL    HW123450   0.368   1.789   6.964
 7517SOL    HW223451   0.286   1.773   0.083
 7518SOL     OW23452   4.801   2.873   3.927
 7518SOL    HW123453   4.893   2.845   3.900
 7518SOL    HW223454   4.742   2.793   3.931
 7519SOL     OW23455   3.459   6.454   5.021
 7519SOL    HW123456   3.378   6.430   5.073
 7519SOL    HW223457   3.509   6.371   4.996
 7520SOL     OW23458   2.223   2.050   1.373
 7520SOL    HW123459   2.311   2.053   1.325
 7520SOL    HW223460   2.149   2.043   1.307
 7521SOL     OW23461   4.212   1.292   5.506
 7521SOL    HW123462   4.200   1.205   5.458
 7521SOL    HW223463   4.309   1.306   5.526
 7522SOL     OW23464   1.823   6.714   2.618
 7522SOL    HW123465   1.808   6.795   2.675
 7522SOL    HW223466   1.863   6.641   2.673
 7523SOL     OW23467   5.449   1.677   6.391
 7523SOL    HW123468   5.490   1.586   6.391
 7523SOL    HW223469   5.495   1.735   6.459
 7524SOL     OW23470   7.009   3.122   4.919
 7524SOL    HW123471   7.002   3.057   4.995
 7524SOL    HW223472   0.004   3.214   4.956
 7525SOL     OW23473   4.249   5.887   6.437
 7525SOL    HW123474   4.251   5.978   6.478
 7525SOL    HW223475   4.159   5.869   6.398
 7526SOL     OW23476   2.508   3.335   1.679
 7526SOL    HW123477   2.447   3.362   1.753
 7526SOL    HW223478   2.454   3.309   1.599
 7527SOL     OW23479   3.733   5.459   3.690
 7527SOL    HW123480   3.636   5.449   3.710
 7527SOL    HW223481   3.748   5.450   3.592
 7528SOL     OW23482   6.680   3.063   6.649
 7528SOL    HW123483   6.674   2.968   6.618
 7528SOL    HW223484   6.588   3.097   6.670
 7529SOL     OW23485   6.457   2.688   3.909
 7529SOL    HW123486   6.527   2.755   3.934
 7529SOL    HW223487   6.369   2.735   3.897
 7530SOL     OW23488   6.301   1.968   2.406
 7530SOL    HW123489   6.271   2.005   2.318
 7530SOL    HW223490   6.358   1.887   2.390
 7531SOL     OW23491   4.197   1.858   3.793
 7531SOL    HW123492   4.111   1.897   3.825
 7531SOL    HW223493   4.181   1.805   3.710
 7532SOL     OW23494   4.471   5.377   6.705
 7532SOL    HW123495   4.553   5.323   6.723
 7532SOL    HW223496   4.438   5.358   6.613
 7533SOL     OW23497   4.704   3.490   1.597
 7533SOL    HW123498   4.671   3.561   1.659
 7533SOL    HW223499   4.632   3.421   1.585
 7534SOL     OW23500   4.557   6.832   4.093
 7534SOL    HW123501   4.572   6.854   4.190
 7534SOL    HW223502   4.545   6.733   4.083
 7535SOL     OW23503   0.556   5.494   4.100
 7535SOL    HW123504   0.608   5.478   4.183
 7535SOL    HW223505   0.572   5.588   4.068
 7536SOL     OW23506   5.017   5.483   4.378
 7536SOL    HW123507   4.922   5.458   4.395
 7536SOL    HW223508   5.045   5.447   4.288
 7537SOL     OW23509   3.064   6.166   2.748
 7537SOL    HW123510   2.991   6.183   2.681
 7537SOL    HW223511   3.043   6.214   2.833
 7538SOL     OW23512   1.102   4.242   1.080
 7538SOL    HW123513   1.067   4.150   1.059
 7538SOL    HW223514   1.122   4.289   0.994
 7539SOL     OW23515   0.589   6.123   3.722
 7539SOL    HW123516   0.658   6.164   3.783
 7539SOL    HW223517   0.531   6.196   3.685
 7540SOL     OW23518   5.876   4.975   3.851
 7540SOL    HW123519   5.836   5.026   3.775
 7540SOL    HW223520   5.824   4.890   3.865
 7541SOL     OW23521   1.086   4.221   7.006
 7541SOL    HW123522   1.038   4.247   6.923
 7541SOL    HW223523   1.025   4.231   0.063
 7542SOL     OW23524   5.975   5.311   6.178
 7542SOL    HW123525   5.981   5.410   6.191
 7542SOL    HW223526   5.916   5.291   6.100
 7543SOL     OW23527   3.004   1.272   5.969
 7543SOL    HW123528   3.047   1.223   6.045
 7543SOL    HW223529   3.042   1.239   5.883
 7544SOL     OW23530   0.239   2.888   4.066
 7544SOL    HW123531   0.209   2.879   3.971
 7544SOL    HW223532   0.169   2.853   4.127
 7545SOL     OW23533   0.958   4.820   0.192
 7545SOL    HW123534   1.046   4.852   0.226
 7545SOL    HW223535   0.893   4.814   0.268
 7546SOL     OW23536   3.330   3.019   1.753
 7546SOL    HW123537   3.243   3.017   1.705
 7546SOL    HW223538   3.320   2.979   1.844
 7547SOL     OW23539   4.363   0.176   2.177
 7547SOL    HW123540   4.280   0.159   2.229
 7547SOL    HW223541   4.371   0.274   2.158
 7548SOL     OW23542   4.552   2.245   6.712
 7548SOL    HW123543   4.651   2.240   6.724
 7548SOL    HW223544   4.517   2.331   6.750
 7549SOL     OW23545   4.307   2.807   5.332
 7549SOL    HW123546   4.247   2.887   5.326
 7549SOL    HW223547   4.259   2.727   5.296
 7550SOL     OW23548   1.876   4.186   4.316
 7550SOL    HW123549   1.945   4.167   4.386
 7550SOL    HW223550   1.841   4.278   4.328
 7551SOL     OW23551   6.092   2.363   5.697
 7551SOL    HW123552   6.091   2.373   5.797
 7551SOL    HW223553   6.169   2.415   5.659
 7552SOL     OW23554   2.642   5.932   4.826
 7552SOL    HW123555   2.555   5.954   4.783
 7552SOL    HW223556   2.643   5.970   4.919
 7553SOL     OW23557   5.739   5.920   5.902
 7553SOL    HW123558   5.664   5.907   5.838
 7553SOL    HW223559   5.712   5.985   5.973
 7554SOL     OW23560   5.442   0.815   1.130
 7554SOL    HW123561   5.419   0.848   1.039
 7554SOL    HW223562   5.372   0.751   1.161
 7555SOL     OW23563   3.711   4.924   6.012
 7555SOL    HW123564   3.677   5.018   6.011
 7555SOL    HW223565   3.634   4.861   5.999
 7556SOL     OW23566   0.322   0.048   0.887
 7556SOL    HW123567   0.336   0.142   0.853
 7556SOL    HW223568   0.301   0.051   0.984
 7557SOL     OW23569   4.852   0.484   0.157
 7557SOL    HW123570   4.853   0.582   0.139
 7557SOL    HW223571   4.884   0.434   0.076
 7558SOL     OW23572   1.755   2.058   4.125
 7558SOL    HW123573   1.728   1.964   4.146
 7558SOL    HW223574   1.758   2.111   4.210
 7559SOL     OW23575   4.309   2.278   4.811
 7559SOL    HW123576   4.402   2.243   4.821
 7559SOL    HW223577   4.279   2.319   4.897
 7560SOL     OW23578   0.426   0.207   6.306
 7560SOL    HW123579   0.495   0.278   6.321
 7560SOL    HW223580   0.395   0.210   6.211
 7561SOL     OW23581   5.579   2.261   4.824
 7561SOL    HW123582   5.618   2.181   4.870
 7561SOL    HW223583   5.482   2.244   4.804
 7562SOL     OW23584   1.454   4.797   3.919
 7562SOL    HW123585   1.388   4.868   3.946
 7562SOL    HW223586   1.546   4.828   3.944
 7563SOL     OW23587   3.449   5.593   2.263
 7563SOL    HW123588   3.444   5.506   2.311
 7563SOL    HW223589   3.402   5.664   2.316
 7564SOL     OW23590   4.691   1.382   4.543
 7564SOL    HW123591   4.758   1.451   4.570
 7564SOL    HW223592   4.606   1.397   4.593
 7565SOL     OW23593   5.221   3.546   6.671
 7565SOL    HW123594   5.146   3.607   6.698
 7565SOL    HW223595   5.250   3.570   6.578
 7566SOL     OW23596   3.910   4.056   1.472
 7566SOL    HW123597   3.905   4.154   1.456
 7566SOL    HW223598   4.005   4.025   1.466
 7567SOL     OW23599   1.388   0.859   4.983
 7567SOL    HW123600   1.357   0.932   5.044
 7567SOL    HW223601   1.439   0.791   5.035
 7568SOL     OW23602   6.058   5.417   1.328
 7568SOL    HW123603   6.009   5.468   1.256
 7568SOL    HW223604   6.143   5.464   1.350
 7569SOL     OW23605   4.755   3.527   6.839
 7569SOL    HW123606   4.827   3.466   6.808
 7569SOL    HW223607   4.683   3.474   6.884
 7570SOL     OW23608   6.421   2.926   2.981
 7570SOL    HW123609   6.485   3.002   2.983
 7570SOL    HW223610   6.443   2.862   3.055
 7571SOL     OW23611   4.478   2.365   2.873
 7571SOL    HW123612   4.535   2.445   2.855
 7571SOL    HW223613   4.397   2.392   2.924
 7572SOL     OW23614   4.962   6.327   2.508
 7572SOL    HW123615   5.033   6.352   2.441
 7572SOL    HW223616   4.873   6.324   2.462
 7573SOL     OW23617   5.050   6.162   5.779
 7573SOL    HW123618   4.956   6.168   5.811
 7573SOL    HW223619   5.112   6.175   5.857
 7574SOL     OW23620   0.026   1.347   4.581
 7574SOL    HW123621   0.089   1.271   4.563
 7574SOL    HW223622   0.074   1.434   4.571
 7575SOL     OW23623   0.135   6.618   2.409
 7575SOL    HW123624   0.038   6.595   2.406
 7575SOL    HW223625   0.170   6.625   2.316
 7576SOL     OW23626   5.463   2.667   0.613
 7576SOL    HW123627   5.520   2.701   0.687
 7576SOL    HW223628   5.368   2.659   0.644
 7577SOL     OW23629   0.928   0.335   0.696
 7577SOL    HW123630   0.932   0.273   0.617
 7577SOL    HW223631   0.951   0.284   0.779
 7578SOL     OW23632   6.723   6.005   3.406
 7578SOL    HW123633   6.682   6.086   3.365
 7578SOL    HW223634   6.792   5.967   3.344
 7579SOL     OW23635   6.634   1.115   6.910
 7579SOL    HW123636   6.574   1.077   6.980
 7579SOL    HW223637   6.580   1.153   6.836
 7580SOL     OW23638   2.310   4.932   3.524
 7580SOL    HW123639   2.318   4.998   3.449
 7580SOL    HW223640   2.356   4.968   3.605
 7581SOL     OW23641   6.545   0.970   2.452
 7581SOL    HW123642   6.497   0.896   2.501
 7581SOL    HW223643   6.491   0.998   2.373
 7582SOL     OW23644   3.071   1.380   4.794
 7582SOL    HW123645   3.045   1.411   4.703
 7582SOL    HW223646   3.149   1.434   4.826
 7583SOL     OW23647   4.902   3.143   3.478
 7583SOL    HW123648   4.931   3.052   3.448
 7583SOL    HW223649   4.900   3.205   3.400
 7584SOL     OW23650   7.003   0.379   2.700
 7584SOL    HW123651   6.912   0.407   2.669
 7584SOL    HW223652   0.014   0.442   2.770
 7585SOL     OW23653   0.907   1.929   6.963
 7585SOL    HW123654   0.862   1.863   0.003
 7585SOL    HW223655   0.972   1.984   7.015
 7586SOL     OW23656   1.057   1.779   2.918
 7586SOL    HW123657   1.088   1.685   2.903
 7586SOL    HW223658   1.061   1.800   3.016
 7587SOL     OW23659   3.094   1.326   0.481
 7587SOL    HW123660   3.174   1.267   0.487
 7587SOL    HW223661   3.015   1.280   0.522
 7588SOL     OW23662   1.896   2.599   4.674
 7588SOL    HW123663   1.809   2.559   4.646
 7588SOL    HW223664   1.923   2.669   4.608
 7589SOL     OW23665   0.193   0.808   3.115
 7589SOL    HW123666   0.211   0.814   3.017
 7589SOL    HW223667   0.268   0.761   3.160
 7590SOL     OW23668   0.014   1.613   6.995
 7590SOL    HW123669   7.005   1.690   0.028
 7590SOL    HW223670   0.082   1.643   6.928
 7591SOL     OW23671   4.069   3.301   5.309
 7591SOL    HW123672   4.029   3.390   5.330
 7591SOL    HW223673   4.162   3.297   5.345
 7592SOL     OW23674   6.837   6.708   5.212
 7592SOL    HW123675   6.824   6.638   5.141
 7592SOL    HW223676   6.832   6.799   5.170
 7593SOL     OW23677   0.847   1.490   6.116
 7593SOL    HW123678   0.837   1.413   6.053
 7593SOL    HW223679   0.925   1.473   6.176
 7594SOL     OW23680   0.645   4.508   0.757
 7594SOL    HW123681   0.720   4.501   0.822
 7594SOL    HW223682   0.567   4.455   0.790
 7595SOL     OW23683   6.652   2.614   5.992
 7595SOL    HW123684   6.655   2.626   6.091
 7595SOL    HW223685   6.735   2.566   5.962
 7596SOL     OW23686   2.871   0.891   5.224
 7596SOL    HW123687   2.933   0.953   5.177
 7596SOL    HW223688   2.883   0.798   5.189
 7597SOL     OW23689   1.711   4.620   2.172
 7597SOL    HW123690   1.629   4.590   2.124
 7597SOL    HW223691   1.720   4.719   2.164
 7598SOL     OW23692   6.449   1.113   3.242
 7598SOL    HW123693   6.391   1.101   3.161
 7598SOL    HW223694   6.523   1.045   3.240
 7599SOL     OW23695   3.956   3.211   1.170
 7599SOL    HW123696   3.937   3.183   1.264
 7599SOL    HW223697   4.054   3.204   1.153
 7600SOL     OW23698   1.320   0.869   4.142
 7600SOL    HW123699   1.258   0.817   4.085
 7600SOL    HW223700   1.274   0.894   4.228
 7601SOL     OW23701   3.835   5.983   1.964
 7601SOL    HW123702   3.898   5.953   1.892
 7601SOL    HW223703   3.808   5.904   2.019
 7602SOL     OW23704   6.804   1.577   0.775
 7602SOL    HW123705   6.766   1.551   0.864
 7602SOL    HW223706   6.864   1.656   0.786
 7603SOL     OW23707   2.450   0.540   5.422
 7603SOL    HW123708   2.513   0.614   5.400
 7603SOL    HW223709   2.434   0.485   5.340
 7604SOL     OW23710   0.497   2.702   4.891
 7604SOL    HW123711   0.496   2.605   4.913
 7604SOL    HW223712   0.413   2.725   4.841
 7605SOL     OW23713   2.315   0.025   0.275
 7605SOL    HW123714   2.288   6.963   0.228
 7605SOL    HW223715   2.334   0.004   0.371
 7606SOL     OW23716   6.742   1.668   3.588
 7606SOL    HW123717   6.734   1.625   3.498
 7606SOL    HW223718   6.839   1.680   3.611
 7607SOL     OW23719   2.814   5.877   5.917
 7607SOL    HW123720   2.909   5.903   5.897
 7607SOL    HW223721   2.781   5.815   5.846
 7608SOL     OW23722   6.153   2.613   6.079
 7608SOL    HW123723   6.112   2.683   6.020
 7608SOL    HW223724   6.081   2.560   6.123
 7609SOL     OW23725   0.816   1.534   4.868
 7609SOL    HW123726   0.716   1.530   4.874
 7609SOL    HW223727   0.854   1.555   4.958
 7610SOL     OW23728   3.559   4.968   5.698
 7610SOL    HW123729   3.505   4.942   5.618
 7610SOL    HW223730   3.530   4.912   5.776
 7611SOL     OW23731   4.750   3.405   1.290
 7611SOL    HW123732   4.701   3.343   1.351
 7611SOL    HW223733   4.831   3.441   1.336
 7612SOL     OW23734   2.169   1.731   3.159
 7612SOL    HW123735   2.260   1.771   3.152
 7612SOL    HW223736   2.149   1.710   3.255
 7613SOL     OW23737   0.450   1.172   2.445
 7613SOL    HW123738   0.474   1.227   2.365
 7613SOL    HW223739   0.370   1.116   2.425
 7614SOL     OW23740   5.250   3.533   0.880
 7614SOL    HW123741   5.261   3.450   0.825
 7614SOL    HW223742   5.156   3.538   0.914
 7615SOL     OW23743   5.703   3.377   4.768
 7615SOL    HW123744   5.609   3.392   4.799
 7615SOL    HW223745   5.715   3.419   4.677
 7616SOL     OW23746   6.468   6.936   3.444
 7616SOL    HW123747   6.455   6.987   3.529
 7616SOL    HW223748   6.414   6.852   3.447
 7617SOL     OW23749   5.377   5.421   3.277
 7617SOL    HW123750   5.464   5.372   3.282
 7617SOL    HW223751   5.315   5.373   3.216
 7618SOL     OW23752   2.953   3.126   0.343
 7618SOL    HW123753   2.980   3.069   0.421
 7618SOL    HW223754   2.967   3.076   0.258
 7619SOL     OW23755   0.851   2.438   4.208
 7619SOL    HW123756   0.828   2.404   4.299
 7619SOL    HW223757   0.934   2.493   4.213
 7620SOL     OW23758   3.873   3.664   1.388
 7620SOL    HW123759   3.935   3.687   1.463
 7620SOL    HW223760   3.778   3.668   1.422
 7621SOL     OW23761   0.362   5.058   0.782
 7621SOL    HW123762   0.302   5.117   0.728
 7621SOL    HW223763   0.368   4.968   0.739
 7622SOL     OW23764   3.131   3.491   1.080
 7622SOL    HW123765   3.058   3.532   1.137
 7622SOL    HW223766   3.220   3.515   1.118
 7623SOL     OW23767   4.897   4.807   1.207
 7623SOL    HW123768   4.892   4.708   1.217
 7623SOL    HW223769   4.854   4.851   1.286
 7624SOL     OW23770   0.865   2.959   2.384
 7624SOL    HW123771   0.843   2.904   2.303
 7624SOL    HW223772   0.962   2.951   2.403
 7625SOL     OW23773   5.136   1.762   0.371
 7625SOL    HW123774   5.208   1.698   0.399
 7625SOL    HW223775   5.058   1.753   0.433
 7626SOL     OW23776   5.583   0.672   5.203
 7626SOL    HW123777   5.541   0.709   5.286
 7626SOL    HW223778   5.628   0.747   5.153
 7627SOL     OW23779   3.525   2.123   6.163
 7627SOL    HW123780   3.599   2.056   6.170
 7627SOL    HW223781   3.513   2.169   6.251
 7628SOL     OW23782   3.522   2.964   0.187
 7628SOL    HW123783   3.466   2.882   0.175
 7628SOL    HW223784   3.510   3.024   0.107
 7629SOL     OW23785   6.139   3.049   3.742
 7629SOL    HW123786   6.124   3.138   3.786
 7629SOL    HW223787   6.104   3.052   3.648
 7630SOL     OW23788   1.267   6.820   5.400
 7630SOL    HW123789   1.177   6.835   5.360
 7630SOL    HW223790   1.289   6.722   5.398
 7631SOL     OW23791   1.830   0.015   5.345
 7631SOL    HW123792   1.906   7.001   5.289
 7631SOL    HW223793   1.775   6.960   5.377
 7632SOL     OW23794   4.878   5.213   0.415
 7632SOL    HW123795   4.884   5.231   0.317
 7632SOL    HW223796   4.874   5.299   0.465
 7633SOL     OW23797   6.276   1.092   0.984
 7633SOL    HW123798   6.254   1.016   0.923
 7633SOL    HW223799   6.362   1.075   1.031
 7634SOL     OW23800   0.122   2.078   0.372
 7634SOL    HW123801   0.026   2.096   0.346
 7634SOL    HW223802   0.166   2.165   0.395
 7635SOL     OW23803   2.561   4.447   6.355
 7635SOL    HW123804   2.610   4.431   6.269
 7635SOL    HW223805   2.475   4.494   6.336
 7636SOL     OW23806   0.551   3.647   4.944
 7636SOL    HW123807   0.517   3.719   4.883
 7636SOL    HW223808   0.597   3.577   4.891
 7637SOL     OW23809   0.652   6.377   4.358
 7637SOL    HW123810   0.577   6.399   4.295
 7637SOL    HW223811   0.638   6.285   4.395
 7638SOL     OW23812   0.523   5.400   1.499
 7638SOL    HW123813   0.617   5.427   1.522
 7638SOL    HW223814   0.518   5.300   1.496
 7639SOL     OW23815   1.464   1.154   0.167
 7639SOL    HW123816   1.543   1.202   0.130
 7639SOL    HW223817   1.493   1.098   0.245
 7640SOL     OW23818   3.321   1.018   6.801
 7640SOL    HW123819   3.268   1.075   6.864
 7640SOL    HW223820   3.262   0.986   6.727
 7641SOL     OW23821   0.518   4.017   3.121
 7641SOL    HW123822   0.488   3.975   3.035
 7641SOL    HW223823   0.447   4.079   3.154
 7642SOL     OW23824   6.182   0.902   3.952
 7642SOL    HW123825   6.098   0.927   4.000
 7642SOL    HW223826   6.253   0.879   4.018
 7643SOL     OW23827   4.958   3.222   2.866
 7643SOL    HW123828   4.911   3.310   2.868
 7643SOL    HW223829   4.918   3.160   2.933
 7644SOL     OW23830   5.033   3.711   1.573
 7644SOL    HW123831   5.052   3.788   1.634
 7644SOL    HW223832   5.103   3.708   1.501
 7645SOL     OW23833   3.417   3.908   6.244
 7645SOL    HW123834   3.430   3.809   6.240
 7645SOL    HW223835   3.335   3.933   6.192
 7646SOL     OW23836   0.514   2.520   2.899
 7646SOL    HW123837   0.518   2.452   2.825
 7646SOL    HW223838   0.524   2.612   2.860
 7647SOL     OW23839   6.701   3.031   5.302
 7647SOL    HW123840   6.611   2.990   5.316
 7647SOL    HW223841   6.726   3.023   5.205
 7648SOL     OW23842   2.468   1.395   1.544
 7648SOL    HW123843   2.496   1.389   1.448
 7648SOL    HW223844   2.525   1.336   1.600
 7649SOL     OW23845   5.136   1.028   5.217
 7649SOL    HW123846   5.212   1.060   5.274
 7649SOL    HW223847   5.130   1.084   5.134
 7650SOL     OW23848   3.945   1.921   0.439
 7650SOL    HW123849   3.932   1.979   0.520
 7650SOL    HW223850   3.863   1.865   0.425
 7651SOL     OW23851   2.467   4.649   5.851
 7651SOL    HW123852   2.543   4.684   5.905
 7651SOL    HW223853   2.502   4.598   5.772
 7652SOL     OW23854   6.182   1.210   4.099
 7652SOL    HW123855   6.156   1.306   4.111
 7652SOL    HW223856   6.279   1.204   4.075
 7653SOL     OW23857   0.735   1.749   6.445
 7653SOL    HW123858   0.828   1.737   6.480
 7653SOL    HW223859   0.674   1.775   6.520
 7654SOL     OW23860   5.658   2.386   6.306
 7654SOL    HW123861   5.592   2.406   6.377
 7654SOL    HW223862   5.620   2.318   6.243
 7655SOL     OW23863   3.042   0.572   3.375
 7655SOL    HW123864   3.100   0.528   3.306
 7655SOL    HW223865   3.070   0.542   3.466
 7656SOL     OW23866   6.814   3.436   0.007
 7656SOL    HW123867   6.846   3.358   6.974
 7656SOL    HW223868   6.775   3.505   6.968
 7657SOL     OW23869   1.420   3.597   4.448
 7657SOL    HW123870   1.413   3.659   4.370
 7657SOL    HW223871   1.329   3.566   4.474
 7658SOL     OW23872   2.645   1.500   0.656
 7658SOL    HW123873   2.629   1.467   0.749
 7658SOL    HW223874   2.715   1.571   0.658
 7659SOL     OW23875   4.374   3.700   5.513
 7659SOL    HW123876   4.404   3.647   5.434
 7659SOL    HW223877   4.279   3.729   5.501
 7660SOL     OW23878   0.124   5.668   4.575
 7660SOL    HW123879   0.146   5.756   4.534
 7660SOL    HW223880   0.167   5.595   4.522
 7661SOL     OW23881   4.650   2.796   5.888
 7661SOL    HW123882   4.686   2.720   5.941
 7661SOL    HW223883   4.574   2.764   5.831
 7662SOL     OW23884   0.669   1.997   1.863
 7662SOL    HW123885   0.754   2.042   1.891
 7662SOL    HW223886   0.661   1.909   1.910
 7663SOL     OW23887   6.501   5.422   5.454
 7663SOL    HW123888   6.571   5.470   5.508
 7663SOL    HW223889   6.435   5.380   5.516
 7664SOL     OW23890   3.787   2.063   2.352
 7664SOL    HW123891   3.695   2.065   2.393
 7664SOL    HW223892   3.795   2.138   2.286
 7665SOL     OW23893   4.031   1.426   4.741
 7665SOL    HW123894   4.062   1.334   4.767
 7665SOL    HW223895   4.012   1.479   4.823
 7666SOL     OW23896   5.790   5.106   4.203
 7666SOL    HW123897   5.764   5.093   4.107
 7666SOL    HW223898   5.890   5.107   4.210
 7667SOL     OW23899   4.779   6.230   1.675
 7667SOL    HW123900   4.700   6.169   1.664
 7667SOL    HW223901   4.750   6.325   1.666
 7668SOL     OW23902   2.269   5.116   1.078
 7668SOL    HW123903   2.343   5.121   1.011
 7668SOL    HW223904   2.277   5.030   1.129
 7669SOL     OW23905   2.734   6.690   5.652
 7669SOL    HW123906   2.684   6.625   5.709
 7669SOL    HW223907   2.775   6.760   5.710
 7670SOL     OW23908   0.342   6.493   0.230
 7670SOL    HW123909   0.297   6.533   0.309
 7670SOL    HW223910   0.441   6.495   0.244
 7671SOL     OW23911   4.770   0.373   0.841
 7671SOL    HW123912   4.710   0.451   0.821
 7671SOL    HW223913   4.759   0.346   0.937
 7672SOL     OW23914   5.318   4.580   3.036
 7672SOL    HW123915   5.267   4.629   2.965
 7672SOL    HW223916   5.345   4.490   3.000
 7673SOL     OW23917   0.757   6.100   4.164
 7673SOL    HW123918   0.855   6.118   4.179
 7673SOL    HW223919   0.731   6.017   4.214
 7674SOL     OW23920   3.764   6.392   4.564
 7674SOL    HW123921   3.729   6.446   4.488
 7674SOL    HW223922   3.720   6.303   4.565
 7675SOL     OW23923   3.936   6.872   2.890
 7675SOL    HW123924   3.867   6.937   2.921
 7675SOL    HW223925   4.021   6.921   2.868
 7676SOL     OW23926   2.983   2.926   5.385
 7676SOL    HW123927   3.078   2.936   5.414
 7676SOL    HW223928   2.978   2.864   5.306
 7677SOL     OW23929   5.958   4.891   1.139
 7677SOL    HW123930   5.970   4.984   1.173
 7677SOL    HW223931   6.036   4.867   1.081
 7678SOL     OW23932   1.570   1.317   5.501
 7678SOL    HW123933   1.585   1.269   5.588
 7678SOL    HW223934   1.477   1.298   5.469
 7679SOL     OW23935   1.855   5.472   5.367
 7679SOL    HW123936   1.945   5.428   5.366
 7679SOL    HW223937   1.861   5.559   5.416
 7680SOL     OW23938   2.052   0.312   5.021
 7680SOL    HW123939   2.091   0.359   4.941
 7680SOL    HW223940   1.992   0.238   4.990
 7681SOL     OW23941   2.791   3.495   6.642
 7681SOL    HW123942   2.698   3.507   6.607
 7681SOL    HW223943   2.848   3.572   6.612
 7682SOL     OW23944   3.060   1.554   2.217
 7682SOL    HW123945   3.123   1.622   2.179
 7682SOL    HW223946   2.972   1.597   2.235
 7683SOL     OW23947   0.948   0.760   4.394
 7683SOL    HW123948   1.011   0.684   4.375
 7683SOL    HW223949   0.994   0.846   4.375
 7684SOL     OW23950   4.464   2.086   1.683
 7684SOL    HW123951   4.395   2.079   1.611
 7684SOL    HW223952   4.523   2.164   1.665
 7685SOL     OW23953   2.438   0.761   6.999
 7685SOL    HW123954   2.346   0.769   0.016
 7685SOL    HW223955   2.476   0.671   0.001
 7686SOL     OW23956   5.716   0.312   4.222
 7686SOL    HW123957   5.640   0.376   4.225
 7686SOL    HW223958   5.770   0.328   4.140
 7687SOL     OW23959   5.082   5.067   4.901
 7687SOL    HW123960   5.112   4.973   4.885
 7687SOL    HW223961   4.995   5.066   4.951
 7688SOL     OW23962   0.447   4.834   6.758
 7688SOL    HW123963   0.528   4.893   6.757
 7688SOL    HW223964   0.449   4.777   6.839
 7689SOL     OW23965   4.682   0.321   1.602
 7689SOL    HW123966   4.619   0.305   1.678
 7689SOL    HW223967   4.776   0.309   1.633
 7690SOL     OW23968   6.060   5.733   1.231
 7690SOL    HW123969   6.081   5.681   1.313
 7690SOL    HW223970   6.057   5.830   1.252
 7691SOL     OW23971   4.478   4.556   2.591
 7691SOL    HW123972   4.568   4.599   2.590
 7691SOL    HW223973   4.446   4.543   2.498
 7692SOL     OW23974   2.153   6.675   2.088
 7692SOL    HW123975   2.129   6.580   2.067
 7692SOL    HW223976   2.154   6.688   2.187
 7693SOL     OW23977   2.740   1.917   0.801
 7693SOL    HW123978   2.656   1.864   0.793
 7693SOL    HW223979   2.815   1.857   0.830
 7694SOL     OW23980   5.823   1.955   5.523
 7694SOL    HW123981   5.830   2.050   5.551
 7694SOL    HW223982   5.729   1.923   5.532
 7695SOL     OW23983   5.403   0.388   2.727
 7695SOL    HW123984   5.333   0.326   2.693
 7695SOL    HW223985   5.431   0.361   2.819
 7696SOL     OW23986   0.328   2.704   6.450
 7696SOL    HW123987   0.328   2.723   6.548
 7696SOL    HW223988   0.240   2.664   6.423
 7697SOL     OW23989   4.599   6.929   2.679
 7697SOL    HW123990   4.616   6.960   2.772
 7697SOL    HW223991   4.501   6.933   2.660
 7698SOL     OW23992   6.243   2.019   6.844
 7698SOL    HW123993   6.339   1.995   6.829
 7698SOL    HW223994   6.186   1.937   6.835
 7699SOL     OW23995   3.440   4.907   5.451
 7699SOL    HW123996   3.489   4.979   5.404
 7699SOL    HW223997   3.431   4.827   5.391
 7700SOL     OW23998   5.011   5.403   2.644
 7700SOL    HW123999   4.934   5.369   2.591
 7700SOL    HW224000   5.095   5.394   2.590
 7701SOL     OW24001   0.269   2.469   6.019
 7701SOL    HW124002   0.274   2.419   5.933
 7701SOL    HW224003   0.283   2.567   6.002
 7702SOL     OW24004   4.499   0.184   4.939
 7702SOL    HW124005   4.483   0.283   4.949
 7702SOL    HW224006   4.504   0.161   4.842
 7703SOL     OW24007   6.364   6.848   5.034
 7703SOL    HW124008   6.371   6.944   5.061
 7703SOL    HW224009   6.278   6.810   5.069
 7704SOL     OW24010   6.689   1.545   4.341
 7704SOL    HW124011   6.741   1.621   4.303
 7704SOL    HW224012   6.600   1.539   4.296
 7705SOL     OW24013   2.043   5.288   0.450
 7705SOL    HW124014   2.028   5.376   0.403
 7705SOL    HW224015   1.967   5.272   0.513
 7706SOL     OW24016   3.578   2.818   2.209
 7706SOL    HW124017   3.593   2.719   2.203
 7706SOL    HW224018   3.481   2.836   2.225
 7707SOL     OW24019   6.751   5.118   6.680
 7707SOL    HW124020   6.736   5.020   6.686
 7707SOL    HW224021   6.688   5.158   6.614
 7708SOL     OW24022   2.382   0.089   4.677
 7708SOL    HW124023   2.298   0.068   4.726
 7708SOL    HW224024   2.374   0.179   4.633
 7709SOL     OW24025   0.300   5.265   1.687
 7709SOL    HW124026   0.238   5.310   1.752
 7709SOL    HW224027   0.393   5.265   1.724
 7710SOL     OW24028   0.809   3.730   1.454
 7710SOL    HW124029   0.792   3.809   1.395
 7710SOL    HW224030   0.751   3.735   1.535
 7711SOL     OW24031   6.843   5.061   5.199
 7711SOL    HW124032   6.835   5.160   5.194
 7711SOL    HW224033   6.940   5.035   5.196
 7712SOL     OW24034   6.530   4.128   6.108
 7712SOL    HW124035   6.493   4.118   6.016
 7712SOL    HW224036   6.459   4.163   6.169
 7713SOL     OW24037   2.205   4.795   6.987
 7713SOL    HW124038   2.183   4.710   0.013
 7713SOL    HW224039   2.243   4.774   6.896
 7714SOL     OW24040   6.625   0.767   5.175
 7714SOL    HW124041   6.654   0.862   5.164
 7714SOL    HW224042   6.695   0.707   5.136
 7715SOL     OW24043   2.941   2.693   5.788
 7715SOL    HW124044   2.850   2.732   5.803
 7715SOL    HW224045   2.934   2.619   5.720
 7716SOL     OW24046   1.324   5.486   5.550
 7716SOL    HW124047   1.376   5.520   5.471
 7716SOL    HW224048   1.233   5.527   5.549
 7717SOL     OW24049   1.158   1.877   6.640
 7717SOL    HW124050   1.208   1.858   6.556
 7717SOL    HW224051   1.196   1.958   6.685
 7718SOL     OW24052   1.279   4.109   2.687
 7718SOL    HW124053   1.265   4.195   2.735
 7718SOL    HW224054   1.273   4.033   2.753
 7719SOL     OW24055   1.620   4.304   4.882
 7719SOL    HW124056   1.521   4.314   4.887
 7719SOL    HW224057   1.644   4.207   4.872
 7720SOL     OW24058   5.642   1.850   6.545
 7720SOL    HW124059   5.562   1.896   6.586
 7720SOL    HW224060   5.692   1.915   6.488
 7721SOL     OW24061   0.801   0.711   2.223
 7721SOL    HW124062   0.872   0.781   2.207
 7721SOL    HW224063   0.767   0.720   2.317
 7722SOL     OW24064   2.510   6.057   3.298
 7722SOL    HW124065   2.419   6.091   3.274
 7722SOL    HW224066   2.515   6.044   3.397
 7723SOL     OW24067   5.194   4.594   0.736
 7723SOL    HW124068   5.180   4.557   0.644
 7723SOL    HW224069   5.107   4.624   0.773
 7724SOL     OW24070   2.297   4.020   2.098
 7724SOL    HW124071   2.248   4.107   2.099
 7724SOL    HW224072   2.380   4.028   2.154
 7725SOL     OW24073   5.470   3.580   3.450
 7725SOL    HW124074   5.502   3.583   3.545
 7725SOL    HW224075   5.401   3.508   3.441
 7726SOL     OW24076   0.267   2.971   6.492
 7726SOL    HW124077   0.297   2.877   6.472
 7726SOL    HW224078   0.243   2.978   6.589
 7727SOL     OW24079   5.503   1.961   2.329
 7727SOL    HW124080   5.601   1.965   2.350
 7727SOL    HW224081   5.490   1.917   2.241
 7728SOL     OW24082   2.085   3.505   4.529
 7728SOL    HW124083   1.993   3.475   4.504
 7728SOL    HW224084   2.078   3.571   4.605
 7729SOL     OW24085   6.530   2.154   4.365
 7729SOL    HW124086   6.506   2.250   4.351
 7729SOL    HW224087   6.600   2.127   4.298
 7730SOL     OW24088   6.557   4.271   5.114
 7730SOL    HW124089   6.488   4.272   5.186
 7730SOL    HW224090   6.559   4.180   5.072
 7731SOL     OW24091   6.341   6.902   6.834
 7731SOL    HW124092   6.322   6.848   6.753
 7731SOL    HW224093   6.321   6.998   6.816
 7732SOL     OW24094   4.171   6.992   6.290
 7732SOL    HW124095   4.074   7.015   6.296
 7732SOL    HW224096   4.215   7.007   6.379
 7733SOL     OW24097   6.347   5.946   2.330
 7733SOL    HW124098   6.309   5.908   2.246
 7733SOL    HW224099   6.333   5.881   2.405
 7734SOL     OW24100   3.412   3.713   5.177
 7734SOL    HW124101   3.347   3.778   5.140
 7734SOL    HW224102   3.460   3.754   5.254
 7735SOL     OW24103   0.086   6.132   0.906
 7735SOL    HW124104   0.085   6.227   0.873
 7735SOL    HW224105   0.178   6.108   0.936
 7736SOL     OW24106   3.028   3.214   0.645
 7736SOL    HW124107   3.106   3.246   0.591
 7736SOL    HW224108   3.017   3.116   0.631
 7737SOL     OW24109   3.782   4.518   1.442
 7737SOL    HW124110   3.806   4.520   1.345
 7737SOL    HW224111   3.725   4.598   1.464
 7738SOL     OW24112   2.523   6.411   6.617
 7738SOL    HW124113   2.443   6.351   6.616
 7738SOL    HW224114   2.606   6.356   6.608
 7739SOL     OW24115   1.127   1.968   0.284
 7739SOL    HW124116   1.094   1.957   0.378
 7739SOL    HW224117   1.218   1.927   0.275
 7740SOL     OW24118   1.511   0.712   4.538
 7740SOL    HW124119   1.543   0.681   4.448
 7740SOL    HW224120   1.550   0.802   4.558
 7741SOL     OW24121   1.662   4.001   6.386
 7741SOL    HW124122   1.690   3.939   6.312
 7741SOL    HW224123   1.626   4.085   6.346
 7742SOL     OW24124   4.247   1.482   4.354
 7742SOL    HW124125   4.308   1.418   4.400
 7742SOL    HW224126   4.301   1.552   4.307
 7743SOL     OW24127   5.013   1.879   5.790
 7743SOL    HW124128   5.086   1.913   5.731
 7743SOL    HW224129   5.042   1.883   5.885
 7744SOL     OW24130   0.223   6.541   4.507
 7744SOL    HW124131   0.199   6.590   4.591
 7744SOL    HW224132   0.285   6.598   4.453
 7745SOL     OW24133   2.176   0.148   0.889
 7745SOL    HW124134   2.226   0.148   0.976
 7745SOL    HW224135   2.202   0.228   0.835
 7746SOL     OW24136   1.417   6.119   0.823
 7746SOL    HW124137   1.504   6.153   0.789
 7746SOL    HW224138   1.375   6.188   0.882
 7747SOL     OW24139   1.079   6.154   0.567
 7747SOL    HW124140   1.133   6.226   0.524
 7747SOL    HW224141   1.127   6.067   0.558
 7748SOL     OW24142   4.210   2.508   5.587
 7748SOL    HW124143   4.283   2.495   5.520
 7748SOL    HW224144   4.166   2.596   5.572
 7749SOL     OW24145   3.603   3.320   4.024
 7749SOL    HW124146   3.509   3.351   4.011
 7749SOL    HW224147   3.609   3.264   4.106
 7750SOL     OW24148   5.657   4.268   5.446
 7750SOL    HW124149   5.725   4.206   5.405
 7750SOL    HW224150   5.569   4.255   5.400
 7751SOL     OW24151   6.979   0.837   5.042
 7751SOL    HW124152   6.980   0.738   5.052
 7751SOL    HW224153   0.017   0.864   4.966
 7752SOL     OW24154   6.219   5.721   5.281
 7752SOL    HW124155   6.174   5.646   5.233
 7752SOL    HW224156   6.166   5.805   5.267
 7753SOL     OW24157   2.576   0.960   4.588
 7753SOL    HW124158   2.580   1.039   4.649
 7753SOL    HW224159   2.502   0.900   4.616
 7754SOL     OW24160   5.884   0.661   1.555
 7754SOL    HW124161   5.849   0.754   1.567
 7754SOL    HW224162   5.807   0.598   1.540
 7755SOL     OW24163   0.899   5.755   5.522
 7755SOL    HW124164   0.882   5.824   5.592
 7755SOL    HW224165   0.876   5.792   5.433
 7756SOL     OW24166   3.739   5.427   1.849
 7756SOL    HW124167   3.746   5.377   1.936
 7756SOL    HW224168   3.777   5.519   1.860
 7757SOL     OW24169   4.623   6.310   5.821
 7757SOL    HW124170   4.667   6.345   5.740
 7757SOL    HW224171   4.688   6.256   5.875
 7758SOL     OW24172   2.722   2.040   5.876
 7758SOL    HW124173   2.749   1.999   5.964
 7758SOL    HW224174   2.804   2.067   5.825
 7759SOL     OW24175   2.145   1.005   3.940
 7759SOL    HW124176   2.064   0.954   3.968
 7759SOL    HW224177   2.226   0.949   3.953
 7760SOL     OW24178   5.276   2.977   2.273
 7760SOL    HW124179   5.181   3.004   2.254
 7760SOL    HW224180   5.323   3.052   2.320
 7761SOL     OW24181   3.365   6.852   6.943
 7761SOL    HW124182   3.345   6.933   6.889
 7761SOL    HW224183   3.345   6.770   6.890
 7762SOL     OW24184   4.038   1.334   6.928
 7762SOL    HW124185   3.982   1.324   6.846
 7762SOL    HW224186   3.978   1.337   7.009
 7763SOL     OW24187   1.786   2.016   0.506
 7763SOL    HW124188   1.749   2.108   0.494
 7763SOL    HW224189   1.869   2.005   0.451
 7764SOL     OW24190   3.657   2.890   2.482
 7764SOL    HW124191   3.635   2.888   2.385
 7764SOL    HW224192   3.757   2.893   2.493
 7765SOL     OW24193   6.730   2.329   2.916
 7765SOL    HW124194   6.702   2.366   3.004
 7765SOL    HW224195   6.669   2.363   2.844
 7766SOL     OW24196   6.376   2.299   6.956
 7766SOL    HW124197   6.403   2.284   0.030
 7766SOL    HW224198   6.332   2.217   6.920
 7767SOL     OW24199   4.341   5.705   4.185
 7767SOL    HW124200   4.440   5.694   4.172
 7767SOL    HW224201   4.324   5.749   4.273
 7768SOL     OW24202   3.921   5.057   1.935
 7768SOL    HW124203   3.883   5.093   1.850
 7768SOL    HW224204   3.849   5.015   1.990
 7769SOL     OW24205   5.516   1.970   0.840
 7769SOL    HW124206   5.611   1.957   0.810
 7769SOL    HW224207   5.498   2.068   0.850
 7770SOL     OW24208   2.905   4.926   1.303
 7770SOL    HW124209   2.887   4.842   1.252
 7770SOL    HW224210   2.845   4.999   1.270
 7771SOL     OW24211   2.736   2.512   6.017
 7771SOL    HW124212   2.648   2.532   5.973
 7771SOL    HW224213   2.733   2.421   6.057
 7772SOL     OW24214   4.791   0.574   4.257
 7772SOL    HW124215   4.873   0.628   4.276
 7772SOL    HW224216   4.755   0.598   4.168
 7773SOL     OW24217   4.157   3.752   5.757
 7773SOL    HW124218   4.232   3.690   5.732
 7773SOL    HW224219   4.133   3.738   5.853
 7774SOL     OW24220   4.831   1.865   6.025
 7774SOL    HW124221   4.892   1.921   6.081
 7774SOL    HW224222   4.872   1.775   6.010
 7775SOL     OW24223   3.554   6.552   2.028
 7775SOL    HW124224   3.632   6.614   2.016
 7775SOL    HW224225   3.469   6.605   2.029
 7776SOL     OW24226   3.631   3.639   6.807
 7776SOL    HW124227   3.673   3.715   6.758
 7776SOL    HW224228   3.654   3.644   6.904
 7777SOL     OW24229   2.136   0.511   6.303
 7777SOL    HW124230   2.198   0.534   6.378
 7777SOL    HW224231   2.109   0.595   6.256
 7778SOL     OW24232   5.403   0.203   0.042
 7778SOL    HW124233   5.457   0.262   7.004
 7778SOL    HW224234   5.308   0.201   0.010
 7779SOL     OW24235   4.029   2.408   0.521
 7779SOL    HW124236   4.019   2.380   0.616
 7779SOL    HW224237   3.942   2.445   0.488
 7780SOL     OW24238   2.170   5.910   4.918
 7780SOL    HW124239   2.084   5.886   4.962
 7780SOL    HW224240   2.224   5.827   4.904
 7781SOL     OW24241   1.359   4.265   4.975
 7781SOL    HW124242   1.322   4.218   4.895
 7781SOL    HW224243   1.284   4.297   5.032
 7782SOL     OW24244   2.281   4.109   6.277
 7782SOL    HW124245   2.334   4.111   6.362
 7782SOL    HW224246   2.189   4.073   6.296
 7783SOL     OW24247   2.381   5.615   6.615
 7783SOL    HW124248   2.411   5.521   6.633
 7783SOL    HW224249   2.285   5.624   6.642
 7784SOL     OW24250   0.475   2.989   0.106
 7784SOL    HW124251   0.487   2.930   0.186
 7784SOL    HW224252   0.555   3.048   0.095
 7785SOL     OW24253   2.344   6.259   4.242
 7785SOL    HW124254   2.341   6.159   4.247
 7785SOL    HW224255   2.251   6.295   4.242
 7786SOL     OW24256   3.184   4.563   5.315
 7786SOL    HW124257   3.168   4.646   5.369
 7786SOL    HW224258   3.102   4.542   5.262
 7787SOL     OW24259   2.131   3.035   5.189
 7787SOL    HW124260   2.209   3.033   5.126
 7787SOL    HW224261   2.161   3.061   5.280
 7788SOL     OW24262   0.611   1.737   0.863
 7788SOL    HW124263   0.559   1.702   0.785
 7788SOL    HW224264   0.690   1.678   0.880
 7789SOL     OW24265   2.641   0.928   1.323
 7789SOL    HW124266   2.737   0.933   1.294
 7789SOL    HW224267   2.588   0.996   1.274
 7790SOL     OW24268   5.401   3.223   2.855
 7790SOL    HW124269   5.310   3.265   2.860
 7790SOL    HW224270   5.391   3.126   2.836
 7791SOL     OW24271   1.791   4.968   4.526
 7791SOL    HW124272   1.752   4.952   4.435
 7791SOL    HW224273   1.831   5.060   4.530
 7792SOL     OW24274   2.699   5.664   6.347
 7792SOL    HW124275   2.617   5.717   6.322
 7792SOL    HW224276   2.775   5.691   6.288
 7793SOL     OW24277   1.527   1.216   6.184
 7793SOL    HW124278   1.456   1.235   6.116
 7793SOL    HW224279   1.484   1.177   6.266
 7794SOL     OW24280   5.335   5.610   4.408
 7794SOL    HW124281   5.404   5.681   4.422
 7794SOL    HW224282   5.291   5.623   4.319
 7795SOL     OW24283   2.084   4.338   5.460
 7795SOL    HW124284   2.023   4.268   5.424
 7795SOL    HW224285   2.031   4.420   5.483
 7796SOL     OW24286   3.489   4.164   2.981
 7796SOL    HW124287   3.540   4.147   2.897
 7796SOL    HW224288   3.391   4.167   2.960
 7797SOL     OW24289   0.005   6.796   3.039
 7797SOL    HW124290   6.981   6.870   3.088
 7797SOL    HW224291   0.104   6.808   3.044
 7798SOL     OW24292   3.374   5.731   0.685
 7798SOL    HW124293   3.297   5.781   0.643
 7798SOL    HW224294   3.346   5.696   0.774
 7799SOL     OW24295   0.145   4.927   1.425
 7799SOL    HW124296   0.053   4.963   1.440
 7799SOL    HW224297   0.148   4.877   1.339
 7800SOL     OW24298   0.212   5.359   1.945
 7800SOL    HW124299   0.245   5.451   1.928
 7800SOL    HW224300   0.189   5.349   2.042
 7801SOL     OW24301   2.757   2.200   6.846
 7801SOL    HW124302   2.684   2.141   6.812
 7801SOL    HW224303   2.752   2.289   6.800
 7802SOL     OW24304   5.373   2.750   1.415
 7802SOL    HW124305   5.418   2.835   1.387
 7802SOL    HW224306   5.337   2.761   1.508
 7803SOL     OW24307   4.357   4.400   5.546
 7803SOL    HW124308   4.277   4.365   5.497
 7803SOL    HW224309   4.420   4.326   5.565
 7804SOL     OW24310   5.130   1.984   5.582
 7804SOL    HW124311   5.040   2.028   5.584
 7804SOL    HW224312   5.129   1.911   5.513
 7805SOL     OW24313   5.160   3.346   2.223
 7805SOL    HW124314   5.076   3.295   2.244
 7805SOL    HW224315   5.151   3.439   2.258
 7806SOL     OW24316   5.773   2.761   6.250
 7806SOL    HW124317   5.741   2.740   6.157
 7806SOL    HW224318   5.873   2.768   6.250
 7807SOL     OW24319   6.943   3.805   5.849
 7807SOL    HW124320   6.946   3.864   5.768
 7807SOL    HW224321   6.910   3.858   5.927
 7808SOL     OW24322   1.067   1.033   4.840
 7808SOL    HW124323   1.050   1.050   4.743
 7808SOL    HW224324   1.006   0.960   4.872
 7809SOL     OW24325   2.782   5.574   4.918
 7809SOL    HW124326   2.832   5.492   4.949
 7809SOL    HW224327   2.808   5.594   4.824
 7810SOL     OW24328   2.811   0.317   5.779
 7810SOL    HW124329   2.755   0.334   5.698
 7810SOL    HW224330   2.769   0.360   5.859
 7811SOL     OW24331   5.530   4.328   4.294
 7811SOL    HW124332   5.559   4.417   4.329
 7811SOL    HW224333   5.431   4.319   4.304
 7812SOL     OW24334   1.849   1.218   3.774
 7812SOL    HW124335   1.823   1.149   3.841
 7812SOL    HW224336   1.775   1.232   3.709
 7813SOL     OW24337   6.297   2.909   0.022
 7813SOL    HW124338   6.296   2.824   6.991
 7813SOL    HW224339   6.387   2.922   0.063
 7814SOL     OW24340   6.904   3.628   3.537
 7814SOL    HW124341   6.929   3.706   3.595
 7814SOL    HW224342   6.854   3.561   3.592
 7815SOL     OW24343   6.251   1.453   6.349
 7815SOL    HW124344   6.305   1.536   6.345
 7815SOL    HW224345   6.210   1.435   6.259
 7816SOL     OW24346   1.233   4.118   5.731
 7816SOL    HW124347   1.144   4.164   5.731
 7816SOL    HW224348   1.277   4.129   5.642
 7817SOL     OW24349   5.452   3.983   4.762
 7817SOL    HW124350   5.534   4.039   4.773
 7817SOL    HW224351   5.416   3.994   4.669
 7818SOL     OW24352   5.820   6.164   2.002
 7818SOL    HW124353   5.907   6.210   1.987
 7818SOL    HW224354   5.754   6.195   1.933
 7819SOL     OW24355   6.901   2.517   1.492
 7819SOL    HW124356   6.951   2.595   1.530
 7819SOL    HW224357   6.947   2.485   1.410
 7820SOL     OW24358   1.686   1.407   6.515
 7820SOL    HW124359   1.594   1.446   6.516
 7820SOL    HW224360   1.707   1.372   6.424
 7821SOL     OW24361   3.340   5.034   1.490
 7821SOL    HW124362   3.345   5.131   1.468
 7821SOL    HW224363   3.294   5.023   1.578
 7822SOL     OW24364   1.172   5.652   5.211
 7822SOL    HW124365   1.233   5.721   5.173
 7822SOL    HW224366   1.153   5.583   5.141
 7823SOL     OW24367   1.644   4.332   5.197
 7823SOL    HW124368   1.743   4.314   5.192
 7823SOL    HW224369   1.602   4.314   5.109
 7824SOL     OW24370   0.570   2.910   5.147
 7824SOL    HW124371   0.523   2.970   5.081
 7824SOL    HW224372   0.558   2.815   5.120
 7825SOL     OW24373   2.706   1.871   6.832
 7825SOL    HW124374   2.775   1.866   6.904
 7825SOL    HW224375   2.647   1.790   6.837
 7826SOL     OW24376   6.976   2.311   6.831
 7826SOL    HW124377   6.983   2.251   6.911
 7826SOL    HW224378   0.008   2.393   6.847
 7827SOL     OW24379   6.942   6.330   4.107
 7827SOL    HW124380   6.844   6.347   4.115
 7827SOL    HW224381   6.987   6.350   4.194
 7828SOL     OW24382   0.575   4.175   6.771
 7828SOL    HW124383   0.570   4.121   6.855
 7828SOL    HW224384   0.569   4.273   6.794
 7829SOL     OW24385   3.330   2.600   0.827
 7829SOL    HW124386   3.336   2.612   0.926
 7829SOL    HW224387   3.407   2.543   0.796
 7830SOL     OW24388   2.827   4.779   4.234
 7830SOL    HW124389   2.923   4.796   4.212
 7830SOL    HW224390   2.787   4.720   4.165
 7831SOL     OW24391   1.511   1.616   0.559
 7831SOL    HW124392   1.543   1.596   0.466
 7831SOL    HW224393   1.430   1.562   0.578
 7832SOL     OW24394   5.688   0.505   4.496
 7832SOL    HW124395   5.662   0.507   4.593
 7832SOL    HW224396   5.782   0.471   4.487
 7833SOL     OW24397   2.364   0.863   3.976
 7833SOL    HW124398   2.456   0.895   3.998
 7833SOL    HW224399   2.369   0.769   3.942
 7834SOL     OW24400   6.099   3.203   4.173
 7834SOL    HW124401   6.120   3.112   4.208
 7834SOL    HW224402   6.023   3.243   4.226
 7835SOL     OW24403   4.282   2.015   4.982
 7835SOL    HW124404   4.356   2.038   4.919
 7835SOL    HW224405   4.274   1.916   4.990
 7836SOL     OW24406   3.912   4.282   5.367
 7836SOL    HW124407   3.826   4.251   5.326
 7836SOL    HW224408   3.902   4.289   5.466
 7837SOL     OW24409   5.856   5.777   6.563
 7837SOL    HW124410   5.913   5.698   6.586
 7837SOL    HW224411   5.777   5.780   6.624
 7838SOL     OW24412   5.612   5.305   1.214
 7838SOL    HW124413   5.671   5.289   1.135
 7838SOL    HW224414   5.647   5.382   1.267
 7839SOL     OW24415   6.183   4.060   4.141
 7839SOL    HW124416   6.097   4.010   4.149
 7839SOL    HW224417   6.166   4.158   4.140
 7840SOL     OW24418   2.081   3.027   3.751
 7840SOL    HW124419   2.104   3.079   3.833
 7840SOL    HW224420   2.026   3.084   3.690
 7841SOL     OW24421   4.799   2.377   5.853
 7841SOL    HW124422   4.712   2.335   5.828
 7841SOL    HW224423   4.821   2.449   5.787
 7842SOL     OW24424   1.989   1.562   2.205
 7842SOL    HW124425   2.061   1.510   2.160
 7842SOL    HW224426   1.914   1.578   2.141
 7843SOL     OW24427   0.188   6.541   3.213
 7843SOL    HW124428   0.126   6.609   3.253
 7843SOL    HW224429   0.134   6.464   3.178
 7844SOL     OW24430   3.454   1.060   2.877
 7844SOL    HW124431   3.510   1.089   2.799
 7844SOL    HW224432   3.357   1.066   2.851
 7845SOL     OW24433   6.440   2.413   1.054
 7845SOL    HW124434   6.492   2.330   1.032
 7845SOL    HW224435   6.386   2.399   1.136
 7846SOL     OW24436   0.814   2.680   0.577
 7846SOL    HW124437   0.909   2.664   0.602
 7846SOL    HW224438   0.796   2.779   0.577
 7847SOL     OW24439   5.781   2.799   4.806
 7847SOL    HW124440   5.836   2.813   4.888
 7847SOL    HW224441   5.747   2.888   4.774
 7848SOL     OW24442   3.034   4.615   1.014
 7848SOL    HW124443   3.035   4.515   1.006
 7848SOL    HW224444   2.946   4.643   1.054
 7849SOL     OW24445   4.567   4.042   6.095
 7849SOL    HW124446   4.506   3.977   6.051
 7849SOL    HW224447   4.594   4.007   6.185
 7850SOL     OW24448   6.867   1.038   3.517
 7850SOL    HW124449   6.823   0.970   3.458
 7850SOL    HW224450   6.957   1.006   3.544
 7851SOL     OW24451   0.528   4.222   1.961
 7851SOL    HW124452   0.443   4.254   1.918
 7851SOL    HW224453   0.573   4.156   1.902
 7852SOL     OW24454   1.520   2.316   6.746
 7852SOL    HW124455   1.480   2.407   6.755
 7852SOL    HW224456   1.513   2.268   6.833
 7853SOL     OW24457   4.269   2.778   1.576
 7853SOL    HW124458   4.202   2.814   1.640
 7853SOL    HW224459   4.336   2.849   1.553
 7854SOL     OW24460   5.103   2.543   6.209
 7854SOL    HW124461   5.010   2.574   6.232
 7854SOL    HW224462   5.169   2.610   6.242
 7855SOL     OW24463   5.123   7.009   4.397
 7855SOL    HW124464   5.203   6.988   4.452
 7855SOL    HW224465   5.138   0.071   4.344
 7856SOL     OW24466   2.054   6.176   4.743
 7856SOL    HW124467   2.045   6.078   4.762
 7856SOL    HW224468   2.025   6.228   4.823
 7857SOL     OW24469   5.253   3.976   0.951
 7857SOL    HW124470   5.172   3.970   1.009
 7857SOL    HW224471   5.233   3.942   0.860
 7858SOL     OW24472   0.745   5.444   5.699
 7858SOL    HW124473   0.683   5.408   5.768
 7858SOL    HW224474   0.823   5.382   5.688
 7859SOL     OW24475   5.199   2.595   0.044
 7859SOL    HW124476   5.221   2.692   0.054
 7859SOL    HW224477   5.143   2.581   6.984
 7860SOL     OW24478   2.767   0.747   4.462
 7860SOL    HW124479   2.720   0.783   4.542
 7860SOL    HW224480   2.701   0.735   4.387
 7861SOL     OW24481   2.668   6.193   0.927
 7861SOL    HW124482   2.659   6.278   0.876
 7861SOL    HW224483   2.757   6.190   0.972
 7862SOL     OW24484   2.791   6.344   0.589
 7862SOL    HW124485   2.737   6.291   0.524
 7862SOL    HW224486   2.857   6.284   0.634
 7863SOL     OW24487   6.690   4.502   3.761
 7863SOL    HW124488   6.775   4.497   3.709
 7863SOL    HW224489   6.711   4.496   3.859
 7864SOL     OW24490   2.598   0.060   5.260
 7864SOL    HW124491   2.553   0.088   5.175
 7864SOL    HW224492   2.533   0.062   5.335
 7865SOL     OW24493   6.123   5.858   3.912
 7865SOL    HW124494   6.111   5.924   3.986
 7865SOL    HW224495   6.220   5.845   3.894
 7866SOL     OW24496   1.192   6.839   5.940
 7866SOL    HW124497   1.196   6.854   5.842
 7866SOL    HW224498   1.108   6.789   5.963
 7867SOL     OW24499   5.479   6.368   3.696
 7867SOL    HW124500   5.484   6.302   3.621
 7867SOL    HW224501   5.478   6.461   3.658
 7868SOL     OW24502   3.557   6.932   1.128
 7868SOL    HW124503   3.483   6.954   1.192
 7868SOL    HW224504   3.521   6.874   1.054
 7869SOL     OW24505   5.411   4.364   6.098
 7869SOL    HW124506   5.469   4.356   6.017
 7869SOL    HW224507   5.321   4.399   6.072
 7870SOL     OW24508   4.799   5.840   5.053
 7870SOL    HW124509   4.876   5.836   4.989
 7870SOL    HW224510   4.831   5.878   5.140
 7871SOL     OW24511   5.048   1.521   1.674
 7871SOL    HW124512   4.995   1.603   1.654
 7871SOL    HW224513   4.992   1.456   1.726
 7872SOL     OW24514   1.842   6.002   2.316
 7872SOL    HW124515   1.862   5.938   2.391
 7872SOL    HW224516   1.787   5.956   2.247
 7873SOL     OW24517   6.442   1.020   0.035
 7873SOL    HW124518   6.408   0.926   0.047
 7873SOL    HW224519   6.368   1.084   0.056
 7874SOL     OW24520   5.610   2.260   0.830
 7874SOL    HW124521   5.557   2.279   0.747
 7874SOL    HW224522   5.642   2.347   0.869
 7875SOL     OW24523   4.660   4.106   6.598
 7875SOL    HW124524   4.670   4.014   6.636
 7875SOL    HW224525   4.618   4.166   6.666
 7876SOL     OW24526   1.197   0.147   2.093
 7876SOL    HW124527   1.107   0.178   2.123
 7876SOL    HW224528   1.217   0.058   2.134
 7877SOL     OW24529   0.143   2.072   3.360
 7877SOL    HW124530   0.154   2.171   3.358
 7877SOL    HW224531   0.142   2.036   3.267
 7878SOL     OW24532   4.311   4.988   3.596
 7878SOL    HW124533   4.234   5.048   3.576
 7878SOL    HW224534   4.391   5.017   3.543
 7879SOL     OW24535   2.500   4.682   3.358
 7879SOL    HW124536   2.450   4.755   3.404
 7879SOL    HW224537   2.530   4.714   3.268
 7880SOL     OW24538   1.378   4.188   1.919
 7880SOL    HW124539   1.469   4.196   1.960
 7880SOL    HW224540   1.311   4.237   1.975
 7881SOL     OW24541   5.296   3.847   3.843
 7881SOL    HW124542   5.281   3.789   3.762
 7881SOL    HW224543   5.211   3.890   3.870
 7882SOL     OW24544   1.584   3.042   1.077
 7882SOL    HW124545   1.639   2.993   1.145
 7882SOL    HW224546   1.643   3.101   1.021
 7883SOL     OW24547   1.324   1.288   5.366
 7883SOL    HW124548   1.359   1.351   5.296
 7883SOL    HW224549   1.237   1.250   5.335
 7884SOL     OW24550   0.459   3.271   4.669
 7884SOL    HW124551   0.524   3.309   4.734
 7884SOL    HW224552   0.423   3.343   4.610
 7885SOL     OW24553   5.873   6.003   0.288
 7885SOL    HW124554   5.952   6.055   0.255
 7885SOL    HW224555   5.876   5.911   0.250
 7886SOL     OW24556   4.558   4.857   0.013
 7886SOL    HW124557   4.561   4.760   0.034
 7886SOL    HW224558   4.468   4.880   6.997
 7887SOL     OW24559   4.851   1.855   0.042
 7887SOL    HW124560   4.942   1.842   0.079
 7887SOL    HW224561   4.836   1.790   6.988
 7888SOL     OW24562   4.633   0.868   4.143
 7888SOL    HW124563   4.720   0.858   4.095
 7888SOL    HW224564   4.644   0.840   4.238
 7889SOL     OW24565   0.557   6.660   1.987
 7889SOL    HW124566   0.634   6.644   1.924
 7889SOL    HW224567   0.518   6.751   1.969
 7890SOL     OW24568   1.414   3.704   2.720
 7890SOL    HW124569   1.429   3.728   2.624
 7890SOL    HW224570   1.428   3.606   2.733
 7891SOL     OW24571   2.280   4.862   2.308
 7891SOL    HW124572   2.272   4.908   2.396
 7891SOL    HW224573   2.281   4.929   2.234
 7892SOL     OW24574   1.714   2.131   6.019
 7892SOL    HW124575   1.750   2.114   6.111
 7892SOL    HW224576   1.774   2.089   5.952
 7893SOL     OW24577   6.207   6.243   1.327
 7893SOL    HW124578   6.185   6.174   1.395
 7893SOL    HW224579   6.191   6.334   1.366
 7894SOL     OW24580   2.788   6.796   1.664
 7894SOL    HW124581   2.735   6.874   1.630
 7894SOL    HW224582   2.831   6.749   1.587
 7895SOL     OW24583   6.934   1.226   4.786
 7895SOL    HW124584   6.906   1.283   4.863
 7895SOL    HW224585   6.958   1.284   4.708
 7896SOL     OW24586   4.945   3.227   5.469
 7896SOL    HW124587   4.895   3.309   5.496
 7896SOL    HW224588   4.948   3.221   5.370
 7897SOL     OW24589   3.201   3.170   6.406
 7897SOL    HW124590   3.182   3.182   6.503
 7897SOL    HW224591   3.145   3.234   6.353
 7898SOL     OW24592   4.261   2.365   3.755
 7898SOL    HW124593   4.183   2.343   3.697
 7898SOL    HW224594   4.313   2.282   3.773
 7899SOL     OW24595   5.626   2.111   2.912
 7899SOL    HW124596   5.561   2.148   2.845
 7899SOL    HW224597   5.616   2.160   2.999
 7900SOL     OW24598   1.781   5.275   0.867
 7900SOL    HW124599   1.773   5.356   0.926
 7900SOL    HW224600   1.860   5.221   0.897
 7901SOL     OW24601   6.273   6.476   6.346
 7901SOL    HW124602   6.205   6.543   6.319
 7901SOL    HW224603   6.321   6.508   6.428
 7902SOL     OW24604   4.569   3.406   0.021
 7902SOL    HW124605   4.517   3.378   6.962
 7902SOL    HW224606   4.534   3.358   0.101
 7903SOL     OW24607   6.572   1.747   6.922
 7903SOL    HW124608   6.591   1.666   6.865
 7903SOL    HW224609   6.497   1.727   6.984
 7904SOL     OW24610   6.886   1.093   2.342
 7904SOL    HW124611   6.849   1.183   2.366
 7904SOL    HW224612   6.875   1.032   2.420
 7905SOL     OW24613   4.113   0.945   0.770
 7905SOL    HW124614   4.102   0.865   0.828
 7905SOL    HW224615   4.032   1.003   0.776
 7906SOL     OW24616   5.982   5.755   6.929
 7906SOL    HW124617   6.006   5.819   6.856
 7906SOL    HW224618   6.040   5.674   6.922
 7907SOL     OW24619   0.287   2.628   2.527
 7907SOL    HW124620   0.371   2.649   2.477
 7907SOL    HW224621   0.267   2.703   2.591
 7908SOL     OW24622   6.433   2.372   4.178
 7908SOL    HW124623   6.462   2.293   4.124
 7908SOL    HW224624   6.346   2.407   4.142
 7909SOL     OW24625   4.970   4.404   5.110
 7909SOL    HW124626   4.957   4.316   5.063
 7909SOL    HW224627   4.953   4.392   5.208
 7910SOL     OW24628   5.801   2.830   5.621
 7910SOL    HW124629   5.826   2.760   5.554
 7910SOL    HW224630   5.705   2.856   5.608
 7911SOL     OW24631   6.043   4.624   0.429
 7911SOL    HW124632   6.118   4.670   0.476
 7911SOL    HW224633   5.963   4.684   0.428
 7912SOL     OW24634   6.336   4.941   6.395
 7912SOL    HW124635   6.434   4.947   6.376
 7912SOL    HW224636   6.285   4.962   6.311
 7913SOL     OW24637   6.964   5.333   5.946
 7913SOL    HW124638   6.986   5.421   5.903
 7913SOL    HW224639   0.007   5.315   6.020
 7914SOL     OW24640   6.292   4.243   1.283
 7914SOL    HW124641   6.258   4.337   1.296
 7914SOL    HW224642   6.214   4.180   1.279
 7915SOL     OW24643   3.553   1.636   3.354
 7915SOL    HW124644   3.597   1.719   3.389
 7915SOL    HW224645   3.594   1.611   3.267
 7916SOL     OW24646   5.168   3.937   5.381
 7916SOL    HW124647   5.187   3.981   5.294
 7916SOL    HW224648   5.069   3.937   5.398
 7917SOL     OW24649   3.546   3.890   4.084
 7917SOL    HW124650   3.584   3.898   3.992
 7917SOL    HW224651   3.496   3.803   4.092
 7918SOL     OW24652   5.997   1.916   2.926
 7918SOL    HW124653   5.978   2.004   2.881
 7918SOL    HW224654   5.996   1.843   2.857
 7919SOL     OW24655   5.555   5.151   2.090
 7919SOL    HW124656   5.580   5.060   2.125
 7919SOL    HW224657   5.462   5.173   2.119
 7920SOL     OW24658   0.782   5.117   1.667
 7920SOL    HW124659   0.768   5.067   1.753
 7920SOL    HW224660   0.732   5.071   1.594
 7921SOL     OW24661   2.126   6.762   1.087
 7921SOL    HW124662   2.197   6.828   1.063
 7921SOL    HW224663   2.167   6.671   1.097
 7922SOL     OW24664   0.920   5.312   6.480
 7922SOL    HW124665   0.956   5.383   6.540
 7922SOL    HW224666   0.952   5.328   6.386
 7923SOL     OW24667   1.305   2.094   3.177
 7923SOL    HW124668   1.267   2.068   3.266
 7923SOL    HW224669   1.391   2.045   3.163
 7924SOL     OW24670   2.504   6.811   4.069
 7924SOL    HW124671   2.507   6.732   4.008
 7924SOL    HW224672   2.583   6.870   4.051
 7925SOL     OW24673   6.314   0.957   6.413
 7925SOL    HW124674   6.376   1.002   6.477
 7925SOL    HW224675   6.249   1.023   6.376
 7926SOL     OW24676   3.930   0.256   1.739
 7926SOL    HW124677   4.005   0.206   1.783
 7926SOL    HW224678   3.877   0.304   1.808
 7927SOL     OW24679   4.704   5.083   4.733
 7927SOL    HW124680   4.745   5.001   4.772
 7927SOL    HW224681   4.661   5.061   4.645
 7928SOL     OW24682   1.631   5.353   1.778
 7928SOL    HW124683   1.720   5.395   1.790
 7928SOL    HW224684   1.616   5.332   1.682
 7929SOL     OW24685   3.772   3.796   4.216
 7929SOL    HW124686   3.770   3.702   4.183
 7929SOL    HW224687   3.695   3.847   4.176
 7930SOL     OW24688   4.990   5.819   3.803
 7930SOL    HW124689   4.901   5.851   3.773
 7930SOL    HW224690   5.058   5.837   3.732
 7931SOL     OW24691   2.454   1.718   0.325
 7931SOL    HW124692   2.469   1.689   0.230
 7931SOL    HW224693   2.458   1.638   0.385
 7932SOL     OW24694   2.511   0.366   0.635
 7932SOL    HW124695   2.553   0.455   0.653
 7932SOL    HW224696   2.522   0.308   0.717
 7933SOL     OW24697   1.714   1.202   6.709
 7933SOL    HW124698   1.704   1.107   6.679
 7933SOL    HW224699   1.716   1.261   6.628
 7934SOL     OW24700   2.808   3.438   6.286
 7934SOL    HW124701   2.751   3.436   6.368
 7934SOL    HW224702   2.778   3.512   6.225
 7935SOL     OW24703   4.366   6.750   1.787
 7935SOL    HW124704   4.287   6.775   1.731
 7935SOL    HW224705   4.348   6.665   1.835
 7936SOL     OW24706   4.367   5.754   3.042
 7936SOL    HW124707   4.441   5.806   2.999
 7936SOL    HW224708   4.280   5.781   3.001
 7937SOL     OW24709   6.393   6.530   5.716
 7937SOL    HW124710   6.312   6.580   5.687
 7937SOL    HW224711   6.436   6.486   5.637
 7938SOL     OW24712   4.950   5.304   4.721
 7938SOL    HW124713   5.020   5.297   4.793
 7938SOL    HW224714   4.904   5.216   4.711
 7939SOL     OW24715   0.998   1.060   5.310
 7939SOL    HW124716   0.987   1.155   5.281
 7939SOL    HW224717   1.067   1.054   5.382
 7940SOL     OW24718   1.694   5.889   1.002
 7940SOL    HW124719   1.724   5.890   0.907
 7940SOL    HW224720   1.594   5.896   1.005
 7941SOL     OW24721   0.528   0.499   1.023
 7941SOL    HW124722   0.475   0.583   1.034
 7941SOL    HW224723   0.534   0.452   1.111
 7942SOL     OW24724   0.454   0.633   1.495
 7942SOL    HW124725   0.517   0.597   1.426
 7942SOL    HW224726   0.376   0.676   1.448
 7943SOL     OW24727   5.093   1.380   1.362
 7943SOL    HW124728   5.122   1.476   1.352
 7943SOL    HW224729   5.118   1.348   1.453
 7944SOL     OW24730   0.792   4.518   1.741
 7944SOL    HW124731   0.813   4.614   1.724
 7944SOL    HW224732   0.873   4.472   1.776
 7945SOL     OW24733   5.086   6.862   2.591
 7945SOL    HW124734   5.169   6.880   2.538
 7945SOL    HW224735   5.090   6.913   2.677
 7946SOL     OW24736   1.596   2.403   6.051
 7946SOL    HW124737   1.546   2.376   6.133
 7946SOL    HW224738   1.658   2.330   6.024
 7947SOL     OW24739   4.369   3.210   6.258
 7947SOL    HW124740   4.457   3.203   6.210
 7947SOL    HW224741   4.299   3.241   6.195
 7948SOL     OW24742   0.166   6.059   0.486
 7948SOL    HW124743   0.183   6.155   0.511
 7948SOL    HW224744   0.084   6.027   0.535
 7949SOL     OW24745   5.595   4.271   4.026
 7949SOL    HW124746   5.552   4.184   4.000
 7949SOL    HW224747   5.553   4.305   4.111
 7950SOL     OW24748   3.454   5.191   4.143
 7950SOL    HW124749   3.432   5.093   4.141
 7950SOL    HW224750   3.490   5.214   4.234
 7951SOL     OW24751   3.280   3.207   0.834
 7951SOL    HW124752   3.369   3.183   0.871
 7951SOL    HW224753   3.211   3.203   0.906
 7952SOL     OW24754   5.634   3.313   0.980
 7952SOL    HW124755   5.638   3.301   0.880
 7952SOL    HW224756   5.542   3.340   1.007
 7953SOL     OW24757   2.038   2.863   3.134
 7953SOL    HW124758   2.109   2.888   3.199
 7953SOL    HW224759   1.950   2.899   3.165
 7954SOL     OW24760   3.796   5.149   5.158
 7954SOL    HW124761   3.785   5.202   5.075
 7954SOL    HW224762   3.890   5.114   5.163
 7955SOL     OW24763   1.012   6.411   6.098
 7955SOL    HW124764   0.930   6.362   6.069
 7955SOL    HW224765   1.043   6.375   6.186
 7956SOL     OW24766   5.769   6.594   4.357
 7956SOL    HW124767   5.711   6.582   4.437
 7956SOL    HW224768   5.733   6.540   4.281
 7957SOL     OW24769   0.757   2.317   1.383
 7957SOL    HW124770   0.693   2.251   1.344
 7957SOL    HW224771   0.796   2.279   1.467
 7958SOL     OW24772   2.756   4.957   2.962
 7958SOL    HW124773   2.785   4.970   2.868
 7958SOL    HW224774   2.668   5.004   2.977
 7959SOL     OW24775   6.023   5.092   0.587
 7959SOL    HW124776   6.092   5.138   0.531
 7959SOL    HW224777   6.012   5.142   0.674
 7960SOL     OW24778   2.829   2.033   1.059
 7960SOL    HW124779   2.785   2.033   0.969
 7960SOL    HW224780   2.760   2.044   1.130
 7961SOL     OW24781   1.779   5.676   6.663
 7961SOL    HW124782   1.822   5.597   6.706
 7961SOL    HW224783   1.699   5.647   6.611
 7962SOL     OW24784   1.012   1.107   2.345
 7962SOL    HW124785   0.997   1.025   2.400
 7962SOL    HW224786   0.925   1.136   2.305
 7963SOL     OW24787   0.697   0.416   4.883
 7963SOL    HW124788   0.739   0.474   4.813
 7963SOL    HW224789   0.598   0.414   4.869
 7964SOL     OW24790   6.076   5.552   3.859
 7964SOL    HW124791   6.050   5.647   3.842
 7964SOL    HW224792   6.064   5.530   3.955
 7965SOL     OW24793   5.129   2.156   6.693
 7965SOL    HW124794   5.135   2.115   6.784
 7965SOL    HW224795   5.172   2.246   6.694
 7966SOL     OW24796   6.766   4.895   3.673
 7966SOL    HW124797   6.667   4.888   3.687
 7966SOL    HW224798   6.805   4.803   3.666
 7967SOL     OW24799   3.170   6.272   2.316
 7967SOL    HW124800   3.244   6.337   2.305
 7967SOL    HW224801   3.086   6.320   2.343
 7968SOL     OW24802   2.047   2.197   2.565
 7968SOL    HW124803   2.107   2.167   2.639
 7968SOL    HW224804   1.981   2.263   2.600
 7969SOL     OW24805   3.116   2.092   3.279
 7969SOL    HW124806   3.151   2.127   3.192
 7969SOL    HW224807   3.126   1.993   3.282
 7970SOL     OW24808   0.737   4.386   3.184
 7970SOL    HW124809   0.737   4.286   3.178
 7970SOL    HW224810   0.681   4.424   3.111
 7971SOL     OW24811   2.961   1.664   1.679
 7971SOL    HW124812   2.876   1.662   1.626
 7971SOL    HW224813   3.015   1.744   1.654
 7972SOL     OW24814   0.400   4.744   1.703
 7972SOL    HW124815   0.483   4.770   1.753
 7972SOL    HW224816   0.372   4.820   1.644
 7973SOL     OW24817   4.772   2.941   3.259
 7973SOL    HW124818   4.686   2.892   3.276
 7973SOL    HW224819   4.840   2.912   3.326
 7974SOL     OW24820   4.996   0.366   4.221
 7974SOL    HW124821   5.026   0.435   4.155
 7974SOL    HW224822   4.897   0.352   4.212
 7975SOL     OW24823   3.193   1.228   4.269
 7975SOL    HW124824   3.105   1.191   4.298
 7975SOL    HW224825   3.246   1.254   4.349
 7976SOL     OW24826   0.830   5.696   6.059
 7976SOL    HW124827   0.854   5.699   5.962
 7976SOL    HW224828   0.904   5.654   6.110
 7977SOL     OW24829   5.499   6.066   1.619
 7977SOL    HW124830   5.471   6.118   1.538
 7977SOL    HW224831   5.553   5.987   1.591
 7978SOL     OW24832   4.626   3.473   5.812
 7978SOL    HW124833   4.662   3.544   5.872
 7978SOL    HW224834   4.671   3.478   5.723
 7979SOL     OW24835   3.282   0.148   4.598
 7979SOL    HW124836   3.213   0.195   4.653
 7979SOL    HW224837   3.356   0.212   4.576
 7980SOL     OW24838   3.401   6.148   0.755
 7980SOL    HW124839   3.458   6.214   0.705
 7980SOL    HW224840   3.376   6.073   0.694
 7981SOL     OW24841   1.099   5.097   2.686
 7981SOL    HW124842   1.022   5.062   2.631
 7981SOL    HW224843   1.069   5.109   2.780
 7982SOL     OW24844   6.562   2.633   0.978
 7982SOL    HW124845   6.508   2.553   1.003
 7982SOL    HW224846   6.640   2.605   0.922
 7983SOL     OW24847   5.297   2.214   2.515
 7983SOL    HW124848   5.251   2.302   2.509
 7983SOL    HW224849   5.267   2.156   2.439
 7984SOL     OW24850   0.475   1.964   2.113
 7984SOL    HW124851   0.544   1.918   2.058
 7984SOL    HW224852   0.437   2.041   2.062
 7985SOL     OW24853   0.261   1.453   2.369
 7985SOL    HW124854   0.312   1.514   2.431
 7985SOL    HW224855   0.173   1.494   2.346
 7986SOL     OW24856   3.981   0.958   6.744
 7986SOL    HW124857   4.017   1.043   6.704
 7986SOL    HW224858   3.999   0.958   6.842
 7987SOL     OW24859   0.714   3.220   4.973
 7987SOL    HW124860   0.632   3.163   4.973
 7987SOL    HW224861   0.777   3.189   4.902
 7988SOL     OW24862   2.941   1.677   4.738
 7988SOL    HW124863   2.842   1.672   4.754
 7988SOL    HW224864   2.981   1.743   4.802
 7989SOL     OW24865   2.883   2.522   5.361
 7989SOL    HW124866   2.876   2.500   5.458
 7989SOL    HW224867   2.803   2.574   5.332
 7990SOL     OW24868   1.234   2.288   4.986
 7990SOL    HW124869   1.259   2.348   4.910
 7990SOL    HW224870   1.160   2.330   5.039
 7991SOL     OW24871   0.634   3.178   5.777
 7991SOL    HW124872   0.726   3.178   5.814
 7991SOL    HW224873   0.572   3.131   5.840
 7992SOL     OW24874   2.489   0.689   0.524
 7992SOL    HW124875   2.393   0.707   0.502
 7992SOL    HW224876   2.537   0.662   0.440
 7993SOL     OW24877   1.831   6.556   6.965
 7993SOL    HW124878   1.919   6.533   7.008
 7993SOL    HW224879   1.804   6.648   6.992
 7994SOL     OW24880   5.930   1.237   3.755
 7994SOL    HW124881   5.914   1.149   3.710
 7994SOL    HW224882   5.896   1.233   3.849
 7995SOL     OW24883   2.833   5.312   3.311
 7995SOL    HW124884   2.816   5.291   3.215
 7995SOL    HW224885   2.796   5.240   3.369
 7996SOL     OW24886   4.038   6.868   5.503
 7996SOL    HW124887   3.958   6.906   5.457
 7996SOL    HW224888   4.106   6.940   5.516
 7997SOL     OW24889   5.898   2.739   1.313
 7997SOL    HW124890   5.955   2.698   1.384
 7997SOL    HW224891   5.947   2.737   1.226
 7998SOL     OW24892   6.238   5.113   0.065
 7998SOL    HW124893   6.329   5.148   0.045
 7998SOL    HW224894   6.244   5.036   0.128
 7999SOL     OW24895   1.587   0.386   5.532
 7999SOL    HW124896   1.686   0.384   5.545
 7999SOL    HW224897   1.542   0.369   5.620
 8000SOL     OW24898   6.007   6.827   5.445
 8000SOL    HW124899   5.935   6.860   5.383
 8000SOL    HW224900   5.965   6.794   5.529
 8001SOL     OW24901   1.770   6.864   1.374
 8001SOL    HW124902   1.831   6.877   1.296
 8001SOL    HW224903   1.769   6.768   1.400
 8002SOL     OW24904   6.010   2.802   5.006
 8002SOL    HW124905   6.059   2.716   5.020
 8002SOL    HW224906   5.930   2.805   5.067
 8003SOL     OW24907   3.179   4.888   3.258
 8003SOL    HW124908   3.251   4.847   3.202
 8003SOL    HW224909   3.096   4.900   3.202
 8004SOL     OW24910   2.041   3.784   2.592
 8004SOL    HW124911   1.950   3.800   2.629
 8004SOL    HW224912   2.052   3.836   2.508
 8005SOL     OW24913   2.897   0.874   1.230
 8005SOL    HW124914   2.971   0.926   1.189
 8005SOL    HW224915   2.846   0.826   1.158
 8006SOL     OW24916   3.045   5.824   0.835
 8006SOL    HW124917   2.990   5.907   0.849
 8006SOL    HW224918   3.073   5.818   0.739
 8007SOL     OW24919   0.541   0.300   4.289
 8007SOL    HW124920   0.477   0.370   4.256
 8007SOL    HW224921   0.519   0.277   4.384
 8008SOL     OW24922   6.058   6.751   0.801
 8008SOL    HW124923   5.983   6.806   0.765
 8008SOL    HW224924   6.029   6.710   0.888
 8009SOL     OW24925   7.016   6.751   4.006
 8009SOL    HW124926   7.009   6.657   3.972
 8009SOL    HW224927   0.055   6.804   3.946
 8010SOL     OW24928   2.218   2.519   6.746
 8010SOL    HW124929   2.263   2.609   6.744
 8010SOL    HW224930   2.173   2.506   6.834
 8011SOL     OW24931   3.385   2.255   0.656
 8011SOL    HW124932   3.288   2.264   0.678
 8011SOL    HW224933   3.440   2.301   0.726
 8012SOL     OW24934   2.528   6.599   1.728
 8012SOL    HW124935   2.596   6.535   1.693
 8012SOL    HW224936   2.559   6.637   1.815
 8013SOL     OW24937   6.214   4.092   5.040
 8013SOL    HW124938   6.187   4.188   5.050
 8013SOL    HW224939   6.152   4.046   4.977
 8014SOL     OW24940   2.155   0.041   6.981
 8014SOL    HW124941   2.219   0.031   6.904
 8014SOL    HW224942   2.073   7.009   6.963
 8015SOL     OW24943   2.447   2.755   0.066
 8015SOL    HW124944   2.520   2.821   0.049
 8015SOL    HW224945   2.469   2.668   0.022
 8016SOL     OW24946   4.416   6.480   0.357
 8016SOL    HW124947   4.370   6.473   0.445
 8016SOL    HW224948   4.403   6.395   0.306
 8017SOL     OW24949   6.015   4.706   4.633
 8017SOL    HW124950   6.073   4.721   4.553
 8017SOL    HW224951   6.047   4.764   4.708
 8018SOL     OW24952   5.244   1.907   5.109
 8018SOL    HW124953   5.300   1.831   5.076
 8018SOL    HW224954   5.189   1.877   5.187
 8019SOL     OW24955   2.822   5.973   0.871
 8019SOL    HW124956   2.754   5.933   0.932
 8019SOL    HW224957   2.791   6.062   0.839
 8020SOL     OW24958   4.965   5.072   0.069
 8020SOL    HW124959   4.960   5.161   0.113
 8020SOL    HW224960   4.968   5.085   6.991
 8021SOL     OW24961   0.800   0.771   0.860
 8021SOL    HW124962   0.777   0.680   0.825
 8021SOL    HW224963   0.728   0.836   0.834
 8022SOL     OW24964   4.343   6.465   2.992
 8022SOL    HW124965   4.365   6.368   3.003
 8022SOL    HW224966   4.245   6.479   3.003
 8023SOL     OW24967   5.730   6.379   2.755
 8023SOL    HW124968   5.773   6.469   2.765
 8023SOL    HW224969   5.631   6.389   2.765
 8024SOL     OW24970   4.647   4.986   5.260
 8024SOL    HW124971   4.745   4.993   5.277
 8024SOL    HW224972   4.629   4.905   5.204
 8025SOL     OW24973   3.937   5.586   6.817
 8025SOL    HW124974   3.941   5.638   6.902
 8025SOL    HW224975   4.030   5.568   6.785
 8026SOL     OW24976   1.370   3.188   0.418
 8026SOL    HW124977   1.469   3.192   0.404
 8026SOL    HW224978   1.348   3.113   0.481
 8027SOL     OW24979   4.710   1.740   5.072
 8027SOL    HW124980   4.759   1.778   4.993
 8027SOL    HW224981   4.679   1.813   5.132
 8028SOL     OW24982   5.272   4.787   6.812
 8028SOL    HW124983   5.229   4.810   6.900
 8028SOL    HW224984   5.370   4.807   6.817
 8029SOL     OW24985   4.001   3.795   0.424
 8029SOL    HW124986   4.058   3.742   0.360
 8029SOL    HW224987   4.039   3.887   0.434
 8030SOL     OW24988   5.848   4.200   6.186
 8030SOL    HW124989   5.786   4.163   6.255
 8030SOL    HW224990   5.862   4.298   6.202
 8031SOL     OW24991   3.856   5.314   1.276
 8031SOL    HW124992   3.897   5.348   1.191
 8031SOL    HW224993   3.769   5.361   1.292
 8032SOL     OW24994   5.408   4.041   5.667
 8032SOL    HW124995   5.411   4.013   5.571
 8032SOL    HW224996   5.429   3.963   5.725
 8033SOL     OW24997   5.712   2.455   7.005
 8033SOL    HW124998   5.719   2.543   0.030
 8033SOL    HW224999   5.792   2.399   0.006
 8034SOL     OW25000   5.554   6.979   4.921
 8034SOL    HW125001   5.571   0.031   4.986
 8034SOL    HW225002   5.627   6.911   4.929
 8035SOL     OW25003   5.713   6.668   6.516
 8035SOL    HW125004   5.651   6.727   6.568
 8035SOL    HW225005   5.695   6.572   6.539
 8036SOL     OW25006   1.848   4.518   1.644
 8036SOL    HW125007   1.782   4.446   1.668
 8036SOL    HW225008   1.932   4.476   1.609
 8037SOL     OW25009   1.752   2.852   1.244
 8037SOL    HW125010   1.812   2.790   1.194
 8037SOL    HW225011   1.799   2.938   1.260
 8038SOL     OW25012   0.308   2.229   4.188
 8038SOL    HW125013   0.256   2.190   4.265
 8038SOL    HW225014   0.246   2.277   4.126
 8039SOL     OW25015   2.517   6.773   3.290
 8039SOL    HW125016   2.607   6.816   3.297
 8039SOL    HW225017   2.511   6.699   3.358
 8040SOL     OW25018   0.264   5.819   1.359
 8040SOL    HW125019   0.310   5.798   1.273
 8040SOL    HW225020   0.293   5.753   1.429
 8041SOL     OW25021   4.335   1.157   0.477
 8041SOL    HW125022   4.247   1.196   0.452
 8041SOL    HW225023   4.336   1.134   0.574
 8042SOL     OW25024   3.012   2.770   1.794
 8042SOL    HW125025   2.999   2.671   1.800
 8042SOL    HW225026   2.936   2.810   1.744
 8043SOL     OW25027   2.246   6.891   1.604
 8043SOL    HW125028   2.244   6.794   1.580
 8043SOL    HW225029   2.196   6.943   1.535
 8044SOL     OW25030   2.754   3.980   1.652
 8044SOL    HW125031   2.783   3.943   1.740
 8044SOL    HW225032   2.760   4.080   1.654
 8045SOL     OW25033   5.270   2.669   2.955
 8045SOL    HW125034   5.363   2.640   2.975
 8045SOL    HW225035   5.220   2.681   3.041
 8046SOL     OW25036   6.582   4.769   6.096
 8046SOL    HW125037   6.563   4.841   6.029
 8046SOL    HW225038   6.604   4.810   6.184
 8047SOL     OW25039   3.709   6.115   4.407
 8047SOL    HW125040   3.673   6.028   4.441
 8047SOL    HW225041   3.808   6.107   4.392
 8048SOL     OW25042   6.374   0.078   5.198
 8048SOL    HW125043   6.328   0.013   5.258
 8048SOL    HW225044   6.363   0.170   5.235
 8049SOL     OW25045   1.334   6.359   0.519
 8049SOL    HW125046   1.323   6.419   0.440
 8049SOL    HW225047   1.420   6.309   0.512
 8050SOL     OW25048   2.070   3.299   1.325
 8050SOL    HW125049   2.011   3.351   1.263
 8050SOL    HW225050   2.156   3.278   1.279
 8051SOL     OW25051   4.601   0.948   3.630
 8051SOL    HW125052   4.575   0.932   3.726
 8051SOL    HW225053   4.519   0.951   3.574
 8052SOL     OW25054   3.005   1.445   2.791
 8052SOL    HW125055   3.065   1.410   2.863
 8052SOL    HW225056   2.946   1.372   2.758
 8053SOL     OW25057   3.741   3.609   2.372
 8053SOL    HW125058   3.794   3.694   2.379
 8053SOL    HW225059   3.702   3.587   2.461
 8054SOL     OW25060   4.022   6.205   4.696
 8054SOL    HW125061   4.045   6.267   4.621
 8054SOL    HW225062   3.937   6.236   4.740
 8055SOL     OW25063   1.765   6.698   6.226
 8055SOL    HW125064   1.704   6.623   6.200
 8055SOL    HW225065   1.822   6.723   6.149
 8056SOL     OW25066   4.281   1.725   2.871
 8056SOL    HW125067   4.366   1.692   2.828
 8056SOL    HW225068   4.204   1.703   2.811
 8057SOL     OW25069   3.236   6.558   2.883
 8057SOL    HW125070   3.272   6.536   2.974
 8057SOL    HW225071   3.310   6.594   2.826
 8058SOL     OW25072   3.159   1.002   2.263
 8058SOL    HW125073   3.151   1.096   2.230
 8058SOL    HW225074   3.254   0.982   2.284
 8059SOL     OW25075   3.374   1.557   4.107
 8059SOL    HW125076   3.430   1.639   4.107
 8059SOL    HW225077   3.317   1.556   4.189
 8060SOL     OW25078   6.915   0.915   4.546
 8060SOL    HW125079   6.996   0.935   4.602
 8060SOL    HW225080   6.944   0.866   4.464
 8061SOL     OW25081   6.921   5.634   2.571
 8061SOL    HW125082   6.882   5.627   2.663
 8061SOL    HW225083   7.000   5.695   2.573
 8062SOL     OW25084   1.992   4.056   3.400
 8062SOL    HW125085   2.020   4.092   3.312
 8062SOL    HW225086   1.941   4.125   3.451
 8063SOL     OW25087   3.621   2.947   6.767
 8063SOL    HW125088   3.677   3.003   6.705
 8063SOL    HW225089   3.648   2.851   6.757
 8064SOL     OW25090   6.953   3.598   0.406
 8064SOL    HW125091   6.907   3.575   0.491
 8064SOL    HW225092   6.894   3.657   0.351
 8065SOL     OW25093   4.732   0.150   5.059
 8065SOL    HW125094   4.713   0.138   5.157
 8065SOL    HW225095   4.646   0.150   5.008
 8066SOL     OW25096   1.944   0.800   1.789
 8066SOL    HW125097   2.009   0.796   1.713
 8066SOL    HW225098   1.921   0.896   1.807
 8067SOL     OW25099   5.141   2.564   2.137
 8067SOL    HW125100   5.078   2.489   2.120
 8067SOL    HW225101   5.230   2.527   2.167
 8068SOL     OW25102   0.967   4.209   5.017
 8068SOL    HW125103   0.980   4.294   5.068
 8068SOL    HW225104   0.878   4.169   5.041
 8069SOL     OW25105   1.304   6.819   1.915
 8069SOL    HW125106   1.342   6.789   2.002
 8069SOL    HW225107   1.368   6.798   1.841
 8070SOL     OW25108   3.932   6.874   1.038
 8070SOL    HW125109   3.943   6.858   0.940
 8070SOL    HW225110   3.945   6.971   1.058
 8071SOL     OW25111   3.418   6.429   6.606
 8071SOL    HW125112   3.442   6.332   6.608
 8071SOL    HW225113   3.374   6.450   6.518
 8072SOL     OW25114   5.188   1.085   0.353
 8072SOL    HW125115   5.247   1.071   0.433
 8072SOL    HW225116   5.193   1.005   0.294
 8073SOL     OW25117   4.165   6.271   5.859
 8073SOL    HW125118   4.092   6.207   5.884
 8073SOL    HW225119   4.170   6.344   5.927
 8074SOL     OW25120   3.683   3.662   0.054
 8074SOL    HW125121   3.777   3.692   0.074
 8074SOL    HW225122   3.661   3.582   0.109
 8075SOL     OW25123   6.827   1.677   3.326
 8075SOL    HW125124   6.845   1.582   3.298
 8075SOL    HW225125   6.875   1.697   3.411
 8076SOL     OW25126   6.044   2.669   5.793
 8076SOL    HW125127   6.079   2.731   5.723
 8076SOL    HW225128   5.957   2.630   5.763
 8077SOL     OW25129   1.556   0.763   1.368
 8077SOL    HW125130   1.593   0.692   1.307
 8077SOL    HW225131   1.611   0.767   1.451
 8078SOL     OW25132   6.245   3.075   0.513
 8078SOL    HW125133   6.194   2.996   0.480
 8078SOL    HW225134   6.204   3.159   0.476
 8079SOL     OW25135   0.063   2.534   2.396
 8079SOL    HW125136   6.997   2.564   2.435
 8079SOL    HW225137   0.136   2.592   2.430
 8080SOL     OW25138   3.333   4.617   0.141
 8080SOL    HW125139   3.248   4.621   0.192
 8080SOL    HW225140   3.408   4.590   0.202
 8081SOL     OW25141   5.953   0.691   5.314
 8081SOL    HW125142   5.923   0.740   5.232
 8081SOL    HW225143   5.888   0.709   5.388
 8082SOL     OW25144   0.061   2.873   3.480
 8082SOL    HW125145   0.106   2.852   3.393
 8082SOL    HW225146   0.115   2.834   3.555
 8083SOL     OW25147   4.725   2.614   3.947
 8083SOL    HW125148   4.814   2.573   3.964
 8083SOL    HW225149   4.654   2.544   3.954
 8084SOL     OW25150   6.912   0.095   1.230
 8084SOL    HW125151   6.893   0.190   1.206
 8084SOL    HW225152   6.858   0.034   1.171
 8085SOL     OW25153   5.839   1.234   1.019
 8085SOL    HW125154   5.935   1.256   1.035
 8085SOL    HW225155   5.808   1.167   1.087
 8086SOL     OW25156   3.637   0.179   5.618
 8086SOL    HW125157   3.730   0.188   5.654
 8086SOL    HW225158   3.606   0.268   5.586
 8087SOL     OW25159   2.850   2.255   1.449
 8087SOL    HW125160   2.882   2.319   1.519
 8087SOL    HW225161   2.897   2.273   1.363
 8088SOL     OW25162   4.399   1.107   2.936
 8088SOL    HW125163   4.335   1.182   2.919
 8088SOL    HW225164   4.412   1.055   2.851
 8089SOL     OW25165   6.150   2.538   0.028
 8089SOL    HW125166   6.112   2.454   7.010
 8089SOL    HW225167   6.175   2.601   6.976
 8090SOL     OW25168   4.249   2.026   5.529
 8090SOL    HW125169   4.177   1.958   5.520
 8090SOL    HW225170   4.277   2.057   5.438
 8091SOL     OW25171   3.000   4.721   5.813
 8091SOL    HW125172   3.034   4.630   5.838
 8091SOL    HW225173   3.029   4.743   5.720
 8092SOL     OW25174   1.497   1.620   4.423
 8092SOL    HW125175   1.466   1.692   4.485
 8092SOL    HW225176   1.587   1.588   4.451
 8093SOL     OW25177   5.742   5.944   1.388
 8093SOL    HW125178   5.759   5.926   1.485
 8093SOL    HW225179   5.828   5.970   1.344
 8094SOL     OW25180   0.929   4.054   6.121
 8094SOL    HW125181   0.909   4.150   6.138
 8094SOL    HW225182   0.843   4.003   6.114
 8095SOL     OW25183   5.327   3.731   4.087
 8095SOL    HW125184   5.250   3.667   4.096
 8095SOL    HW225185   5.334   3.762   3.992
 8096SOL     OW25186   3.844   6.332   1.500
 8096SOL    HW125187   3.763   6.385   1.525
 8096SOL    HW225188   3.901   6.319   1.582
 8097SOL     OW25189   5.087   1.087   3.764
 8097SOL    HW125190   5.009   1.103   3.704
 8097SOL    HW225191   5.127   1.175   3.790
 8098SOL     OW25192   2.987   6.616   3.989
 8098SOL    HW125193   2.914   6.550   4.009
 8098SOL    HW225194   2.948   6.700   3.952
 8099SOL     OW25195   4.389   6.374   4.937
 8099SOL    HW125196   4.299   6.357   4.895
 8099SOL    HW225197   4.423   6.289   4.977
 8100SOL     OW25198   0.412   6.720   1.028
 8100SOL    HW125199   0.326   6.672   1.013
 8100SOL    HW225200   0.451   6.747   0.940
 8101SOL     OW25201   1.453   6.106   3.650
 8101SOL    HW125202   1.463   6.124   3.552
 8101SOL    HW225203   1.522   6.039   3.678
 8102SOL     OW25204   6.909   5.961   5.982
 8102SOL    HW125205   6.885   5.973   5.886
 8102SOL    HW225206   6.932   5.865   5.998
 8103SOL     OW25207   3.314   1.397   2.183
 8103SOL    HW125208   3.229   1.347   2.196
 8103SOL    HW225209   3.358   1.413   2.271
 8104SOL     OW25210   2.644   6.717   6.098
 8104SOL    HW125211   2.614   6.631   6.140
 8104SOL    HW225212   2.741   6.712   6.076
 8105SOL     OW25213   2.552   1.981   3.753
 8105SOL    HW125214   2.530   2.026   3.840
 8105SOL    HW225215   2.591   2.048   3.690
 8106SOL     OW25216   1.369   3.863   4.254
 8106SOL    HW125217   1.387   3.840   4.158
 8106SOL    HW225218   1.444   3.919   4.290
 8107SOL     OW25219   1.973   6.425   6.225
 8107SOL    HW125220   1.896   6.363   6.235
 8107SOL    HW225221   1.999   6.431   6.129
 8108SOL     OW25222   0.751   3.548   4.217
 8108SOL    HW125223   0.725   3.593   4.303
 8108SOL    HW225224   0.682   3.479   4.194
 8109SOL     OW25225   1.668   5.313   4.854
 8109SOL    HW125226   1.605   5.341   4.927
 8109SOL    HW225227   1.749   5.269   4.895
 8110SOL     OW25228   2.170   5.660   0.424
 8110SOL    HW125229   2.207   5.634   0.513
 8110SOL    HW225230   2.077   5.624   0.416
 8111SOL     OW25231   2.563   5.514   4.531
 8111SOL    HW125232   2.621   5.570   4.472
 8111SOL    HW225233   2.619   5.449   4.581
 8112SOL     OW25234   3.215   0.790   4.493
 8112SOL    HW125235   3.178   0.810   4.402
 8112SOL    HW225236   3.239   0.876   4.538
 8113SOL     OW25237   3.617   2.236   5.916
 8113SOL    HW125238   3.597   2.207   6.010
 8113SOL    HW225239   3.557   2.313   5.893
 8114SOL     OW25240   2.589   3.078   1.686
 8114SOL    HW125241   2.562   3.173   1.696
 8114SOL    HW225242   2.510   3.018   1.700
 8115SOL     OW25243   3.800   1.347   1.123
 8115SOL    HW125244   3.777   1.277   1.190
 8115SOL    HW225245   3.766   1.320   1.033
 8116SOL     OW25246   5.673   0.433   5.292
 8116SOL    HW125247   5.654   0.530   5.272
 8116SOL    HW225248   5.657   0.416   5.389
 8117SOL     OW25249   1.706   2.116   5.724
 8117SOL    HW125250   1.717   2.088   5.629
 8117SOL    HW225251   1.609   2.131   5.744
 8118SOL     OW25252   0.687   3.480   4.780
 8118SOL    HW125253   0.749   3.468   4.857
 8118SOL    HW225254   0.705   3.410   4.711
 8119SOL     OW25255   0.907   6.425   2.554
 8119SOL    HW125256   0.984   6.360   2.556
 8119SOL    HW225257   0.864   6.423   2.464
 8120SOL     OW25258   4.437   3.916   1.712
 8120SOL    HW125259   4.349   3.898   1.670
 8120SOL    HW225260   4.440   4.010   1.746
 8121SOL     OW25261   5.854   0.577   2.831
 8121SOL    HW125262   5.796   0.505   2.868
 8121SOL    HW225263   5.883   0.554   2.739
 8122SOL     OW25264   6.985   6.353   2.215
 8122SOL    HW125265   6.948   6.306   2.295
 8122SOL    HW225266   6.978   6.451   2.228
 8123SOL     OW25267   1.237   6.559   6.904
 8123SOL    HW125268   1.323   6.574   6.855
 8123SOL    HW225269   1.169   6.521   6.841
 8124SOL     OW25270   1.111   5.759   2.475
 8124SOL    HW125271   1.050   5.818   2.528
 8124SOL    HW225272   1.199   5.750   2.522
 8125SOL     OW25273   5.841   5.390   3.188
 8125SOL    HW125274   5.778   5.446   3.241
 8125SOL    HW225275   5.930   5.436   3.182
 8126SOL     OW25276   5.711   4.592   2.450
 8126SOL    HW125277   5.763   4.642   2.382
 8126SOL    HW225278   5.635   4.649   2.483
 8127SOL     OW25279   2.312   4.696   6.704
 8127SOL    HW125280   2.323   4.601   6.675
 8127SOL    HW225281   2.383   4.719   6.770
 8128SOL     OW25282   3.989   2.319   5.316
 8128SOL    HW125283   4.057   2.392   5.302
 8128SOL    HW225284   4.010   2.242   5.256
 8129SOL     OW25285   5.162   0.350   6.532
 8129SOL    HW125286   5.214   0.433   6.551
 8129SOL    HW225287   5.187   0.279   6.598
 8130SOL     OW25288   2.041   6.457   0.075
 8130SOL    HW125289   2.001   6.387   0.134
 8130SOL    HW225290   2.134   6.477   0.105
 8131SOL     OW25291   2.076   1.633   0.277
 8131SOL    HW125292   1.979   1.647   0.296
 8131SOL    HW225293   2.087   1.556   0.215
 8132SOL     OW25294   6.297   4.927   4.063
 8132SOL    HW125295   6.339   4.863   3.999
 8132SOL    HW225296   6.364   4.998   4.087
 8133SOL     OW25297   1.655   5.291   2.063
 8133SOL    HW125298   1.623   5.304   1.970
 8133SOL    HW225299   1.743   5.243   2.062
 8134SOL     OW25300   2.096   2.658   2.949
 8134SOL    HW125301   2.185   2.700   2.932
 8134SOL    HW225302   2.052   2.703   3.026
 8135SOL     OW25303   4.291   5.828   2.088
 8135SOL    HW125304   4.214   5.765   2.096
 8135SOL    HW225305   4.376   5.781   2.112
 8136SOL     OW25306   4.712   5.890   1.386
 8136SOL    HW125307   4.767   5.807   1.396
 8136SOL    HW225308   4.731   5.951   1.463
 8137SOL     OW25309   2.199   4.056   5.282
 8137SOL    HW125310   2.230   3.985   5.220
 8137SOL    HW225311   2.240   4.042   5.372
 8138SOL     OW25312   4.883   1.052   3.512
 8138SOL    HW125313   4.935   0.974   3.476
 8138SOL    HW225314   4.797   1.019   3.553
 8139SOL     OW25315   1.633   2.067   3.870
 8139SOL    HW125316   1.697   2.104   3.802
 8139SOL    HW225317   1.679   2.058   3.958
 8140SOL     OW25318   4.558   0.514   0.753
 8140SOL    HW125319   4.557   0.604   0.796
 8140SOL    HW225320   4.562   0.524   0.654
 8141SOL     OW25321   4.716   1.215   4.809
 8141SOL    HW125322   4.727   1.314   4.814
 8141SOL    HW225323   4.785   1.177   4.748
 8142SOL     OW25324   1.918   6.149   0.689
 8142SOL    HW125325   1.991   6.175   0.752
 8142SOL    HW225326   1.958   6.115   0.604
 8143SOL     OW25327   6.509   4.709   0.327
 8143SOL    HW125328   6.491   4.649   0.405
 8143SOL    HW225329   6.591   4.764   0.346
 8144SOL     OW25330   0.083   4.593   6.013
 8144SOL    HW125331   0.049   4.499   6.016
 8144SOL    HW225332   0.045   4.646   6.089
 8145SOL     OW25333   5.206   5.834   6.940
 8145SOL    HW125334   5.247   5.776   6.869
 8145SOL    HW225335   5.119   5.794   6.970
 8146SOL     OW25336   6.040   0.606   4.751
 8146SOL    HW125337   6.015   0.679   4.688
 8146SOL    HW225338   6.099   0.540   4.705
 8147SOL     OW25339   1.747   1.097   6.008
 8147SOL    HW125340   1.807   1.033   6.056
 8147SOL    HW225341   1.672   1.124   6.068
 8148SOL     OW25342   4.407   4.553   0.278
 8148SOL    HW125343   4.375   4.616   0.208
 8148SOL    HW225344   4.365   4.463   0.264
 8149SOL     OW25345   0.931   5.766   5.017
 8149SOL    HW125346   1.027   5.740   5.024
 8149SOL    HW225347   0.908   5.785   4.922
 8150SOL     OW25348   0.645   3.238   1.522
 8150SOL    HW125349   0.597   3.188   1.450
 8150SOL    HW225350   0.676   3.327   1.487
 8151SOL     OW25351   5.895   5.414   3.500
 8151SOL    HW125352   5.804   5.420   3.459
 8151SOL    HW225353   5.957   5.476   3.452
 8152SOL     OW25354   4.763   1.685   3.365
 8152SOL    HW125355   4.836   1.657   3.428
 8152SOL    HW225356   4.791   1.770   3.319
 8153SOL     OW25357   0.639   1.373   3.159
 8153SOL    HW125358   0.585   1.414   3.233
 8153SOL    HW225359   0.697   1.301   3.197
 8154SOL     OW25360   2.076   0.483   3.309
 8154SOL    HW125361   1.980   0.497   3.334
 8154SOL    HW225362   2.114   0.568   3.273
 8155SOL     OW25363   1.489   5.356   2.432
 8155SOL    HW125364   1.550   5.287   2.471
 8155SOL    HW225365   1.403   5.313   2.403
 8156SOL     OW25366   6.423   5.489   1.664
 8156SOL    HW125367   6.403   5.423   1.592
 8156SOL    HW225368   6.520   5.486   1.686
 8157SOL     OW25369   0.052   2.969   5.663
 8157SOL    HW125370   7.005   3.013   5.604
 8157SOL    HW225371   0.136   3.024   5.661
 8158SOL     OW25372   5.570   5.041   6.442
 8158SOL    HW125373   5.565   5.061   6.345
 8158SOL    HW225374   5.498   4.975   6.466
 8159SOL     OW25375   3.233   6.649   5.590
 8159SOL    HW125376   3.187   6.737   5.592
 8159SOL    HW225377   3.215   6.604   5.502
 8160SOL     OW25378   5.238   1.078   3.394
 8160SOL    HW125379   5.319   1.100   3.448
 8160SOL    HW225380   5.206   0.986   3.417
 8161SOL     OW25381   5.764   3.132   1.164
 8161SOL    HW125382   5.744   3.180   1.249
 8161SOL    HW225383   5.732   3.187   1.087
 8162SOL     OW25384   0.294   4.983   6.065
 8162SOL    HW125385   0.242   4.950   6.144
 8162SOL    HW225386   0.232   5.007   5.991
 8163SOL     OW25387   4.775   4.730   5.218
 8163SOL    HW125388   4.842   4.712   5.290
 8163SOL    HW225389   4.823   4.764   5.136
 8164SOL     OW25390   5.029   1.436   0.224
 8164SOL    HW125391   4.948   1.482   0.260
 8164SOL    HW225392   5.095   1.423   0.298
 8165SOL     OW25393   0.025   1.176   6.633
 8165SOL    HW125394   7.019   1.271   6.621
 8165SOL    HW225395   6.999   1.119   6.566
 8166SOL     OW25396   1.678   1.932   4.953
 8166SOL    HW125397   1.603   1.866   4.945
 8166SOL    HW225398   1.660   1.993   5.030
 8167SOL     OW25399   0.494   2.810   4.388
 8167SOL    HW125400   0.475   2.908   4.389
 8167SOL    HW225401   0.556   2.788   4.313
 8168SOL     OW25402   2.715   0.827   2.057
 8168SOL    HW125403   2.796   0.776   2.028
 8168SOL    HW225404   2.640   0.806   1.995
 8169SOL     OW25405   5.262   2.314   0.823
 8169SOL    HW125406   5.294   2.259   0.900
 8169SOL    HW225407   5.330   2.311   0.749
 8170SOL     OW25408   6.142   5.185   2.631
 8170SOL    HW125409   6.222   5.153   2.580
 8170SOL    HW225410   6.099   5.260   2.580
 8171SOL     OW25411   1.756   0.992   0.831
 8171SOL    HW125412   1.732   0.926   0.902
 8171SOL    HW225413   1.706   1.077   0.846
 8172SOL     OW25414   0.467   2.790   1.489
 8172SOL    HW125415   0.520   2.859   1.538
 8172SOL    HW225416   0.528   2.720   1.452
 8173SOL     OW25417   5.664   1.240   2.175
 8173SOL    HW125418   5.596   1.195   2.232
 8173SOL    HW225419   5.738   1.276   2.233
 8174SOL     OW25420   2.496   5.218   2.687
 8174SOL    HW125421   2.543   5.167   2.614
 8174SOL    HW225422   2.509   5.316   2.673
 8175SOL     OW25423   0.732   1.545   4.561
 8175SOL    HW125424   0.726   1.448   4.584
 8175SOL    HW225425   0.714   1.600   4.642
 8176SOL     OW25426   2.339   3.775   0.758
 8176SOL    HW125427   2.273   3.830   0.810
 8176SOL    HW225428   2.404   3.733   0.820
 8177SOL     OW25429   3.853   1.145   3.044
 8177SOL    HW125430   3.940   1.157   3.090
 8177SOL    HW225431   3.796   1.226   3.059
 8178SOL     OW25432   2.211   6.521   0.883
 8178SOL    HW125433   2.124   6.538   0.836
 8178SOL    HW225434   2.194   6.471   0.967
 8179SOL     OW25435   5.849   1.354   3.522
 8179SOL    HW125436   5.809   1.268   3.491
 8179SOL    HW225437   5.907   1.337   3.602
 8180SOL     OW25438   4.885   6.198   6.865
 8180SOL    HW125439   4.977   6.182   6.901
 8180SOL    HW225440   4.856   6.291   6.889
 8181SOL     OW25441   0.363   0.944   0.755
 8181SOL    HW125442   0.356   0.910   0.848
 8181SOL    HW225443   0.369   1.044   0.756
 8182SOL     OW25444   3.136   3.468   4.983
 8182SOL    HW125445   3.038   3.455   4.967
 8182SOL    HW225446   3.151   3.492   5.079
 8183SOL     OW25447   0.453   0.093   4.924
 8183SOL    HW125448   0.405   0.010   4.952
 8183SOL    HW225449   0.542   0.097   4.970
 8184SOL     OW25450   7.009   6.188   6.624
 8184SOL    HW125451   0.042   6.105   6.614
 8184SOL    HW225452   7.007   6.216   6.720
 8185SOL     OW25453   0.846   6.656   6.766
 8185SOL    HW125454   0.793   6.623   6.844
 8185SOL    HW225455   0.872   6.751   6.782
 8186SOL     OW25456   1.043   5.512   6.617
 8186SOL    HW125457   1.138   5.488   6.637
 8186SOL    HW225458   1.020   5.596   6.666
 8187SOL     OW25459   0.657   0.787   6.206
 8187SOL    HW125460   0.574   0.768   6.258
 8187SOL    HW225461   0.658   0.734   6.122
 8188SOL     OW25462   2.648   2.228   3.635
 8188SOL    HW125463   2.735   2.252   3.592
 8188SOL    HW225464   2.608   2.309   3.678
 8189SOL     OW25465   5.494   4.531   3.734
 8189SOL    HW125466   5.489   4.533   3.834
 8189SOL    HW225467   5.568   4.469   3.706
 8190SOL     OW25468   6.255   3.478   3.407
 8190SOL    HW125469   6.276   3.550   3.473
 8190SOL    HW225470   6.185   3.510   3.344
 8191SOL     OW25471   3.538   5.250   1.112
 8191SOL    HW125472   3.629   5.241   1.072
 8191SOL    HW225473   3.536   5.329   1.174
 8192SOL     OW25474   1.095   5.152   4.018
 8192SOL    HW125475   1.050   5.070   3.982
 8192SOL    HW225476   1.027   5.224   4.032
 8193SOL     OW25477   0.728   4.127   5.105
 8193SOL    HW125478   0.686   4.037   5.101
 8193SOL    HW225479   0.744   4.152   5.200
 8194SOL     OW25480   4.692   6.499   1.706
 8194SOL    HW125481   4.732   6.572   1.762
 8194SOL    HW225482   4.593   6.512   1.700
 8195SOL     OW25483   5.510   6.480   3.256
 8195SOL    HW125484   5.495   6.568   3.211
 8195SOL    HW225485   5.511   6.492   3.355
 8196SOL     OW25486   4.967   0.204   0.196
 8196SOL    HW125487   4.982   0.195   0.294
 8196SOL    HW225488   4.904   0.281   0.179
 8197SOL     OW25489   4.819   1.841   2.651
 8197SOL    HW125490   4.909   1.798   2.647
 8197SOL    HW225491   4.751   1.780   2.610
 8198SOL     OW25492   2.001   0.628   2.608
 8198SOL    HW125493   1.983   0.573   2.689
 8198SOL    HW225494   2.021   0.567   2.531
 8199SOL     OW25495   5.581   3.078   5.551
 8199SOL    HW125496   5.488   3.045   5.568
 8199SOL    HW225497   5.580   3.142   5.474
 8200SOL     OW25498   4.543   2.560   1.210
 8200SOL    HW125499   4.562   2.625   1.284
 8200SOL    HW225500   4.470   2.596   1.152
 8201SOL     OW25501   6.642   6.998   5.237
 8201SOL    HW125502   6.642   6.915   5.293
 8201SOL    HW225503   6.547   0.001   5.214
 8202SOL     OW25504   1.153   6.501   1.846
 8202SOL    HW125505   1.249   6.480   1.860
 8202SOL    HW225506   1.142   6.599   1.827
 8203SOL     OW25507   1.071   3.549   1.129
 8203SOL    HW125508   1.063   3.450   1.143
 8203SOL    HW225509   1.074   3.569   1.031
 8204SOL     OW25510   3.995   3.118   1.436
 8204SOL    HW125511   4.084   3.072   1.439
 8204SOL    HW225512   3.922   3.052   1.449
 8205SOL     OW25513   1.428   3.602   0.981
 8205SOL    HW125514   1.452   3.542   0.905
 8205SOL    HW225515   1.461   3.695   0.962
 8206SOL     OW25516   3.875   0.737   7.009
 8206SOL    HW125517   3.887   0.836   6.999
 8206SOL    HW225518   3.777   0.716   7.010
 8207SOL     OW25519   3.798   2.887   4.509
 8207SOL    HW125520   3.840   2.879   4.600
 8207SOL    HW225521   3.702   2.860   4.515
 8208SOL     OW25522   1.854   1.066   0.580
 8208SOL    HW125523   1.805   1.056   0.667
 8208SOL    HW225524   1.942   1.110   0.597
 8209SOL     OW25525   6.647   0.978   5.501
 8209SOL    HW125526   6.647   0.892   5.551
 8209SOL    HW225527   6.559   0.990   5.455
 8210SOL     OW25528   1.304   2.785   6.899
 8210SOL    HW125529   1.310   2.685   6.907
 8210SOL    HW225530   1.340   2.827   6.982
 8211SOL     OW25531   2.790   4.427   0.690
 8211SOL    HW125532   2.812   4.427   0.592
 8211SOL    HW225533   2.868   4.391   0.741
 8212SOL     OW25534   1.535   2.544   3.421
 8212SOL    HW125535   1.514   2.462   3.475
 8212SOL    HW225536   1.609   2.594   3.465
 8213SOL     OW25537   6.954   5.314   1.773
 8213SOL    HW125538   6.978   5.217   1.770
 8213SOL    HW225539   6.997   5.357   1.852
 8214SOL     OW25540   5.018   4.351   3.187
 8214SOL    HW125541   4.957   4.292   3.240
 8214SOL    HW225542   5.075   4.404   3.249
 8215SOL     OW25543   3.265   5.176   4.704
 8215SOL    HW125544   3.212   5.092   4.704
 8215SOL    HW225545   3.205   5.254   4.724
 8216SOL     OW25546   4.472   4.460   3.477
 8216SOL    HW125547   4.431   4.490   3.563
 8216SOL    HW225548   4.505   4.366   3.487
 8217SOL     OW25549   2.517   6.493   0.320
 8217SOL    HW125550   2.420   6.515   0.324
 8217SOL    HW225551   2.570   6.563   0.367
 8218SOL     OW25552   0.247   1.414   6.989
 8218SOL    HW125553   0.173   1.474   7.018
 8218SOL    HW225554   0.288   1.449   6.905
 8219SOL     OW25555   5.926   2.139   6.527
 8219SOL    HW125556   5.973   2.208   6.472
 8219SOL    HW225557   5.949   2.153   6.624
 8220SOL     OW25558   3.450   3.432   3.043
 8220SOL    HW125559   3.534   3.468   3.002
 8220SOL    HW225560   3.459   3.332   3.053
 8221SOL     OW25561   5.435   5.966   3.611
 8221SOL    HW125562   5.465   6.043   3.556
 8221SOL    HW225563   5.417   5.996   3.704
 8222SOL     OW25564   5.707   1.571   2.152
 8222SOL    HW125565   5.660   1.513   2.219
 8222SOL    HW225566   5.740   1.654   2.198
 8223SOL     OW25567   0.438   4.668   5.861
 8223SOL    HW125568   0.434   4.569   5.876
 8223SOL    HW225569   0.386   4.714   5.932
 8224SOL     OW25570   1.186   2.866   3.382
 8224SOL    HW125571   1.155   2.771   3.388
 8224SOL    HW225572   1.108   2.925   3.365
 8225SOL     OW25573   4.842   1.268   6.612
 8225SOL    HW125574   4.928   1.282   6.660
 8225SOL    HW225575   4.776   1.226   6.675
 8226SOL     OW25576   5.278   0.841   0.906
 8226SOL    HW125577   5.266   0.806   0.813
 8226SOL    HW225578   5.203   0.810   0.963
 8227SOL     OW25579   6.441   2.965   3.364
 8227SOL    HW125580   6.526   3.018   3.365
 8227SOL    HW225581   6.458   2.876   3.320
 8228SOL     OW25582   6.334   2.985   4.862
 8228SOL    HW125583   6.237   3.008   4.874
 8228SOL    HW225584   6.351   2.965   4.766
 8229SOL     OW25585   3.627   5.363   6.904
 8229SOL    HW125586   3.723   5.340   6.885
 8229SOL    HW225587   3.581   5.386   6.818
 8230SOL     OW25588   5.335   0.385   4.565
 8230SOL    HW125589   5.257   0.428   4.612
 8230SOL    HW225590   5.415   0.387   4.625
 8231SOL     OW25591   5.207   5.456   0.880
 8231SOL    HW125592   5.254   5.518   0.944
 8231SOL    HW225593   5.137   5.404   0.928
 8232SOL     OW25594   3.754   2.085   0.159
 8232SOL    HW125595   3.766   2.160   0.094
 8232SOL    HW225596   3.805   2.005   0.127
 8233SOL     OW25597   0.752   5.137   6.179
 8233SOL    HW125598   0.690   5.090   6.117
 8233SOL    HW225599   0.833   5.081   6.194
 8234SOL     OW25600   2.976   2.672   6.791
 8234SOL    HW125601   2.984   2.646   6.888
 8234SOL    HW225602   2.975   2.589   6.735
 8235SOL     OW25603   4.009   3.503   1.218
 8235SOL    HW125604   3.958   3.554   1.287
 8235SOL    HW225605   3.971   3.411   1.209
 8236SOL     OW25606   6.067   2.938   0.143
 8236SOL    HW125607   6.150   2.931   0.089
 8236SOL    HW225608   6.058   2.858   0.202
 8237SOL     OW25609   3.765   5.771   5.170
 8237SOL    HW125610   3.848   5.761   5.115
 8237SOL    HW225611   3.786   5.828   5.250
 8238SOL     OW25612   2.098   3.344   6.438
 8238SOL    HW125613   2.050   3.322   6.353
 8238SOL    HW225614   2.194   3.363   6.418
 8239SOL     OW25615   0.004   1.568   5.669
 8239SOL    HW125616   7.016   1.648   5.729
 8239SOL    HW225617   6.940   1.551   5.622
 8240SOL     OW25618   3.574   4.075   2.753
 8240SOL    HW125619   3.659   4.095   2.705
 8240SOL    HW225620   3.526   4.000   2.708
 8241SOL     OW25621   3.274   6.870   0.196
 8241SOL    HW125622   3.316   6.941   0.252
 8241SOL    HW225623   3.309   6.877   0.102
 8242SOL     OW25624   0.956   4.495   5.529
 8242SOL    HW125625   0.957   4.432   5.451
 8242SOL    HW225626   0.863   4.502   5.566
 8243SOL     OW25627   0.472   3.128   5.317
 8243SOL    HW125628   0.509   3.202   5.261
 8243SOL    HW225629   0.511   3.041   5.286
 8244SOL     OW25630   0.701   6.474   3.948
 8244SOL    HW125631   0.739   6.386   3.921
 8244SOL    HW225632   0.753   6.547   3.904
 8245SOL     OW25633   4.344   2.023   1.107
 8245SOL    HW125634   4.374   1.989   1.196
 8245SOL    HW225635   4.420   2.021   1.043
 8246SOL     OW25636   6.113   3.527   6.226
 8246SOL    HW125637   6.069   3.595   6.286
 8246SOL    HW225638   6.055   3.511   6.146
 8247SOL     OW25639   0.937   0.133   1.672
 8247SOL    HW125640   1.002   0.098   1.739
 8247SOL    HW225641   0.977   0.212   1.625
 8248SOL     OW25642   5.479   4.030   3.937
 8248SOL    HW125643   5.532   3.972   3.999
 8248SOL    HW225644   5.438   3.974   3.865
 8249SOL     OW25645   1.874   4.613   3.966
 8249SOL    HW125646   1.913   4.563   4.043
 8249SOL    HW225647   1.934   4.605   3.887
 8250SOL     OW25648   3.914   3.955   2.824
 8250SOL    HW125649   3.998   3.900   2.830
 8250SOL    HW225650   3.876   3.967   2.916
 8251SOL     OW25651   5.440   1.714   5.067
 8251SOL    HW125652   5.491   1.628   5.062
 8251SOL    HW225653   5.502   1.791   5.054
 8252SOL     OW25654   1.934   2.894   6.138
 8252SOL    HW125655   2.017   2.946   6.157
 8252SOL    HW225656   1.932   2.812   6.196
 8253SOL     OW25657   3.289   2.757   5.193
 8253SOL    HW125658   3.246   2.676   5.233
 8253SOL    HW225659   3.293   2.830   5.262
 8254SOL     OW25660   4.129   4.765   3.641
 8254SOL    HW125661   4.184   4.845   3.617
 8254SOL    HW225662   4.189   4.690   3.666
 8255SOL     OW25663   4.293   5.706   3.899
 8255SOL    HW125664   4.300   5.762   3.981
 8255SOL    HW225665   4.199   5.673   3.888
 8256SOL     OW25666   5.944   1.746   4.301
 8256SOL    HW125667   5.899   1.776   4.385
 8256SOL    HW225668   5.883   1.684   4.250
 8257SOL     OW25669   5.567   4.908   3.146
 8257SOL    HW125670   5.642   4.962   3.109
 8257SOL    HW225671   5.598   4.814   3.162
 8258SOL     OW25672   3.710   1.207   0.082
 8258SOL    HW125673   3.670   1.265   0.153
 8258SOL    HW225674   3.684   1.243   7.013
 8259SOL     OW25675   3.528   1.966   3.342
 8259SOL    HW125676   3.453   2.033   3.343
 8259SOL    HW225677   3.544   1.933   3.435
 8260SOL     OW25678   2.889   0.088   0.993
 8260SOL    HW125679   2.881   0.171   0.936
 8260SOL    HW225680   2.896   0.115   1.089
 8261SOL     OW25681   5.444   1.408   1.167
 8261SOL    HW125682   5.465   1.332   1.105
 8261SOL    HW225683   5.517   1.476   1.164
 8262SOL     OW25684   1.097   2.710   1.788
 8262SOL    HW125685   1.148   2.775   1.845
 8262SOL    HW225686   1.159   2.644   1.748
 8263SOL     OW25687   6.162   1.426   1.317
 8263SOL    HW125688   6.091   1.418   1.248
 8263SOL    HW225689   6.236   1.362   1.297
 8264SOL     OW25690   1.599   5.798   2.611
 8264SOL    HW125691   1.604   5.755   2.700
 8264SOL    HW225692   1.519   5.859   2.607
 8265SOL     OW25693   1.774   0.678   1.992
 8265SOL    HW125694   1.839   0.689   1.917
 8265SOL    HW225695   1.720   0.762   2.002
 8266SOL     OW25696   2.928   6.674   2.379
 8266SOL    HW125697   3.004   6.738   2.390
 8266SOL    HW225698   2.848   6.723   2.344
 8267SOL     OW25699   1.411   3.457   1.479
 8267SOL    HW125700   1.480   3.388   1.456
 8267SOL    HW225701   1.441   3.546   1.444
 8268SOL     OW25702   2.303   6.797   5.751
 8268SOL    HW125703   2.227   6.860   5.735
 8268SOL    HW225704   2.358   6.831   5.827
 8269SOL     OW25705   5.568   1.536   0.843
 8269SOL    HW125706   5.567   1.523   0.942
 8269SOL    HW225707   5.474   1.532   0.808
 8270SOL     OW25708   3.470   6.579   3.988
 8270SOL    HW125709   3.471   6.655   3.923
 8270SOL    HW225710   3.398   6.593   4.055
 8271SOL     OW25711   6.963   1.904   2.911
 8271SOL    HW125712   6.912   1.970   2.857
 8271SOL    HW225713   6.946   1.920   3.009
 8272SOL     OW25714   4.221   0.676   2.631
 8272SOL    HW125715   4.238   0.701   2.535
 8272SOL    HW225716   4.212   0.577   2.638
 8273SOL     OW25717   2.288   0.237   1.107
 8273SOL    HW125718   2.229   0.316   1.123
 8273SOL    HW225719   2.320   0.200   1.194
 8274SOL     OW25720   4.752   5.444   2.974
 8274SOL    HW125721   4.761   5.361   2.919
 8274SOL    HW225722   4.793   5.521   2.925
 8275SOL     OW25723   4.675   1.701   6.233
 8275SOL    HW125724   4.745   1.691   6.163
 8275SOL    HW225725   4.698   1.777   6.294
 8276SOL     OW25726   1.598   2.334   4.794
 8276SOL    HW125727   1.537   2.413   4.806
 8276SOL    HW225728   1.671   2.338   4.862
 8277SOL     OW25729   6.925   0.103   6.767
 8277SOL    HW125730   6.826   0.089   6.773
 8277SOL    HW225731   6.949   0.190   6.810
 8278SOL     OW25732   2.476   1.684   0.054
 8278SOL    HW125733   2.550   1.738   0.014
 8278SOL    HW225734   2.392   1.699   0.002
 8279SOL     OW25735   0.491   6.428   4.117
 8279SOL    HW125736   0.421   6.499   4.127
 8279SOL    HW225737   0.543   6.446   4.033
 8280SOL     OW25738   3.381   2.487   6.234
 8280SOL    HW125739   3.370   2.474   6.135
 8280SOL    HW225740   3.430   2.572   6.252
 8281SOL     OW25741   0.365   5.969   1.638
 8281SOL    HW125742   0.460   5.950   1.661
 8281SOL    HW225743   0.349   6.067   1.637
 8282SOL     OW25744   5.006   3.143   5.840
 8282SOL    HW125745   4.916   3.117   5.876
 8282SOL    HW225746   5.078   3.096   5.892
 8283SOL     OW25747   1.313   4.117   6.287
 8283SOL    HW125748   1.387   4.177   6.318
 8283SOL    HW225749   1.295   4.135   6.190
 8284SOL     OW25750   6.792   4.619   1.900
 8284SOL    HW125751   6.791   4.597   1.997
 8284SOL    HW225752   6.804   4.718   1.888
 8285SOL     OW25753   4.093   3.257   4.825
 8285SOL    HW125754   4.052   3.246   4.915
 8285SOL    HW225755   4.039   3.323   4.771
 8286SOL     OW25756   6.524   2.226   6.034
 8286SOL    HW125757   6.612   2.184   6.055
 8286SOL    HW225758   6.539   2.309   5.980
 8287SOL     OW25759   0.901   5.792   4.490
 8287SOL    HW125760   0.824   5.830   4.439
 8287SOL    HW225761   0.868   5.755   4.577
 8288SOL     OW25762   2.228   2.868   2.679
 8288SOL    HW125763   2.163   2.925   2.729
 8288SOL    HW225764   2.281   2.813   2.743
 8289SOL     OW25765   1.101   0.545   0.492
 8289SOL    HW125766   1.047   0.513   0.570
 8289SOL    HW225767   1.198   0.531   0.510
 8290SOL     OW25768   6.287   1.879   0.854
 8290SOL    HW125769   6.216   1.848   0.791
 8290SOL    HW225770   6.269   1.844   0.946
 8291SOL     OW25771   4.086   6.787   6.135
 8291SOL    HW125772   4.141   6.857   6.180
 8291SOL    HW225773   4.147   6.721   6.090
 8292SOL     OW25774   2.818   6.631   0.146
 8292SOL    HW125775   2.841   6.582   0.230
 8292SOL    HW225776   2.867   6.718   0.144
 8293SOL     OW25777   4.232   6.795   5.805
 8293SOL    HW125778   4.141   6.759   5.784
 8293SOL    HW225779   4.289   6.792   5.723
 8294SOL     OW25780   6.024   2.869   6.250
 8294SOL    HW125781   6.040   2.967   6.261
 8294SOL    HW225782   6.111   2.821   6.247
 8295SOL     OW25783   5.445   4.077   1.926
 8295SOL    HW125784   5.515   4.147   1.910
 8295SOL    HW225785   5.449   4.008   1.854
 8296SOL     OW25786   1.419   5.628   0.046
 8296SOL    HW125787   1.356   5.705   0.036
 8296SOL    HW225788   1.485   5.648   0.119
 8297SOL     OW25789   6.186   2.410   3.371
 8297SOL    HW125790   6.207   2.316   3.344
 8297SOL    HW225791   6.259   2.471   3.342
 8298SOL     OW25792   4.929   1.276   1.794
 8298SOL    HW125793   4.866   1.231   1.730
 8298SOL    HW225794   4.956   1.211   1.866
 8299SOL     OW25795   6.693   3.162   2.209
 8299SOL    HW125796   6.619   3.162   2.142
 8299SOL    HW225797   6.773   3.208   2.171
 8300SOL     OW25798   0.903   4.429   5.257
 8300SOL    HW125799   0.854   4.505   5.214
 8300SOL    HW225800   0.839   4.375   5.312
 8301SOL     OW25801   4.591   2.689   1.467
 8301SOL    HW125802   4.528   2.628   1.516
 8301SOL    HW225803   4.582   2.782   1.503
 8302SOL     OW25804   5.953   6.804   6.526
 8302SOL    HW125805   5.944   6.889   6.475
 8302SOL    HW225806   5.869   6.750   6.517
 8303SOL     OW25807   0.873   0.116   4.765
 8303SOL    HW125808   0.805   0.048   4.737
 8303SOL    HW225809   0.935   0.134   4.689
 8304SOL     OW25810   0.623   3.756   6.771
 8304SOL    HW125811   0.545   3.698   6.797
 8304SOL    HW225812   0.618   3.775   6.673
 8305SOL     OW25813   3.174   5.139   3.854
 8305SOL    HW125814   3.215   5.223   3.889
 8305SOL    HW225815   3.153   5.150   3.757
 8306SOL     OW25816   0.665   2.632   5.155
 8306SOL    HW125817   0.752   2.620   5.107
 8306SOL    HW225818   0.674   2.600   5.249
 8307SOL     OW25819   3.187   5.484   0.791
 8307SOL    HW125820   3.178   5.507   0.694
 8307SOL    HW225821   3.186   5.567   0.846
 8308SOL     OW25822   4.058   0.092   1.563
 8308SOL    HW125823   4.030   0.174   1.613
 8308SOL    HW225824   3.977   0.042   1.532
 8309SOL     OW25825   5.800   6.177   2.574
 8309SOL    HW125826   5.752   6.258   2.608
 8309SOL    HW225827   5.799   6.106   2.644
 8310SOL     OW25828   0.680   4.924   0.689
 8310SOL    HW125829   0.673   4.835   0.646
 8310SOL    HW225830   0.727   4.915   0.777
 8311SOL     OW25831   6.895   0.640   6.354
 8311SOL    HW125832   6.972   0.702   6.373
 8311SOL    HW225833   6.891   0.569   6.425
 8312SOL     OW25834   5.209   6.809   1.678
 8312SOL    HW125835   5.180   6.752   1.754
 8312SOL    HW225836   5.146   6.798   1.601
 8313SOL     OW25837   3.593   1.776   2.845
 8313SOL    HW125838   3.678   1.793   2.896
 8313SOL    HW225839   3.606   1.801   2.749
 8314SOL     OW25840   5.744   0.231   1.620
 8314SOL    HW125841   5.743   0.331   1.614
 8314SOL    HW225842   5.778   0.193   1.534
 8315SOL     OW25843   4.924   3.098   0.684
 8315SOL    HW125844   4.849   3.162   0.701
 8315SOL    HW225845   4.933   3.083   0.586
 8316SOL     OW25846   1.436   4.581   0.595
 8316SOL    HW125847   1.413   4.595   0.691
 8316SOL    HW225848   1.481   4.663   0.559
 8317SOL     OW25849   2.021   4.385   2.769
 8317SOL    HW125850   2.088   4.336   2.825
 8317SOL    HW225851   1.950   4.321   2.739
 8318SOL     OW25852   3.754   1.732   5.153
 8318SOL    HW125853   3.681   1.716   5.087
 8318SOL    HW225854   3.725   1.702   5.244
 8319SOL     OW25855   3.734   0.929   5.232
 8319SOL    HW125856   3.643   0.943   5.193
 8319SOL    HW225857   3.740   0.972   5.322
 8320SOL     OW25858   2.849   4.677   1.207
 8320SOL    HW125859   2.920   4.642   1.268
 8320SOL    HW225860   2.770   4.706   1.261
 8321SOL     OW25861   0.674   1.137   0.271
 8321SOL    HW125862   0.711   1.202   0.338
 8321SOL    HW225863   0.591   1.176   0.229
 8322SOL     OW25864   0.192   0.061   0.155
 8322SOL    HW125865   0.206   0.158   0.175
 8322SOL    HW225866   0.240   0.036   0.071
 8323SOL     OW25867   1.167   0.905   2.766
 8323SOL    HW125868   1.083   0.933   2.813
 8323SOL    HW225869   1.243   0.963   2.796
 8324SOL     OW25870   5.966   0.890   2.306
 8324SOL    HW125871   5.924   0.875   2.396
 8324SOL    HW225872   6.061   0.919   2.318
 8325SOL     OW25873   3.657   2.982   3.832
 8325SOL    HW125874   3.694   2.964   3.924
 8325SOL    HW225875   3.626   3.077   3.827
 8326SOL     OW25876   4.285   3.364   5.701
 8326SOL    HW125877   4.339   3.395   5.623
 8326SOL    HW225878   4.302   3.423   5.780
 8327SOL     OW25879   5.421   2.724   6.037
 8327SOL    HW125880   5.405   2.630   6.009
 8327SOL    HW225881   5.519   2.744   6.032
 8328SOL     OW25882   2.378   3.253   6.372
 8328SOL    HW125883   2.384   3.153   6.368
 8328SOL    HW225884   2.354   3.288   6.281
 8329SOL     OW25885   0.021   2.919   5.143
 8329SOL    HW125886   0.044   2.956   5.233
 8329SOL    HW225887   0.030   2.820   5.144
 8330SOL     OW25888   1.688   6.758   0.518
 8330SOL    HW125889   1.730   6.677   0.558
 8330SOL    HW225890   1.629   6.802   0.585
 8331SOL     OW25891   3.256   0.542   1.321
 8331SOL    HW125892   3.187   0.542   1.394
 8331SOL    HW225893   3.214   0.511   1.236
 8332SOL     OW25894   4.795   5.046   1.870
 8332SOL    HW125895   4.757   5.029   1.961
 8332SOL    HW225896   4.823   4.959   1.830
 8333SOL     OW25897   0.552   6.116   0.239
 8333SOL    HW125898   0.495   6.038   0.215
 8333SOL    HW225899   0.585   6.160   0.155
 8334SOL     OW25900   6.433   1.797   3.986
 8334SOL    HW125901   6.358   1.757   4.040
 8334SOL    HW225902   6.477   1.725   3.932
 8335SOL     OW25903   6.184   5.117   5.779
 8335SOL    HW125904   6.284   5.111   5.775
 8335SOL    HW225905   6.152   5.080   5.866
 8336SOL     OW25906   0.232   1.698   2.139
 8336SOL    HW125907   0.262   1.769   2.202
 8336SOL    HW225908   0.154   1.649   2.178
 8337SOL     OW25909   1.048   6.184   2.572
 8337SOL    HW125910   1.059   6.157   2.477
 8337SOL    HW225911   1.136   6.179   2.619
 8338SOL     OW25912   1.965   5.306   1.117
 8338SOL    HW125913   1.992   5.303   1.213
 8338SOL    HW225914   1.987   5.219   1.073
 8339SOL     OW25915   5.623   0.929   2.807
 8339SOL    HW125916   5.590   0.942   2.713
 8339SOL    HW225917   5.567   0.860   2.852
 8340SOL     OW25918   4.839   3.637   0.743
 8340SOL    HW125919   4.884   3.571   0.803
 8340SOL    HW225920   4.807   3.715   0.796
 8341SOL     OW25921   1.594   0.121   1.006
 8341SOL    HW125922   1.524   0.188   0.983
 8341SOL    HW225923   1.662   0.117   0.933
 8342SOL     OW25924   3.664   0.827   1.050
 8342SOL    HW125925   3.630   0.742   1.010
 8342SOL    HW225926   3.720   0.876   0.983
 8343SOL     OW25927   1.221   5.806   6.284
 8343SOL    HW125928   1.159   5.729   6.272
 8343SOL    HW225929   1.221   5.836   6.379
 8344SOL     OW25930   4.420   6.151   5.858
 8344SOL    HW125931   4.328   6.190   5.863
 8344SOL    HW225932   4.488   6.224   5.860
 8345SOL     OW25933   6.044   1.370   3.326
 8345SOL    HW125934   6.021   1.420   3.242
 8345SOL    HW225935   5.966   1.371   3.388
 8346SOL     OW25936   2.439   4.678   0.835
 8346SOL    HW125937   2.410   4.662   0.930
 8346SOL    HW225938   2.519   4.738   0.835
 8347SOL     OW25939   2.764   6.552   5.189
 8347SOL    HW125940   2.746   6.554   5.090
 8347SOL    HW225941   2.722   6.632   5.232
 8348SOL     OW25942   1.107   0.668   1.460
 8348SOL    HW125943   1.149   0.585   1.497
 8348SOL    HW225944   1.077   0.651   1.366
 8349SOL     OW25945   5.994   3.786   0.842
 8349SOL    HW125946   5.916   3.723   0.842
 8349SOL    HW225947   5.965   3.874   0.805
 8350SOL     OW25948   6.387   0.994   5.391
 8350SOL    HW125949   6.363   0.900   5.368
 8350SOL    HW225950   6.422   1.041   5.310
 8351SOL     OW25951   3.185   6.176   3.988
 8351SOL    HW125952   3.200   6.225   3.902
 8351SOL    HW225953   3.263   6.116   4.007
 8352SOL     OW25954   6.711   6.694   2.176
 8352SOL    HW125955   6.663   6.662   2.258
 8352SOL    HW225956   6.661   6.770   2.136
 8353SOL     OW25957   6.377   3.747   2.304
 8353SOL    HW125958   6.331   3.802   2.374
 8353SOL    HW225959   6.313   3.726   2.230
 8354SOL     OW25960   2.993   1.463   6.933
 8354SOL    HW125961   2.930   1.523   6.982
 8354SOL    HW225962   2.946   1.425   6.852
 8355SOL     OW25963   3.116   0.366   0.335
 8355SOL    HW125964   3.176   0.430   0.383
 8355SOL    HW225965   3.032   0.354   0.387
 8356SOL     OW25966   1.160   5.846   0.245
 8356SOL    HW125967   1.246   5.890   0.272
 8356SOL    HW225968   1.158   5.753   0.280
 8357SOL     OW25969   3.473   5.433   4.569
 8357SOL    HW125970   3.434   5.429   4.477
 8357SOL    HW225971   3.415   5.381   4.632
 8358SOL     OW25972   1.712   2.475   5.684
 8358SOL    HW125973   1.621   2.447   5.714
 8358SOL    HW225974   1.763   2.394   5.655
 8359SOL     OW25975   4.465   5.192   4.273
 8359SOL    HW125976   4.388   5.128   4.281
 8359SOL    HW225977   4.479   5.215   4.177
 8360SOL     OW25978   4.428   0.211   3.111
 8360SOL    HW125979   4.367   0.197   3.033
 8360SOL    HW225980   4.421   0.305   3.142
 8361SOL     OW25981   1.492   1.482   2.760
 8361SOL    HW125982   1.416   1.435   2.805
 8361SOL    HW225983   1.489   1.579   2.784
 8362SOL     OW25984   2.360   2.478   0.322
 8362SOL    HW125985   2.261   2.482   0.335
 8362SOL    HW225986   2.406   2.487   0.410
 8363SOL     OW25987   1.207   2.637   0.868
 8363SOL    HW125988   1.189   2.589   0.954
 8363SOL    HW225989   1.304   2.632   0.847
 8364SOL     OW25990   6.063   3.611   3.257
 8364SOL    HW125991   6.120   3.675   3.207
 8364SOL    HW225992   5.992   3.660   3.308
 8365SOL     OW25993   1.621   3.449   0.515
 8365SOL    HW125994   1.647   3.403   0.600
 8365SOL    HW225995   1.623   3.384   0.439
 8366SOL     OW25996   4.653   6.339   2.748
 8366SOL    HW125997   4.563   6.371   2.779
 8366SOL    HW225998   4.662   6.354   2.650
 8367SOL     OW25999   4.799   6.255   3.715
 8367SOL    HW126000   4.798   6.285   3.620
 8367SOL    HW226001   4.792   6.334   3.775
 8368SOL     OW26002   2.534   5.189   5.806
 8368SOL    HW126003   2.453   5.245   5.822
 8368SOL    HW226004   2.601   5.242   5.754
 8369SOL     OW26005   2.133   1.093   0.151
 8369SOL    HW126006   2.046   1.104   0.103
 8369SOL    HW226007   2.208   1.122   0.091
 8370SOL     OW26008   1.298   1.909   6.410
 8370SOL    HW126009   1.389   1.875   6.388
 8370SOL    HW226010   1.240   1.905   6.328
 8371SOL     OW26011   1.157   2.797   0.603
 8371SOL    HW126012   1.128   2.807   0.508
 8371SOL    HW226013   1.204   2.709   0.613
 8372SOL     OW26014   6.874   0.235   2.408
 8372SOL    HW126015   6.922   0.217   2.322
 8372SOL    HW226016   6.887   0.157   2.470
 8373SOL     OW26017   1.399   6.191   5.734
 8373SOL    HW126018   1.495   6.205   5.759
 8373SOL    HW226019   1.385   6.219   5.639
 8374SOL     OW26020   6.652   0.762   0.039
 8374SOL    HW126021   6.667   0.810   0.126
 8374SOL    HW226022   6.730   0.778   7.001
 8375SOL     OW26023   3.180   6.316   6.242
 8375SOL    HW126024   3.198   6.264   6.325
 8375SOL    HW226025   3.267   6.331   6.193
 8376SOL     OW26026   2.859   0.321   3.849
 8376SOL    HW126027   2.777   0.278   3.887
 8376SOL    HW226028   2.938   0.260   3.862
 8377SOL     OW26029   6.377   5.269   1.516
 8377SOL    HW126030   6.290   5.224   1.534
 8377SOL    HW226031   6.396   5.268   1.418
 8378SOL     OW26032   5.188   3.367   2.854
 8378SOL    HW126033   5.180   3.456   2.899
 8378SOL    HW226034   5.097   3.328   2.840
 8379SOL     OW26035   6.301   3.515   1.869
 8379SOL    HW126036   6.236   3.457   1.820
 8379SOL    HW226037   6.328   3.591   1.809
 8380SOL     OW26038   5.698   1.708   2.483
 8380SOL    HW126039   5.708   1.807   2.484
 8380SOL    HW226040   5.734   1.670   2.569
 8381SOL     OW26041   1.293   5.130   4.320
 8381SOL    HW126042   1.213   5.185   4.344
 8381SOL    HW226043   1.275   5.034   4.342
 8382SOL     OW26044   1.290   2.266   2.722
 8382SOL    HW126045   1.388   2.248   2.717
 8382SOL    HW226046   1.241   2.180   2.739
 8383SOL     OW26047   2.746   2.455   6.747
 8383SOL    HW126048   2.724   2.543   6.789
 8383SOL    HW226049   2.702   2.450   6.657
 8384SOL     OW26050   0.103   6.169   1.567
 8384SOL    HW126051   0.109   6.164   1.467
 8384SOL    HW226052   0.191   6.196   1.605
 8385SOL     OW26053   5.071   2.390   2.507
 8385SOL    HW126054   5.088   2.449   2.586
 8385SOL    HW226055   4.999   2.325   2.530
 8386SOL     OW26056   0.570   4.313   2.918
 8386SOL    HW126057   0.559   4.214   2.910
 8386SOL    HW226058   0.482   4.355   2.941
 8387SOL     OW26059   0.997   1.850   1.474
 8387SOL    HW126060   1.066   1.840   1.402
 8387SOL    HW226061   0.909   1.815   1.441
 8388SOL     OW26062   3.118   6.502   1.491
 8388SOL    HW126063   3.118   6.408   1.458
 8388SOL    HW226064   3.046   6.514   1.559
 8389SOL     OW26065   5.164   3.149   2.044
 8389SOL    HW126066   5.262   3.133   2.030
 8389SOL    HW226067   5.150   3.243   2.075
 8390SOL     OW26068   4.577   2.095   5.563
 8390SOL    HW126069   4.490   2.069   5.520
 8390SOL    HW226070   4.647   2.027   5.540
 8391SOL     OW26071   6.538   0.415   0.605
 8391SOL    HW126072   6.476   0.363   0.546
 8391SOL    HW226073   6.490   0.440   0.689
 8392SOL     OW26074   5.656   3.148   4.209
 8392SOL    HW126075   5.623   3.127   4.301
 8392SOL    HW226076   5.584   3.127   4.143
 8393SOL     OW26077   5.074   0.105   2.025
 8393SOL    HW126078   5.028   0.194   2.032
 8393SOL    HW226079   5.120   0.098   1.937
 8394SOL     OW26080   6.063   3.784   2.658
 8394SOL    HW126081   5.980   3.734   2.637
 8394SOL    HW226082   6.125   3.726   2.711
 8395SOL     OW26083   2.616   1.158   4.850
 8395SOL    HW126084   2.619   1.159   4.750
 8395SOL    HW226085   2.585   1.069   4.882
 8396SOL     OW26086   4.450   5.286   4.638
 8396SOL    HW126087   4.534   5.277   4.585
 8396SOL    HW226088   4.467   5.346   4.717
 8397SOL     OW26089   6.337   1.006   3.746
 8397SOL    HW126090   6.424   0.989   3.792
 8397SOL    HW226091   6.262   0.975   3.804
 8398SOL     OW26092   5.149   2.216   5.824
 8398SOL    HW126093   5.097   2.247   5.744
 8398SOL    HW226094   5.096   2.233   5.906
 8399SOL     OW26095   0.302   5.921   0.282
 8399SOL    HW126096   0.227   5.865   0.248
 8399SOL    HW226097   0.271   5.975   0.360
 8400SOL     OW26098   1.367   2.259   4.293
 8400SOL    HW126099   1.338   2.265   4.198
 8400SOL    HW226100   1.288   2.270   4.353
 8401SOL     OW26101   3.063   0.262   5.793
 8401SOL    HW126102   2.967   0.257   5.764
 8401SOL    HW226103   3.100   0.169   5.799
 8402SOL     OW26104   4.311   0.994   5.932
 8402SOL    HW126105   4.238   1.042   5.980
 8402SOL    HW226106   4.349   0.923   5.992
 8403SOL     OW26107   6.117   4.835   4.861
 8403SOL    HW126108   6.108   4.802   4.955
 8403SOL    HW226109   6.130   4.934   4.862
 8404SOL     OW26110   2.145   1.989   6.614
 8404SOL    HW126111   2.126   2.068   6.672
 8404SOL    HW226112   2.213   2.014   6.545
 8405SOL     OW26113   3.933   1.055   5.097
 8405SOL    HW126114   3.913   1.130   5.034
 8405SOL    HW226115   3.849   1.027   5.144
 8406SOL     OW26116   5.299   0.836   6.406
 8406SOL    HW126117   5.229   0.907   6.391
 8406SOL    HW226118   5.277   0.784   6.488
 8407SOL     OW26119   3.765   6.456   3.362
 8407SOL    HW126120   3.736   6.360   3.367
 8407SOL    HW226121   3.748   6.500   3.451
 8408SOL     OW26122   5.507   0.363   1.313
 8408SOL    HW126123   5.543   0.270   1.318
 8408SOL    HW226124   5.409   0.362   1.332
 8409SOL     OW26125   4.321   2.366   2.181
 8409SOL    HW126126   4.409   2.410   2.163
 8409SOL    HW226127   4.271   2.353   2.095
 8410SOL     OW26128   6.972   1.799   1.959
 8410SOL    HW126129   6.903   1.809   2.031
 8410SOL    HW226130   0.011   1.878   1.960
 8411SOL     OW26131   1.285   5.949   0.610
 8411SOL    HW126132   1.341   6.003   0.673
 8411SOL    HW226133   1.228   5.885   0.662
 8412SOL     OW26134   2.651   2.953   0.051
 8412SOL    HW126135   2.650   3.018   6.998
 8412SOL    HW226136   2.746   2.932   0.077
 8413SOL     OW26137   4.176   5.154   5.469
 8413SOL    HW126138   4.131   5.092   5.533
 8413SOL    HW226139   4.249   5.204   5.515
 8414SOL     OW26140   1.193   1.530   2.934
 8414SOL    HW126141   1.164   1.462   2.867
 8414SOL    HW226142   1.227   1.484   3.016
 8415SOL     OW26143   2.608   0.496   4.577
 8415SOL    HW126144   2.696   0.536   4.602
 8415SOL    HW226145   2.565   0.458   4.659
 8416SOL     OW26146   6.673   1.796   5.049
 8416SOL    HW126147   6.666   1.838   4.958
 8416SOL    HW226148   6.582   1.783   5.087
 8417SOL     OW26149   0.900   3.470   4.969
 8417SOL    HW126150   0.948   3.533   5.031
 8417SOL    HW226151   0.967   3.410   4.925
 8418SOL     OW26152   1.000   5.843   2.728
 8418SOL    HW126153   1.046   5.910   2.785
 8418SOL    HW226154   0.959   5.772   2.786
 8419SOL     OW26155   5.262   0.779   4.115
 8419SOL    HW126156   5.312   0.839   4.176
 8419SOL    HW226157   5.263   0.816   4.022
 8420SOL     OW26158   3.314   6.740   2.068
 8420SOL    HW126159   3.217   6.762   2.074
 8420SOL    HW226160   3.352   6.731   2.160
 8421SOL     OW26161   4.082   6.131   6.365
 8421SOL    HW126162   3.997   6.184   6.362
 8421SOL    HW226163   4.086   6.069   6.286
 8422SOL     OW26164   4.652   2.715   3.080
 8422SOL    HW126165   4.590   2.637   3.076
 8422SOL    HW226166   4.644   2.759   3.169
 8423SOL     OW26167   5.700   4.513   5.831
 8423SOL    HW126168   5.652   4.426   5.831
 8423SOL    HW226169   5.795   4.499   5.802
 8424SOL     OW26170   2.087   6.956   3.331
 8424SOL    HW126171   2.012   0.000   3.321
 8424SOL    HW226172   2.139   6.952   3.246
 8425SOL     OW26173   3.247   3.914   3.562
 8425SOL    HW126174   3.317   3.848   3.533
 8425SOL    HW226175   3.274   4.006   3.533
 8426SOL     OW26176   3.617   2.856   1.913
 8426SOL    HW126177   3.582   2.940   1.872
 8426SOL    HW226178   3.632   2.871   2.011
 8427SOL     OW26179   2.941   3.768   3.900
 8427SOL    HW126180   2.949   3.774   3.801
 8427SOL    HW226181   2.884   3.843   3.933
 8428SOL     OW26182   0.186   0.494   0.830
 8428SOL    HW126183   0.198   0.591   0.851
 8428SOL    HW226184   0.120   0.484   0.756
 8429SOL     OW26185   1.475   5.669   6.277
 8429SOL    HW126186   1.553   5.711   6.232
 8429SOL    HW226187   1.393   5.722   6.259
 8430SOL     OW26188   4.259   5.829   4.407
 8430SOL    HW126189   4.289   5.758   4.470
 8430SOL    HW226190   4.173   5.869   4.439
 8431SOL     OW26191   3.037   3.335   6.248
 8431SOL    HW126192   3.034   3.266   6.175
 8431SOL    HW226193   2.950   3.384   6.252
 8432SOL     OW26194   6.372   5.669   6.530
 8432SOL    HW126195   6.307   5.742   6.550
 8432SOL    HW226196   6.358   5.635   6.437
 8433SOL     OW26197   4.936   2.591   0.857
 8433SOL    HW126198   4.848   2.585   0.809
 8433SOL    HW226199   4.923   2.570   0.954
 8434SOL     OW26200   2.374   5.487   5.483
 8434SOL    HW126201   2.404   5.392   5.489
 8434SOL    HW226202   2.383   5.520   5.389
 8435SOL     OW26203   5.180   0.924   2.905
 8435SOL    HW126204   5.106   0.864   2.935
 8435SOL    HW226205   5.189   1.001   2.967
 8436SOL     OW26206   2.279   6.964   2.857
 8436SOL    HW126207   2.290   6.924   2.948
 8436SOL    HW226208   2.277   0.042   2.865
 8437SOL     OW26209   2.280   2.835   2.258
 8437SOL    HW126210   2.317   2.916   2.213
 8437SOL    HW226211   2.300   2.754   2.203
 8438SOL     OW26212   1.695   4.525   2.840
 8438SOL    HW126213   1.761   4.496   2.910
 8438SOL    HW226214   1.635   4.449   2.818
 8439SOL     OW26215   5.798   6.075   3.663
 8439SOL    HW126216   5.892   6.081   3.694
 8439SOL    HW226217   5.782   5.985   3.621
 8440SOL     OW26218   1.899   1.409   3.320
 8440SOL    HW126219   1.880   1.468   3.398
 8440SOL    HW226220   1.879   1.314   3.343
 8441SOL     OW26221   5.768   0.193   5.578
 8441SOL    HW126222   5.695   0.149   5.525
 8441SOL    HW226223   5.797   0.133   5.652
 8442SOL     OW26224   3.961   1.210   5.784
 8442SOL    HW126225   4.049   1.207   5.833
 8442SOL    HW226226   3.955   1.296   5.733
 8443SOL     OW26227   1.357   4.821   3.578
 8443SOL    HW126228   1.400   4.742   3.535
 8443SOL    HW226229   1.396   4.834   3.670
 8444SOL     OW26230   4.741   5.892   3.477
 8444SOL    HW126231   4.705   5.801   3.454
 8444SOL    HW226232   4.724   5.911   3.573
 8445SOL     OW26233   3.484   6.444   7.006
 8445SOL    HW126234   3.531   6.522   6.964
 8445SOL    HW226235   3.385   6.455   6.995
 8446SOL     OW26236   0.500   5.917   5.303
 8446SOL    HW126237   0.569   5.983   5.334
 8446SOL    HW226238   0.453   5.952   5.222
 8447SOL     OW26239   3.821   1.519   2.707
 8447SOL    HW126240   3.731   1.494   2.744
 8447SOL    HW226241   3.813   1.601   2.652
 8448SOL     OW26242   4.591   6.793   3.092
 8448SOL    HW126243   4.651   6.733   3.040
 8448SOL    HW226244   4.630   6.808   3.183
 8449SOL     OW26245   1.832   2.290   3.059
 8449SOL    HW126246   1.883   2.346   2.994
 8449SOL    HW226247   1.854   2.319   3.152
 8450SOL     OW26248   6.796   0.464   0.061
 8450SOL    HW126249   6.717   0.500   0.110
 8450SOL    HW226250   6.857   0.539   0.036
 8451SOL     OW26251   4.932   2.075   1.435
 8451SOL    HW126252   4.968   2.003   1.376
 8451SOL    HW226253   4.985   2.079   1.520
 8452SOL     OW26254   5.120   1.969   4.864
 8452SOL    HW126255   5.035   2.018   4.883
 8452SOL    HW226256   5.165   1.944   4.950
 8453SOL     OW26257   0.830   5.740   0.112
 8453SOL    HW126258   0.810   5.787   0.026
 8453SOL    HW226259   0.790   5.792   0.188
 8454SOL     OW26260   0.886   4.426   0.406
 8454SOL    HW126261   0.973   4.377   0.417
 8454SOL    HW226262   0.815   4.380   0.461
 8455SOL     OW26263   1.136   0.610   2.620
 8455SOL    HW126264   1.045   0.574   2.640
 8455SOL    HW226265   1.136   0.709   2.630
 8456SOL     OW26266   5.790   1.618   3.564
 8456SOL    HW126267   5.693   1.620   3.590
 8456SOL    HW226268   5.815   1.525   3.536
 8457SOL     OW26269   6.006   6.152   4.594
 8457SOL    HW126270   5.928   6.174   4.536
 8457SOL    HW226271   6.052   6.069   4.560
 8458SOL     OW26272   6.531   0.164   6.771
 8458SOL    HW126273   6.569   0.072   6.765
 8458SOL    HW226274   6.462   0.167   6.844
 8459SOL     OW26275   1.339   5.719   3.015
 8459SOL    HW126276   1.426   5.767   3.006
 8459SOL    HW226277   1.313   5.680   2.927
 8460SOL     OW26278   3.266   3.914   5.070
 8460SOL    HW126279   3.290   3.983   5.002
 8460SOL    HW226280   3.204   3.953   5.138
 8461SOL     OW26281   6.164   3.380   4.427
 8461SOL    HW126282   6.104   3.424   4.494
 8461SOL    HW226283   6.146   3.419   4.337
 8462SOL     OW26284   2.435   2.257   1.778
 8462SOL    HW126285   2.525   2.285   1.811
 8462SOL    HW226286   2.396   2.189   1.840
 8463SOL     OW26287   5.803   0.743   2.549
 8463SOL    HW126288   5.870   0.671   2.566
 8463SOL    HW226289   5.714   0.714   2.584
 8464SOL     OW26290   5.776   2.768   4.303
 8464SOL    HW126291   5.799   2.785   4.398
 8464SOL    HW226292   5.815   2.840   4.245
 8465SOL     OW26293   1.625   2.616   0.613
 8465SOL    HW126294   1.565   2.659   0.681
 8465SOL    HW226295   1.720   2.633   0.637
 8466SOL     OW26296   0.705   6.069   3.501
 8466SOL    HW126297   0.754   6.153   3.479
 8466SOL    HW226298   0.651   6.084   3.584
 8467SOL     OW26299   2.873   5.644   0.945
 8467SOL    HW126300   2.795   5.707   0.946
 8467SOL    HW226301   2.956   5.694   0.921
 8468SOL     OW26302   4.490   1.690   6.703
 8468SOL    HW126303   4.538   1.765   6.748
 8468SOL    HW226304   4.552   1.646   6.638
 8469SOL     OW26305   3.306   2.629   6.685
 8469SOL    HW126306   3.377   2.569   6.647
 8469SOL    HW226307   3.323   2.643   6.782
 8470SOL     OW26308   2.938   3.361   6.849
 8470SOL    HW126309   2.878   3.307   6.907
 8470SOL    HW226310   2.882   3.413   6.783
 8471SOL     OW26311   3.669   0.905   3.671
 8471SOL    HW126312   3.602   0.890   3.599
 8471SOL    HW226313   3.692   1.002   3.676
 8472SOL     OW26314   1.515   6.538   4.529
 8472SOL    HW126315   1.429   6.513   4.484
 8472SOL    HW226316   1.584   6.468   4.509
 8473SOL     OW26317   6.917   5.344   6.780
 8473SOL    HW126318   7.015   5.326   6.769
 8473SOL    HW226319   6.868   5.257   6.784
 8474SOL     OW26320   3.409   3.822   1.551
 8474SOL    HW126321   3.356   3.845   1.632
 8474SOL    HW226322   3.361   3.752   1.498
 8475SOL     OW26323   5.772   1.607   2.742
 8475SOL    HW126324   5.762   1.705   2.757
 8475SOL    HW226325   5.721   1.557   2.811
 8476SOL     OW26326   4.519   0.598   1.969
 8476SOL    HW126327   4.566   0.606   2.057
 8476SOL    HW226328   4.577   0.548   1.905
 8477SOL     OW26329   2.761   0.850   0.968
 8477SOL    HW126330   2.846   0.809   0.936
 8477SOL    HW226331   2.690   0.781   0.970
 8478SOL     OW26332   1.237   0.308   5.555
 8478SOL    HW126333   1.266   0.284   5.462
 8478SOL    HW226334   1.246   0.228   5.614
 8479SOL     OW26335   5.973   0.971   0.935
 8479SOL    HW126336   6.000   1.032   0.861
 8479SOL    HW226337   5.980   1.019   1.022
 8480SOL     OW26338   3.160   1.073   1.600
 8480SOL    HW126339   3.161   1.120   1.512
 8480SOL    HW226340   3.073   1.024   1.611
 8481SOL     OW26341   3.739   1.015   4.167
 8481SOL    HW126342   3.702   1.047   4.254
 8481SOL    HW226343   3.666   0.974   4.112
 8482SOL     OW26344   1.626   6.647   2.157
 8482SOL    HW126345   1.667   6.670   2.246
 8482SOL    HW226346   1.583   6.557   2.163
 8483SOL     OW26347   3.828   5.889   0.989
 8483SOL    HW126348   3.887   5.810   0.999
 8483SOL    HW226349   3.745   5.864   0.940
 8484SOL     OW26350   0.545   5.084   4.721
 8484SOL    HW126351   0.566   5.173   4.761
 8484SOL    HW226352   0.453   5.087   4.680
 8485SOL     OW26353   2.124   3.360   6.911
 8485SOL    HW126354   2.090   3.301   6.837
 8485SOL    HW226355   2.194   3.421   6.875
 8486SOL     OW26356   5.652   0.875   2.287
 8486SOL    HW126357   5.750   0.872   2.307
 8486SOL    HW226358   5.605   0.806   2.341
 8487SOL     OW26359   5.033   0.498   1.019
 8487SOL    HW126360   5.031   0.416   1.076
 8487SOL    HW226361   5.026   0.473   0.923
 8488SOL     OW26362   5.148   3.506   4.003
 8488SOL    HW126363   5.203   3.425   4.021
 8488SOL    HW226364   5.051   3.482   4.004
 8489SOL     OW26365   4.832   4.558   1.588
 8489SOL    HW126366   4.909   4.564   1.524
 8489SOL    HW226367   4.748   4.585   1.541
 8490SOL     OW26368   4.462   5.147   2.942
 8490SOL    HW126369   4.454   5.125   2.845
 8490SOL    HW226370   4.390   5.212   2.968
 8491SOL     OW26371   2.244   0.656   2.423
 8491SOL    HW126372   2.262   0.568   2.468
 8491SOL    HW226373   2.319   0.719   2.445
 8492SOL     OW26374   5.999   2.989   4.610
 8492SOL    HW126375   6.052   2.910   4.579
 8492SOL    HW226376   6.060   3.068   4.620
 8493SOL     OW26377   4.083   1.541   6.292
 8493SOL    HW126378   4.171   1.581   6.317
 8493SOL    HW226379   4.070   1.549   6.193
 8494SOL     OW26380   3.565   5.400   6.324
 8494SOL    HW126381   3.560   5.482   6.381
 8494SOL    HW226382   3.479   5.350   6.331
 8495SOL     OW26383   6.914   2.692   1.023
 8495SOL    HW126384   6.991   2.726   1.077
 8495SOL    HW226385   6.851   2.767   1.004
 8496SOL     OW26386   0.138   2.885   3.813
 8496SOL    HW126387   0.054   2.938   3.822
 8496SOL    HW226388   0.205   2.935   3.758
 8497SOL     OW26389   5.704   5.878   3.339
 8497SOL    HW126390   5.622   5.888   3.282
 8497SOL    HW226391   5.678   5.879   3.435
 8498SOL     OW26392   0.408   1.154   1.074
 8498SOL    HW126393   0.399   1.229   1.008
 8498SOL    HW226394   0.334   1.159   1.140
 8499SOL     OW26395   3.567   4.073   6.050
 8499SOL    HW126396   3.513   3.992   6.071
 8499SOL    HW226397   3.633   4.089   6.124
 8500SOL     OW26398   2.537   6.257   5.852
 8500SOL    HW126399   2.568   6.204   5.773
 8500SOL    HW226400   2.565   6.210   5.936
 8501SOL     OW26401   1.340   3.318   6.960
 8501SOL    HW126402   1.368   3.407   6.925
 8501SOL    HW226403   1.408   3.286   0.006
 8502SOL     OW26404   6.806   0.079   1.584
 8502SOL    HW126405   6.839   0.075   1.489
 8502SOL    HW226406   6.876   0.040   1.645
 8503SOL     OW26407   2.654   4.989   3.360
 8503SOL    HW126408   2.730   5.046   3.390
 8503SOL    HW226409   2.688   4.898   3.337
 8504SOL     OW26410   1.384   5.232   3.378
 8504SOL    HW126411   1.448   5.176   3.325
 8504SOL    HW226412   1.357   5.183   3.461
 8505SOL     OW26413   5.117   3.726   3.198
 8505SOL    HW126414   5.084   3.668   3.272
 8505SOL    HW226415   5.042   3.786   3.167
 8506SOL     OW26416   1.568   6.708   0.284
 8506SOL    HW126417   1.632   6.735   0.356
 8506SOL    HW226418   1.555   6.784   0.220
 8507SOL     OW26419   1.246   1.008   5.484
 8507SOL    HW126420   1.229   0.910   5.473
 8507SOL    HW226421   1.192   1.042   5.560
 8508SOL     OW26422   0.603   2.173   5.682
 8508SOL    HW126423   0.585   2.271   5.672
 8508SOL    HW226424   0.627   2.153   5.777
 8509SOL     OW26425   6.419   1.752   4.444
 8509SOL    HW126426   6.385   1.845   4.457
 8509SOL    HW226427   6.420   1.729   4.347
 8510SOL     OW26428   5.547   5.921   2.623
 8510SOL    HW126429   5.610   5.904   2.547
 8510SOL    HW226430   5.550   6.018   2.647
 8511SOL     OW26431   6.540   4.969   1.917
 8511SOL    HW126432   6.496   4.972   2.006
 8511SOL    HW226433   6.628   4.922   1.924
 8512SOL     OW26434   5.036   2.445   6.879
 8512SOL    HW126435   5.101   2.377   6.913
 8512SOL    HW226436   4.956   2.448   6.939
 8513SOL     OW26437   6.414   4.537   1.252
 8513SOL    HW126438   6.444   4.450   1.213
 8513SOL    HW226439   6.430   4.536   1.351
 8514SOL     OW26440   2.907   1.760   5.187
 8514SOL    HW126441   2.933   1.800   5.098
 8514SOL    HW226442   2.989   1.731   5.235
 8515SOL     OW26443   1.231   0.966   0.640
 8515SOL    HW126444   1.149   0.915   0.613
 8515SOL    HW226445   1.207   1.032   0.712
 8516SOL     OW26446   5.979   2.572   2.296
 8516SOL    HW126447   5.924   2.586   2.213
 8516SOL    HW226448   6.001   2.475   2.306
 8517SOL     OW26449   1.579   2.811   5.369
 8517SOL    HW126450   1.508   2.881   5.360
 8517SOL    HW226451   1.541   2.721   5.346
 8518SOL     OW26452   5.642   4.779   6.635
 8518SOL    HW126453   5.553   4.820   6.617
 8518SOL    HW226454   5.693   4.838   6.699
 8519SOL     OW26455   1.480   3.914   0.948
 8519SOL    HW126456   1.536   3.882   1.024
 8519SOL    HW226457   1.534   3.974   0.889
 8520SOL     OW26458   3.951   3.495   4.761
 8520SOL    HW126459   3.964   3.484   4.663
 8520SOL    HW226460   3.967   3.590   4.786
 8521SOL     OW26461   1.682   5.929   5.641
 8521SOL    HW126462   1.675   5.868   5.563
 8521SOL    HW226463   1.778   5.938   5.669
 8522SOL     OW26464   1.261   6.555   0.923
 8522SOL    HW126465   1.274   6.651   0.949
 8522SOL    HW226466   1.223   6.550   0.831
 8523SOL     OW26467   2.538   6.910   6.324
 8523SOL    HW126468   2.447   6.949   6.339
 8523SOL    HW226469   2.530   6.828   6.266
 8524SOL     OW26470   1.330   5.260   4.576
 8524SOL    HW126471   1.338   5.186   4.510
 8524SOL    HW226472   1.367   5.344   4.538
 8525SOL     OW26473   6.870   4.794   1.577
 8525SOL    HW126474   6.915   4.765   1.493
 8525SOL    HW226475   6.780   4.833   1.556
 8526SOL     OW26476   2.534   0.019   0.730
 8526SOL    HW126477   2.531   0.080   0.809
 8526SOL    HW226478   2.446   6.996   0.719
 8527SOL     OW26479   3.447   0.089   6.529
 8527SOL    HW126480   3.465   0.187   6.518
 8527SOL    HW226481   3.389   0.058   6.454
 8528SOL     OW26482   5.007   2.342   0.727
 8528SOL    HW126483   5.099   2.305   0.724
 8528SOL    HW226484   5.009   2.434   0.767
 8529SOL     OW26485   1.257   6.135   6.921
 8529SOL    HW126486   1.300   6.194   6.989
 8529SOL    HW226487   1.258   6.180   6.831
 8530SOL     OW26488   3.192   3.604   4.281
 8530SOL    HW126489   3.166   3.681   4.339
 8530SOL    HW226490   3.144   3.611   4.193
 8531SOL     OW26491   6.882   5.782   3.666
 8531SOL    HW126492   6.972   5.824   3.673
 8531SOL    HW226493   6.874   5.709   3.733
 8532SOL     OW26494   3.665   6.283   4.201
 8532SOL    HW126495   3.568   6.309   4.194
 8532SOL    HW226496   3.679   6.226   4.282
 8533SOL     OW26497   0.798   6.181   6.686
 8533SOL    HW126498   0.744   6.102   6.659
 8533SOL    HW226499   0.859   6.156   6.760
 8534SOL     OW26500   4.171   2.291   4.088
 8534SOL    HW126501   4.135   2.220   4.028
 8534SOL    HW226502   4.150   2.381   4.051
 8535SOL     OW26503   5.984   1.043   4.157
 8535SOL    HW126504   6.067   1.090   4.125
 8535SOL    HW226505   5.941   1.098   4.228
 8536SOL     OW26506   0.175   0.833   4.424
 8536SOL    HW126507   0.252   0.768   4.431
 8536SOL    HW226508   0.143   0.836   4.330
 8537SOL     OW26509   6.955   0.978   3.148
 8537SOL    HW126510   0.014   0.923   3.126
 8537SOL    HW226511   6.983   1.070   3.174
 8538SOL     OW26512   1.290   2.427   0.284
 8538SOL    HW126513   1.306   2.328   0.275
 8538SOL    HW226514   1.376   2.475   0.268
 8539SOL     OW26515   6.635   2.689   2.825
 8539SOL    HW126516   6.601   2.758   2.761
 8539SOL    HW226517   6.558   2.636   2.861
 8540SOL     OW26518   4.389   6.896   0.110
 8540SOL    HW126519   4.430   6.877   0.021
 8540SOL    HW226520   4.324   6.823   0.133
 8541SOL     OW26521   2.239   2.486   3.621
 8541SOL    HW126522   2.254   2.393   3.587
 8541SOL    HW226523   2.324   2.520   3.662
 8542SOL     OW26524   4.204   3.774   6.878
 8542SOL    HW126525   4.289   3.822   6.899
 8542SOL    HW226526   4.136   3.840   6.846
 8543SOL     OW26527   2.019   2.839   6.939
 8543SOL    HW126528   2.093   2.792   6.987
 8543SOL    HW226529   2.056   2.887   6.860
 8544SOL     OW26530   5.506   2.619   4.040
 8544SOL    HW126531   5.496   2.644   3.944
 8544SOL    HW226532   5.559   2.689   4.088
 8545SOL     OW26533   5.019   6.098   5.086
 8545SOL    HW126534   4.985   6.033   5.017
 8545SOL    HW226535   5.118   6.091   5.093
 8546SOL     OW26536   4.843   1.462   4.099
 8546SOL    HW126537   4.918   1.401   4.124
 8546SOL    HW226538   4.819   1.447   4.003
 8547SOL     OW26539   0.906   4.614   3.501
 8547SOL    HW126540   0.837   4.666   3.451
 8547SOL    HW226541   0.928   4.530   3.451
 8548SOL     OW26542   5.627   1.034   4.894
 8548SOL    HW126543   5.614   1.011   4.798
 8548SOL    HW226544   5.563   0.981   4.950
 8549SOL     OW26545   6.722   3.534   4.223
 8549SOL    HW126546   6.624   3.558   4.226
 8549SOL    HW226547   6.755   3.541   4.129
 8550SOL     OW26548   1.312   5.230   6.456
 8550SOL    HW126549   1.302   5.133   6.436
 8550SOL    HW226550   1.371   5.272   6.388
 8551SOL     OW26551   3.586   3.909   6.964
 8551SOL    HW126552   3.592   3.826   7.020
 8551SOL    HW226553   3.497   3.953   6.980
 8552SOL     OW26554   2.535   6.308   3.819
 8552SOL    HW126555   2.492   6.342   3.903
 8552SOL    HW226556   2.555   6.211   3.829
 8553SOL     OW26557   4.991   6.659   0.615
 8553SOL    HW126558   4.946   6.746   0.633
 8553SOL    HW226559   5.089   6.674   0.606
 8554SOL     OW26560   6.884   3.973   6.833
 8554SOL    HW126561   6.851   3.962   6.926
 8554SOL    HW226562   6.981   4.000   6.834
 8555SOL     OW26563   1.458   0.204   3.972
 8555SOL    HW126564   1.555   0.202   3.950
 8555SOL    HW226565   1.414   0.121   3.937
 8556SOL     OW26566   6.340   0.659   3.886
 8556SOL    HW126567   6.356   0.756   3.905
 8556SOL    HW226568   6.393   0.603   3.949
 8557SOL     OW26569   6.919   6.907   1.003
 8557SOL    HW126570   6.991   6.895   1.071
 8557SOL    HW226571   6.956   6.955   0.923
 8558SOL     OW26572   0.904   4.866   2.137
 8558SOL    HW126573   0.902   4.778   2.090
 8558SOL    HW226574   0.997   4.903   2.134
 8559SOL     OW26575   1.498   0.218   1.718
 8559SOL    HW126576   1.417   0.202   1.774
 8559SOL    HW226577   1.472   0.266   1.635
 8560SOL     OW26578   6.195   1.684   0.277
 8560SOL    HW126579   6.106   1.730   0.280
 8560SOL    HW226580   6.217   1.649   0.368
 8561SOL     OW26581   4.738   6.328   3.451
 8561SOL    HW126582   4.725   6.266   3.374
 8561SOL    HW226583   4.672   6.403   3.445
 8562SOL     OW26584   3.579   6.815   3.824
 8562SOL    HW126585   3.670   6.777   3.844
 8562SOL    HW226586   3.576   6.910   3.855
 8563SOL     OW26587   2.708   2.670   6.932
 8563SOL    HW126588   2.693   2.622   7.018
 8563SOL    HW226589   2.771   2.746   6.946
 8564SOL     OW26590   0.969   6.794   3.388
 8564SOL    HW126591   0.904   6.851   3.439
 8564SOL    HW226592   1.031   6.853   3.336
 8565SOL     OW26593   3.482   6.759   0.921
 8565SOL    HW126594   3.472   6.776   0.823
 8565SOL    HW226595   3.560   6.698   0.937
 8566SOL     OW26596   1.261   2.295   3.510
 8566SOL    HW126597   1.223   2.204   3.495
 8566SOL    HW226598   1.351   2.286   3.554
 8567SOL     OW26599   5.210   1.270   1.112
 8567SOL    HW126600   5.290   1.328   1.124
 8567SOL    HW226601   5.158   1.266   1.197
 8568SOL     OW26602   5.332   1.708   0.022
 8568SOL    HW126603   5.350   1.715   6.945
 8568SOL    HW226604   5.391   1.637   0.061
 8569SOL     OW26605   4.506   1.548   4.665
 8569SOL    HW126606   4.551   1.634   4.640
 8569SOL    HW226607   4.407   1.562   4.666
 8570SOL     OW26608   0.416   4.171   0.236
 8570SOL    HW126609   0.468   4.118   0.303
 8570SOL    HW226610   0.325   4.191   0.273
 8571SOL     OW26611   6.829   4.113   4.762
 8571SOL    HW126612   6.921   4.115   4.800
 8571SOL    HW226613   6.762   4.114   4.836
 8572SOL     OW26614   2.289   4.826   5.523
 8572SOL    HW126615   2.264   4.921   5.538
 8572SOL    HW226616   2.262   4.771   5.603
 8573SOL     OW26617   3.712   5.619   5.674
 8573SOL    HW126618   3.678   5.542   5.620
 8573SOL    HW226619   3.810   5.632   5.656
 8574SOL     OW26620   0.667   3.463   5.667
 8574SOL    HW126621   0.720   3.379   5.676
 8574SOL    HW226622   0.665   3.492   5.572
 8575SOL     OW26623   3.149   2.406   0.728
 8575SOL    HW126624   3.192   2.492   0.755
 8575SOL    HW226625   3.118   2.357   0.810
 8576SOL     OW26626   1.644   0.071   1.444
 8576SOL    HW126627   1.679   7.014   1.393
 8576SOL    HW226628   1.714   0.142   1.448
 8577SOL     OW26629   6.315   6.221   3.310
 8577SOL    HW126630   6.336   6.244   3.405
 8577SOL    HW226631   6.349   6.129   3.290
 8578SOL     OW26632   4.404   6.872   3.677
 8578SOL    HW126633   4.346   6.868   3.596
 8578SOL    HW226634   4.432   6.779   3.702
 8579SOL     OW26635   1.124   5.406   3.690
 8579SOL    HW126636   1.176   5.343   3.748
 8579SOL    HW226637   1.068   5.354   3.626
 8580SOL     OW26638   1.889   5.622   0.771
 8580SOL    HW126639   1.835   5.704   0.755
 8580SOL    HW226640   1.860   5.578   0.856
 8581SOL     OW26641   3.248   1.827   0.990
 8581SOL    HW126642   3.346   1.825   0.976
 8581SOL    HW226643   3.215   1.734   1.009
 8582SOL     OW26644   4.168   4.420   1.562
 8582SOL    HW126645   4.245   4.463   1.516
 8582SOL    HW226646   4.196   4.332   1.599
 8583SOL     OW26647   5.979   6.916   6.073
 8583SOL    HW126648   5.955   7.012   6.066
 8583SOL    HW226649   6.051   6.904   6.141
 8584SOL     OW26650   6.658   5.506   0.247
 8584SOL    HW126651   6.606   5.484   0.329
 8584SOL    HW226652   6.595   5.524   0.171
 8585SOL     OW26653   0.313   1.013   6.923
 8585SOL    HW126654   0.262   0.929   6.941
 8585SOL    HW226655   0.385   1.023   6.992
 8586SOL     OW26656   3.916   5.551   2.863
 8586SOL    HW126657   3.933   5.584   2.955
 8586SOL    HW226658   3.847   5.479   2.865
 8587SOL     OW26659   0.120   2.109   2.179
 8587SOL    HW126660   0.153   2.158   2.259
 8587SOL    HW226661   0.064   2.031   2.207
 8588SOL     OW26662   4.904   2.683   0.145
 8588SOL    HW126663   4.941   2.690   0.238
 8588SOL    HW226664   4.886   2.588   0.123
 8589SOL     OW26665   3.683   1.861   4.295
 8589SOL    HW126666   3.756   1.804   4.334
 8589SOL    HW226667   3.598   1.844   4.345
 8590SOL     OW26668   5.994   5.091   5.074
 8590SOL    HW126669   5.994   5.160   5.146
 8590SOL    HW226670   5.981   5.135   4.985
 8591SOL     OW26671   1.016   3.563   6.916
 8591SOL    HW126672   0.925   3.586   6.883
 8591SOL    HW226673   1.009   3.487   6.982
 8592SOL     OW26674   6.381   4.457   0.432
 8592SOL    HW126675   6.370   4.469   0.334
 8592SOL    HW226676   6.478   4.444   0.453
 8593SOL     OW26677   1.553   0.891   2.494
 8593SOL    HW126678   1.462   0.884   2.452
 8593SOL    HW226679   1.548   0.862   2.589
 8594SOL     OW26680   3.125   3.916   4.342
 8594SOL    HW126681   3.038   3.908   4.391
 8594SOL    HW226682   3.174   3.997   4.375
 8595SOL     OW26683   1.599   2.199   2.619
 8595SOL    HW126684   1.628   2.247   2.702
 8595SOL    HW226685   1.645   2.239   2.540
 8596SOL     OW26686   6.140   5.584   1.767
 8596SOL    HW126687   6.233   5.550   1.750
 8596SOL    HW226688   6.083   5.563   1.688
 8597SOL     OW26689   2.771   1.308   0.486
 8597SOL    HW126690   2.750   1.370   0.562
 8597SOL    HW226691   2.687   1.268   0.451
 8598SOL     OW26692   6.004   5.280   0.796
 8598SOL    HW126693   6.016   5.378   0.812
 8598SOL    HW226694   6.055   5.229   0.866
 8599SOL     OW26695   1.606   3.257   2.917
 8599SOL    HW126696   1.522   3.278   2.966
 8599SOL    HW226697   1.616   3.319   2.839
 8600SOL     OW26698   6.663   4.863   6.684
 8600SOL    HW126699   6.577   4.904   6.713
 8600SOL    HW226700   6.654   4.764   6.682
 8601SOL     OW26701   0.440   6.966   4.452
 8601SOL    HW126702   0.424   6.888   4.513
 8601SOL    HW226703   0.511   6.943   4.386
 8602SOL     OW26704   2.468   5.683   2.084
 8602SOL    HW126705   2.481   5.673   2.183
 8602SOL    HW226706   2.523   5.613   2.037
 8603SOL     OW26707   4.079   3.038   0.297
 8603SOL    HW126708   4.038   3.097   0.366
 8603SOL    HW226709   4.088   2.945   0.333
 8604SOL     OW26710   5.294   3.024   3.451
 8604SOL    HW126711   5.359   3.074   3.393
 8604SOL    HW226712   5.341   2.948   3.496
 8605SOL     OW26713   2.388   6.358   2.777
 8605SOL    HW126714   2.397   6.448   2.734
 8605SOL    HW226715   2.292   6.333   2.782
 8606SOL     OW26716   4.088   4.658   5.642
 8606SOL    HW126717   4.035   4.628   5.721
 8606SOL    HW226718   4.177   4.692   5.673
 8607SOL     OW26719   4.253   5.648   1.584
 8607SOL    HW126720   4.184   5.712   1.619
 8607SOL    HW226721   4.344   5.688   1.596
 8608SOL     OW26722   4.432   5.524   2.160
 8608SOL    HW126723   4.481   5.611   2.166
 8608SOL    HW226724   4.487   5.452   2.202
 8609SOL     OW26725   3.566   0.653   5.422
 8609SOL    HW126726   3.493   0.709   5.383
 8609SOL    HW226727   3.633   0.631   5.351
 8610SOL     OW26728   0.792   6.225   3.882
 8610SOL    HW126729   0.872   6.190   3.832
 8610SOL    HW226730   0.778   6.171   3.965
 8611SOL     OW26731   1.856   2.114   4.383
 8611SOL    HW126732   1.875   2.208   4.411
 8611SOL    HW226733   1.801   2.068   4.453
 8612SOL     OW26734   4.221   2.705   5.897
 8612SOL    HW126735   4.307   2.661   5.923
 8612SOL    HW226736   4.227   2.734   5.801
 8613SOL     OW26737   1.865   1.636   0.915
 8613SOL    HW126738   1.885   1.704   0.845
 8613SOL    HW226739   1.942   1.631   0.979
 8614SOL     OW26740   0.958   2.276   3.415
 8614SOL    HW126741   1.035   2.279   3.351
 8614SOL    HW226742   0.928   2.369   3.435
 8615SOL     OW26743   4.399   2.160   5.330
 8615SOL    HW126744   4.346   2.122   5.255
 8615SOL    HW226745   4.384   2.258   5.337
 8616SOL     OW26746   1.113   4.714   0.542
 8616SOL    HW126747   1.027   4.700   0.493
 8616SOL    HW226748   1.100   4.784   0.613
 8617SOL     OW26749   5.895   2.698   0.597
 8617SOL    HW126750   5.885   2.785   0.549
 8617SOL    HW226751   5.991   2.670   0.597
 8618SOL     OW26752   4.650   0.158   3.338
 8618SOL    HW126753   4.596   0.175   3.420
 8618SOL    HW226754   4.595   0.179   3.257
 8619SOL     OW26755   4.298   4.732   0.102
 8619SOL    HW126756   4.320   4.807   0.164
 8619SOL    HW226757   4.204   4.703   0.116
 8620SOL     OW26758   6.303   6.624   2.760
 8620SOL    HW126759   6.320   6.634   2.662
 8620SOL    HW226760   6.390   6.612   2.807
 8621SOL     OW26761   5.845   0.968   3.712
 8621SOL    HW126762   5.862   0.870   3.705
 8621SOL    HW226763   5.811   0.990   3.804
 8622SOL     OW26764   4.743   5.000   0.575
 8622SOL    HW126765   4.802   5.063   0.523
 8622SOL    HW226766   4.798   4.925   0.611
 8623SOL     OW26767   0.234   4.025   3.032
 8623SOL    HW126768   0.146   3.999   3.072
 8623SOL    HW226769   0.277   3.945   2.990
 8624SOL     OW26770   0.331   4.588   3.250
 8624SOL    HW126771   0.347   4.537   3.334
 8624SOL    HW226772   0.377   4.542   3.174
 8625SOL     OW26773   3.611   0.776   4.948
 8625SOL    HW126774   3.696   0.780   5.001
 8625SOL    HW226775   3.552   0.704   4.985
 8626SOL     OW26776   3.344   3.969   3.824
 8626SOL    HW126777   3.292   3.940   3.905
 8626SOL    HW226778   3.289   3.953   3.742
 8627SOL     OW26779   1.324   0.879   0.273
 8627SOL    HW126780   1.259   0.815   0.313
 8627SOL    HW226781   1.381   0.919   0.345
 8628SOL     OW26782   5.396   0.696   0.048
 8628SOL    HW126783   5.382   0.622   7.004
 8628SOL    HW226784   5.472   0.753   0.018
 8629SOL     OW26785   1.303   4.198   4.020
 8629SOL    HW126786   1.390   4.178   3.974
 8629SOL    HW226787   1.232   4.136   3.986
 8630SOL     OW26788   5.740   4.465   3.919
 8630SOL    HW126789   5.763   4.424   3.830
 8630SOL    HW226790   5.700   4.395   3.978
 8631SOL     OW26791   3.836   6.004   4.849
 8631SOL    HW126792   3.852   5.934   4.919
 8631SOL    HW226793   3.902   6.078   4.860
 8632SOL     OW26794   3.838   0.357   3.071
 8632SOL    HW126795   3.875   0.287   3.010
 8632SOL    HW226796   3.741   0.337   3.089
 8633SOL     OW26797   5.930   1.571   4.013
 8633SOL    HW126798   5.985   1.599   3.934
 8633SOL    HW226799   5.854   1.634   4.026
 8634SOL     OW26800   6.848   4.889   1.885
 8634SOL    HW126801   6.875   4.891   1.981
 8634SOL    HW226802   6.923   4.852   1.830
 8635SOL     OW26803   6.287   3.547   5.398
 8635SOL    HW126804   6.216   3.499   5.449
 8635SOL    HW226805   6.279   3.646   5.415
 8636SOL     OW26806   6.500   5.400   0.461
 8636SOL    HW126807   6.569   5.418   0.531
 8636SOL    HW226808   6.448   5.484   0.443
 8637SOL     OW26809   1.807   0.656   0.661
 8637SOL    HW126810   1.724   0.709   0.678
 8637SOL    HW226811   1.887   0.716   0.667
 8638SOL     OW26812   3.118   5.094   0.212
 8638SOL    HW126813   3.060   5.117   0.133
 8638SOL    HW226814   3.210   5.130   0.198
 8639SOL     OW26815   6.326   3.720   1.709
 8639SOL    HW126816   6.382   3.792   1.749
 8639SOL    HW226817   6.291   3.751   1.620
 8640SOL     OW26818   4.727   5.158   0.989
 8640SOL    HW126819   4.822   5.132   1.004
 8640SOL    HW226820   4.707   5.157   0.891
 8641SOL     OW26821   6.432   4.384   3.061
 8641SOL    HW126822   6.393   4.374   3.152
 8641SOL    HW226823   6.530   4.401   3.069
 8642SOL     OW26824   4.364   0.833   1.919
 8642SOL    HW126825   4.418   0.753   1.895
 8642SOL    HW226826   4.287   0.841   1.856
 8643SOL     OW26827   4.881   0.131   6.099
 8643SOL    HW126828   4.967   0.180   6.106
 8643SOL    HW226829   4.805   0.196   6.096
 8644SOL     OW26830   5.913   2.673   4.590
 8644SOL    HW126831   5.861   2.702   4.671
 8644SOL    HW226832   6.000   2.722   4.587
 8645SOL     OW26833   6.074   4.711   1.342
 8645SOL    HW126834   5.978   4.724   1.368
 8645SOL    HW226835   6.081   4.704   1.243
 8646SOL     OW26836   5.574   0.686   0.430
 8646SOL    HW126837   5.615   0.624   0.363
 8646SOL    HW226838   5.516   0.752   0.382
 8647SOL     OW26839   4.356   4.941   0.279
 8647SOL    HW126840   4.270   4.984   0.305
 8647SOL    HW226841   4.407   4.915   0.361
 8648SOL     OW26842   5.557   1.381   3.988
 8648SOL    HW126843   5.529   1.476   3.972
 8648SOL    HW226844   5.475   1.324   4.000
 8649SOL     OW26845   6.228   3.906   5.667
 8649SOL    HW126846   6.240   3.856   5.581
 8649SOL    HW226847   6.222   3.841   5.743
 8650SOL     OW26848   2.128   5.161   3.414
 8650SOL    HW126849   2.075   5.146   3.331
 8650SOL    HW226850   2.222   5.186   3.391
 8651SOL     OW26851   3.757   1.426   6.679
 8651SOL    HW126852   3.707   1.426   6.593
 8651SOL    HW226853   3.749   1.517   6.721
 8652SOL     OW26854   2.158   3.785   3.441
 8652SOL    HW126855   2.165   3.726   3.360
 8652SOL    HW226856   2.081   3.848   3.428
 8653SOL     OW26857   0.040   2.838   0.036
 8653SOL    HW126858   0.055   2.855   0.133
 8653SOL    HW226859   0.015   2.923   7.012
 8654SOL     OW26860   0.836   0.108   3.232
 8654SOL    HW126861   0.912   0.043   3.237
 8654SOL    HW226862   0.870   0.198   3.208
 8655SOL     OW26863   6.153   6.341   4.741
 8655SOL    HW126864   6.142   6.327   4.840
 8655SOL    HW226865   6.096   6.274   4.692
 8656SOL     OW26866   6.596   1.150   1.142
 8656SOL    HW126867   6.576   1.061   1.101
 8656SOL    HW226868   6.592   1.221   1.071
 8657SOL     OW26869   4.389   4.008   6.838
 8657SOL    HW126870   4.342   4.058   6.911
 8657SOL    HW226871   4.376   4.057   6.752
 8658SOL     OW26872   5.492   5.564   0.043
 8658SOL    HW126873   5.569   5.528   0.095
 8658SOL    HW226874   5.493   5.664   0.048
 8659SOL     OW26875   5.429   0.573   4.071
 8659SOL    HW126876   5.450   0.531   4.159
 8659SOL    HW226877   5.381   0.659   4.086
 8660SOL     OW26878   5.760   3.594   0.837
 8660SOL    HW126879   5.737   3.528   0.766
 8660SOL    HW226880   5.785   3.545   0.921
 8661SOL     OW26881   7.017   3.926   1.854
 8661SOL    HW126882   0.068   3.994   1.861
 8661SOL    HW226883   0.033   3.835   1.875
 8662SOL     OW26884   6.717   6.438   0.902
 8662SOL    HW126885   6.741   6.404   0.811
 8662SOL    HW226886   6.644   6.506   0.895
 8663SOL     OW26887   2.448   5.624   0.648
 8663SOL    HW126888   2.395   5.669   0.719
 8663SOL    HW226889   2.521   5.685   0.617
 8664SOL     OW26890   4.224   6.142   0.424
 8664SOL    HW126891   4.228   6.062   0.364
 8664SOL    HW226892   4.209   6.224   0.369
 8665SOL     OW26893   4.592   5.591   5.597
 8665SOL    HW126894   4.576   5.594   5.696
 8665SOL    HW226895   4.557   5.506   5.560
 8666SOL     OW26896   5.192   2.657   4.943
 8666SOL    HW126897   5.143   2.574   4.917
 8666SOL    HW226898   5.281   2.633   4.980
 8667SOL     OW26899   5.120   1.357   3.789
 8667SOL    HW126900   5.026   1.383   3.807
 8667SOL    HW226901   5.175   1.368   3.872
 8668SOL     OW26902   4.600   2.183   4.507
 8668SOL    HW126903   4.639   2.189   4.415
 8668SOL    HW226904   4.502   2.202   4.503
 8669SOL     OW26905   4.020   0.094   5.940
 8669SOL    HW126906   3.961   0.019   5.973
 8669SOL    HW226907   3.964   0.174   5.920
 8670SOL     OW26908   3.408   5.650   4.137
 8670SOL    HW126909   3.494   5.610   4.106
 8670SOL    HW226910   3.426   5.717   4.209
 8671SOL     OW26911   6.194   6.545   3.663
 8671SOL    HW126912   6.143   6.489   3.728
 8671SOL    HW226913   6.229   6.627   3.711
 8672SOL     OW26914   3.386   5.107   4.479
 8672SOL    HW126915   3.437   5.026   4.505
 8672SOL    HW226916   3.317   5.127   4.547
 8673SOL     OW26917   6.394   2.115   0.786
 8673SOL    HW126918   6.456   2.129   0.863
 8673SOL    HW226919   6.356   2.023   0.790
 8674SOL     OW26920   6.941   0.418   3.153
 8674SOL    HW126921   6.900   0.499   3.110
 8674SOL    HW226922   6.883   0.339   3.135
 8675SOL     OW26923   2.126   0.972   3.138
 8675SOL    HW126924   2.166   1.048   3.087
 8675SOL    HW226925   2.139   0.987   3.236
 8676SOL     OW26926   4.205   0.001   2.892
 8676SOL    HW126927   4.258   6.951   2.938
 8676SOL    HW226928   4.267   0.060   2.840
 8677SOL     OW26929   2.658   4.355   6.108
 8677SOL    HW126930   2.576   4.305   6.080
 8677SOL    HW226931   2.703   4.391   6.026
 8678SOL     OW26932   1.035   0.248   6.617
 8678SOL    HW126933   0.970   0.323   6.631
 8678SOL    HW226934   1.036   0.223   6.520
 8679SOL     OW26935   6.247   2.043   5.358
 8679SOL    HW126936   6.183   2.096   5.303
 8679SOL    HW226937   6.197   1.976   5.413
 8680SOL     OW26938   1.267   3.510   0.201
 8680SOL    HW126939   1.236   3.416   0.188
 8680SOL    HW226940   1.254   3.537   0.297
 8681SOL     OW26941   4.240   4.139   0.413
 8681SOL    HW126942   4.148   4.120   0.446
 8681SOL    HW226943   4.281   4.054   0.380
 8682SOL     OW26944   2.673   6.099   2.562
 8682SOL    HW126945   2.666   6.170   2.492
 8682SOL    HW226946   2.728   6.023   2.528
 8683SOL     OW26947   0.379   3.005   1.773
 8683SOL    HW126948   0.305   2.984   1.709
 8683SOL    HW226949   0.467   2.978   1.733
 8684SOL     OW26950   6.177   3.434   4.826
 8684SOL    HW126951   6.128   3.452   4.911
 8684SOL    HW226952   6.114   3.445   4.748
 8685SOL     OW26953   0.522   2.120   6.483
 8685SOL    HW126954   0.476   2.171   6.556
 8685SOL    HW226955   0.528   2.023   6.509
 8686SOL     OW26956   0.044   2.175   2.627
 8686SOL    HW126957   0.091   2.190   2.713
 8686SOL    HW226958   0.101   2.120   2.566
 8687SOL     OW26959   3.700   6.809   2.256
 8687SOL    HW126960   3.640   6.886   2.235
 8687SOL    HW226961   3.653   6.746   2.318
 8688SOL     OW26962   2.525   0.299   1.579
 8688SOL    HW126963   2.531   0.273   1.483
 8688SOL    HW226964   2.618   0.305   1.617
 8689SOL     OW26965   4.571   6.112   0.140
 8689SOL    HW126966   4.500   6.043   0.148
 8689SOL    HW226967   4.637   6.103   0.215
 8690SOL     OW26968   0.746   1.793   3.400
 8690SOL    HW126969   0.785   1.704   3.423
 8690SOL    HW226970   0.689   1.784   3.319
 8691SOL     OW26971   4.635   2.503   6.482
 8691SOL    HW126972   4.665   2.416   6.444
 8691SOL    HW226973   4.695   2.528   6.558
 8692SOL     OW26974   2.600   2.424   3.811
 8692SOL    HW126975   2.516   2.392   3.855
 8692SOL    HW226976   2.679   2.394   3.865
 8693SOL     OW26977   5.854   1.897   0.878
 8693SOL    HW126978   5.802   1.901   0.793
 8693SOL    HW226979   5.859   1.989   0.918
 8694SOL     OW26980   4.479   0.075   6.383
 8694SOL    HW126981   4.489   0.019   6.301
 8694SOL    HW226982   4.408   0.036   6.441
 8695SOL     OW26983   5.129   3.594   5.571
 8695SOL    HW126984   5.112   3.508   5.619
 8695SOL    HW226985   5.225   3.622   5.585
 8696SOL     OW26986   2.343   5.977   1.105
 8696SOL    HW126987   2.398   6.041   1.052
 8696SOL    HW226988   2.391   5.890   1.112
 8697SOL     OW26989   6.555   3.348   0.922
 8697SOL    HW126990   6.525   3.410   0.995
 8697SOL    HW226991   6.492   3.355   0.845
 8698SOL     OW26992   5.005   6.185   4.743
 8698SOL    HW126993   4.923   6.243   4.749
 8698SOL    HW226994   5.013   6.149   4.650
 8699SOL     OW26995   1.247   1.808   5.555
 8699SOL    HW126996   1.254   1.763   5.465
 8699SOL    HW226997   1.204   1.745   5.620
 8700SOL     OW26998   2.786   1.218   5.073
 8700SOL    HW126999   2.861   1.152   5.079
 8700SOL    HW227000   2.724   1.190   5.000
 8701SOL     OW27001   0.946   1.171   5.033
 8701SOL    HW127002   0.907   1.119   5.109
 8701SOL    HW227003   0.994   1.108   4.971
 8702SOL     OW27004   5.324   5.221   0.269
 8702SOL    HW127005   5.331   5.150   0.199
 8702SOL    HW227006   5.331   5.311   0.226
 8703SOL     OW27007   2.677   5.804   1.026
 8703SOL    HW127008   2.586   5.777   1.056
 8703SOL    HW227009   2.736   5.817   1.106
 8704SOL     OW27010   6.941   4.902   2.148
 8704SOL    HW127011   0.019   4.893   2.137
 8704SOL    HW227012   6.922   4.965   2.223
 8705SOL     OW27013   5.267   7.005   6.383
 8705SOL    HW127014   5.260   0.027   6.472
 8705SOL    HW227015   5.179   7.012   6.335
 8706SOL     OW27016   4.900   2.115   6.911
 8706SOL    HW127017   4.810   2.083   6.939
 8706SOL    HW227018   4.970   2.081   6.974
 8707SOL     OW27019   4.600   3.117   6.586
 8707SOL    HW127020   4.693   3.138   6.557
 8707SOL    HW227021   4.585   3.153   6.679
 8708SOL     OW27022   3.994   1.152   1.732
 8708SOL    HW127023   3.976   1.061   1.769
 8708SOL    HW227024   3.908   1.202   1.722
 8709SOL     OW27025   0.030   4.264   0.497
 8709SOL    HW127026   6.973   4.272   0.435
 8709SOL    HW227027   0.002   4.216   0.580
 8710SOL     OW27028   2.145   3.685   2.849
 8710SOL    HW127029   2.145   3.585   2.854
 8710SOL    HW227030   2.125   3.713   2.755
 8711SOL     OW27031   6.175   0.808   3.222
 8711SOL    HW127032   6.122   0.761   3.152
 8711SOL    HW227033   6.134   0.898   3.240
 8712SOL     OW27034   3.149   1.268   5.122
 8712SOL    HW127035   3.235   1.279   5.072
 8712SOL    HW227036   3.111   1.357   5.144
 8713SOL     OW27037   6.481   4.603   3.612
 8713SOL    HW127038   6.469   4.702   3.624
 8713SOL    HW227039   6.555   4.571   3.672
 8714SOL     OW27040   1.230   0.893   5.848
 8714SOL    HW127041   1.251   0.874   5.944
 8714SOL    HW227042   1.260   0.986   5.825
 8715SOL     OW27043   6.569   1.814   1.747
 8715SOL    HW127044   6.489   1.787   1.800
 8715SOL    HW227045   6.546   1.816   1.650
 8716SOL     OW27046   1.073   1.495   1.478
 8716SOL    HW127047   1.018   1.578   1.475
 8716SOL    HW227048   1.103   1.478   1.572
 8717SOL     OW27049   4.145   3.684   1.871
 8717SOL    HW127050   4.100   3.767   1.836
 8717SOL    HW227051   4.120   3.672   1.968
 8718SOL     OW27052   6.952   2.846   4.810
 8718SOL    HW127053   6.977   2.792   4.730
 8718SOL    HW227054   0.013   2.883   4.853
 8719SOL     OW27055   1.073   0.542   5.580
 8719SOL    HW127056   1.135   0.464   5.567
 8719SOL    HW227057   1.026   0.562   5.495
 8720SOL     OW27058   5.634   4.738   5.258
 8720SOL    HW127059   5.564   4.725   5.187
 8720SOL    HW227060   5.724   4.747   5.214
 8721SOL     OW27061   6.959   2.297   4.352
 8721SOL    HW127062   6.902   2.215   4.346
 8721SOL    HW227063   0.012   2.281   4.416
 8722SOL     OW27064   4.024   2.284   0.771
 8722SOL    HW127065   3.996   2.193   0.742
 8722SOL    HW227066   4.109   2.279   0.824
 8723SOL     OW27067   7.001   5.448   0.658
 8723SOL    HW127068   0.065   5.451   0.607
 8723SOL    HW227069   6.930   5.405   0.602
 8724SOL     OW27070   5.509   0.566   5.785
 8724SOL    HW127071   5.501   0.496   5.856
 8724SOL    HW227072   5.555   0.646   5.821
 8725SOL     OW27073   2.047   0.211   0.164
 8725SOL    HW127074   2.126   0.168   0.121
 8725SOL    HW227075   1.970   0.209   0.101
 8726SOL     OW27076   6.149   0.262   1.588
 8726SOL    HW127077   6.154   0.168   1.554
 8726SOL    HW227078   6.084   0.267   1.664
 8727SOL     OW27079   6.756   6.411   1.496
 8727SOL    HW127080   6.785   6.498   1.455
 8727SOL    HW227081   6.826   6.380   1.560
 8728SOL     OW27082   2.905   6.589   4.762
 8728SOL    HW127083   3.000   6.613   4.780
 8728SOL    HW227084   2.868   6.648   4.690
 8729SOL     OW27085   3.838   5.462   3.427
 8729SOL    HW127086   3.873   5.409   3.349
 8729SOL    HW227087   3.914   5.509   3.472
 8730SOL     OW27088   0.596   6.155   2.058
 8730SOL    HW127089   0.621   6.222   2.128
 8730SOL    HW227090   0.524   6.095   2.094
 8731SOL     OW27091   1.223   2.018   3.425
 8731SOL    HW127092   1.278   1.962   3.487
 8731SOL    HW227093   1.130   1.981   3.420
 8732SOL     OW27094   5.553   3.712   1.290
 8732SOL    HW127095   5.649   3.704   1.260
 8732SOL    HW227096   5.496   3.734   1.211
 8733SOL     OW27097   1.417   6.545   1.915
 8733SOL    HW127098   1.441   6.515   2.007
 8733SOL    HW227099   1.487   6.608   1.881
 8734SOL     OW27100   7.007   5.812   0.940
 8734SOL    HW127101   0.068   5.772   0.981
 8734SOL    HW227102   7.015   5.809   0.841
 8735SOL     OW27103   7.011   1.441   6.591
 8735SOL    HW127104   6.918   1.477   6.578
 8735SOL    HW227105   0.029   1.483   6.673
 8736SOL     OW27106   0.626   4.627   0.179
 8736SOL    HW127107   0.568   4.567   0.234
 8736SOL    HW227108   0.663   4.575   0.102
 8737SOL     OW27109   3.558   6.134   6.099
 8737SOL    HW127110   3.500   6.211   6.073
 8737SOL    HW227111   3.505   6.050   6.097
 8738SOL     OW27112   1.458   3.770   3.990
 8738SOL    HW127113   1.547   3.735   4.017
 8738SOL    HW227114   1.409   3.700   3.938
 8739SOL     OW27115   7.018   3.548   5.488
 8739SOL    HW127116   6.934   3.523   5.441
 8739SOL    HW227117   0.012   3.486   5.564
 8740SOL     OW27118   2.923   0.211   6.936
 8740SOL    HW127119   2.883   0.150   7.005
 8740SOL    HW227120   2.966   0.289   6.981
 8741SOL     OW27121   1.344   3.130   2.523
 8741SOL    HW127122   1.309   3.084   2.605
 8741SOL    HW227123   1.268   3.152   2.463
 8742SOL     OW27124   4.477   7.021   1.534
 8742SOL    HW127125   4.424   0.080   1.560
 8742SOL    HW227126   4.555   7.011   1.595
 8743SOL     OW27127   2.123   5.651   2.305
 8743SOL    HW127128   2.162   5.693   2.223
 8743SOL    HW227129   2.086   5.722   2.365
 8744SOL     OW27130   4.165   2.484   6.461
 8744SOL    HW127131   4.249   2.430   6.462
 8744SOL    HW227132   4.182   2.574   6.500
 8745SOL     OW27133   6.314   2.334   5.434
 8745SOL    HW127134   6.340   2.240   5.413
 8745SOL    HW227135   6.384   2.397   5.400
 8746SOL     OW27136   4.859   5.148   5.048
 8746SOL    HW127137   4.760   5.138   5.037
 8746SOL    HW227138   4.889   5.103   5.132
 8747SOL     OW27139   1.684   2.537   4.524
 8747SOL    HW127140   1.671   2.631   4.491
 8747SOL    HW227141   1.635   2.474   4.463
 8748SOL     OW27142   1.150   0.650   6.701
 8748SOL    HW127143   1.164   0.557   6.736
 8748SOL    HW227144   1.224   0.673   6.638
 8749SOL     OW27145   4.000   0.474   3.294
 8749SOL    HW127146   3.947   0.440   3.216
 8749SOL    HW227147   3.939   0.523   3.356
 8750SOL     OW27148   1.953   1.649   5.235
 8750SOL    HW127149   1.869   1.597   5.246
 8750SOL    HW227150   2.019   1.595   5.184
 8751SOL     OW27151   1.477   0.214   2.302
 8751SOL    HW127152   1.544   0.257   2.241
 8751SOL    HW227153   1.402   0.278   2.318
 8752SOL     OW27154   1.604   3.467   6.357
 8752SOL    HW127155   1.591   3.382   6.306
 8752SOL    HW227156   1.520   3.520   6.358
 8753SOL     OW27157   5.418   1.402   4.800
 8753SOL    HW127158   5.395   1.467   4.728
 8753SOL    HW227159   5.515   1.376   4.793
 8754SOL     OW27160   1.415   1.842   6.094
 8754SOL    HW127161   1.341   1.858   6.029
 8754SOL    HW227162   1.498   1.818   6.044
 8755SOL     OW27163   2.454   1.045   0.183
 8755SOL    HW127164   2.519   0.975   0.153
 8755SOL    HW227165   2.414   1.090   0.104
 8756SOL     OW27166   2.224   3.040   4.213
 8756SOL    HW127167   2.321   3.021   4.227
 8756SOL    HW227168   2.172   2.955   4.221
 8757SOL     OW27169   4.136   6.022   4.961
 8757SOL    HW127170   4.197   6.031   4.882
 8757SOL    HW227171   4.078   5.941   4.949
 8758SOL     OW27172   6.593   6.465   1.851
 8758SOL    HW127173   6.588   6.528   1.774
 8758SOL    HW227174   6.678   6.481   1.903
 8759SOL     OW27175   4.776   0.520   5.927
 8759SOL    HW127176   4.764   0.432   5.973
 8759SOL    HW227177   4.686   0.559   5.906
 8760SOL     OW27178   1.960   1.659   4.126
 8760SOL    HW127179   1.878   1.707   4.156
 8760SOL    HW227180   1.935   1.574   4.080
 8761SOL     OW27181   4.876   7.021   6.530
 8761SOL    HW127182   4.817   0.070   6.492
 8761SOL    HW227183   4.961   0.041   6.564
 8762SOL     OW27184   1.025   4.015   1.422
 8762SOL    HW127185   0.926   4.029   1.423
 8762SOL    HW227186   1.047   3.932   1.371
 8763SOL     OW27187   0.125   6.208   5.854
 8763SOL    HW127188   0.168   6.127   5.815
 8763SOL    HW227189   0.115   6.196   5.953
 8764SOL     OW27190   4.586   1.784   4.522
 8764SOL    HW127191   4.661   1.745   4.470
 8764SOL    HW227192   4.506   1.796   4.462
 8765SOL     OW27193   6.093   6.691   4.182
 8765SOL    HW127194   6.049   6.601   4.184
 8765SOL    HW227195   6.073   6.740   4.267
 8766SOL     OW27196   2.274   4.788   2.716
 8766SOL    HW127197   2.193   4.739   2.747
 8766SOL    HW227198   2.250   4.883   2.695
 8767SOL     OW27199   4.686   0.906   3.219
 8767SOL    HW127200   4.685   0.908   3.319
 8767SOL    HW227201   4.655   0.994   3.183
 8768SOL     OW27202   1.889   3.320   0.033
 8768SOL    HW127203   1.835   3.383   6.998
 8768SOL    HW227204   1.985   3.327   0.006
 8769SOL     OW27205   1.708   6.935   5.901
 8769SOL    HW127206   1.678   0.008   5.900
 8769SOL    HW227207   1.636   6.876   5.865
 8770SOL     OW27208   5.344   3.267   1.507
 8770SOL    HW127209   5.259   3.287   1.460
 8770SOL    HW227210   5.326   3.249   1.603
 8771SOL     OW27211   1.386   1.670   6.694
 8771SOL    HW127212   1.393   1.633   6.601
 8771SOL    HW227213   1.290   1.680   6.719
 8772SOL     OW27214   5.521   1.424   6.402
 8772SOL    HW127215   5.581   1.356   6.359
 8772SOL    HW227216   5.528   1.417   6.501
 8773SOL     OW27217   2.688   2.345   3.333
 8773SOL    HW127218   2.763   2.331   3.398
 8773SOL    HW227219   2.660   2.257   3.295
 8774SOL     OW27220   0.981   1.736   1.000
 8774SOL    HW127221   1.077   1.733   1.026
 8774SOL    HW227222   0.971   1.792   0.917
 8775SOL     OW27223   6.190   0.002   3.646
 8775SOL    HW127224   6.111   6.962   3.646
 8775SOL    HW227225   6.265   6.981   3.697
 8776SOL     OW27226   3.488   3.136   4.972
 8776SOL    HW127227   3.464   3.218   4.920
 8776SOL    HW227228   3.406   3.096   5.012
 8777SOL     OW27229   6.503   6.203   1.847
 8777SOL    HW127230   6.537   6.292   1.877
 8777SOL    HW227231   6.503   6.199   1.747
 8778SOL     OW27232   0.121   1.809   3.869
 8778SOL    HW127233   0.146   1.883   3.931
 8778SOL    HW227234   0.186   1.806   3.793
 8779SOL     OW27235   1.645   4.834   1.023
 8779SOL    HW127236   1.556   4.816   1.065
 8779SOL    HW227237   1.654   4.932   1.006
 8780SOL     OW27238   0.927   5.481   4.504
 8780SOL    HW127239   0.930   5.450   4.599
 8780SOL    HW227240   0.932   5.581   4.502
 8781SOL     OW27241   0.563   2.217   3.460
 8781SOL    HW127242   0.486   2.280   3.469
 8781SOL    HW227243   0.554   2.144   3.527
 8782SOL     OW27244   4.180   1.377   2.962
 8782SOL    HW127245   4.130   1.299   2.923
 8782SOL    HW227246   4.232   1.345   3.042
 8783SOL     OW27247   6.069   4.005   4.815
 8783SOL    HW127248   6.000   4.058   4.766
 8783SOL    HW227249   6.098   3.927   4.759
 8784SOL     OW27250   5.597   4.896   5.631
 8784SOL    HW127251   5.547   4.966   5.580
 8784SOL    HW227252   5.598   4.810   5.580
 8785SOL     OW27253   5.904   4.101   0.011
 8785SOL    HW127254   5.915   4.178   0.074
 8785SOL    HW227255   5.814   4.060   0.023
 8786SOL     OW27256   1.497   6.860   0.033
 8786SOL    HW127257   1.454   6.881   6.967
 8786SOL    HW227258   1.434   6.884   0.107
 8787SOL     OW27259   1.398   3.826   1.675
 8787SOL    HW127260   1.310   3.862   1.708
 8787SOL    HW227261   1.472   3.883   1.710
 8788SOL     OW27262   0.418   1.767   5.336
 8788SOL    HW127263   0.502   1.723   5.302
 8788SOL    HW227264   0.360   1.698   5.378
 8789SOL     OW27265   6.513   0.272   6.239
 8789SOL    HW127266   6.474   0.363   6.253
 8789SOL    HW227267   6.472   0.230   6.157
 8790SOL     OW27268   6.041   1.841   6.797
 8790SOL    HW127269   5.943   1.835   6.816
 8790SOL    HW227270   6.088   1.763   6.839
 8791SOL     OW27271   4.620   6.606   5.807
 8791SOL    HW127272   4.537   6.556   5.782
 8791SOL    HW227273   4.669   6.556   5.878
 8792SOL     OW27274   4.646   0.007   2.938
 8792SOL    HW127275   4.594   0.063   3.003
 8792SOL    HW227276   4.681   6.948   2.984
 8793SOL     OW27277   1.627   5.872   3.682
 8793SOL    HW127278   1.602   5.781   3.648
 8793SOL    HW227279   1.723   5.872   3.710
 8794SOL     OW27280   1.990   0.135   2.487
 8794SOL    HW127281   1.946   0.182   2.411
 8794SOL    HW227282   1.961   0.040   2.489
 8795SOL     OW27283   1.608   6.371   5.597
 8795SOL    HW127284   1.701   6.336   5.603
 8795SOL    HW227285   1.610   6.471   5.595
 8796SOL     OW27286   4.633   2.474   5.588
 8796SOL    HW127287   4.565   2.409   5.621
 8796SOL    HW227288   4.639   2.469   5.488
 8797SOL     OW27289   0.104   6.611   6.632
 8797SOL    HW127290   0.100   6.709   6.648
 8797SOL    HW227291   0.080   6.592   6.537
 8798SOL     OW27292   5.309   3.699   5.268
 8798SOL    HW127293   5.289   3.755   5.349
 8798SOL    HW227294   5.227   3.689   5.213
 8799SOL     OW27295   2.904   5.216   3.046
 8799SOL    HW127296   2.998   5.245   3.063
 8799SOL    HW227297   2.897   5.117   3.059
 8800SOL     OW27298   4.492   4.620   6.750
 8800SOL    HW127299   4.550   4.669   6.686
 8800SOL    HW227300   4.548   4.585   6.825
 8801SOL     OW27301   2.619   1.564   4.617
 8801SOL    HW127302   2.654   1.507   4.692
 8801SOL    HW227303   2.576   1.646   4.655
 8802SOL     OW27304   2.733   6.352   2.109
 8802SOL    HW127305   2.712   6.449   2.103
 8802SOL    HW227306   2.833   6.340   2.109
 8803SOL     OW27307   3.224   5.236   6.853
 8803SOL    HW127308   3.152   5.296   6.820
 8803SOL    HW227309   3.185   5.146   6.875
 8804SOL     OW27310   5.005   0.842   1.349
 8804SOL    HW127311   5.024   0.902   1.427
 8804SOL    HW227312   4.954   0.762   1.380
 8805SOL     OW27313   0.703   0.450   3.013
 8805SOL    HW127314   0.659   0.437   3.102
 8805SOL    HW227315   0.634   0.460   2.942
 8806SOL     OW27316   1.641   5.061   6.700
 8806SOL    HW127317   1.671   4.968   6.723
 8806SOL    HW227318   1.652   5.075   6.601
 8807SOL     OW27319   0.227   6.193   6.185
 8807SOL    HW127320   0.133   6.160   6.197
 8807SOL    HW227321   0.272   6.198   6.275
 8808SOL     OW27322   4.911   1.123   0.274
 8808SOL    HW127323   4.923   1.221   0.290
 8808SOL    HW227324   4.994   1.074   0.300
 8809SOL     OW27325   5.448   3.898   1.105
 8809SOL    HW127326   5.527   3.893   1.044
 8809SOL    HW227327   5.376   3.953   1.061
 8810SOL     OW27328   4.187   1.389   3.980
 8810SOL    HW127329   4.256   1.427   3.918
 8810SOL    HW227330   4.206   1.419   4.074
 8811SOL     OW27331   1.270   1.882   2.525
 8811SOL    HW127332   1.346   1.876   2.590
 8811SOL    HW227333   1.287   1.822   2.447
 8812SOL     OW27334   1.572   0.820   0.719
 8812SOL    HW127335   1.523   0.847   0.636
 8812SOL    HW227336   1.623   0.899   0.754
 8813SOL     OW27337   1.805   6.657   1.949
 8813SOL    HW127338   1.873   6.728   1.968
 8813SOL    HW227339   1.745   6.647   2.029
 8814SOL     OW27340   5.735   0.931   6.255
 8814SOL    HW127341   5.811   0.981   6.297
 8814SOL    HW227342   5.686   0.991   6.192
 8815SOL     OW27343   0.097   5.809   2.541
 8815SOL    HW127344   0.172   5.765   2.590
 8815SOL    HW227345   0.126   5.899   2.509
 8816SOL     OW27346   1.413   5.858   0.961
 8816SOL    HW127347   1.327   5.853   1.012
 8816SOL    HW227348   1.421   5.947   0.917
 8817SOL     OW27349   1.474   5.370   5.033
 8817SOL    HW127350   1.514   5.369   5.125
 8817SOL    HW227351   1.401   5.302   5.028
 8818SOL     OW27352   0.517   4.819   4.131
 8818SOL    HW127353   0.581   4.742   4.128
 8818SOL    HW227354   0.539   4.878   4.209
 8819SOL     OW27355   4.563   6.556   4.366
 8819SOL    HW127356   4.654   6.542   4.326
 8819SOL    HW227357   4.507   6.475   4.349
 8820SOL     OW27358   1.604   2.350   4.359
 8820SOL    HW127359   1.509   2.322   4.346
 8820SOL    HW227360   1.655   2.334   4.274
 8821SOL     OW27361   2.824   0.584   6.458
 8821SOL    HW127362   2.814   0.550   6.365
 8821SOL    HW227363   2.817   0.684   6.459
 8822SOL     OW27364   0.845   1.999   4.104
 8822SOL    HW127365   0.791   2.083   4.117
 8822SOL    HW227366   0.844   1.974   4.007
 8823SOL     OW27367   1.656   6.692   0.839
 8823SOL    HW127368   1.599   6.619   0.802
 8823SOL    HW227369   1.707   6.658   0.918
 8824SOL     OW27370   3.465   3.715   0.791
 8824SOL    HW127371   3.560   3.733   0.764
 8824SOL    HW227372   3.439   3.623   0.762
 8825SOL     OW27373   0.932   1.461   2.306
 8825SOL    HW127374   0.836   1.484   2.323
 8825SOL    HW227375   0.961   1.501   2.220
 8826SOL     OW27376   5.532   1.402   6.683
 8826SOL    HW127377   5.515   1.365   6.774
 8826SOL    HW227378   5.617   1.455   6.683
 8827SOL     OW27379   1.561   1.447   3.303
 8827SOL    HW127380   1.527   1.538   3.278
 8827SOL    HW227381   1.641   1.425   3.247
 8828SOL     OW27382   3.156   6.976   2.661
 8828SOL    HW127383   3.207   0.041   2.664
 8828SOL    HW227384   3.076   6.987   2.602
 8829SOL     OW27385   0.337   2.032   0.003
 8829SOL    HW127386   0.379   2.112   0.045
 8829SOL    HW227387   0.268   1.995   0.065
 8830SOL     OW27388   0.852   1.904   0.778
 8830SOL    HW127389   0.844   1.970   0.853
 8830SOL    HW227390   0.778   1.920   0.712
 8831SOL     OW27391   6.377   0.890   3.042
 8831SOL    HW127392   6.301   0.882   3.107
 8831SOL    HW227393   6.463   0.871   3.089
 8832SOL     OW27394   6.171   0.607   2.409
 8832SOL    HW127395   6.253   0.576   2.457
 8832SOL    HW227396   6.185   0.598   2.310
 8833SOL     OW27397   2.214   4.837   4.087
 8833SOL    HW127398   2.205   4.797   3.996
 8833SOL    HW227399   2.307   4.872   4.099
 8834SOL     OW27400   5.875   3.242   4.927
 8834SOL    HW127401   5.809   3.285   4.866
 8834SOL    HW227402   5.850   3.261   5.022
 8835SOL     OW27403   6.633   6.859   5.617
 8835SOL    HW127404   6.628   6.775   5.562
 8835SOL    HW227405   6.721   6.860   5.665
 8836SOL     OW27406   4.291   1.112   6.834
 8836SOL    HW127407   4.277   1.016   6.856
 8836SOL    HW227408   4.362   1.121   6.764
 8837SOL     OW27409   0.470   1.052   2.020
 8837SOL    HW127410   0.500   0.961   2.048
 8837SOL    HW227411   0.375   1.066   2.048
 8838SOL     OW27412   2.321   5.214   3.065
 8838SOL    HW127413   2.353   5.202   3.159
 8838SOL    HW227414   2.383   5.166   3.003
 8839SOL     OW27415   6.371   6.330   3.566
 8839SOL    HW127416   6.292   6.375   3.608
 8839SOL    HW227417   6.425   6.399   3.517
 8840SOL     OW27418   5.874   2.173   1.919
 8840SOL    HW127419   5.785   2.182   1.964
 8840SOL    HW227420   5.937   2.124   1.979
 8841SOL     OW27421   1.279   1.382   5.610
 8841SOL    HW127422   1.297   1.347   5.518
 8841SOL    HW227423   1.185   1.360   5.637
 8842SOL     OW27424   2.352   2.959   1.726
 8842SOL    HW127425   2.285   2.885   1.735
 8842SOL    HW227426   2.311   3.045   1.759
 8843SOL     OW27427   1.065   2.718   5.249
 8843SOL    HW127428   1.048   2.768   5.334
 8843SOL    HW227429   1.154   2.743   5.213
 8844SOL     OW27430   6.555   0.849   5.983
 8844SOL    HW127431   6.529   0.845   6.079
 8844SOL    HW227432   6.580   0.943   5.960
 8845SOL     OW27433   5.591   4.525   0.064
 8845SOL    HW127434   5.502   4.482   0.052
 8845SOL    HW227435   5.617   4.522   0.161
 8846SOL     OW27436   1.869   4.711   4.321
 8846SOL    HW127437   1.787   4.766   4.308
 8846SOL    HW227438   1.904   4.725   4.414
 8847SOL     OW27439   3.324   0.106   2.012
 8847SOL    HW127440   3.373   0.023   1.989
 8847SOL    HW227441   3.251   0.122   1.946
 8848SOL     OW27442   1.541   0.752   2.754
 8848SOL    HW127443   1.576   0.663   2.727
 8848SOL    HW227444   1.564   0.769   2.850
 8849SOL     OW27445   2.822   6.891   1.273
 8849SOL    HW127446   2.844   6.824   1.344
 8849SOL    HW227447   2.814   6.845   1.185
 8850SOL     OW27448   3.525   2.234   6.445
 8850SOL    HW127449   3.464   2.199   6.517
 8850SOL    HW227450   3.505   2.330   6.428
 8851SOL     OW27451   1.572   4.234   2.847
 8851SOL    HW127452   1.657   4.215   2.798
 8851SOL    HW227453   1.576   4.195   2.939
 8852SOL     OW27454   1.046   1.457   6.307
 8852SOL    HW127455   1.071   1.552   6.291
 8852SOL    HW227456   1.125   1.398   6.291
 8853SOL     OW27457   3.924   1.004   0.502
 8853SOL    HW127458   3.971   1.091   0.513
 8853SOL    HW227459   3.992   0.931   0.492
 8854SOL     OW27460   1.204   3.549   4.785
 8854SOL    HW127461   1.246   3.479   4.726
 8854SOL    HW227462   1.139   3.603   4.731
 8855SOL     OW27463   5.978   5.583   0.816
 8855SOL    HW127464   5.900   5.572   0.754
 8855SOL    HW227465   6.026   5.668   0.795
 8856SOL     OW27466   0.147   5.121   6.434
 8856SOL    HW127467   0.183   5.080   6.518
 8856SOL    HW227468   0.192   5.208   6.417
 8857SOL     OW27469   6.383   1.407   5.755
 8857SOL    HW127470   6.377   1.352   5.672
 8857SOL    HW227471   6.292   1.414   5.797
 8858SOL     OW27472   6.312   5.174   4.620
 8858SOL    HW127473   6.384   5.115   4.584
 8858SOL    HW227474   6.318   5.263   4.576
 8859SOL     OW27475   0.758   0.562   3.596
 8859SOL    HW127476   0.663   0.539   3.575
 8859SOL    HW227477   0.773   0.554   3.695
 8860SOL     OW27478   6.804   2.924   2.351
 8860SOL    HW127479   6.903   2.912   2.358
 8860SOL    HW227480   6.783   3.021   2.344
 8861SOL     OW27481   4.876   2.074   1.829
 8861SOL    HW127482   4.831   1.988   1.805
 8861SOL    HW227483   4.808   2.137   1.868
 8862SOL     OW27484   4.570   5.199   5.375
 8862SOL    HW127485   4.582   5.105   5.341
 8862SOL    HW227486   4.623   5.262   5.318
 8863SOL     OW27487   2.257   4.122   3.503
 8863SOL    HW127488   2.308   4.073   3.574
 8863SOL    HW227489   2.163   4.088   3.499
 8864SOL     OW27490   5.925   1.763   5.206
 8864SOL    HW127491   5.844   1.780   5.261
 8864SOL    HW227492   5.940   1.665   5.197
 8865SOL     OW27493   2.121   1.206   6.317
 8865SOL    HW127494   2.087   1.156   6.397
 8865SOL    HW227495   2.129   1.303   6.339
 8866SOL     OW27496   6.012   6.070   2.437
 8866SOL    HW127497   6.068   6.140   2.391
 8866SOL    HW227498   5.949   6.114   2.500
 8867SOL     OW27499   6.217   4.115   2.726
 8867SOL    HW127500   6.210   4.168   2.810
 8867SOL    HW227501   6.203   4.175   2.647
 8868SOL     OW27502   0.171   3.734   3.397
 8868SOL    HW127503   0.146   3.675   3.474
 8868SOL    HW227504   0.137   3.826   3.413
 8869SOL     OW27505   3.254   6.650   3.200
 8869SOL    HW127506   3.178   6.597   3.238
 8869SOL    HW227507   3.313   6.681   3.274
 8870SOL     OW27508   1.658   0.413   2.940
 8870SOL    HW127509   1.644   0.456   2.851
 8870SOL    HW227510   1.572   0.376   2.973
 8871SOL     OW27511   0.312   0.432   2.275
 8871SOL    HW127512   0.242   0.492   2.313
 8871SOL    HW227513   0.389   0.487   2.242
 8872SOL     OW27514   0.101   4.984   5.236
 8872SOL    HW127515   0.096   4.957   5.140
 8872SOL    HW227516   0.103   4.902   5.294
 8873SOL     OW27517   1.705   1.325   2.197
 8873SOL    HW127518   1.787   1.282   2.233
 8873SOL    HW227519   1.627   1.263   2.208
 8874SOL     OW27520   3.298   6.008   0.511
 8874SOL    HW127521   3.217   5.958   0.541
 8874SOL    HW227522   3.325   5.977   0.420
 8875SOL     OW27523   0.144   3.273   3.818
 8875SOL    HW127524   0.127   3.321   3.732
 8875SOL    HW227525   0.065   3.282   3.878
 8876SOL     OW27526   3.456   0.849   6.550
 8876SOL    HW127527   3.539   0.856   6.495
 8876SOL    HW227528   3.414   0.759   6.537
 8877SOL     OW27529   1.857   4.505   1.198
 8877SOL    HW127530   1.832   4.419   1.243
 8877SOL    HW227531   1.808   4.512   1.112
 8878SOL     OW27532   4.803   3.824   0.975
 8878SOL    HW127533   4.866   3.890   1.015
 8878SOL    HW227534   4.768   3.764   1.047
 8879SOL     OW27535   5.731   5.088   2.887
 8879SOL    HW127536   5.796   5.157   2.857
 8879SOL    HW227537   5.780   5.005   2.914
 8880SOL     OW27538   4.144   0.398   3.957
 8880SOL    HW127539   4.221   0.399   3.893
 8880SOL    HW227540   4.154   0.473   4.022
 8881SOL     OW27541   4.475   4.880   4.397
 8881SOL    HW127542   4.570   4.908   4.387
 8881SOL    HW227543   4.424   4.904   4.315
 8882SOL     OW27544   4.778   0.683   0.983
 8882SOL    HW127545   4.864   0.650   1.022
 8882SOL    HW227546   4.792   0.705   0.886
 8883SOL     OW27547   6.900   6.362   4.412
 8883SOL    HW127548   6.830   6.382   4.480
 8883SOL    HW227549   6.987   6.346   4.458
 8884SOL     OW27550   5.468   3.431   4.912
 8884SOL    HW127551   5.394   3.376   4.951
 8884SOL    HW227552   5.441   3.527   4.912
 8885SOL     OW27553   6.447   5.714   0.463
 8885SOL    HW127554   6.363   5.743   0.417
 8885SOL    HW227555   6.482   5.789   0.518
 8886SOL     OW27556   3.835   5.336   6.337
 8886SOL    HW127557   3.869   5.418   6.384
 8886SOL    HW227558   3.736   5.344   6.323
 8887SOL     OW27559   5.180   1.277   1.623
 8887SOL    HW127560   5.218   1.237   1.707
 8887SOL    HW227561   5.152   1.371   1.641
 8888SOL     OW27562   2.423   2.208   2.965
 8888SOL    HW127563   2.502   2.204   2.904
 8888SOL    HW227564   2.421   2.297   3.011
 8889SOL     OW27565   7.006   6.076   6.206
 8889SOL    HW127566   6.958   6.162   6.225
 8889SOL    HW227567   6.980   6.042   6.116
 8890SOL     OW27568   0.602   6.463   0.621
 8890SOL    HW127569   0.511   6.495   0.646
 8890SOL    HW227570   0.642   6.411   0.697
 8891SOL     OW27571   6.066   3.723   0.069
 8891SOL    HW127572   6.056   3.789   0.144
 8891SOL    HW227573   6.136   3.755   0.006
 8892SOL     OW27574   3.086   5.206   3.607
 8892SOL    HW127575   2.990   5.233   3.600
 8892SOL    HW227576   3.111   5.154   3.525
 8893SOL     OW27577   1.511   5.112   4.732
 8893SOL    HW127578   1.566   5.187   4.770
 8893SOL    HW227579   1.430   5.150   4.686
 8894SOL     OW27580   4.656   1.395   0.344
 8894SOL    HW127581   4.639   1.337   0.264
 8894SOL    HW227582   4.716   1.470   0.318
 8895SOL     OW27583   6.695   3.746   1.267
 8895SOL    HW127584   6.627   3.730   1.339
 8895SOL    HW227585   6.761   3.814   1.298
 8896SOL     OW27586   0.159   2.064   4.681
 8896SOL    HW127587   0.233   2.068   4.614
 8896SOL    HW227588   0.097   2.141   4.667
 8897SOL     OW27589   1.985   4.081   3.688
 8897SOL    HW127590   2.014   4.040   3.775
 8897SOL    HW227591   1.889   4.106   3.694
 8898SOL     OW27592   4.870   4.357   2.828
 8898SOL    HW127593   4.770   4.356   2.828
 8898SOL    HW227594   4.902   4.436   2.881
 8899SOL     OW27595   0.394   3.606   5.843
 8899SOL    HW127596   0.454   3.683   5.868
 8899SOL    HW227597   0.319   3.640   5.787
 8900SOL     OW27598   5.146   3.053   4.040
 8900SOL    HW127599   5.216   3.123   4.029
 8900SOL    HW227600   5.128   3.039   4.138
 8901SOL     OW27601   1.447   2.939   4.241
 8901SOL    HW127602   1.397   3.016   4.204
 8901SOL    HW227603   1.506   2.970   4.316
 8902SOL     OW27604   0.620   4.676   0.559
 8902SOL    HW127605   0.592   4.615   0.485
 8902SOL    HW227606   0.647   4.623   0.639
 8903SOL     OW27607   1.482   6.974   5.441
 8903SOL    HW127608   1.480   0.046   5.406
 8903SOL    HW227609   1.391   6.933   5.430
 8904SOL     OW27610   0.615   0.714   3.180
 8904SOL    HW127611   0.538   0.655   3.154
 8904SOL    HW227612   0.687   0.660   3.222
 8905SOL     OW27613   1.326   3.725   2.428
 8905SOL    HW127614   1.324   3.714   2.329
 8905SOL    HW227615   1.312   3.636   2.472
 8906SOL     OW27616   6.644   6.928   0.346
 8906SOL    HW127617   6.701   7.005   0.374
 8906SOL    HW227618   6.699   6.844   0.344
 8907SOL     OW27619   3.413   2.881   4.753
 8907SOL    HW127620   3.485   2.825   4.795
 8907SOL    HW227621   3.373   2.941   4.823
 8908SOL     OW27622   1.064   5.575   0.244
 8908SOL    HW127623   1.057   5.477   0.230
 8908SOL    HW227624   0.983   5.620   0.208
 8909SOL     OW27625   2.716   0.491   0.083
 8909SOL    HW127626   2.811   0.517   0.100
 8909SOL    HW227627   2.705   0.468   7.009
 8910SOL     OW27628   2.215   1.922   3.703
 8910SOL    HW127629   2.248   1.848   3.645
 8910SOL    HW227630   2.264   1.921   3.791
 8911SOL     OW27631   4.557   1.884   4.087
 8911SOL    HW127632   4.634   1.822   4.101
 8911SOL    HW227633   4.533   1.886   3.990
 8912SOL     OW27634   3.334   3.708   4.893
 8912SOL    HW127635   3.340   3.610   4.911
 8912SOL    HW227636   3.300   3.755   4.974
 8913SOL     OW27637   5.475   6.056   6.906
 8913SOL    HW127638   5.512   6.136   6.859
 8913SOL    HW227639   5.549   6.006   6.951
 8914SOL     OW27640   4.638   5.929   6.446
 8914SOL    HW127641   4.646   5.845   6.500
 8914SOL    HW227642   4.577   5.993   6.494
 8915SOL     OW27643   1.416   1.375   3.780
 8915SOL    HW127644   1.393   1.285   3.745
 8915SOL    HW227645   1.379   1.385   3.872
 8916SOL     OW27646   4.827   0.763   0.114
 8916SOL    HW127647   4.833   0.851   0.066
 8916SOL    HW227648   4.876   0.769   0.201
 8917SOL     OW27649   5.570   1.708   0.333
 8917SOL    HW127650   5.573   1.793   0.282
 8917SOL    HW227651   5.517   1.722   0.418
 8918SOL     OW27652   0.988   4.045   2.169
 8918SOL    HW127653   0.927   4.120   2.196
 8918SOL    HW227654   1.045   4.019   2.246
 8919SOL     OW27655   5.725   3.825   0.602
 8919SOL    HW127656   5.627   3.816   0.621
 8919SOL    HW227657   5.756   3.916   0.631
 8920SOL     OW27658   6.599   1.412   0.647
 8920SOL    HW127659   6.619   1.370   0.559
 8920SOL    HW227660   6.683   1.444   0.690
 8921SOL     OW27661   1.452   3.089   1.415
 8921SOL    HW127662   1.364   3.133   1.400
 8921SOL    HW227663   1.451   2.998   1.374
 8922SOL     OW27664   3.846   0.127   3.342
 8922SOL    HW127665   3.905   0.203   3.314
 8922SOL    HW227666   3.807   0.146   3.432
 8923SOL     OW27667   1.594   2.090   5.156
 8923SOL    HW127668   1.498   2.105   5.182
 8923SOL    HW227669   1.654   2.133   5.224
 8924SOL     OW27670   4.715   5.463   4.976
 8924SOL    HW127671   4.623   5.474   4.939
 8924SOL    HW227672   4.773   5.419   4.907
 8925SOL     OW27673   1.304   0.744   3.488
 8925SOL    HW127674   1.390   0.784   3.523
 8925SOL    HW227675   1.325   0.661   3.437
 8926SOL     OW27676   6.409   2.700   5.528
 8926SOL    HW127677   6.389   2.660   5.618
 8926SOL    HW227678   6.421   2.799   5.538
 8927SOL     OW27679   0.435   1.128   6.260
 8927SOL    HW127680   0.439   1.198   6.331
 8927SOL    HW227681   0.513   1.139   6.198
 8928SOL     OW27682   2.019   6.671   5.141
 8928SOL    HW127683   2.048   6.622   5.059
 8928SOL    HW227684   2.024   6.769   5.125
 8929SOL     OW27685   6.964   2.695   4.555
 8929SOL    HW127686   6.895   2.644   4.503
 8929SOL    HW227687   0.011   2.631   4.590
 8930SOL     OW27688   1.477   4.463   3.636
 8930SOL    HW127689   1.539   4.519   3.691
 8930SOL    HW227690   1.398   4.437   3.690
 8931SOL     OW27691   3.958   2.287   1.269
 8931SOL    HW127692   3.925   2.369   1.221
 8931SOL    HW227693   3.897   2.210   1.250
 8932SOL     OW27694   0.254   3.163   3.163
 8932SOL    HW127695   0.321   3.151   3.236
 8932SOL    HW227696   0.172   3.207   3.199
 8933SOL     OW27697   3.637   1.481   5.808
 8933SOL    HW127698   3.558   1.498   5.867
 8933SOL    HW227699   3.632   1.389   5.771
 8934SOL     OW27700   2.614   6.015   3.911
 8934SOL    HW127701   2.599   6.027   4.009
 8934SOL    HW227702   2.698   5.963   3.896
 8935SOL     OW27703   0.329   4.987   1.603
 8935SOL    HW127704   0.256   4.972   1.537
 8935SOL    HW227705   0.306   5.065   1.661
 8936SOL     OW27706   2.345   2.981   0.236
 8936SOL    HW127707   2.398   3.062   0.262
 8936SOL    HW227708   2.387   2.938   0.156
 8937SOL     OW27709   0.848   5.961   5.708
 8937SOL    HW127710   0.764   5.991   5.754
 8937SOL    HW227711   0.916   5.935   5.777
 8938SOL     OW27712   6.443   5.323   0.762
 8938SOL    HW127713   6.396   5.331   0.850
 8938SOL    HW227714   6.438   5.229   0.730
 8939SOL     OW27715   5.383   2.075   4.474
 8939SOL    HW127716   5.406   2.134   4.397
 8939SOL    HW227717   5.467   2.040   4.515
 8940SOL     OW27718   6.186   0.766   3.497
 8940SOL    HW127719   6.227   0.856   3.516
 8940SOL    HW227720   6.177   0.754   3.398
 8941SOL     OW27721   4.851   2.611   6.299
 8941SOL    HW127722   4.781   2.553   6.340
 8941SOL    HW227723   4.842   2.705   6.334
 8942SOL     OW27724   0.309   2.109   4.933
 8942SOL    HW127725   0.273   2.079   4.845
 8942SOL    HW227726   0.236   2.152   4.986
 8943SOL     OW27727   5.015   3.071   1.212
 8943SOL    HW127728   5.060   2.987   1.181
 8943SOL    HW227729   4.979   3.057   1.305
 8944SOL     OW27730   4.334   5.631   0.632
 8944SOL    HW127731   4.389   5.647   0.713
 8944SOL    HW227732   4.269   5.556   0.650
 8945SOL     OW27733   2.629   0.925   4.051
 8945SOL    HW127734   2.721   0.948   4.022
 8945SOL    HW227735   2.616   0.952   4.146
 8946SOL     OW27736   3.299   1.805   4.723
 8946SOL    HW127737   3.231   1.805   4.649
 8946SOL    HW227738   3.252   1.800   4.811
 8947SOL     OW27739   4.296   3.937   5.332
 8947SOL    HW127740   4.226   3.990   5.380
 8947SOL    HW227741   4.253   3.870   5.272
 8948SOL     OW27742   5.654   4.868   3.674
 8948SOL    HW127743   5.557   4.861   3.650
 8948SOL    HW227744   5.696   4.941   3.619
 8949SOL     OW27745   2.259   6.248   0.175
 8949SOL    HW127746   2.271   6.184   0.099
 8949SOL    HW227747   2.314   6.218   0.253
 8950SOL     OW27748   4.808   2.602   4.474
 8950SOL    HW127749   4.814   2.662   4.395
 8950SOL    HW227750   4.733   2.631   4.533
 8951SOL     OW27751   1.755   2.695   5.543
 8951SOL    HW127752   1.687   2.728   5.477
 8951SOL    HW227753   1.732   2.602   5.571
 8952SOL     OW27754   0.587   1.332   2.708
 8952SOL    HW127755   0.611   1.356   2.614
 8952SOL    HW227756   0.488   1.328   2.717
 8953SOL     OW27757   1.529   3.167   0.070
 8953SOL    HW127758   1.581   3.187   0.153
 8953SOL    HW227759   1.590   3.126   0.002
 8954SOL     OW27760   1.876   5.832   6.412
 8954SOL    HW127761   1.859   5.768   6.487
 8954SOL    HW227762   1.791   5.850   6.363
 8955SOL     OW27763   6.512   4.098   3.294
 8955SOL    HW127764   6.489   4.164   3.366
 8955SOL    HW227765   6.434   4.085   3.234
 8956SOL     OW27766   0.623   0.663   5.961
 8956SOL    HW127767   0.662   0.607   5.888
 8956SOL    HW227768   0.537   0.703   5.930
 8957SOL     OW27769   2.662   4.707   2.389
 8957SOL    HW127770   2.714   4.745   2.312
 8957SOL    HW227771   2.606   4.631   2.356
 8958SOL     OW27772   1.919   6.508   4.437
 8958SOL    HW127773   1.883   6.592   4.478
 8958SOL    HW227774   1.864   6.430   4.467
 8959SOL     OW27775   1.597   4.687   0.277
 8959SOL    HW127776   1.521   4.715   0.336
 8959SOL    HW227777   1.672   4.652   0.334
 8960SOL     OW27778   3.853   5.610   1.480
 8960SOL    HW127779   3.760   5.600   1.517
 8960SOL    HW227780   3.915   5.550   1.530
 8961SOL     OW27781   1.801   2.161   3.643
 8961SOL    HW127782   1.826   2.234   3.579
 8961SOL    HW227783   1.874   2.150   3.711
 8962SOL     OW27784   6.022   0.534   3.311
 8962SOL    HW127785   5.997   0.467   3.241
 8962SOL    HW227786   6.097   0.496   3.366
 8963SOL     OW27787   6.051   0.784   4.475
 8963SOL    HW127788   6.124   0.846   4.503
 8963SOL    HW227789   6.086   0.720   4.407
 8964SOL     OW27790   5.547   4.510   1.988
 8964SOL    HW127791   5.492   4.463   2.058
 8964SOL    HW227792   5.505   4.598   1.967
 8965SOL     OW27793   1.516   4.980   1.844
 8965SOL    HW127794   1.604   5.006   1.804
 8965SOL    HW227795   1.479   4.901   1.794
 8966SOL     OW27796   1.794   2.392   6.479
 8966SOL    HW127797   1.741   2.475   6.461
 8966SOL    HW227798   1.732   2.314   6.488
 8967SOL     OW27799   4.573   0.202   0.189
 8967SOL    HW127800   4.481   0.213   0.151
 8967SOL    HW227801   4.568   0.198   0.289
 8968SOL     OW27802   5.043   6.257   1.616
 8968SOL    HW127803   5.093   6.173   1.592
 8968SOL    HW227804   4.946   6.236   1.628
 8969SOL     OW27805   6.442   0.850   4.066
 8969SOL    HW127806   6.530   0.807   4.042
 8969SOL    HW227807   6.429   0.846   4.165
 8970SOL     OW27808   3.948   1.697   1.478
 8970SOL    HW127809   3.956   1.788   1.438
 8970SOL    HW227810   3.867   1.693   1.538
 8971SOL     OW27811   4.006   5.276   2.092
 8971SOL    HW127812   3.980   5.190   2.047
 8971SOL    HW227813   3.923   5.322   2.125
 8972SOL     OW27814   5.163   6.408   5.249
 8972SOL    HW127815   5.159   6.463   5.165
 8972SOL    HW227816   5.258   6.379   5.265
 8973SOL     OW27817   1.286   4.598   6.813
 8973SOL    HW127818   1.260   4.502   6.824
 8973SOL    HW227819   1.254   4.651   6.892
 8974SOL     OW27820   0.675   3.668   5.858
 8974SOL    HW127821   0.634   3.591   5.810
 8974SOL    HW227822   0.738   3.634   5.928
 8975SOL     OW27823   3.263   0.167   0.218
 8975SOL    HW127824   3.338   0.199   0.160
 8975SOL    HW227825   3.208   0.246   0.248
 8976SOL     OW27826   1.856   5.462   4.131
 8976SOL    HW127827   1.808   5.391   4.182
 8976SOL    HW227828   1.955   5.450   4.143
 8977SOL     OW27829   6.558   1.357   6.011
 8977SOL    HW127830   6.595   1.280   6.062
 8977SOL    HW227831   6.586   1.349   5.915
 8978SOL     OW27832   5.640   6.677   0.734
 8978SOL    HW127833   5.643   6.610   0.660
 8978SOL    HW227834   5.632   6.769   0.696
 8979SOL     OW27835   1.958   3.938   5.044
 8979SOL    HW127836   1.886   3.930   5.113
 8979SOL    HW227837   2.035   3.880   5.071
 8980SOL     OW27838   3.938   3.044   4.344
 8980SOL    HW127839   3.885   2.982   4.402
 8980SOL    HW227840   3.986   3.111   4.401
 8981SOL     OW27841   3.626   1.401   5.200
 8981SOL    HW127842   3.562   1.477   5.207
 8981SOL    HW227843   3.639   1.359   5.290
 8982SOL     OW27844   3.040   4.104   0.514
 8982SOL    HW127845   2.990   4.069   0.592
 8982SOL    HW227846   3.079   4.028   0.462
 8983SOL     OW27847   4.568   5.398   0.550
 8983SOL    HW127848   4.666   5.412   0.532
 8983SOL    HW227849   4.517   5.478   0.519
 8984SOL     OW27850   1.945   6.075   2.932
 8984SOL    HW127851   1.982   6.051   3.021
 8984SOL    HW227852   1.915   5.992   2.885
 8985SOL     OW27853   3.857   2.719   6.941
 8985SOL    HW127854   3.956   2.719   6.953
 8985SOL    HW227855   3.815   2.781   7.008
 8986SOL     OW27856   3.987   4.959   2.847
 8986SOL    HW127857   3.893   4.931   2.867
 8986SOL    HW227858   3.985   5.042   2.790
 8987SOL     OW27859   5.619   6.141   2.184
 8987SOL    HW127860   5.633   6.060   2.241
 8987SOL    HW227861   5.684   6.139   2.108
 8988SOL     OW27862   0.494   5.394   4.603
 8988SOL    HW127863   0.480   5.447   4.687
 8988SOL    HW227864   0.410   5.346   4.579
 8989SOL     OW27865   4.208   2.779   6.515
 8989SOL    HW127866   4.217   2.867   6.561
 8989SOL    HW227867   4.293   2.758   6.466
 8990SOL     OW27868   0.133   5.186   3.753
 8990SOL    HW127869   0.038   5.158   3.738
 8990SOL    HW227870   0.135   5.283   3.780
 8991SOL     OW27871   1.412   2.314   5.256
 8991SOL    HW127872   1.385   2.330   5.161
 8991SOL    HW227873   1.349   2.249   5.298
 8992SOL     OW27874   6.205   2.029   0.115
 8992SOL    HW127875   6.222   2.004   0.019
 8992SOL    HW227876   6.106   2.034   0.130
 8993SOL     OW27877   4.188   2.902   6.218
 8993SOL    HW127878   4.207   2.949   6.304
 8993SOL    HW227879   4.274   2.884   6.170
 8994SOL     OW27880   2.014   4.268   4.613
 8994SOL    HW127881   2.084   4.293   4.547
 8994SOL    HW227882   2.027   4.320   4.697
 8995SOL     OW27883   0.211   1.677   1.326
 8995SOL    HW127884   0.239   1.713   1.415
 8995SOL    HW227885   0.287   1.684   1.261
 8996SOL     OW27886   5.592   4.107   6.713
 8996SOL    HW127887   5.540   4.189   6.689
 8996SOL    HW227888   5.547   4.059   6.787
 8997SOL     OW27889   5.387   1.189   5.014
 8997SOL    HW127890   5.403   1.258   4.944
 8997SOL    HW227891   5.361   1.103   4.970
 8998SOL     OW27892   5.931   4.230   4.302
 8998SOL    HW127893   5.968   4.289   4.230
 8998SOL    HW227894   5.995   4.156   4.320
 8999SOL     OW27895   5.047   6.581   5.810
 8999SOL    HW127896   5.003   6.518   5.873
 8999SOL    HW227897   5.009   6.570   5.718
 9000SOL     OW27898   1.785   4.794   1.575
 9000SOL    HW127899   1.773   4.699   1.603
 9000SOL    HW227900   1.823   4.797   1.483
 9001SOL     OW27901   0.184   5.083   1.929
 9001SOL    HW127902   0.124   5.067   1.850
 9001SOL    HW227903   0.180   5.180   1.955
 9002SOL     OW27904   1.272   4.542   5.798
 9002SOL    HW127905   1.356   4.489   5.788
 9002SOL    HW227906   1.208   4.492   5.855
 9003SOL     OW27907   5.569   1.814   1.083
 9003SOL    HW127908   5.632   1.809   1.006
 9003SOL    HW227909   5.620   1.809   1.168
 9004SOL     OW27910   4.118   5.007   0.822
 9004SOL    HW127911   4.121   5.094   0.773
 9004SOL    HW227912   4.037   4.955   0.794
 9005SOL     OW27913   5.276   1.392   6.260
 9005SOL    HW127914   5.364   1.416   6.302
 9005SOL    HW227915   5.287   1.389   6.160
 9006SOL     OW27916   3.571   0.075   0.493
 9006SOL    HW127917   3.488   0.090   0.546
 9006SOL    HW227918   3.585   6.998   0.481
 9007SOL     OW27919   2.288   1.723   2.875
 9007SOL    HW127920   2.353   1.646   2.878
 9007SOL    HW227921   2.244   1.731   2.965
 9008SOL     OW27922   0.475   5.852   3.032
 9008SOL    HW127923   0.565   5.884   3.000
 9008SOL    HW227924   0.406   5.921   3.013
 9009SOL     OW27925   3.824   5.743   0.456
 9009SOL    HW127926   3.776   5.814   0.508
 9009SOL    HW227927   3.871   5.783   0.378
 9010SOL     OW27928   2.270   6.922   3.964
 9010SOL    HW127929   2.361   6.898   3.998
 9010SOL    HW227930   2.206   6.927   4.041
 9011SOL     OW27931   4.763   0.559   2.880
 9011SOL    HW127932   4.710   0.584   2.960
 9011SOL    HW227933   4.763   0.635   2.814
 9012SOL     OW27934   2.549   5.756   0.347
 9012SOL    HW127935   2.520   5.851   0.346
 9012SOL    HW227936   2.649   5.751   0.337
 9013SOL     OW27937   1.795   6.680   4.815
 9013SOL    HW127938   1.823   6.584   4.821
 9013SOL    HW227939   1.713   6.688   4.758
 9014SOL     OW27940   6.239   2.450   2.529
 9014SOL    HW127941   6.191   2.391   2.464
 9014SOL    HW227942   6.338   2.436   2.521
 9015SOL     OW27943   5.447   2.364   0.586
 9015SOL    HW127944   5.497   2.449   0.568
 9015SOL    HW227945   5.407   2.331   0.500
 9016SOL     OW27946   5.700   5.538   5.539
 9016SOL    HW127947   5.653   5.491   5.465
 9016SOL    HW227948   5.660   5.511   5.627
 9017SOL     OW27949   3.484   1.017   5.029
 9017SOL    HW127950   3.543   0.952   4.980
 9017SOL    HW227951   3.392   0.979   5.037
 9018SOL     OW27952   4.013   3.097   6.759
 9018SOL    HW127953   4.076   3.073   6.833
 9018SOL    HW227954   3.927   3.130   6.799
 9019SOL     OW27955   1.162   3.031   3.132
 9019SOL    HW127956   1.179   2.979   3.216
 9019SOL    HW227957   1.231   3.102   3.122
 9020SOL     OW27958   6.466   5.786   1.929
 9020SOL    HW127959   6.500   5.880   1.932
 9020SOL    HW227960   6.508   5.733   2.002
 9021SOL     OW27961   0.069   0.196   3.867
 9021SOL    HW127962   6.997   0.161   3.873
 9021SOL    HW227963   0.074   0.285   3.913
 9022SOL     OW27964   4.012   2.517   6.772
 9022SOL    HW127965   4.085   2.584   6.777
 9022SOL    HW227966   4.050   2.425   6.786
 9023SOL     OW27967   4.261   2.994   1.404
 9023SOL    HW127968   4.215   2.937   1.336
 9023SOL    HW227969   4.313   3.066   1.358
 9024SOL     OW27970   1.361   5.017   6.023
 9024SOL    HW127971   1.378   4.973   5.935
 9024SOL    HW227972   1.447   5.054   6.059
 9025SOL     OW27973   0.487   5.421   0.802
 9025SOL    HW127974   0.543   5.356   0.854
 9025SOL    HW227975   0.498   5.404   0.704
 9026SOL     OW27976   4.078   1.895   6.888
 9026SOL    HW127977   4.026   1.945   6.819
 9026SOL    HW227978   4.048   1.799   6.888
 9027SOL     OW27979   0.637   3.993   3.775
 9027SOL    HW127980   0.607   3.935   3.699
 9027SOL    HW227981   0.684   4.073   3.738
 9028SOL     OW27982   3.786   3.897   5.519
 9028SOL    HW127983   3.842   3.849   5.587
 9028SOL    HW227984   3.846   3.944   5.455
 9029SOL     OW27985   4.069   0.323   4.792
 9029SOL    HW127986   4.114   0.243   4.833
 9029SOL    HW227987   4.138   0.389   4.763
 9030SOL     OW27988   2.460   2.594   4.168
 9030SOL    HW127989   2.438   2.663   4.237
 9030SOL    HW227990   2.540   2.542   4.197
 9031SOL     OW27991   4.504   0.224   4.656
 9031SOL    HW127992   4.457   0.305   4.622
 9031SOL    HW227993   4.510   0.156   4.583
 9032SOL     OW27994   5.121   3.289   1.351
 9032SOL    HW127995   5.084   3.208   1.307
 9032SOL    HW227996   5.046   3.339   1.396
 9033SOL     OW27997   0.789   5.455   2.666
 9033SOL    HW127998   0.877   5.426   2.627
 9033SOL    HW227999   0.725   5.379   2.664
 9034SOL     OW28000   3.047   6.400   4.558
 9034SOL    HW128001   3.025   6.431   4.466
 9034SOL    HW228002   2.986   6.444   4.624
 9035SOL     OW28003   1.900   5.559   0.459
 9035SOL    HW128004   1.863   5.573   0.550
 9035SOL    HW228005   1.826   5.564   0.392
 9036SOL     OW28006   1.363   3.548   5.250
 9036SOL    HW128007   1.342   3.638   5.211
 9036SOL    HW228008   1.279   3.504   5.281
 9037SOL     OW28009   0.887   2.338   3.758
 9037SOL    HW128010   0.985   2.356   3.756
 9037SOL    HW228011   0.841   2.397   3.692
 9038SOL     OW28012   4.924   3.338   6.697
 9038SOL    HW128013   5.018   3.312   6.718
 9038SOL    HW228014   4.889   3.279   6.624
 9039SOL     OW28015   3.402   5.138   0.180
 9039SOL    HW128016   3.393   5.231   0.144
 9039SOL    HW228017   3.479   5.092   0.135
 9040SOL     OW28018   2.214   2.235   1.566
 9040SOL    HW128019   2.229   2.205   1.472
 9040SOL    HW228020   2.297   2.219   1.620
 9041SOL     OW28021   0.148   2.097   0.822
 9041SOL    HW128022   0.073   2.033   0.838
 9041SOL    HW228023   0.116   2.173   0.766
 9042SOL     OW28024   3.479   5.860   6.073
 9042SOL    HW128025   3.456   5.790   6.005
 9042SOL    HW228026   3.561   5.833   6.122
 9043SOL     OW28027   2.726   1.187   6.904
 9043SOL    HW128028   2.684   1.098   6.889
 9043SOL    HW228029   2.771   1.217   6.819
 9044SOL     OW28030   0.347   7.016   6.669
 9044SOL    HW128031   0.353   0.091   6.646
 9044SOL    HW228032   0.413   6.965   6.613
 9045SOL     OW28033   4.219   0.236   3.286
 9045SOL    HW128034   4.304   0.222   3.235
 9045SOL    HW228035   4.187   0.330   3.272
 9046SOL     OW28036   3.113   3.131   3.119
 9046SOL    HW128037   3.152   3.223   3.117
 9046SOL    HW228038   3.058   3.116   3.037
 9047SOL     OW28039   1.106   4.394   5.970
 9047SOL    HW128040   1.114   4.467   6.038
 9047SOL    HW228041   1.029   4.335   5.993
 9048SOL     OW28042   5.885   2.396   5.958
 9048SOL    HW128043   5.871   2.445   6.044
 9048SOL    HW228044   5.894   2.298   5.976
 9049SOL     OW28045   2.874   6.721   6.580
 9049SOL    HW128046   2.970   6.748   6.575
 9049SOL    HW228047   2.832   6.764   6.660
 9050SOL     OW28048   0.683   4.372   1.546
 9050SOL    HW128049   0.584   4.390   1.549
 9050SOL    HW228050   0.729   4.427   1.615
 9051SOL     OW28051   2.624   1.735   1.277
 9051SOL    HW128052   2.556   1.758   1.208
 9051SOL    HW228053   2.703   1.796   1.268
 9052SOL     OW28054   1.722   3.086   4.670
 9052SOL    HW128055   1.813   3.057   4.700
 9052SOL    HW228056   1.654   3.060   4.738
 9053SOL     OW28057   2.032   1.141   1.313
 9053SOL    HW128058   2.024   1.224   1.368
 9053SOL    HW228059   2.127   1.127   1.287
 9054SOL     OW28060   2.890   5.668   3.646
 9054SOL    HW128061   2.985   5.695   3.630
 9054SOL    HW228062   2.847   5.643   3.560
 9055SOL     OW28063   0.292   4.013   4.940
 9055SOL    HW128064   0.297   4.077   5.016
 9055SOL    HW228065   0.320   4.059   4.855
 9056SOL     OW28066   6.299   2.205   2.863
 9056SOL    HW128067   6.299   2.134   2.932
 9056SOL    HW228068   6.230   2.184   2.793
 9057SOL     OW28069   4.406   0.887   4.382
 9057SOL    HW128070   4.457   0.937   4.313
 9057SOL    HW228071   4.309   0.887   4.359
 9058SOL     OW28072   1.339   0.743   6.535
 9058SOL    HW128073   1.407   0.809   6.569
 9058SOL    HW228074   1.369   0.707   6.447
 9059SOL     OW28075   1.366   2.014   2.260
 9059SOL    HW128076   1.324   1.993   2.348
 9059SOL    HW228077   1.463   1.991   2.263
 9060SOL     OW28078   4.829   2.990   4.415
 9060SOL    HW128079   4.810   2.941   4.500
 9060SOL    HW228080   4.807   2.932   4.337
 9061SOL     OW28081   4.592   5.302   2.219
 9061SOL    HW128082   4.590   5.217   2.272
 9061SOL    HW228083   4.672   5.301   2.159
 9062SOL     OW28084   1.198   5.369   1.684
 9062SOL    HW128085   1.264   5.404   1.749
 9062SOL    HW228086   1.233   5.285   1.642
 9063SOL     OW28087   2.890   2.249   2.938
 9063SOL    HW128088   2.915   2.182   3.008
 9063SOL    HW228089   2.802   2.224   2.898
 9064SOL     OW28090   6.474   3.311   6.774
 9064SOL    HW128091   6.378   3.314   6.748
 9064SOL    HW228092   6.530   3.335   6.694
 9065SOL     OW28093   2.437   1.124   0.621
 9065SOL    HW128094   2.445   1.147   0.524
 9065SOL    HW228095   2.501   1.050   0.643
 9066SOL     OW28096   4.966   6.737   6.819
 9066SOL    HW128097   4.904   6.716   6.894
 9066SOL    HW228098   5.044   6.789   6.854
 9067SOL     OW28099   1.488   7.003   3.029
 9067SOL    HW128100   1.399   6.973   2.995
 9067SOL    HW228101   1.542   0.019   2.953
 9068SOL     OW28102   1.566   5.573   6.539
 9068SOL    HW128103   1.514   5.571   6.625
 9068SOL    HW228104   1.503   5.591   6.463
 9069SOL     OW28105   1.678   2.610   6.339
 9069SOL    HW128106   1.631   2.683   6.389
 9069SOL    HW228107   1.665   2.624   6.241
 9070SOL     OW28108   1.318   4.471   4.657
 9070SOL    HW128109   1.279   4.414   4.729
 9070SOL    HW228110   1.384   4.535   4.696
 9071SOL     OW28111   6.108   6.778   0.407
 9071SOL    HW128112   6.170   6.788   0.329
 9071SOL    HW228113   6.045   6.703   0.389
 9072SOL     OW28114   6.520   3.919   0.070
 9072SOL    HW128115   6.525   3.832   0.021
 9072SOL    HW228116   6.438   3.919   0.129
 9073SOL     OW28117   1.637   0.901   2.037
 9073SOL    HW128118   1.644   0.988   1.989
 9073SOL    HW228119   1.551   0.898   2.088
 9074SOL     OW28120   1.244   6.901   2.934
 9074SOL    HW128121   1.189   6.982   2.914
 9074SOL    HW228122   1.281   6.865   2.849
 9075SOL     OW28123   6.458   1.028   2.188
 9075SOL    HW128124   6.426   0.984   2.104
 9075SOL    HW228125   6.540   1.082   2.168
 9076SOL     OW28126   6.559   0.814   5.703
 9076SOL    HW128127   6.549   0.718   5.675
 9076SOL    HW228128   6.607   0.818   5.791
 9077SOL     OW28129   5.754   6.515   2.318
 9077SOL    HW128130   5.833   6.455   2.306
 9077SOL    HW228131   5.771   6.577   2.395
 9078SOL     OW28132   3.772   3.194   4.786
 9078SOL    HW128133   3.720   3.235   4.860
 9078SOL    HW228134   3.867   3.182   4.814
 9079SOL     OW28135   3.396   6.936   5.877
 9079SOL    HW128136   3.462   6.988   5.932
 9079SOL    HW228137   3.327   6.997   5.841
 9080SOL     OW28138   5.288   1.572   0.798
 9080SOL    HW128139   5.258   1.658   0.840
 9080SOL    HW228140   5.240   1.496   0.842
 9081SOL     OW28141   5.348   6.168   1.959
 9081SOL    HW128142   5.297   6.102   2.015
 9081SOL    HW228143   5.444   6.169   1.988
 9082SOL     OW28144   3.037   1.562   3.980
 9082SOL    HW128145   2.991   1.564   4.069
 9082SOL    HW228146   3.117   1.502   3.986
 9083SOL     OW28147   5.012   4.536   4.563
 9083SOL    HW128148   5.028   4.513   4.659
 9083SOL    HW228149   4.959   4.464   4.519
 9084SOL     OW28150   3.415   3.882   3.143
 9084SOL    HW128151   3.450   3.848   3.056
 9084SOL    HW228152   3.436   3.817   3.216
 9085SOL     OW28153   1.856   1.862   0.747
 9085SOL    HW128154   1.776   1.866   0.807
 9085SOL    HW228155   1.841   1.922   0.668
 9086SOL     OW28156   0.702   4.258   1.292
 9086SOL    HW128157   0.613   4.230   1.257
 9086SOL    HW228158   0.692   4.297   1.383
 9087SOL     OW28159   4.893   3.490   1.950
 9087SOL    HW128160   4.881   3.391   1.961
 9087SOL    HW228161   4.985   3.508   1.914
 9088SOL     OW28162   5.109   0.553   6.931
 9088SOL    HW128163   5.115   0.502   7.017
 9088SOL    HW228164   5.021   0.533   6.887
 9089SOL     OW28165   4.340   0.200   5.345
 9089SOL    HW128166   4.357   0.124   5.282
 9089SOL    HW228167   4.427   0.239   5.374
 9090SOL     OW28168   5.663   1.640   4.766
 9090SOL    HW128169   5.725   1.571   4.728
 9090SOL    HW228170   5.714   1.702   4.825
 9091SOL     OW28171   3.246   3.770   6.982
 9091SOL    HW128172   3.212   3.698   6.921
 9091SOL    HW228173   3.225   3.746   0.055
 9092SOL     OW28174   0.155   2.447   0.306
 9092SOL    HW128175   0.070   2.487   0.340
 9092SOL    HW228176   0.201   2.512   0.245
 9093SOL     OW28177   1.382   6.568   5.853
 9093SOL    HW128178   1.343   6.572   5.761
 9093SOL    HW228179   1.334   6.498   5.906
 9094SOL     OW28180   0.376   3.751   2.322
 9094SOL    HW128181   0.456   3.801   2.289
 9094SOL    HW228182   0.397   3.708   2.410
 9095SOL     OW28183   5.631   5.956   5.217
 9095SOL    HW128184   5.674   6.024   5.158
 9095SOL    HW228185   5.542   5.988   5.247
 9096SOL     OW28186   6.185   5.756   2.785
 9096SOL    HW128187   6.135   5.776   2.870
 9096SOL    HW228188   6.197   5.841   2.733
 9097SOL     OW28189   0.787   2.722   6.298
 9097SOL    HW128190   0.847   2.782   6.350
 9097SOL    HW228191   0.748   2.653   6.359
 9098SOL     OW28192   1.697   3.656   4.067
 9098SOL    HW128193   1.769   3.719   4.094
 9098SOL    HW228194   1.700   3.575   4.126
 9099SOL     OW28195   2.461   3.078   6.864
 9099SOL    HW128196   2.507   3.004   6.814
 9099SOL    HW228197   2.451   3.158   6.804
 9100SOL     OW28198   1.086   4.653   3.097
 9100SOL    HW128199   1.025   4.634   3.020
 9100SOL    HW228200   1.107   4.751   3.100
 9101SOL     OW28201   1.051   2.466   1.995
 9101SOL    HW128202   1.108   2.429   2.069
 9101SOL    HW228203   1.108   2.481   1.914
 9102SOL     OW28204   4.443   6.563   2.736
 9102SOL    HW128205   4.376   6.537   2.667
 9102SOL    HW228206   4.410   6.534   2.826
 9103SOL     OW28207   6.242   1.645   0.562
 9103SOL    HW128208   6.171   1.704   0.600
 9103SOL    HW228209   6.293   1.602   0.637
 9104SOL     OW28210   5.949   1.004   6.681
 9104SOL    HW128211   5.859   0.975   6.650
 9104SOL    HW228212   5.945   1.032   6.777
 9105SOL     OW28213   1.870   0.112   6.174
 9105SOL    HW128214   1.872   0.145   6.268
 9105SOL    HW228215   1.931   0.167   6.118
 9106SOL     OW28216   1.787   4.054   0.559
 9106SOL    HW128217   1.829   3.999   0.487
 9106SOL    HW228218   1.804   4.151   0.542
 9107SOL     OW28219   2.373   1.037   6.744
 9107SOL    HW128220   2.292   0.983   6.723
 9107SOL    HW228221   2.411   1.075   6.660
 9108SOL     OW28222   5.847   4.804   6.025
 9108SOL    HW128223   5.892   4.722   6.061
 9108SOL    HW228224   5.876   4.884   6.078
 9109SOL     OW28225   5.120   2.985   2.599
 9109SOL    HW128226   5.162   3.048   2.534
 9109SOL    HW228227   5.186   2.962   2.670
 9110SOL     OW28228   1.399   6.006   4.793
 9110SOL    HW128229   1.314   6.040   4.753
 9110SOL    HW228230   1.417   5.914   4.759
 9111SOL     OW28231   4.193   2.840   5.654
 9111SOL    HW128232   4.097   2.856   5.631
 9111SOL    HW228233   4.246   2.924   5.636
 9112SOL     OW28234   1.140   4.990   2.305
 9112SOL    HW128235   1.138   5.043   2.220
 9112SOL    HW228236   1.227   4.942   2.311
 9113SOL     OW28237   5.519   1.587   3.637
 9113SOL    HW128238   5.507   1.604   3.735
 9113SOL    HW228239   5.468   1.505   3.611
 9114SOL     OW28240   1.354   5.805   5.011
 9114SOL    HW128241   1.445   5.766   5.021
 9114SOL    HW228242   1.357   5.881   4.947
 9115SOL     OW28243   5.407   4.063   4.472
 9115SOL    HW128244   5.361   4.015   4.398
 9115SOL    HW228245   5.385   4.161   4.467
 9116SOL     OW28246   1.079   0.154   2.956
 9116SOL    HW128247   1.040   0.244   2.973
 9116SOL    HW228248   1.092   0.141   2.858
 9117SOL     OW28249   3.680   0.481   0.115
 9117SOL    HW128250   3.627   0.566   0.115
 9117SOL    HW228251   3.634   0.413   0.172
 9118SOL     OW28252   6.145   4.446   1.393
 9118SOL    HW128253   6.148   4.544   1.372
 9118SOL    HW228254   6.141   4.434   1.492
 9119SOL     OW28255   3.823   0.539   0.841
 9119SOL    HW128256   3.783   0.452   0.813
 9119SOL    HW228257   3.759   0.587   0.901
 9120SOL     OW28258   6.294   3.423   5.140
 9120SOL    HW128259   6.374   3.363   5.142
 9120SOL    HW228260   6.284   3.469   5.228
 9121SOL     OW28261   3.242   0.887   5.064
 9121SOL    HW128262   3.160   0.926   5.104
 9121SOL    HW228263   3.221   0.851   4.972
 9122SOL     OW28264   1.991   4.043   2.109
 9122SOL    HW128265   2.070   4.013   2.162
 9122SOL    HW228266   2.021   4.097   2.031
 9123SOL     OW28267   0.796   0.016   3.801
 9123SOL    HW128268   0.766   0.104   3.839
 9123SOL    HW228269   0.896   0.012   3.801
 9124SOL     OW28270   2.793   5.458   1.414
 9124SOL    HW128271   2.839   5.480   1.328
 9124SOL    HW228272   2.695   5.447   1.398
 9125SOL     OW28273   4.502   6.480   1.177
 9125SOL    HW128274   4.519   6.402   1.238
 9125SOL    HW228275   4.475   6.559   1.232
 9126SOL     OW28276   4.093   4.555   0.559
 9126SOL    HW128277   4.018   4.505   0.516
 9126SOL    HW228278   4.171   4.494   0.570
 9127SOL     OW28279   0.517   4.336   5.153
 9127SOL    HW128280   0.551   4.249   5.188
 9127SOL    HW228281   0.528   4.407   5.222
 9128SOL     OW28282   6.052   3.378   5.544
 9128SOL    HW128283   6.077   3.281   5.537
 9128SOL    HW228284   5.953   3.385   5.559
 9129SOL     OW28285   1.733   2.382   1.062
 9129SOL    HW128286   1.795   2.461   1.063
 9129SOL    HW228287   1.754   2.323   1.139
 9130SOL     OW28288   2.745   3.897   5.266
 9130SOL    HW128289   2.653   3.915   5.231
 9130SOL    HW228290   2.812   3.919   5.195
 9131SOL     OW28291   5.266   2.152   1.044
 9131SOL    HW128292   5.167   2.154   1.038
 9131SOL    HW228293   5.295   2.163   1.139
 9132SOL     OW28294   6.765   4.296   3.362
 9132SOL    HW128295   6.856   4.266   3.389
 9132SOL    HW228296   6.705   4.297   3.442
 9133SOL     OW28297   4.539   1.113   0.930
 9133SOL    HW128298   4.521   1.207   0.959
 9133SOL    HW228299   4.638   1.100   0.920
 9134SOL     OW28300   4.363   4.671   0.615
 9134SOL    HW128301   4.361   4.576   0.584
 9134SOL    HW228302   4.270   4.700   0.638
 9135SOL     OW28303   6.901   6.526   2.418
 9135SOL    HW128304   6.809   6.563   2.431
 9135SOL    HW228305   6.923   6.463   2.492
 9136SOL     OW28306   6.224   4.162   6.709
 9136SOL    HW128307   6.160   4.186   6.636
 9136SOL    HW228308   6.309   4.212   6.697
 9137SOL     OW28309   5.462   6.031   6.298
 9137SOL    HW128310   5.502   5.940   6.285
 9137SOL    HW228311   5.378   6.039   6.245
 9138SOL     OW28312   3.486   3.098   0.965
 9138SOL    HW128313   3.554   3.168   0.989
 9138SOL    HW228314   3.434   3.073   1.047
 9139SOL     OW28315   6.807   0.321   0.824
 9139SOL    HW128316   6.754   0.252   0.776
 9139SOL    HW228317   6.876   0.359   0.763
 9140SOL     OW28318   1.297   4.188   3.134
 9140SOL    HW128319   1.243   4.203   3.217
 9140SOL    HW228320   1.391   4.219   3.149
 9141SOL     OW28321   6.816   5.762   5.457
 9141SOL    HW128322   6.768   5.706   5.390
 9141SOL    HW228323   6.750   5.815   5.511
 9142SOL     OW28324   1.374   4.046   4.777
 9142SOL    HW128325   1.397   3.966   4.721
 9142SOL    HW228326   1.285   4.031   4.820
 9143SOL     OW28327   7.004   4.333   2.998
 9143SOL    HW128328   6.985   4.419   2.952
 9143SOL    HW228329   6.920   4.297   3.039
 9144SOL     OW28330   2.529   4.441   5.413
 9144SOL    HW128331   2.575   4.451   5.501
 9144SOL    HW228332   2.535   4.528   5.363
 9145SOL     OW28333   1.674   6.162   5.818
 9145SOL    HW128334   1.657   6.098   5.743
 9145SOL    HW228335   1.747   6.128   5.876
 9146SOL     OW28336   6.058   3.045   3.078
 9146SOL    HW128337   5.993   3.116   3.052
 9146SOL    HW228338   6.103   3.070   3.163
 9147SOL     OW28339   4.079   6.682   4.695
 9147SOL    HW128340   4.171   6.723   4.695
 9147SOL    HW228341   4.012   6.751   4.669
 9148SOL     OW28342   6.022   5.999   1.650
 9148SOL    HW128343   5.931   5.962   1.666
 9148SOL    HW228344   6.069   6.012   1.738
 9149SOL     OW28345   0.397   3.474   1.645
 9149SOL    HW128346   0.325   3.541   1.632
 9149SOL    HW228347   0.445   3.458   1.559
 9150SOL     OW28348   2.111   2.770   0.435
 9150SOL    HW128349   2.105   2.869   0.418
 9150SOL    HW228350   2.045   2.722   0.379
 9151SOL     OW28351   2.088   3.493   4.076
 9151SOL    HW128352   2.090   3.490   3.976
 9151SOL    HW228353   2.149   3.422   4.112
 9152SOL     OW28354   1.428   4.292   2.407
 9152SOL    HW128355   1.353   4.340   2.452
 9152SOL    HW228356   1.432   4.197   2.438
 9153SOL     OW28357   0.327   3.906   6.491
 9153SOL    HW128358   0.409   3.851   6.474
 9153SOL    HW228359   0.249   3.845   6.502
 9154SOL     OW28360   5.563   5.034   2.679
 9154SOL    HW128361   5.474   5.049   2.722
 9154SOL    HW228362   5.635   5.050   2.746
 9155SOL     OW28363   1.415   6.589   2.824
 9155SOL    HW128364   1.382   6.553   2.737
 9155SOL    HW228365   1.407   6.689   2.825
 9156SOL     OW28366   6.967   3.743   6.404
 9156SOL    HW128367   0.035   3.702   6.386
 9156SOL    HW228368   6.902   3.712   6.334
 9157SOL     OW28369   1.512   4.344   6.683
 9157SOL    HW128370   1.423   4.358   6.726
 9157SOL    HW228371   1.524   4.247   6.663
 9158SOL     OW28372   6.809   3.809   4.912
 9158SOL    HW128373   6.859   3.756   4.980
 9158SOL    HW228374   6.842   3.786   4.820
 9159SOL     OW28375   3.201   1.348   4.019
 9159SOL    HW128376   3.270   1.419   4.028
 9159SOL    HW228377   3.193   1.298   4.105
 9160SOL     OW28378   0.418   4.444   1.629
 9160SOL    HW128379   0.380   4.388   1.703
 9160SOL    HW228380   0.414   4.540   1.655
 9161SOL     OW28381   6.691   4.563   2.180
 9161SOL    HW128382   6.591   4.567   2.177
 9161SOL    HW228383   6.720   4.467   2.179
 9162SOL     OW28384   4.050   1.831   1.818
 9162SOL    HW128385   4.017   1.916   1.776
 9162SOL    HW228386   4.012   1.753   1.768
 9163SOL     OW28387   1.734   2.513   3.867
 9163SOL    HW128388   1.782   2.478   3.787
 9163SOL    HW228389   1.750   2.612   3.875
 9164SOL     OW28390   2.648   6.683   0.503
 9164SOL    HW128391   2.608   6.730   0.582
 9164SOL    HW228392   2.701   6.747   0.449
 9165SOL     OW28393   5.386   1.719   6.129
 9165SOL    HW128394   5.402   1.685   6.222
 9165SOL    HW228395   5.402   1.645   6.063
 9166SOL     OW28396   5.592   5.773   1.247
 9166SOL    HW128397   5.512   5.766   1.307
 9166SOL    HW228398   5.660   5.834   1.289
 9167SOL     OW28399   1.663   0.935   4.595
 9167SOL    HW128400   1.726   0.940   4.517
 9167SOL    HW228401   1.616   1.022   4.605
 9168SOL     OW28402   6.740   6.116   4.390
 9168SOL    HW128403   6.805   6.192   4.394
 9168SOL    HW228404   6.764   6.048   4.459
 9169SOL     OW28405   6.840   6.262   1.269
 9169SOL    HW128406   6.886   6.350   1.256
 9169SOL    HW228407   6.747   6.277   1.303
 9170SOL     OW28408   1.087   0.868   6.417
 9170SOL    HW128409   1.085   0.848   6.319
 9170SOL    HW228410   1.139   0.797   6.464
 9171SOL     OW28411   3.709   4.931   6.606
 9171SOL    HW128412   3.717   4.959   6.702
 9171SOL    HW228413   3.635   4.982   6.563
 9172SOL     OW28414   4.594   1.426   4.260
 9172SOL    HW128415   4.681   1.412   4.213
 9172SOL    HW228416   4.604   1.401   4.357
 9173SOL     OW28417   5.575   3.077   5.005
 9173SOL    HW128418   5.611   3.101   5.095
 9173SOL    HW228419   5.555   2.979   5.001
 9174SOL     OW28420   0.080   4.624   0.977
 9174SOL    HW128421   0.027   4.633   0.893
 9174SOL    HW228422   0.113   4.530   0.985
 9175SOL     OW28423   1.911   0.528   0.002
 9175SOL    HW128424   1.817   0.495   0.010
 9175SOL    HW228425   1.961   0.507   0.087
 9176SOL     OW28426   1.779   1.573   2.055
 9176SOL    HW128427   1.743   1.505   2.118
 9176SOL    HW228428   1.707   1.602   1.992
 9177SOL     OW28429   0.135   4.921   3.810
 9177SOL    HW128430   0.134   5.020   3.800
 9177SOL    HW228431   0.102   4.879   3.726
 9178SOL     OW28432   2.124   5.524   0.669
 9178SOL    HW128433   2.032   5.531   0.710
 9178SOL    HW228434   2.149   5.428   0.660
 9179SOL     OW28435   3.373   5.421   4.317
 9179SOL    HW128436   3.423   5.468   4.244
 9179SOL    HW228437   3.287   5.386   4.280
 9180SOL     OW28438   0.246   0.814   4.896
 9180SOL    HW128439   0.205   0.904   4.884
 9180SOL    HW228440   0.309   0.815   4.973
 9181SOL     OW28441   2.381   2.248   3.514
 9181SOL    HW128442   2.470   2.213   3.540
 9181SOL    HW228443   2.367   2.236   3.416
 9182SOL     OW28444   1.004   1.750   3.241
 9182SOL    HW128445   0.962   1.837   3.270
 9182SOL    HW228446   0.933   1.688   3.208
 9183SOL     OW28447   0.988   1.979   5.977
 9183SOL    HW128448   0.921   1.909   6.001
 9183SOL    HW228449   0.943   2.054   5.931
 9184SOL     OW28450   3.917   2.792   0.610
 9184SOL    HW128451   3.915   2.733   0.691
 9184SOL    HW228452   3.968   2.875   0.631
 9185SOL     OW28453   0.864   0.946   6.871
 9185SOL    HW128454   0.784   0.979   6.921
 9185SOL    HW228455   0.848   0.957   6.773
 9186SOL     OW28456   5.432   1.057   6.259
 9186SOL    HW128457   5.396   0.976   6.306
 9186SOL    HW228458   5.420   1.137   6.317
 9187SOL     OW28459   5.886   2.131   0.544
 9187SOL    HW128460   5.806   2.157   0.489
 9187SOL    HW228461   5.962   2.192   0.522
 9188SOL     OW28462   1.765   0.987   2.318
 9188SOL    HW128463   1.690   0.990   2.385
 9188SOL    HW228464   1.728   0.962   2.228
 9189SOL     OW28465   3.975   1.348   5.350
 9189SOL    HW128466   3.895   1.365   5.407
 9189SOL    HW228467   4.056   1.342   5.407
 9190SOL     OW28468   6.299   1.704   5.416
 9190SOL    HW128469   6.211   1.747   5.434
 9190SOL    HW228470   6.344   1.682   5.503
 9191SOL     OW28471   5.781   0.317   0.770
 9191SOL    HW128472   5.815   0.404   0.806
 9191SOL    HW228473   5.774   0.322   0.671
 9192SOL     OW28474   5.024   4.113   4.336
 9192SOL    HW128475   5.060   4.031   4.290
 9192SOL    HW228476   5.088   4.188   4.324
 9193SOL     OW28477   2.949   3.355   3.521
 9193SOL    HW128478   2.858   3.385   3.549
 9193SOL    HW228479   2.988   3.422   3.458
 9194SOL     OW28480   3.928   5.593   2.586
 9194SOL    HW128481   3.834   5.624   2.572
 9194SOL    HW228482   3.947   5.588   2.684
 9195SOL     OW28483   0.313   3.018   2.452
 9195SOL    HW128484   0.406   2.995   2.425
 9195SOL    HW228485   0.304   3.117   2.463
 9196SOL     OW28486   4.701   6.727   3.678
 9196SOL    HW128487   4.779   6.708   3.738
 9196SOL    HW228488   4.706   6.822   3.648
 9197SOL     OW28489   3.596   2.763   5.205
 9197SOL    HW128490   3.501   2.738   5.185
 9197SOL    HW228491   3.599   2.816   5.290
 9198SOL     OW28492   5.383   2.111   5.491
 9198SOL    HW128493   5.383   2.206   5.522
 9198SOL    HW228494   5.296   2.068   5.515
 9199SOL     OW28495   1.486   3.797   6.463
 9199SOL    HW128496   1.541   3.869   6.421
 9199SOL    HW228497   1.397   3.792   6.417
 9200SOL     OW28498   5.681   6.380   0.870
 9200SOL    HW128499   5.767   6.389   0.820
 9200SOL    HW228500   5.668   6.461   0.927
 9201SOL     OW28501   1.552   4.266   3.141
 9201SOL    HW128502   1.612   4.188   3.158
 9201SOL    HW228503   1.573   4.339   3.206
 9202SOL     OW28504   3.284   5.880   3.442
 9202SOL    HW128505   3.272   5.977   3.462
 9202SOL    HW228506   3.262   5.827   3.524
 9203SOL     OW28507   5.093   0.834   6.085
 9203SOL    HW128508   5.180   0.794   6.113
 9203SOL    HW228509   5.031   0.761   6.054
 9204SOL     OW28510   5.023   4.156   1.716
 9204SOL    HW128511   5.110   4.192   1.750
 9204SOL    HW228512   4.947   4.193   1.769
 9205SOL     OW28513   4.897   2.989   2.246
 9205SOL    HW128514   4.943   2.901   2.247
 9205SOL    HW228515   4.821   2.987   2.181
 9206SOL     OW28516   0.369   6.558   3.014
 9206SOL    HW128517   0.324   6.576   2.927
 9206SOL    HW228518   0.300   6.555   3.087
 9207SOL     OW28519   3.846   6.540   6.949
 9207SOL    HW128520   3.937   6.570   6.975
 9207SOL    HW228521   3.789   6.619   6.925
 9208SOL     OW28522   5.177   4.651   2.007
 9208SOL    HW128523   5.115   4.616   2.077
 9208SOL    HW228524   5.195   4.579   1.940
 9209SOL     OW28525   3.582   0.527   2.975
 9209SOL    HW128526   3.613   0.454   2.914
 9209SOL    HW228527   3.651   0.542   3.046
 9210SOL     OW28528   1.280   6.772   0.529
 9210SOL    HW128529   1.370   6.776   0.571
 9210SOL    HW228530   1.231   6.857   0.547
 9211SOL     OW28531   4.682   1.396   5.713
 9211SOL    HW128532   4.762   1.372   5.770
 9211SOL    HW228533   4.608   1.331   5.731
 9212SOL     OW28534   6.101   3.758   4.709
 9212SOL    HW128535   6.179   3.708   4.746
 9212SOL    HW228536   6.016   3.710   4.734
 9213SOL     OW28537   6.494   6.905   2.564
 9213SOL    HW128538   6.429   6.979   2.580
 9213SOL    HW228539   6.561   6.902   2.639
 9214SOL     OW28540   2.314   2.443   5.633
 9214SOL    HW128541   2.408   2.459   5.662
 9214SOL    HW228542   2.291   2.507   5.560
 9215SOL     OW28543   0.434   3.245   2.703
 9215SOL    HW128544   0.416   3.250   2.605
 9215SOL    HW228545   0.369   3.301   2.753
 9216SOL     OW28546   2.932   5.400   3.898
 9216SOL    HW128547   2.850   5.378   3.844
 9216SOL    HW228548   2.998   5.447   3.840
 9217SOL     OW28549   4.298   0.774   6.398
 9217SOL    HW128550   4.249   0.724   6.327
 9217SOL    HW228551   4.274   0.871   6.394
 9218SOL     OW28552   5.576   5.227   5.954
 9218SOL    HW128553   5.593   5.251   6.049
 9218SOL    HW228554   5.510   5.152   5.948
 9219SOL     OW28555   3.497   2.779   5.575
 9219SOL    HW128556   3.496   2.788   5.675
 9219SOL    HW228557   3.566   2.840   5.537
 9220SOL     OW28558   0.281   6.978   3.428
 9220SOL    HW128559   0.234   6.890   3.418
 9220SOL    HW228560   0.223   0.019   3.481
 9221SOL     OW28561   2.056   1.488   0.027
 9221SOL    HW128562   1.983   1.446   6.996
 9221SOL    HW228563   2.052   1.588   0.015
 9222SOL     OW28564   1.932   3.151   4.142
 9222SOL    HW128565   1.952   3.154   4.240
 9222SOL    HW228566   2.017   3.152   4.091
 9223SOL     OW28567   0.464   3.111   4.924
 9223SOL    HW128568   0.422   3.108   4.833
 9223SOL    HW228569   0.401   3.154   4.988
 9224SOL     OW28570   2.616   4.525   3.560
 9224SOL    HW128571   2.662   4.448   3.516
 9224SOL    HW228572   2.594   4.595   3.492
 9225SOL     OW28573   5.497   5.756   6.192
 9225SOL    HW128574   5.424   5.696   6.159
 9225SOL    HW228575   5.584   5.729   6.150
 9226SOL     OW28576   1.100   1.094   0.842
 9226SOL    HW128577   1.105   0.995   0.856
 9226SOL    HW228578   1.042   1.135   0.914
 9227SOL     OW28579   2.490   4.294   0.354
 9227SOL    HW128580   2.479   4.265   0.259
 9227SOL    HW228581   2.587   4.290   0.380
 9228SOL     OW28582   3.452   3.148   5.403
 9228SOL    HW128583   3.525   3.199   5.357
 9228SOL    HW228584   3.371   3.146   5.344
 9229SOL     OW28585   0.081   4.620   0.227
 9229SOL    HW128586   0.088   4.540   0.167
 9229SOL    HW228587   0.120   4.699   0.181
 9230SOL     OW28588   4.700   1.487   4.905
 9230SOL    HW128589   4.723   1.503   5.001
 9230SOL    HW228590   4.708   1.573   4.854
 9231SOL     OW28591   6.548   5.804   3.154
 9231SOL    HW128592   6.623   5.866   3.129
 9231SOL    HW228593   6.586   5.717   3.187
 9232SOL     OW28594   1.036   4.769   2.414
 9232SOL    HW128595   1.067   4.842   2.352
 9232SOL    HW228596   1.115   4.733   2.465
 9233SOL     OW28597   0.306   6.503   6.783
 9233SOL    HW128598   0.262   6.558   6.712
 9233SOL    HW228599   0.403   6.529   6.789
 9234SOL     OW28600   2.418   3.934   0.143
 9234SOL    HW128601   2.477   3.915   0.221
 9234SOL    HW228602   2.323   3.918   0.169
 9235SOL     OW28603   1.614   2.306   2.860
 9235SOL    HW128604   1.532   2.343   2.905
 9235SOL    HW228605   1.662   2.246   2.924
 9236SOL     OW28606   1.998   3.241   6.684
 9236SOL    HW128607   1.902   3.243   6.655
 9236SOL    HW228608   2.056   3.272   6.608
 9237SOL     OW28609   4.929   5.298   3.225
 9237SOL    HW128610   4.863   5.330   3.158
 9237SOL    HW228611   4.992   5.233   3.182
 9238SOL     OW28612   1.031   2.661   4.624
 9238SOL    HW128613   1.031   2.756   4.656
 9238SOL    HW228614   0.941   2.638   4.589
 9239SOL     OW28615   1.464   4.706   6.646
 9239SOL    HW128616   1.549   4.729   6.694
 9239SOL    HW228617   1.396   4.674   6.712
 9240SOL     OW28618   4.184   1.824   3.195
 9240SOL    HW128619   4.270   1.814   3.245
 9240SOL    HW228620   4.195   1.894   3.124
 9241SOL     OW28621   5.445   0.011   1.016
 9241SOL    HW128622   5.415   6.954   0.963
 9241SOL    HW228623   5.491   0.077   0.956
 9242SOL     OW28624   1.764   2.482   0.328
 9242SOL    HW128625   1.860   2.453   0.334
 9242SOL    HW228626   1.704   2.408   0.359
 9243SOL     OW28627   1.330   0.857   0.016
 9243SOL    HW128628   1.246   0.863   6.983
 9243SOL    HW228629   1.306   0.866   0.113
 9244SOL     OW28630   3.394   6.582   5.845
 9244SOL    HW128631   3.411   6.535   5.759
 9244SOL    HW228632   3.333   6.660   5.829
 9245SOL     OW28633   1.266   5.070   3.579
 9245SOL    HW128634   1.272   4.973   3.559
 9245SOL    HW228635   1.172   5.102   3.566
 9246SOL     OW28636   5.562   6.867   6.624
 9246SOL    HW128637   5.477   6.821   6.649
 9246SOL    HW228638   5.545   6.934   6.552
 9247SOL     OW28639   3.975   5.791   3.341
 9247SOL    HW128640   4.047   5.857   3.362
 9247SOL    HW228641   3.899   5.804   3.406
 9248SOL     OW28642   2.461   0.315   6.498
 9248SOL    HW128643   2.429   0.221   6.511
 9248SOL    HW228644   2.435   0.346   6.406
 9249SOL     OW28645   3.229   6.155   0.986
 9249SOL    HW128646   3.216   6.245   1.027
 9249SOL    HW228647   3.303   6.159   0.918
 9250SOL     OW28648   0.297   2.619   4.395
 9250SOL    HW128649   0.368   2.687   4.411
 9250SOL    HW228650   0.235   2.652   4.323
 9251SOL     OW28651   3.235   2.786   0.327
 9251SOL    HW128652   3.180   2.732   0.390
 9251SOL    HW228653   3.228   2.883   0.352
 9252SOL     OW28654   5.427   2.099   5.226
 9252SOL    HW128655   5.364   2.030   5.191
 9252SOL    HW228656   5.424   2.100   5.326
 9253SOL     OW28657   0.844   5.850   5.288
 9253SOL    HW128658   0.892   5.827   5.204
 9253SOL    HW228659   0.746   5.844   5.273
 9254SOL     OW28660   6.973   4.549   2.852
 9254SOL    HW128661   0.033   4.604   2.835
 9254SOL    HW228662   6.908   4.560   2.777
 9255SOL     OW28663   6.651   4.218   0.659
 9255SOL    HW128664   6.587   4.149   0.691
 9255SOL    HW228665   6.698   4.259   0.737
 9256SOL     OW28666   2.963   6.435   1.090
 9256SOL    HW128667   2.894   6.460   1.158
 9256SOL    HW228668   2.963   6.503   1.017
 9257SOL     OW28669   6.405   5.913   4.180
 9257SOL    HW128670   6.359   5.981   4.237
 9257SOL    HW228671   6.461   5.853   4.237
 9258SOL     OW28672   3.140   4.879   1.150
 9258SOL    HW128673   3.150   4.790   1.195
 9258SOL    HW228674   3.122   4.949   1.219
 9259SOL     OW28675   1.540   1.956   7.006
 9259SOL    HW128676   1.591   1.916   6.929
 9259SOL    HW228677   1.443   1.932   6.997
 9260SOL     OW28678   5.458   3.734   4.893
 9260SOL    HW128679   5.458   3.817   4.838
 9260SOL    HW228680   5.521   3.744   4.970
 9261SOL     OW28681   3.463   2.161   1.703
 9261SOL    HW128682   3.480   2.258   1.685
 9261SOL    HW228683   3.549   2.112   1.708
 9262SOL     OW28684   6.668   6.308   5.088
 9262SOL    HW128685   6.634   6.218   5.063
 9262SOL    HW228686   6.731   6.300   5.165
 9263SOL     OW28687   1.996   4.597   3.727
 9263SOL    HW128688   1.976   4.536   3.651
 9263SOL    HW228689   2.005   4.690   3.694
 9264SOL     OW28690   5.442   4.331   6.677
 9264SOL    HW128691   5.370   4.263   6.688
 9264SOL    HW228692   5.404   4.413   6.633
 9265SOL     OW28693   6.004   1.486   1.078
 9265SOL    HW128694   5.970   1.577   1.100
 9265SOL    HW228695   6.015   1.477   0.979
 9266SOL     OW28696   1.384   4.694   1.444
 9266SOL    HW128697   1.445   4.626   1.402
 9266SOL    HW228698   1.301   4.649   1.476
 9267SOL     OW28699   0.017   0.623   4.142
 9267SOL    HW128700   0.024   0.722   4.141
 9267SOL    HW228701   6.942   0.596   4.141
 9268SOL     OW28702   0.604   0.181   1.556
 9268SOL    HW128703   0.678   0.138   1.504
 9268SOL    HW228704   0.516   0.143   1.527
 9269SOL     OW28705   3.394   1.288   0.134
 9269SOL    HW128706   3.449   1.266   0.215
 9269SOL    HW228707   3.320   1.350   0.160
 9270SOL     OW28708   1.891   0.406   5.926
 9270SOL    HW128709   1.964   0.340   5.946
 9270SOL    HW228710   1.811   0.385   5.982
 9271SOL     OW28711   1.098   5.665   4.811
 9271SOL    HW128712   0.999   5.657   4.796
 9271SOL    HW228713   1.146   5.651   4.725
 9272SOL     OW28714   6.593   6.236   6.323
 9272SOL    HW128715   6.686   6.263   6.348
 9272SOL    HW228716   6.550   6.311   6.272
 9273SOL     OW28717   4.792   4.509   3.462
 9273SOL    HW128718   4.741   4.553   3.388
 9273SOL    HW228719   4.889   4.531   3.454
 9274SOL     OW28720   0.402   2.892   0.785
 9274SOL    HW128721   0.341   2.949   0.730
 9274SOL    HW228722   0.363   2.801   0.795
 9275SOL     OW28723   6.879   0.772   0.629
 9275SOL    HW128724   6.852   0.676   0.629
 9275SOL    HW228725   6.978   0.779   0.629
 9276SOL     OW28726   2.867   5.371   0.062
 9276SOL    HW128727   2.839   5.322   0.144
 9276SOL    HW228728   2.922   5.451   0.087
 9277SOL     OW28729   5.318   5.359   1.725
 9277SOL    HW128730   5.349   5.400   1.810
 9277SOL    HW228731   5.392   5.361   1.658
 9278SOL     OW28732   0.918   0.256   5.440
 9278SOL    HW128733   0.935   0.345   5.481
 9278SOL    HW228734   0.978   0.244   5.360
 9279SOL     OW28735   3.818   6.078   1.418
 9279SOL    HW128736   3.806   6.088   1.319
 9279SOL    HW228737   3.838   6.167   1.458
 9280SOL     OW28738   1.398   6.544   2.554
 9280SOL    HW128739   1.492   6.548   2.520
 9280SOL    HW228740   1.334   6.549   2.476
 9281SOL     OW28741   2.368   5.256   6.863
 9281SOL    HW128742   2.434   5.324   6.893
 9281SOL    HW228743   2.415   5.185   6.810
 9282SOL     OW28744   3.333   0.214   5.284
 9282SOL    HW128745   3.403   0.278   5.251
 9282SOL    HW228746   3.376   0.147   5.345
 9283SOL     OW28747   4.257   6.701   0.934
 9283SOL    HW128748   4.328   6.632   0.935
 9283SOL    HW228749   4.298   6.792   0.948
 9284SOL     OW28750   4.559   3.966   5.344
 9284SOL    HW128751   4.633   3.900   5.346
 9284SOL    HW228752   4.472   3.920   5.361
 9285SOL     OW28753   0.660   5.219   2.596
 9285SOL    HW128754   0.592   5.257   2.534
 9285SOL    HW228755   0.724   5.162   2.546
 9286SOL     OW28756   4.617   6.548   1.429
 9286SOL    HW128757   4.699   6.534   1.484
 9286SOL    HW228758   4.640   6.598   1.346
 9287SOL     OW28759   3.880   3.700   5.736
 9287SOL    HW128760   3.977   3.720   5.748
 9287SOL    HW228761   3.867   3.605   5.709
 9288SOL     OW28762   3.792   1.745   2.554
 9288SOL    HW128763   3.835   1.782   2.472
 9288SOL    HW228764   3.692   1.751   2.545
 9289SOL     OW28765   4.998   6.316   0.636
 9289SOL    HW128766   4.990   6.374   0.555
 9289SOL    HW228767   5.090   6.276   0.640
 9290SOL     OW28768   4.881   1.242   4.383
 9290SOL    HW128769   4.822   1.296   4.443
 9290SOL    HW228770   4.825   1.201   4.310
 9291SOL     OW28771   0.828   4.357   6.396
 9291SOL    HW128772   0.907   4.418   6.387
 9291SOL    HW228773   0.852   4.278   6.452
 9292SOL     OW28774   0.704   1.568   6.807
 9292SOL    HW128775   0.756   1.485   6.787
 9292SOL    HW228776   0.760   1.648   6.787
 9293SOL     OW28777   5.051   2.746   4.228
 9293SOL    HW128778   4.966   2.787   4.196
 9293SOL    HW228779   5.094   2.806   4.295
 9294SOL     OW28780   4.730   0.227   6.434
 9294SOL    HW128781   4.640   0.212   6.394
 9294SOL    HW228782   4.797   0.242   6.361
 9295SOL     OW28783   0.737   0.757   4.692
 9295SOL    HW128784   0.717   0.822   4.618
 9295SOL    HW228785   0.701   0.667   4.668
 9296SOL     OW28786   2.313   4.577   6.340
 9296SOL    HW128787   2.331   4.675   6.333
 9296SOL    HW228788   2.214   4.561   6.340
 9297SOL     OW28789   6.427   6.176   2.200
 9297SOL    HW128790   6.399   6.098   2.256
 9297SOL    HW228791   6.395   6.162   2.106
 9298SOL     OW28792   1.412   4.918   6.461
 9298SOL    HW128793   1.497   4.967   6.440
 9298SOL    HW228794   1.431   4.847   6.528
 9299SOL     OW28795   2.470   2.596   4.631
 9299SOL    HW128796   2.563   2.571   4.604
 9299SOL    HW228797   2.474   2.674   4.693
 9300SOL     OW28798   1.836   5.418   4.660
 9300SOL    HW128799   1.778   5.370   4.726
 9300SOL    HW228800   1.793   5.416   4.570
 9301SOL     OW28801   0.230   4.483   4.709
 9301SOL    HW128802   0.309   4.462   4.653
 9301SOL    HW228803   0.147   4.452   4.662
 9302SOL     OW28804   2.350   3.524   5.495
 9302SOL    HW128805   2.443   3.492   5.478
 9302SOL    HW228806   2.342   3.619   5.464
 9303SOL     OW28807   2.496   4.462   0.026
 9303SOL    HW128808   2.589   4.493   0.042
 9303SOL    HW228809   2.490   4.417   6.958
 9304SOL     OW28810   4.711   4.926   6.817
 9304SOL    HW128811   4.657   4.950   6.736
 9304SOL    HW228812   4.651   4.886   6.886
 9305SOL     OW28813   2.082   1.605   1.361
 9305SOL    HW128814   2.125   1.666   1.429
 9305SOL    HW228815   2.023   1.539   1.408
 9306SOL     OW28816   6.880   6.230   5.288
 9306SOL    HW128817   6.970   6.272   5.285
 9306SOL    HW228818   6.847   6.228   5.382
 9307SOL     OW28819   1.741   3.291   1.683
 9307SOL    HW128820   1.841   3.286   1.692
 9307SOL    HW228821   1.717   3.294   1.586
 9308SOL     OW28822   1.980   3.438   1.893
 9308SOL    HW128823   1.918   3.496   1.946
 9308SOL    HW228824   2.071   3.479   1.891
 9309SOL     OW28825   4.566   4.778   6.535
 9309SOL    HW128826   4.499   4.852   6.529
 9309SOL    HW228827   4.622   4.778   6.453
 9310SOL     OW28828   6.058   6.608   6.873
 9310SOL    HW128829   6.107   6.553   6.939
 9310SOL    HW228830   5.966   6.571   6.860
 9311SOL     OW28831   4.353   3.674   1.213
 9311SOL    HW128832   4.437   3.654   1.164
 9311SOL    HW228833   4.339   3.606   1.286
 9312SOL     OW28834   0.902   2.954   3.312
 9312SOL    HW128835   0.867   2.946   3.219
 9312SOL    HW228836   0.846   3.019   3.363
 9313SOL     OW28837   0.540   0.795   2.072
 9313SOL    HW128838   0.528   0.721   2.138
 9313SOL    HW228839   0.636   0.824   2.071
 9314SOL     OW28840   5.237   3.918   0.664
 9314SOL    HW128841   5.268   3.823   0.657
 9314SOL    HW228842   5.281   3.973   0.593
 9315SOL     OW28843   4.899   6.749   6.208
 9315SOL    HW128844   4.974   6.813   6.228
 9315SOL    HW228845   4.824   6.798   6.163
 9316SOL     OW28846   5.078   0.671   5.503
 9316SOL    HW128847   5.035   0.667   5.593
 9316SOL    HW228848   5.100   0.766   5.480
 9317SOL     OW28849   3.819   5.853   2.851
 9317SOL    HW128850   3.757   5.776   2.866
 9317SOL    HW228851   3.795   5.900   2.765
 9318SOL     OW28852   4.003   6.687   1.593
 9318SOL    HW128853   4.074   6.752   1.568
 9318SOL    HW228854   3.952   6.659   1.511
 9319SOL     OW28855   3.419   2.891   6.530
 9319SOL    HW128856   3.398   2.818   6.595
 9319SOL    HW228857   3.492   2.948   6.568
 9320SOL     OW28858   6.210   6.426   7.007
 9320SOL    HW128859   6.232   6.389   6.917
 9320SOL    HW228860   6.275   6.391   0.053
 9321SOL     OW28861   0.320   3.317   5.044
 9321SOL    HW128862   0.249   3.337   5.111
 9321SOL    HW228863   0.406   3.359   5.073
 9322SOL     OW28864   5.938   3.125   6.868
 9322SOL    HW128865   5.873   3.201   6.866
 9322SOL    HW228866   5.899   3.049   6.920
 9323SOL     OW28867   0.327   1.824   5.838
 9323SOL    HW128868   0.336   1.743   5.780
 9323SOL    HW228869   0.362   1.904   5.790
 9324SOL     OW28870   0.714   4.402   1.983
 9324SOL    HW128871   0.648   4.327   1.978
 9324SOL    HW228872   0.732   4.438   1.892
 9325SOL     OW28873   0.992   4.427   3.261
 9325SOL    HW128874   0.901   4.409   3.225
 9325SOL    HW228875   1.038   4.494   3.202
 9326SOL     OW28876   4.597   4.340   1.643
 9326SOL    HW128877   4.643   4.387   1.719
 9326SOL    HW228878   4.563   4.252   1.675
 9327SOL     OW28879   3.795   0.867   3.175
 9327SOL    HW128880   3.833   0.924   3.101
 9327SOL    HW228881   3.750   0.926   3.242
 9328SOL     OW28882   2.388   0.234   3.959
 9328SOL    HW128883   2.311   0.208   3.901
 9328SOL    HW228884   2.372   0.200   4.052
 9329SOL     OW28885   0.264   5.451   6.552
 9329SOL    HW128886   0.283   5.399   6.468
 9329SOL    HW228887   0.203   5.528   6.530
 9330SOL     OW28888   6.408   6.301   0.133
 9330SOL    HW128889   6.488   6.355   0.107
 9330SOL    HW228890   6.431   6.204   0.132
 9331SOL     OW28891   2.053   3.271   3.603
 9331SOL    HW128892   2.140   3.252   3.557
 9331SOL    HW228893   1.979   3.271   3.535
 9332SOL     OW28894   5.015   5.844   0.710
 9332SOL    HW128895   4.936   5.878   0.760
 9332SOL    HW228896   5.083   5.809   0.774
 9333SOL     OW28897   4.017   3.694   0.770
 9333SOL    HW128898   4.089   3.715   0.704
 9333SOL    HW228899   4.053   3.703   0.863
 9334SOL     OW28900   5.977   6.051   5.926
 9334SOL    HW128901   6.056   6.012   5.973
 9334SOL    HW228902   5.904   5.982   5.922
 9335SOL     OW28903   0.995   3.627   2.237
 9335SOL    HW128904   0.990   3.711   2.183
 9335SOL    HW228905   1.091   3.601   2.249
 9336SOL     OW28906   5.625   6.664   5.597
 9336SOL    HW128907   5.591   6.599   5.665
 9336SOL    HW228908   5.724   6.673   5.606
 9337SOL     OW28909   2.470   0.416   6.221
 9337SOL    HW128910   2.436   0.509   6.235
 9337SOL    HW228911   2.428   0.377   6.139
 9338SOL     OW28912   5.626   6.669   0.039
 9338SOL    HW128913   5.606   6.642   0.134
 9338SOL    HW228914   5.542   6.703   7.018
 9339SOL     OW28915   5.966   3.986   5.512
 9339SOL    HW128916   6.063   3.967   5.520
 9339SOL    HW228917   5.942   4.067   5.567
 9340SOL     OW28918   3.674   4.870   0.902
 9340SOL    HW128919   3.582   4.858   0.865
 9340SOL    HW228920   3.669   4.898   0.997
 9341SOL     OW28921   5.288   4.422   6.451
 9341SOL    HW128922   5.356   4.375   6.394
 9341SOL    HW228923   5.205   4.367   6.455
 9342SOL     OW28924   3.291   0.442   3.938
 9342SOL    HW128925   3.275   0.537   3.910
 9342SOL    HW228926   3.350   0.441   4.019
 9343SOL     OW28927   4.662   4.035   1.331
 9343SOL    HW128928   4.739   3.973   1.313
 9343SOL    HW228929   4.696   4.117   1.377
 9344SOL     OW28930   6.129   6.817   5.135
 9344SOL    HW128931   6.097   6.909   5.111
 9344SOL    HW228932   6.051   6.760   5.160
 9345SOL     OW28933   1.011   5.319   0.193
 9345SOL    HW128934   1.024   5.270   0.280
 9345SOL    HW228935   1.055   5.268   0.119
 9346SOL     OW28936   5.966   6.345   1.147
 9346SOL    HW128937   6.036   6.319   1.214
 9346SOL    HW228938   5.930   6.262   1.103
 9347SOL     OW28939   3.445   5.390   0.830
 9347SOL    HW128940   3.357   5.436   0.823
 9347SOL    HW228941   3.441   5.320   0.902
 9348SOL     OW28942   2.509   5.902   1.680
 9348SOL    HW128943   2.590   5.918   1.624
 9348SOL    HW228944   2.461   5.988   1.696
 9349SOL     OW28945   6.830   5.925   1.844
 9349SOL    HW128946   6.774   5.965   1.916
 9349SOL    HW228947   6.796   5.834   1.823
 9350SOL     OW28948   6.633   0.586   5.952
 9350SOL    HW128949   6.705   0.548   6.009
 9350SOL    HW228950   6.609   0.677   5.984
 9351SOL     OW28951   3.363   2.854   6.060
 9351SOL    HW128952   3.341   2.884   6.153
 9351SOL    HW228953   3.291   2.793   6.027
 9352SOL     OW28954   3.310   2.449   5.961
 9352SOL    HW128955   3.234   2.511   5.942
 9352SOL    HW228956   3.376   2.452   5.886
 9353SOL     OW28957   0.702   3.716   1.704
 9353SOL    HW128958   0.680   3.795   1.762
 9353SOL    HW228959   0.671   3.632   1.749
 9354SOL     OW28960   5.102   1.862   1.521
 9354SOL    HW128961   5.013   1.824   1.546
 9354SOL    HW228962   5.115   1.949   1.568
 9355SOL     OW28963   6.108   0.594   3.013
 9355SOL    HW128964   6.028   0.583   2.954
 9355SOL    HW228965   6.177   0.525   2.990
 9356SOL     OW28966   4.398   4.557   2.331
 9356SOL    HW128967   4.328   4.580   2.264
 9356SOL    HW228968   4.482   4.531   2.284
 9357SOL     OW28969   3.700   2.979   0.809
 9357SOL    HW128970   3.742   2.893   0.838
 9357SOL    HW228971   3.623   3.000   0.869
 9358SOL     OW28972   5.898   4.739   2.300
 9358SOL    HW128973   5.965   4.733   2.225
 9358SOL    HW228974   5.941   4.783   2.379
 9359SOL     OW28975   6.267   3.946   6.309
 9359SOL    HW128976   6.207   4.018   6.273
 9359SOL    HW228977   6.241   3.925   6.404
 9360SOL     OW28978   1.907   0.695   6.657
 9360SOL    HW128979   1.809   0.697   6.676
 9360SOL    HW228980   1.923   0.722   6.562
 9361SOL     OW28981   2.797   0.108   2.293
 9361SOL    HW128982   2.844   0.134   2.208
 9361SOL    HW228983   2.712   0.160   2.301
 9362SOL     OW28984   2.308   2.155   3.234
 9362SOL    HW128985   2.338   2.185   3.143
 9362SOL    HW228986   2.212   2.127   3.230
 9363SOL     OW28987   3.006   6.013   1.925
 9363SOL    HW128988   3.019   6.004   2.023
 9363SOL    HW228989   2.926   5.962   1.896
 9364SOL     OW28990   5.138   4.868   0.310
 9364SOL    HW128991   5.133   4.857   0.210
 9364SOL    HW228992   5.186   4.953   0.331
 9365SOL     OW28993   2.485   1.402   4.952
 9365SOL    HW128994   2.546   1.330   4.917
 9365SOL    HW228995   2.527   1.491   4.939
 9366SOL     OW28996   2.833   1.719   0.610
 9366SOL    HW128997   2.930   1.699   0.601
 9366SOL    HW228998   2.819   1.819   0.612
 9367SOL     OW28999   6.599   5.515   3.460
 9367SOL    HW129000   6.682   5.462   3.444
 9367SOL    HW229001   6.605   5.559   3.550
 9368SOL     OW29002   3.353   2.582   1.101
 9368SOL    HW129003   3.434   2.608   1.154
 9368SOL    HW229004   3.276   2.569   1.162
 9369SOL     OW29005   0.041   2.294   4.639
 9369SOL    HW129006   0.103   2.367   4.666
 9369SOL    HW229007   6.988   2.287   4.705
 9370SOL     OW29008   6.259   1.522   3.303
 9370SOL    HW129009   6.342   1.479   3.339
 9370SOL    HW229010   6.181   1.460   3.315
 9371SOL     OW29011   0.388   6.628   0.718
 9371SOL    HW129012   0.295   6.649   0.749
 9371SOL    HW229013   0.451   6.698   0.751
 9372SOL     OW29014   5.991   0.052   5.084
 9372SOL    HW129015   5.995   0.127   5.018
 9372SOL    HW229016   5.977   0.090   5.176
 9373SOL     OW29017   4.127   1.942   3.443
 9373SOL    HW129018   4.156   1.913   3.351
 9373SOL    HW229019   4.106   1.861   3.498
 9374SOL     OW29020   5.391   3.716   0.720
 9374SOL    HW129021   5.421   3.676   0.634
 9374SOL    HW229022   5.364   3.644   0.784
 9375SOL     OW29023   0.783   1.191   3.312
 9375SOL    HW129024   0.746   1.129   3.382
 9375SOL    HW229025   0.883   1.192   3.317
 9376SOL     OW29026   1.874   3.751   1.869
 9376SOL    HW129027   1.836   3.699   1.946
 9376SOL    HW229028   1.954   3.803   1.900
 9377SOL     OW29029   5.909   5.624   4.376
 9377SOL    HW129030   5.936   5.566   4.298
 9377SOL    HW229031   5.990   5.673   4.409
 9378SOL     OW29032   2.690   0.098   0.518
 9378SOL    HW129033   2.665   0.187   0.478
 9378SOL    HW229034   2.639   0.085   0.603
 9379SOL     OW29035   5.038   4.771   4.372
 9379SOL    HW129036   5.134   4.783   4.396
 9379SOL    HW229037   5.006   4.681   4.403
 9380SOL     OW29038   5.595   6.854   5.835
 9380SOL    HW129039   5.582   6.783   5.766
 9380SOL    HW229040   5.653   6.819   5.909
 9381SOL     OW29041   2.315   1.693   5.998
 9381SOL    HW129042   2.381   1.744   5.944
 9381SOL    HW229043   2.329   1.713   6.095
 9382SOL     OW29044   5.309   2.199   3.072
 9382SOL    HW129045   5.294   2.292   3.105
 9382SOL    HW229046   5.281   2.192   2.976
 9383SOL     OW29047   3.977   5.829   4.303
 9383SOL    HW129048   4.029   5.751   4.266
 9383SOL    HW229049   3.888   5.797   4.335
 9384SOL     OW29050   4.863   5.683   1.462
 9384SOL    HW129051   4.939   5.648   1.517
 9384SOL    HW229052   4.795   5.611   1.450
 9385SOL     OW29053   3.257   1.164   3.243
 9385SOL    HW129054   3.337   1.188   3.189
 9385SOL    HW229055   3.193   1.112   3.187
 9386SOL     OW29056   2.806   0.055   5.462
 9386SOL    HW129057   2.737   0.064   5.390
 9386SOL    HW229058   2.873   0.128   5.453
 9387SOL     OW29059   3.771   6.950   6.895
 9387SOL    HW129060   3.866   6.929   6.915
 9387SOL    HW229061   3.765   6.995   6.806
 9388SOL     OW29062   6.452   0.416   3.169
 9388SOL    HW129063   6.368   0.448   3.213
 9388SOL    HW229064   6.478   0.327   3.207
 9389SOL     OW29065   2.475   0.758   5.830
 9389SOL    HW129066   2.556   0.741   5.773
 9389SOL    HW229067   2.488   0.844   5.879
 9390SOL     OW29068   2.973   5.201   2.366
 9390SOL    HW129069   2.978   5.301   2.359
 9390SOL    HW229070   3.000   5.160   2.280
 9391SOL     OW29071   0.932   1.055   6.003
 9391SOL    HW129072   0.927   1.090   5.910
 9391SOL    HW229073   1.002   0.983   6.008
 9392SOL     OW29074   1.469   6.111   4.075
 9392SOL    HW129075   1.413   6.165   4.012
 9392SOL    HW229076   1.498   6.027   4.031
 9393SOL     OW29077   3.710   2.188   5.239
 9393SOL    HW129078   3.640   2.256   5.219
 9393SOL    HW229079   3.717   2.123   5.163
 9394SOL     OW29080   6.242   2.667   2.687
 9394SOL    HW129081   6.254   2.590   2.625
 9394SOL    HW229082   6.186   2.737   2.643
 9395SOL     OW29083   2.380   3.260   0.531
 9395SOL    HW129084   2.424   3.178   0.567
 9395SOL    HW229085   2.423   3.287   0.445
 9396SOL     OW29086   6.351   0.118   6.089
 9396SOL    HW129087   6.344   0.168   6.003
 9396SOL    HW229088   6.260   0.110   6.131
 9397SOL     OW29089   2.613   0.636   0.914
 9397SOL    HW129090   2.658   0.595   0.835
 9397SOL    HW229091   2.518   0.605   0.919
 9398SOL     OW29092   2.861   1.355   6.214
 9398SOL    HW129093   2.955   1.370   6.182
 9398SOL    HW229094   2.798   1.367   6.137
 9399SOL     OW29095   7.001   0.586   5.612
 9399SOL    HW129096   6.997   0.598   5.513
 9399SOL    HW229097   6.945   0.508   5.639
 9400SOL     OW29098   5.956   2.992   2.565
 9400SOL    HW129099   6.025   2.920   2.559
 9400SOL    HW229100   5.879   2.968   2.506
 9401SOL     OW29101   3.281   6.991   2.907
 9401SOL    HW129102   3.350   6.919   2.906
 9401SOL    HW229103   3.209   6.970   2.841
 9402SOL     OW29104   2.124   4.962   6.239
 9402SOL    HW129105   2.167   4.924   6.158
 9402SOL    HW229106   2.135   4.899   6.316
 9403SOL     OW29107   5.232   1.420   4.136
 9403SOL    HW129108   5.236   1.390   4.232
 9403SOL    HW229109   5.270   1.512   4.129
 9404SOL     OW29110   1.298   4.289   6.848
 9404SOL    HW129111   1.276   4.269   6.943
 9404SOL    HW229112   1.280   4.208   6.792
 9405SOL     OW29113   6.393   0.046   1.190
 9405SOL    HW129114   6.477   0.007   1.152
 9405SOL    HW229115   6.345   6.997   1.242
 9406SOL     OW29116   0.341   1.584   5.033
 9406SOL    HW129117   0.259   1.535   5.005
 9406SOL    HW229118   0.317   1.678   5.056
 9407SOL     OW29119   3.290   6.050   2.858
 9407SOL    HW129120   3.355   6.124   2.876
 9407SOL    HW229121   3.204   6.089   2.825
 9408SOL     OW29122   3.784   1.745   6.076
 9408SOL    HW129123   3.761   1.827   6.129
 9408SOL    HW229124   3.750   1.664   6.124
 9409SOL     OW29125   5.827   4.120   3.997
 9409SOL    HW129126   5.899   4.189   3.996
 9409SOL    HW229127   5.747   4.155   4.046
 9410SOL     OW29128   4.350   6.169   2.487
 9410SOL    HW129129   4.432   6.143   2.539
 9410SOL    HW229130   4.352   6.124   2.398
 9411SOL     OW29131   4.477   4.888   0.505
 9411SOL    HW129132   4.566   4.907   0.547
 9411SOL    HW229133   4.429   4.820   0.561
 9412SOL     OW29134   6.788   2.463   1.116
 9412SOL    HW129135   6.839   2.538   1.074
 9412SOL    HW229136   6.731   2.498   1.190
 9413SOL     OW29137   3.667   6.078   5.798
 9413SOL    HW129138   3.660   6.076   5.698
 9413SOL    HW229139   3.580   6.052   5.838
 9414SOL     OW29140   2.875   1.688   1.934
 9414SOL    HW129141   2.843   1.605   1.980
 9414SOL    HW229142   2.913   1.664   1.845
 9415SOL     OW29143   3.065   6.834   2.096
 9415SOL    HW129144   3.030   6.911   2.042
 9415SOL    HW229145   3.014   6.751   2.073
 9416SOL     OW29146   1.205   2.436   1.778
 9416SOL    HW129147   1.226   2.441   1.680
 9416SOL    HW229148   1.178   2.343   1.802
 9417SOL     OW29149   2.665   5.696   5.478
 9417SOL    HW129150   2.718   5.615   5.502
 9417SOL    HW229151   2.696   5.731   5.390
 9418SOL     OW29152   3.010   5.320   0.679
 9418SOL    HW129153   2.991   5.235   0.729
 9418SOL    HW229154   3.070   5.378   0.735
 9419SOL     OW29155   2.685   6.811   5.257
 9419SOL    HW129156   2.684   6.910   5.243
 9419SOL    HW229157   2.758   6.787   5.321
 9420SOL     OW29158   0.290   1.207   4.588
 9420SOL    HW129159   0.311   1.261   4.670
 9420SOL    HW229160   0.323   1.113   4.601
 9421SOL     OW29161   1.145   4.689   5.573
 9421SOL    HW129162   1.205   4.671   5.651
 9421SOL    HW229163   1.074   4.619   5.568
 9422SOL     OW29164   4.824   1.028   2.381
 9422SOL    HW129165   4.863   1.069   2.464
 9422SOL    HW229166   4.765   0.952   2.407
 9423SOL     OW29167   3.826   0.762   4.364
 9423SOL    HW129168   3.829   0.857   4.333
 9423SOL    HW229169   3.739   0.743   4.409
 9424SOL     OW29170   3.296   6.278   4.468
 9424SOL    HW129171   3.335   6.340   4.401
 9424SOL    HW229172   3.224   6.324   4.519
 9425SOL     OW29173   1.198   3.146   4.440
 9425SOL    HW129174   1.138   3.074   4.406
 9425SOL    HW229175   1.269   3.106   4.498
 9426SOL     OW29176   3.274   0.219   6.949
 9426SOL    HW129177   3.231   0.190   0.013
 9426SOL    HW229178   3.279   0.142   6.886
 9427SOL     OW29179   3.100   5.375   4.828
 9427SOL    HW129180   3.158   5.401   4.905
 9427SOL    HW229181   3.055   5.456   4.791
 9428SOL     OW29182   5.258   0.206   3.080
 9428SOL    HW129183   5.178   0.204   3.019
 9428SOL    HW229184   5.231   0.246   3.168
 9429SOL     OW29185   0.418   4.148   2.575
 9429SOL    HW129186   0.506   4.113   2.607
 9429SOL    HW229187   0.349   4.132   2.645
 9430SOL     OW29188   6.482   6.843   1.640
 9430SOL    HW129189   6.570   6.812   1.676
 9430SOL    HW229190   6.430   6.889   1.712
 9431SOL     OW29191   6.791   4.208   1.467
 9431SOL    HW129192   6.812   4.258   1.550
 9431SOL    HW229193   6.870   4.151   1.441
 9432SOL     OW29194   6.652   6.799   3.257
 9432SOL    HW129195   6.606   6.719   3.218
 9432SOL    HW229196   6.603   6.831   3.338
 9433SOL     OW29197   3.418   4.706   5.264
 9433SOL    HW129198   3.351   4.633   5.254
 9433SOL    HW229199   3.416   4.765   5.183
 9434SOL     OW29200   5.324   5.187   2.763
 9434SOL    HW129201   5.242   5.130   2.765
 9434SOL    HW229202   5.348   5.206   2.668
 9435SOL     OW29203   1.580   0.802   4.089
 9435SOL    HW129204   1.645   0.857   4.140
 9435SOL    HW229205   1.489   0.844   4.095
 9436SOL     OW29206   2.172   3.452   0.180
 9436SOL    HW129207   2.226   3.514   0.237
 9436SOL    HW229208   2.230   3.417   0.105
 9437SOL     OW29209   1.326   5.176   3.852
 9437SOL    HW129210   1.264   5.181   3.930
 9437SOL    HW229211   1.290   5.113   3.784
 9438SOL     OW29212   0.955   6.470   2.112
 9438SOL    HW129213   0.999   6.559   2.130
 9438SOL    HW229214   0.982   6.437   2.022
 9439SOL     OW29215   0.361   2.449   2.213
 9439SOL    HW129216   0.384   2.546   2.215
 9439SOL    HW229217   0.412   2.402   2.286
 9440SOL     OW29218   5.198   6.248   6.288
 9440SOL    HW129219   5.201   6.157   6.248
 9440SOL    HW229220   5.291   6.281   6.304
 9441SOL     OW29221   1.574   5.118   5.342
 9441SOL    HW129222   1.581   5.028   5.300
 9441SOL    HW229223   1.564   5.108   5.441
 9442SOL     OW29224   6.746   3.181   1.490
 9442SOL    HW129225   6.751   3.219   1.397
 9442SOL    HW229226   6.788   3.090   1.491
 9443SOL     OW29227   1.859   4.046   1.608
 9443SOL    HW129228   1.760   4.033   1.608
 9443SOL    HW229229   1.899   4.001   1.529
 9444SOL     OW29230   0.418   3.688   0.245
 9444SOL    HW129231   0.398   3.599   0.286
 9444SOL    HW229232   0.512   3.689   0.213
 9445SOL     OW29233   5.429   3.538   1.565
 9445SOL    HW129234   5.481   3.529   1.480
 9445SOL    HW229235   5.399   3.447   1.594
 9446SOL     OW29236   6.512   5.990   1.562
 9446SOL    HW129237   6.609   5.996   1.536
 9446SOL    HW229238   6.495   5.902   1.606
 9447SOL     OW29239   5.987   3.529   2.180
 9447SOL    HW129240   6.067   3.587   2.193
 9447SOL    HW229241   5.923   3.573   2.117
 9448SOL     OW29242   5.614   6.465   0.557
 9448SOL    HW129243   5.549   6.391   0.573
 9448SOL    HW229244   5.703   6.426   0.532
 9449SOL     OW29245   5.985   5.046   5.614
 9449SOL    HW129246   5.938   4.977   5.670
 9449SOL    HW229247   6.058   5.088   5.668
 9450SOL     OW29248   3.101   4.973   4.697
 9450SOL    HW129249   3.105   4.880   4.733
 9450SOL    HW229250   3.052   4.973   4.610
 9451SOL     OW29251   4.637   5.119   6.340
 9451SOL    HW129252   4.541   5.116   6.311
 9451SOL    HW229253   4.684   5.194   6.292
 9452SOL     OW29254   2.550   4.847   1.650
 9452SOL    HW129255   2.616   4.900   1.597
 9452SOL    HW229256   2.594   4.766   1.688
 9453SOL     OW29257   2.730   5.413   2.709
 9453SOL    HW129258   2.737   5.357   2.626
 9453SOL    HW229259   2.668   5.490   2.692
 9454SOL     OW29260   1.669   3.321   5.687
 9454SOL    HW129261   1.645   3.300   5.592
 9454SOL    HW229262   1.758   3.367   5.689
 9455SOL     OW29263   3.620   1.637   2.239
 9455SOL    HW129264   3.698   1.697   2.223
 9455SOL    HW229265   3.535   1.688   2.221
 9456SOL     OW29266   1.111   3.792   1.278
 9456SOL    HW129267   1.144   3.843   1.199
 9456SOL    HW229268   1.067   3.708   1.247
 9457SOL     OW29269   0.927   3.276   0.377
 9457SOL    HW129270   0.887   3.364   0.351
 9457SOL    HW229271   0.857   3.205   0.370
 9458SOL     OW29272   6.755   5.329   5.199
 9458SOL    HW129273   6.672   5.275   5.210
 9458SOL    HW229274   6.759   5.399   5.270
 9459SOL     OW29275   6.438   5.753   1.673
 9459SOL    HW129276   6.437   5.653   1.676
 9459SOL    HW229277   6.459   5.789   1.764
 9460SOL     OW29278   0.873   1.934   4.915
 9460SOL    HW129279   0.886   2.013   4.855
 9460SOL    HW229280   0.934   1.861   4.886
 9461SOL     OW29281   1.083   0.734   4.119
 9461SOL    HW129282   1.032   0.792   4.183
 9461SOL    HW229283   1.114   0.652   4.167
 9462SOL     OW29284   0.978   2.612   2.352
 9462SOL    HW129285   0.987   2.687   2.285
 9462SOL    HW229286   1.000   2.646   2.443
 9463SOL     OW29287   5.475   1.518   0.145
 9463SOL    HW129288   5.474   1.598   0.205
 9463SOL    HW229289   5.502   1.438   0.199
 9464SOL     OW29290   5.808   0.109   6.059
 9464SOL    HW129291   5.816   0.188   5.998
 9464SOL    HW229292   5.716   0.072   6.053
 9465SOL     OW29293   6.149   0.628   4.282
 9465SOL    HW129294   6.244   0.606   4.306
 9465SOL    HW229295   6.131   0.601   4.188
 9466SOL     OW29296   2.693   2.677   6.236
 9466SOL    HW129297   2.729   2.766   6.210
 9466SOL    HW229298   2.700   2.615   6.157
 9467SOL     OW29299   2.091   3.164   2.293
 9467SOL    HW129300   2.041   3.100   2.234
 9467SOL    HW229301   2.069   3.257   2.267
 9468SOL     OW29302   0.127   3.103   5.386
 9468SOL    HW129303   0.207   3.049   5.414
 9468SOL    HW229304   0.157   3.191   5.350
 9469SOL     OW29305   6.194   5.329   2.344
 9469SOL    HW129306   6.250   5.377   2.278
 9469SOL    HW229307   6.117   5.386   2.371
 9470SOL     OW29308   4.445   3.582   0.952
 9470SOL    HW129309   4.444   3.598   0.853
 9470SOL    HW229310   4.517   3.516   0.974
 9471SOL     OW29311   0.349   2.035   5.651
 9471SOL    HW129312   0.441   2.074   5.645
 9471SOL    HW229313   0.285   2.096   5.604
 9472SOL     OW29314   5.686   4.579   4.365
 9472SOL    HW129315   5.744   4.517   4.418
 9472SOL    HW229316   5.744   4.645   4.316
 9473SOL     OW29317   2.762   5.403   6.130
 9473SOL    HW129318   2.666   5.412   6.155
 9473SOL    HW229319   2.794   5.488   6.088
 9474SOL     OW29320   4.420   4.894   1.867
 9474SOL    HW129321   4.322   4.880   1.878
 9474SOL    HW229322   4.464   4.889   1.957
 9475SOL     OW29323   2.629   3.670   1.383
 9475SOL    HW129324   2.618   3.762   1.420
 9475SOL    HW229325   2.552   3.613   1.410
 9476SOL     OW29326   3.666   3.181   5.187
 9476SOL    HW129327   3.694   3.277   5.198
 9476SOL    HW229328   3.621   3.170   5.099
 9477SOL     OW29329   1.128   2.822   1.272
 9477SOL    HW129330   1.116   2.903   1.330
 9477SOL    HW229331   1.226   2.802   1.263
 9478SOL     OW29332   5.647   4.634   5.520
 9478SOL    HW129333   5.629   4.646   5.423
 9478SOL    HW229334   5.599   4.552   5.553
 9479SOL     OW29335   6.047   5.565   6.561
 9479SOL    HW129336   6.032   5.478   6.514
 9479SOL    HW229337   6.145   5.586   6.563
 9480SOL     OW29338   5.828   4.847   0.019
 9480SOL    HW129339   5.895   4.784   0.058
 9480SOL    HW229340   5.747   4.849   0.077
 9481SOL     OW29341   6.940   3.473   1.958
 9481SOL    HW129342   6.922   3.459   2.056
 9481SOL    HW229343   6.854   3.488   1.911
 9482SOL     OW29344   4.581   1.160   1.975
 9482SOL    HW129345   4.640   1.193   2.049
 9482SOL    HW229346   4.592   1.061   1.965
 9483SOL     OW29347   1.527   1.565   6.936
 9483SOL    HW129348   1.487   1.475   6.916
 9483SOL    HW229349   1.495   1.631   6.868
 9484SOL     OW29350   6.823   1.278   4.095
 9484SOL    HW129351   6.752   1.347   4.100
 9484SOL    HW229352   6.910   1.320   4.069
 9485SOL     OW29353   1.037   0.882   2.518
 9485SOL    HW129354   1.097   0.905   2.596
 9485SOL    HW229355   0.949   0.850   2.552
 9486SOL     OW29356   2.900   6.109   1.408
 9486SOL    HW129357   2.988   6.152   1.429
 9486SOL    HW229358   2.895   6.020   1.453
 9487SOL     OW29359   3.605   3.901   3.813
 9487SOL    HW129360   3.632   3.807   3.789
 9487SOL    HW229361   3.505   3.908   3.813
 9488SOL     OW29362   0.993   6.453   1.228
 9488SOL    HW129363   0.900   6.438   1.193
 9488SOL    HW229364   1.024   6.370   1.274
 9489SOL     OW29365   3.940   4.780   1.126
 9489SOL    HW129366   3.863   4.824   1.080
 9489SOL    HW229367   3.916   4.685   1.146
 9490SOL     OW29368   5.186   1.027   1.502
 9490SOL    HW129369   5.258   1.020   1.433
 9490SOL    HW229370   5.179   1.122   1.533
 9491SOL     OW29371   5.625   5.016   5.318
 9491SOL    HW129372   5.596   4.922   5.332
 9491SOL    HW229373   5.636   5.033   5.220
 9492SOL     OW29374   3.498   4.189   1.450
 9492SOL    HW129375   3.493   4.241   1.536
 9492SOL    HW229376   3.564   4.115   1.460
 9493SOL     OW29377   4.810   6.112   2.900
 9493SOL    HW129378   4.759   6.197   2.888
 9493SOL    HW229379   4.903   6.133   2.932
 9494SOL     OW29380   4.720   3.080   5.497
 9494SOL    HW129381   4.814   3.109   5.476
 9494SOL    HW229382   4.678   3.144   5.561
 9495SOL     OW29383   5.925   2.144   5.013
 9495SOL    HW129384   5.907   2.241   4.996
 9495SOL    HW229385   5.951   2.131   5.108
 9496SOL     OW29386   5.617   3.991   0.000
 9496SOL    HW129387   5.566   4.074   6.999
 9496SOL    HW229388   5.580   3.913   6.971
 9497SOL     OW29389   5.386   5.675   6.790
 9497SOL    HW129390   5.404   5.622   6.872
 9497SOL    HW229391   5.371   5.613   6.712
 9498SOL     OW29392   3.585   6.972   6.081
 9498SOL    HW129393   3.586   0.045   6.112
 9498SOL    HW229394   3.672   6.950   6.038
 9499SOL     OW29395   3.024   3.795   5.511
 9499SOL    HW129396   3.078   3.727   5.561
 9499SOL    HW229397   2.927   3.774   5.521
 9500SOL     OW29398   4.300   5.973   1.853
 9500SOL    HW129399   4.366   6.043   1.879
 9500SOL    HW229400   4.279   5.916   1.932
 9501SOL     OW29401   3.391   1.300   4.485
 9501SOL    HW129402   3.409   1.391   4.521
 9501SOL    HW229403   3.477   1.260   4.452
 9502SOL     OW29404   6.128   2.553   5.042
 9502SOL    HW129405   6.228   2.550   5.051
 9502SOL    HW229406   6.103   2.528   4.948
 9503SOL     OW29407   1.151   0.066   1.825
 9503SOL    HW129408   1.145   0.109   1.916
 9503SOL    HW229409   1.214   7.010   1.829
 9504SOL     OW29410   0.651   2.833   0.322
 9504SOL    HW129411   0.629   2.793   0.411
 9504SOL    HW229412   0.734   2.887   0.329
 9505SOL     OW29413   6.231   3.114   3.300
 9505SOL    HW129414   6.290   3.034   3.290
 9505SOL    HW229415   6.216   3.133   3.397
 9506SOL     OW29416   0.151   3.811   0.427
 9506SOL    HW129417   0.162   3.833   0.330
 9506SOL    HW229418   0.081   3.741   0.438
 9507SOL     OW29419   0.788   1.544   3.496
 9507SOL    HW129420   0.752   1.466   3.548
 9507SOL    HW229421   0.887   1.535   3.488
 9508SOL     OW29422   5.781   1.621   0.709
 9508SOL    HW129423   5.705   1.590   0.765
 9508SOL    HW229424   5.769   1.718   0.687
 9509SOL     OW29425   2.187   6.300   5.574
 9509SOL    HW129426   2.196   6.309   5.673
 9509SOL    HW229427   2.140   6.214   5.553
 9510SOL     OW29428   6.049   4.519   3.134
 9510SOL    HW129429   6.018   4.588   3.199
 9510SOL    HW229430   6.138   4.546   3.096
 9511SOL     OW29431   0.664   2.111   0.270
 9511SOL    HW129432   0.598   2.052   0.318
 9511SOL    HW229433   0.737   2.136   0.333
 9512SOL     OW29434   1.117   2.016   4.135
 9512SOL    HW129435   1.022   1.999   4.110
 9512SOL    HW229436   1.125   2.020   4.235
 9513SOL     OW29437   1.904   3.836   4.478
 9513SOL    HW129438   1.983   3.896   4.467
 9513SOL    HW229439   1.913   3.758   4.415
 9514SOL     OW29440   1.812   3.393   0.277
 9514SOL    HW129441   1.847   3.374   0.185
 9514SOL    HW229442   1.889   3.407   0.339
 9515SOL     OW29443   1.909   6.119   6.501
 9515SOL    HW129444   1.864   6.111   6.589
 9515SOL    HW229445   1.855   6.071   6.431
 9516SOL     OW29446   5.604   3.841   4.080
 9516SOL    HW129447   5.515   3.809   4.112
 9516SOL    HW229448   5.632   3.788   4.000
 9517SOL     OW29449   0.311   5.557   1.475
 9517SOL    HW129450   0.239   5.528   1.413
 9517SOL    HW229451   0.388   5.493   1.471
 9518SOL     OW29452   0.733   2.326   6.287
 9518SOL    HW129453   0.659   2.259   6.286
 9518SOL    HW229454   0.706   2.406   6.339
 9519SOL     OW29455   3.342   3.644   2.709
 9519SOL    HW129456   3.358   3.546   2.719
 9519SOL    HW229457   3.394   3.693   2.778
 9520SOL     OW29458   0.030   0.327   5.331
 9520SOL    HW129459   6.989   0.257   5.365
 9520SOL    HW229460   7.011   0.418   5.344
 9521SOL     OW29461   3.315   0.528   0.659
 9521SOL    HW129462   3.414   0.520   0.643
 9521SOL    HW229463   3.272   0.567   0.578
 9522SOL     OW29464   3.732   6.078   1.160
 9522SOL    HW129465   3.760   6.011   1.092
 9522SOL    HW229466   3.665   6.141   1.118
 9523SOL     OW29467   2.291   5.188   3.970
 9523SOL    HW129468   2.337   5.253   4.031
 9523SOL    HW229469   2.292   5.097   4.011
 9524SOL     OW29470   1.869   4.229   1.274
 9524SOL    HW129471   1.863   4.152   1.338
 9524SOL    HW229472   1.951   4.220   1.219
 9525SOL     OW29473   2.052   2.836   5.618
 9525SOL    HW129474   1.999   2.920   5.627
 9525SOL    HW229475   1.993   2.763   5.584
 9526SOL     OW29476   5.252   5.180   6.698
 9526SOL    HW129477   5.228   5.276   6.686
 9526SOL    HW229478   5.206   5.125   6.629
 9527SOL     OW29479   3.565   6.844   3.221
 9527SOL    HW129480   3.529   6.789   3.297
 9527SOL    HW229481   3.665   6.847   3.227
 9528SOL     OW29482   5.985   1.476   0.815
 9528SOL    HW129483   5.912   1.539   0.790
 9528SOL    HW229484   6.026   1.437   0.732
 9529SOL     OW29485   6.243   2.095   1.800
 9529SOL    HW129486   6.298   2.050   1.730
 9529SOL    HW229487   6.238   2.193   1.781
 9530SOL     OW29488   0.627   5.511   3.756
 9530SOL    HW129489   0.681   5.478   3.678
 9530SOL    HW229490   0.625   5.440   3.827
 9531SOL     OW29491   3.752   4.880   2.965
 9531SOL    HW129492   3.752   4.908   3.061
 9531SOL    HW229493   3.659   4.877   2.931
 9532SOL     OW29494   5.682   5.480   2.472
 9532SOL    HW129495   5.659   5.476   2.374
 9532SOL    HW229496   5.602   5.510   2.524
 9533SOL     OW29497   2.390   5.337   3.556
 9533SOL    HW129498   2.466   5.356   3.618
 9533SOL    HW229499   2.305   5.369   3.596
 9534SOL     OW29500   5.643   4.519   5.008
 9534SOL    HW129501   5.677   4.572   4.930
 9534SOL    HW229502   5.715   4.459   5.042
 9535SOL     OW29503   1.116   1.406   5.870
 9535SOL    HW129504   1.053   1.385   5.795
 9535SOL    HW229505   1.206   1.429   5.832
 9536SOL     OW29506   3.697   3.860   4.489
 9536SOL    HW129507   3.716   3.828   4.396
 9536SOL    HW229508   3.669   3.783   4.546
 9537SOL     OW29509   1.278   0.649   3.787
 9537SOL    HW129510   1.297   0.747   3.782
 9537SOL    HW229511   1.189   0.634   3.829
 9538SOL     OW29512   3.592   0.677   4.610
 9538SOL    HW129513   3.551   0.656   4.521
 9538SOL    HW229514   3.527   0.655   4.683
 9539SOL     OW29515   3.546   2.929   2.949
 9539SOL    HW129516   3.611   2.860   2.981
 9539SOL    HW229517   3.462   2.923   3.003
 9540SOL     OW29518   4.656   4.986   4.112
 9540SOL    HW129519   4.696   4.897   4.089
 9540SOL    HW229520   4.567   4.995   4.068
 9541SOL     OW29521   1.568   5.659   4.948
 9541SOL    HW129522   1.656   5.681   4.907
 9541SOL    HW229523   1.574   5.572   4.996
 9542SOL     OW29524   5.448   4.762   4.198
 9542SOL    HW129525   5.402   4.786   4.284
 9542SOL    HW229526   5.535   4.717   4.218
 9543SOL     OW29527   2.409   1.074   5.965
 9543SOL    HW129528   2.492   1.038   5.922
 9543SOL    HW229529   2.338   1.086   5.896
 9544SOL     OW29530   5.596   3.904   3.364
 9544SOL    HW129531   5.626   3.956   3.283
 9544SOL    HW229532   5.532   3.833   3.336
 9545SOL     OW29533   0.922   4.661   1.979
 9545SOL    HW129534   0.913   4.724   1.901
 9545SOL    HW229535   0.949   4.571   1.946
 9546SOL     OW29536   2.930   1.597   6.405
 9546SOL    HW129537   2.967   1.530   6.341
 9546SOL    HW229538   2.999   1.619   6.474
 9547SOL     OW29539   3.566   6.321   3.885
 9547SOL    HW129540   3.559   6.410   3.931
 9547SOL    HW229541   3.488   6.309   3.824
 9548SOL     OW29542   0.862   4.803   6.725
 9548SOL    HW129543   0.781   4.860   6.716
 9548SOL    HW229544   0.855   4.749   6.809
 9549SOL     OW29545   4.105   1.923   2.080
 9549SOL    HW129546   4.102   1.915   1.981
 9549SOL    HW229547   4.058   2.007   2.109
 9550SOL     OW29548   5.316   2.472   1.392
 9550SOL    HW129549   5.362   2.561   1.396
 9550SOL    HW229550   5.274   2.451   1.480
 9551SOL     OW29551   6.355   2.252   6.229
 9551SOL    HW129552   6.395   2.253   6.138
 9551SOL    HW229553   6.418   2.208   6.293
 9552SOL     OW29554   2.238   0.816   6.328
 9552SOL    HW129555   2.280   0.907   6.338
 9552SOL    HW229556   2.284   0.752   6.390
 9553SOL     OW29557   5.341   2.358   6.666
 9553SOL    HW129558   5.317   2.454   6.651
 9553SOL    HW229559   5.376   2.318   6.582
 9554SOL     OW29560   2.318   6.591   4.190
 9554SOL    HW129561   2.374   6.653   4.245
 9554SOL    HW229562   2.272   6.526   4.250
 9555SOL     OW29563   6.601   1.005   3.862
 9555SOL    HW129564   6.608   0.906   3.875
 9555SOL    HW229565   6.692   1.044   3.851
 9556SOL     OW29566   2.164   3.958   0.874
 9556SOL    HW129567   2.103   4.024   0.830
 9556SOL    HW229568   2.232   4.007   0.928
 9557SOL     OW29569   5.183   0.563   1.585
 9557SOL    HW129570   5.105   0.615   1.619
 9557SOL    HW229571   5.250   0.552   1.659
 9558SOL     OW29572   5.654   6.387   5.985
 9558SOL    HW129573   5.745   6.416   6.015
 9558SOL    HW229574   5.633   6.298   6.025
 9559SOL     OW29575   1.372   3.923   7.007
 9559SOL    HW129576   1.461   3.910   0.030
 9559SOL    HW229577   1.306   3.858   0.021
 9560SOL     OW29578   3.512   0.339   1.967
 9560SOL    HW129579   3.425   0.383   1.990
 9560SOL    HW229580   3.495   0.262   1.906
 9561SOL     OW29581   1.021   1.011   1.222
 9561SOL    HW129582   1.090   1.058   1.276
 9561SOL    HW229583   0.977   1.076   1.160
 9562SOL     OW29584   2.741   5.537   3.459
 9562SOL    HW129585   2.669   5.579   3.403
 9562SOL    HW229586   2.790   5.469   3.404
 9563SOL     OW29587   0.603   6.479   0.312
 9563SOL    HW129588   0.684   6.422   0.297
 9563SOL    HW229589   0.570   6.464   0.405
 9564SOL     OW29590   1.539   0.373   0.888
 9564SOL    HW129591   1.630   0.405   0.912
 9564SOL    HW229592   1.477   0.451   0.881
 9565SOL     OW29593   3.708   1.183   3.735
 9565SOL    HW129594   3.626   1.240   3.729
 9565SOL    HW229595   3.785   1.240   3.762
 9566SOL     OW29596   2.302   6.804   0.482
 9566SOL    HW129597   2.244   6.788   0.402
 9566SOL    HW229598   2.343   6.718   0.512
 9567SOL     OW29599   6.703   4.745   0.628
 9567SOL    HW129600   6.720   4.798   0.545
 9567SOL    HW229601   6.702   4.648   0.606
 9568SOL     OW29602   4.303   1.791   6.989
 9568SOL    HW129603   4.288   1.732   0.048
 9568SOL    HW229604   4.219   1.840   6.968
 9569SOL     OW29605   6.012   0.316   1.826
 9569SOL    HW129606   5.977   0.305   1.920
 9569SOL    HW229607   6.046   0.409   1.814
 9570SOL     OW29608   0.060   3.296   1.139
 9570SOL    HW129609   6.985   3.320   1.149
 9570SOL    HW229610   0.090   3.313   1.046
 9571SOL     OW29611   2.295   2.786   6.769
 9571SOL    HW129612   2.252   2.876   6.777
 9571SOL    HW229613   2.394   2.795   6.774
 9572SOL     OW29614   2.197   4.382   3.558
 9572SOL    HW129615   2.255   4.446   3.608
 9572SOL    HW229616   2.244   4.294   3.548
 9573SOL     OW29617   6.936   0.884   5.316
 9573SOL    HW129618   6.880   0.953   5.362
 9573SOL    HW229619   6.961   0.916   5.224
 9574SOL     OW29620   4.077   2.778   1.380
 9574SOL    HW129621   3.989   2.739   1.406
 9574SOL    HW229622   4.144   2.763   1.453
 9575SOL     OW29623   5.729   6.494   2.018
 9575SOL    HW129624   5.673   6.449   2.088
 9575SOL    HW229625   5.687   6.480   1.928
 9576SOL     OW29626   1.234   1.448   0.108
 9576SOL    HW129627   1.272   1.368   0.063
 9576SOL    HW229628   1.248   1.442   0.207
 9577SOL     OW29629   0.239   6.097   1.318
 9577SOL    HW129630   0.168   6.092   1.249
 9577SOL    HW229631   0.236   6.015   1.375
 9578SOL     OW29632   1.269   2.580   3.524
 9578SOL    HW129633   1.359   2.613   3.496
 9578SOL    HW229634   1.268   2.480   3.523
 9579SOL     OW29635   5.855   6.740   2.065
 9579SOL    HW129636   5.801   6.688   1.998
 9579SOL    HW229637   5.840   6.702   2.156
 9580SOL     OW29638   5.237   4.699   1.052
 9580SOL    HW129639   5.246   4.744   0.963
 9580SOL    HW229640   5.324   4.656   1.075
 9581SOL     OW29641   6.379   0.439   6.958
 9581SOL    HW129642   6.443   0.504   7.000
 9581SOL    HW229643   6.381   0.353   7.009
 9582SOL     OW29644   3.645   5.499   4.070
 9582SOL    HW129645   3.648   5.426   4.001
 9582SOL    HW229646   3.735   5.510   4.111
 9583SOL     OW29647   3.306   4.717   1.774
 9583SOL    HW129648   3.391   4.673   1.801
 9583SOL    HW229649   3.245   4.650   1.731
 9584SOL     OW29650   1.729   4.057   4.564
 9584SOL    HW129651   1.759   3.968   4.529
 9584SOL    HW229652   1.711   4.050   4.663
 9585SOL     OW29653   5.049   6.021   1.489
 9585SOL    HW129654   5.022   5.955   1.419
 9585SOL    HW229655   5.095   5.974   1.564
 9586SOL     OW29656   4.499   5.267   1.461
 9586SOL    HW129657   4.471   5.188   1.515
 9586SOL    HW229658   4.565   5.238   1.391
 9587SOL     OW29659   2.175   6.354   1.554
 9587SOL    HW129660   2.142   6.307   1.472
 9587SOL    HW229661   2.233   6.291   1.606
 9588SOL     OW29662   6.273   6.171   0.634
 9588SOL    HW129663   6.314   6.106   0.698
 9588SOL    HW229664   6.229   6.245   0.685
 9589SOL     OW29665   1.247   3.379   6.552
 9589SOL    HW129666   1.275   3.429   6.470
 9589SOL    HW229667   1.202   3.442   6.615
 9590SOL     OW29668   5.483   1.606   1.929
 9590SOL    HW129669   5.533   1.523   1.956
 9590SOL    HW229670   5.417   1.583   1.857
 9591SOL     OW29671   3.534   6.789   6.508
 9591SOL    HW129672   3.542   6.776   6.409
 9591SOL    HW229673   3.491   6.878   6.526
 9592SOL     OW29674   2.758   4.230   6.525
 9592SOL    HW129675   2.817   4.304   6.558
 9592SOL    HW229676   2.663   4.252   6.546
 9593SOL     OW29677   1.978   1.449   5.476
 9593SOL    HW129678   2.017   1.433   5.566
 9593SOL    HW229679   2.006   1.376   5.414
 9594SOL     OW29680   1.860   6.147   3.835
 9594SOL    HW129681   1.893   6.061   3.795
 9594SOL    HW229682   1.826   6.131   3.927
 9595SOL     OW29683   0.426   3.212   3.955
 9595SOL    HW129684   0.406   3.147   4.028
 9595SOL    HW229685   0.341   3.250   3.919
 9596SOL     OW29686   0.505   5.606   1.219
 9596SOL    HW129687   0.473   5.514   1.243
 9596SOL    HW229688   0.430   5.658   1.176
 9597SOL     OW29689   1.144   4.298   2.052
 9597SOL    HW129690   1.107   4.207   2.073
 9597SOL    HW229691   1.106   4.365   2.116
 9598SOL     OW29692   1.813   3.833   2.966
 9598SOL    HW129693   1.855   3.846   2.877
 9598SOL    HW229694   1.714   3.827   2.956
 9599SOL     OW29695   3.329   6.830   3.688
 9599SOL    HW129696   3.261   6.888   3.733
 9599SOL    HW229697   3.416   6.836   3.737
 9600SOL     OW29698   3.014   0.569   0.639
 9600SOL    HW129699   2.999   0.471   0.624
 9600SOL    HW229700   3.086   0.582   0.707
 9601SOL     OW29701   6.542   4.744   1.147
 9601SOL    HW129702   6.613   4.689   1.103
 9601SOL    HW229703   6.480   4.684   1.197
 9602SOL     OW29704   4.587   4.740   5.578
 9602SOL    HW129705   4.609   4.665   5.515
 9602SOL    HW229706   4.671   4.781   5.613
 9603SOL     OW29707   5.517   6.517   5.780
 9603SOL    HW129708   5.438   6.565   5.819
 9603SOL    HW229709   5.561   6.462   5.851
 9604SOL     OW29710   5.076   0.757   1.076
 9604SOL    HW129711   5.063   0.659   1.060
 9604SOL    HW229712   5.066   0.777   1.174
 9605SOL     OW29713   7.004   5.021   3.144
 9605SOL    HW129714   6.987   4.939   3.090
 9605SOL    HW229715   6.918   5.067   3.164
 9606SOL     OW29716   1.149   1.449   6.799
 9606SOL    HW129717   1.128   1.546   6.812
 9606SOL    HW229718   1.138   1.401   6.886
 9607SOL     OW29719   3.204   1.720   6.598
 9607SOL    HW129720   3.197   1.628   6.559
 9607SOL    HW229721   3.299   1.738   6.624
 9608SOL     OW29722   6.674   4.287   2.906
 9608SOL    HW129723   6.687   4.319   2.999
 9608SOL    HW229724   6.697   4.360   2.841
 9609SOL     OW29725   3.897   2.524   6.466
 9609SOL    HW129726   3.845   2.482   6.541
 9609SOL    HW229727   3.993   2.498   6.474
 9610SOL     OW29728   2.303   5.019   2.512
 9610SOL    HW129729   2.265   5.103   2.551
 9610SOL    HW229730   2.403   5.024   2.512
 9611SOL     OW29731   1.836   6.903   0.829
 9611SOL    HW129732   1.904   6.891   0.756
 9611SOL    HW229733   1.775   6.823   0.831
 9612SOL     OW29734   0.842   3.416   2.220
 9612SOL    HW129735   0.896   3.500   2.228
 9612SOL    HW229736   0.757   3.437   2.172
 9613SOL     OW29737   5.816   6.449   3.324
 9613SOL    HW129738   5.756   6.457   3.245
 9613SOL    HW229739   5.888   6.382   3.305
 9614SOL     OW29740   4.134   2.280   2.796
 9614SOL    HW129741   4.083   2.365   2.792
 9614SOL    HW229742   4.092   2.219   2.864
 9615SOL     OW29743   2.517   2.202   0.717
 9615SOL    HW129744   2.617   2.209   0.712
 9615SOL    HW229745   2.481   2.180   0.627
 9616SOL     OW29746   3.704   2.725   0.947
 9616SOL    HW129747   3.648   2.723   1.030
 9616SOL    HW229748   3.800   2.708   0.972
 9617SOL     OW29749   1.948   2.813   3.525
 9617SOL    HW129750   1.938   2.913   3.521
 9617SOL    HW229751   2.040   2.788   3.495
 9618SOL     OW29752   3.168   1.176   1.036
 9618SOL    HW129753   3.150   1.258   0.982
 9618SOL    HW229754   3.259   1.182   1.077
 9619SOL     OW29755   1.592   0.553   5.315
 9619SOL    HW129756   1.492   0.554   5.304
 9619SOL    HW229757   1.616   0.494   5.392
 9620SOL     OW29758   4.845   0.565   4.772
 9620SOL    HW129759   4.812   0.554   4.866
 9620SOL    HW229760   4.775   0.532   4.708
 9621SOL     OW29761   1.663   2.791   2.038
 9621SOL    HW129762   1.620   2.711   1.996
 9621SOL    HW229763   1.687   2.857   1.968
 9622SOL     OW29764   6.029   1.152   0.735
 9622SOL    HW129765   5.936   1.137   0.703
 9622SOL    HW229766   6.079   1.207   0.668
 9623SOL     OW29767   2.914   2.871   6.491
 9623SOL    HW129768   2.998   2.876   6.544
 9623SOL    HW229769   2.896   2.959   6.447
 9624SOL     OW29770   5.951   3.561   2.900
 9624SOL    HW129771   5.941   3.513   2.987
 9624SOL    HW229772   6.047   3.586   2.886
 9625SOL     OW29773   5.438   5.841   0.083
 9625SOL    HW129774   5.375   5.884   0.019
 9625SOL    HW229775   5.530   5.877   0.070
 9626SOL     OW29776   3.870   4.928   0.741
 9626SOL    HW129777   3.828   4.917   0.832
 9626SOL    HW229778   3.805   4.974   0.680
 9627SOL     OW29779   0.699   6.357   6.501
 9627SOL    HW129780   0.728   6.298   6.576
 9627SOL    HW229781   0.713   6.310   6.414
 9628SOL     OW29782   5.089   6.007   0.977
 9628SOL    HW129783   5.013   6.012   1.042
 9628SOL    HW229784   5.131   6.097   0.968
 9629SOL     OW29785   2.399   0.598   1.484
 9629SOL    HW129786   2.340   0.534   1.533
 9629SOL    HW229787   2.489   0.600   1.527
 9630SOL     OW29788   6.259   0.450   5.708
 9630SOL    HW129789   6.246   0.543   5.675
 9630SOL    HW229790   6.228   0.385   5.638
 9631SOL     OW29791   6.290   0.339   6.439
 9631SOL    HW129792   6.303   0.240   6.435
 9631SOL    HW229793   6.355   0.379   6.504
 9632SOL     OW29794   1.930   6.185   2.121
 9632SOL    HW129795   1.927   6.104   2.181
 9632SOL    HW229796   1.864   6.174   2.047
 9633SOL     OW29797   5.677   5.392   6.634
 9633SOL    HW129798   5.756   5.377   6.575
 9633SOL    HW229799   5.705   5.440   6.717
 9634SOL     OW29800   1.660   6.137   4.862
 9634SOL    HW129801   1.564   6.116   4.846
 9634SOL    HW229802   1.713   6.120   4.779
 9635SOL     OW29803   2.560   5.389   4.910
 9635SOL    HW129804   2.587   5.481   4.939
 9635SOL    HW229805   2.610   5.364   4.827
 9636SOL     OW29806   3.712   1.362   5.486
 9636SOL    HW129807   3.714   1.460   5.504
 9636SOL    HW229808   3.698   1.312   5.571
 9637SOL     OW29809   2.334   2.142   6.479
 9637SOL    HW129810   2.271   2.214   6.508
 9637SOL    HW229811   2.420   2.183   6.449
 9638SOL     OW29812   6.760   3.312   4.996
 9638SOL    HW129813   6.738   3.376   4.922
 9638SOL    HW229814   6.854   3.326   5.025
 9639SOL     OW29815   4.528   1.663   2.750
 9639SOL    HW129816   4.621   1.682   2.782
 9639SOL    HW229817   4.518   1.695   2.655
 9640SOL     OW29818   2.370   2.691   2.847
 9640SOL    HW129819   2.384   2.667   2.943
 9640SOL    HW229820   2.369   2.608   2.792
 9641SOL     OW29821   4.854   6.894   0.658
 9641SOL    HW129822   4.924   6.940   0.713
 9641SOL    HW229823   4.854   6.933   0.565
 9642SOL     OW29824   3.540   0.241   4.626
 9642SOL    HW129825   3.549   0.264   4.723
 9642SOL    HW229826   3.618   0.278   4.576
 9643SOL     OW29827   5.225   4.471   3.723
 9643SOL    HW129828   5.176   4.386   3.738
 9643SOL    HW229829   5.324   4.454   3.726
 9644SOL     OW29830   0.765   3.315   6.551
 9644SOL    HW129831   0.860   3.283   6.556
 9644SOL    HW229832   0.705   3.250   6.599
 9645SOL     OW29833   3.073   5.241   5.338
 9645SOL    HW129834   3.011   5.162   5.336
 9645SOL    HW229835   3.163   5.212   5.369
 9646SOL     OW29836   4.267   5.001   2.205
 9646SOL    HW129837   4.222   5.047   2.281
 9646SOL    HW229838   4.215   5.016   2.121
 9647SOL     OW29839   6.197   3.332   1.258
 9647SOL    HW129840   6.211   3.337   1.159
 9647SOL    HW229841   6.120   3.390   1.284
 9648SOL     OW29842   4.485   2.223   1.344
 9648SOL    HW129843   4.535   2.304   1.376
 9648SOL    HW229844   4.543   2.143   1.350
 9649SOL     OW29845   2.554   6.114   0.123
 9649SOL    HW129846   2.530   6.193   0.067
 9649SOL    HW229847   2.605   6.145   0.204
 9650SOL     OW29848   6.592   5.653   2.175
 9650SOL    HW129849   6.686   5.664   2.208
 9650SOL    HW229850   6.535   5.620   2.249
 9651SOL     OW29851   1.099   1.115   6.312
 9651SOL    HW129852   1.017   1.162   6.281
 9651SOL    HW229853   1.074   1.032   6.361
 9652SOL     OW29854   0.522   4.595   2.628
 9652SOL    HW129855   0.549   4.679   2.580
 9652SOL    HW229856   0.482   4.531   2.562
 9653SOL     OW29857   4.746   4.930   4.363
 9653SOL    HW129858   4.726   4.978   4.278
 9653SOL    HW229859   4.814   4.982   4.415
 9654SOL     OW29860   2.324   2.590   2.134
 9654SOL    HW129861   2.380   2.539   2.200
 9654SOL    HW229862   2.302   2.530   2.057
 9655SOL     OW29863   6.906   1.389   6.320
 9655SOL    HW129864   6.889   1.321   6.391
 9655SOL    HW229865   6.848   1.469   6.336
 9656SOL     OW29866   3.242   0.113   2.397
 9656SOL    HW129867   3.243   0.130   2.496
 9656SOL    HW229868   3.291   0.187   2.351
 9657SOL     OW29869   5.981   1.219   4.963
 9657SOL    HW129870   5.997   1.313   4.932
 9657SOL    HW229871   6.038   1.201   5.043
 9658SOL     OW29872   6.113   2.943   1.939
 9658SOL    HW129873   6.130   2.901   2.028
 9658SOL    HW229874   6.044   2.890   1.890
 9659SOL     OW29875   0.862   4.688   0.449
 9659SOL    HW129876   0.875   4.589   0.441
 9659SOL    HW229877   0.766   4.707   0.469
 9660SOL     OW29878   1.042   5.138   0.397
 9660SOL    HW129879   0.949   5.145   0.431
 9660SOL    HW229880   1.105   5.182   0.461
 9661SOL     OW29881   4.622   6.972   0.801
 9661SOL    HW129882   4.614   0.040   0.757
 9661SOL    HW229883   4.696   6.920   0.758
 9662SOL     OW29884   6.271   1.641   4.654
 9662SOL    HW129885   6.315   1.660   4.566
 9662SOL    HW229886   6.225   1.552   4.650
 9663SOL     OW29887   1.767   5.388   2.759
 9663SOL    HW129888   1.726   5.298   2.770
 9663SOL    HW229889   1.848   5.380   2.701
 9664SOL     OW29890   4.131   6.448   1.996
 9664SOL    HW129891   4.094   6.510   2.066
 9664SOL    HW229892   4.088   6.358   2.006
 9665SOL     OW29893   5.418   4.198   5.293
 9665SOL    HW129894   5.337   4.182   5.348
 9665SOL    HW229895   5.436   4.119   5.236
 9666SOL     OW29896   5.184   4.390   2.384
 9666SOL    HW129897   5.127   4.312   2.406
 9666SOL    HW229898   5.269   4.386   2.437
 9667SOL     OW29899   4.036   3.742   4.192
 9667SOL    HW129900   3.937   3.751   4.182
 9667SOL    HW229901   4.065   3.655   4.151
 9668SOL     OW29902   0.496   1.305   5.601
 9668SOL    HW129903   0.406   1.261   5.593
 9668SOL    HW229904   0.494   1.372   5.675
 9669SOL     OW29905   0.531   6.823   0.014
 9669SOL    HW129906   0.459   6.774   6.986
 9669SOL    HW229907   0.493   6.863   0.097
 9670SOL     OW29908   4.840   4.649   6.760
 9670SOL    HW129909   4.826   4.748   6.767
 9670SOL    HW229910   4.884   4.628   6.673
 9671SOL     OW29911   0.162   5.426   5.424
 9671SOL    HW129912   0.103   5.354   5.460
 9671SOL    HW229913   0.218   5.389   5.349
 9672SOL     OW29914   0.707   6.168   4.744
 9672SOL    HW129915   0.677   6.074   4.760
 9672SOL    HW229916   0.743   6.177   4.651
 9673SOL     OW29917   3.652   4.474   6.775
 9673SOL    HW129918   3.709   4.501   6.852
 9673SOL    HW229919   3.657   4.543   6.703
 9674SOL     OW29920   3.218   6.217   1.913
 9674SOL    HW129921   3.250   6.241   2.005
 9674SOL    HW229922   3.168   6.131   1.917
 9675SOL     OW29923   6.652   2.069   2.406
 9675SOL    HW129924   6.594   1.995   2.374
 9675SOL    HW229925   6.733   2.076   2.348
 9676SOL     OW29926   0.951   3.951   4.727
 9676SOL    HW129927   0.920   4.046   4.718
 9676SOL    HW229928   0.897   3.892   4.668
 9677SOL     OW29929   2.179   3.583   6.033
 9677SOL    HW129930   2.130   3.636   6.102
 9677SOL    HW229931   2.258   3.635   6.000
 9678SOL     OW29932   3.962   3.917   3.161
 9678SOL    HW129933   3.874   3.965   3.166
 9678SOL    HW229934   4.008   3.924   3.250
 9679SOL     OW29935   1.519   2.622   1.884
 9679SOL    HW129936   1.504   2.526   1.904
 9679SOL    HW229937   1.522   2.635   1.785
 9680SOL     OW29938   5.844   6.141   3.222
 9680SOL    HW129939   5.928   6.195   3.232
 9680SOL    HW229940   5.861   6.047   3.252
 9681SOL     OW29941   2.174   1.046   2.457
 9681SOL    HW129942   2.094   1.011   2.506
 9681SOL    HW229943   2.173   1.010   2.363
 9682SOL     OW29944   5.501   4.264   3.474
 9682SOL    HW129945   5.422   4.239   3.530
 9682SOL    HW229946   5.476   4.262   3.377
 9683SOL     OW29947   4.135   6.311   0.119
 9683SOL    HW129948   4.111   6.362   0.037
 9683SOL    HW229949   4.234   6.313   0.132
 9684SOL     OW29950   0.608   3.926   5.353
 9684SOL    HW129951   0.640   3.881   5.269
 9684SOL    HW229952   0.529   3.983   5.332
 9685SOL     OW29953   1.350   2.924   1.018
 9685SOL    HW129954   1.268   2.965   1.057
 9685SOL    HW229955   1.430   2.978   1.046
 9686SOL     OW29956   6.533   0.682   1.863
 9686SOL    HW129957   6.464   0.712   1.929
 9686SOL    HW229958   6.590   0.611   1.905
 9687SOL     OW29959   2.533   7.005   3.594
 9687SOL    HW129960   2.611   6.943   3.592
 9687SOL    HW229961   2.543   0.048   3.670
 9688SOL     OW29962   0.100   1.194   3.250
 9688SOL    HW129963   0.128   1.234   3.163
 9688SOL    HW229964   0.181   1.169   3.303
 9689SOL     OW29965   2.948   6.329   6.480
 9689SOL    HW129966   2.997   6.387   6.545
 9689SOL    HW229967   2.895   6.386   6.418
 9690SOL     OW29968   6.415   5.042   0.662
 9690SOL    HW129969   6.457   4.981   0.729
 9690SOL    HW229970   6.365   4.989   0.594
 9691SOL     OW29971   1.511   5.063   2.204
 9691SOL    HW129972   1.538   5.153   2.170
 9691SOL    HW229973   1.561   4.992   2.154
 9692SOL     OW29974   2.900   5.216   1.441
 9692SOL    HW129975   2.932   5.192   1.350
 9692SOL    HW229976   2.878   5.314   1.445
 9693SOL     OW29977   6.643   6.028   2.025
 9693SOL    HW129978   6.682   6.031   2.117
 9693SOL    HW229979   6.622   6.121   1.995
 9694SOL     OW29980   1.616   2.704   6.814
 9694SOL    HW129981   1.532   2.669   6.773
 9694SOL    HW229982   1.595   2.749   6.900
 9695SOL     OW29983   6.707   4.463   1.388
 9695SOL    HW129984   6.783   4.507   1.339
 9695SOL    HW229985   6.738   4.376   1.426
 9696SOL     OW29986   4.059   2.927   1.757
 9696SOL    HW129987   3.976   2.871   1.753
 9696SOL    HW229988   4.055   2.986   1.838
 9697SOL     OW29989   0.518   5.004   7.020
 9697SOL    HW129990   0.548   5.099   0.006
 9697SOL    HW229991   0.477   4.989   6.930
 9698SOL     OW29992   5.631   1.931   5.134
 9698SOL    HW129993   5.685   1.884   5.205
 9698SOL    HW229994   5.566   1.993   5.178
 9699SOL     OW29995   1.499   3.634   0.070
 9699SOL    HW129996   1.424   3.597   0.125
 9699SOL    HW229997   1.474   3.630   6.995
 9700SOL     OW29998   3.761   4.403   5.619
 9700SOL    HW129999   3.738   4.445   5.707
 9700SOL    HW230000   3.699   4.438   5.549
 9701SOL     OW30001   4.435   4.910   4.665
 9701SOL    HW130002   4.456   4.896   4.568
 9701SOL    HW230003   4.371   4.987   4.675
 9702SOL     OW30004   4.828   1.012   0.905
 9702SOL    HW130005   4.822   0.995   1.003
 9702SOL    HW230006   4.916   1.053   0.883
 9703SOL     OW30007   3.044   6.080   4.241
 9703SOL    HW130008   3.034   6.178   4.226
 9703SOL    HW230009   3.067   6.035   4.154
 9704SOL     OW30010   4.137   6.582   2.856
 9704SOL    HW130011   4.062   6.616   2.799
 9704SOL    HW230012   4.157   6.648   2.928
 9705SOL     OW30013   3.113   4.615   0.558
 9705SOL    HW130014   3.170   4.681   0.509
 9705SOL    HW230015   3.153   4.524   0.550
 9706SOL     OW30016   6.080   3.093   2.244
 9706SOL    HW130017   6.139   3.171   2.223
 9706SOL    HW230018   6.131   3.026   2.298
 9707SOL     OW30019   2.269   5.037   2.082
 9707SOL    HW130020   2.346   5.003   2.029
 9707SOL    HW230021   2.287   5.131   2.112
 9708SOL     OW30022   2.056   2.054   3.225
 9708SOL    HW130023   1.996   2.026   3.151
 9708SOL    HW230024   2.048   1.989   3.301
 9709SOL     OW30025   1.647   6.481   2.892
 9709SOL    HW130026   1.643   6.437   2.982
 9709SOL    HW230027   1.556   6.512   2.866
 9710SOL     OW30028   0.363   1.188   3.361
 9710SOL    HW130029   0.423   1.268   3.352
 9710SOL    HW230030   0.413   1.106   3.337
 9711SOL     OW30031   1.067   3.860   5.773
 9711SOL    HW130032   1.096   3.952   5.746
 9711SOL    HW230033   1.132   3.793   5.737
 9712SOL     OW30034   5.390   2.080   4.021
 9712SOL    HW130035   5.364   2.170   4.055
 9712SOL    HW230036   5.403   2.085   3.922
 9713SOL     OW30037   6.769   5.152   3.227
 9713SOL    HW130038   6.675   5.182   3.207
 9713SOL    HW230039   6.801   5.197   3.311
 9714SOL     OW30040   2.064   2.488   1.532
 9714SOL    HW130041   2.084   2.391   1.517
 9714SOL    HW230042   2.047   2.504   1.629
 9715SOL     OW30043   5.070   5.745   5.143
 9715SOL    HW130044   5.008   5.811   5.185
 9715SOL    HW230045   5.019   5.663   5.116
 9716SOL     OW30046   4.332   1.669   6.361
 9716SOL    HW130047   4.330   1.707   6.269
 9716SOL    HW230048   4.427   1.653   6.388
 9717SOL     OW30049   5.714   5.846   4.264
 9717SOL    HW130050   5.772   5.867   4.185
 9717SOL    HW230051   5.736   5.755   4.298
 9718SOL     OW30052   3.637   3.443   1.235
 9718SOL    HW130053   3.691   3.414   1.314
 9718SOL    HW230054   3.673   3.399   1.152
 9719SOL     OW30055   0.572   2.431   0.253
 9719SOL    HW130056   0.547   2.465   0.163
 9719SOL    HW230057   0.591   2.333   0.247
 9720SOL     OW30058   0.677   6.665   2.241
 9720SOL    HW130059   0.645   6.577   2.275
 9720SOL    HW230060   0.632   6.686   2.154
 9721SOL     OW30061   6.570   4.243   2.496
 9721SOL    HW130062   6.581   4.159   2.550
 9721SOL    HW230063   6.473   4.268   2.494
 9722SOL     OW30064   0.543   0.781   3.808
 9722SOL    HW130065   0.472   0.760   3.741
 9722SOL    HW230066   0.566   0.878   3.804
 9723SOL     OW30067   0.007   0.755   3.519
 9723SOL    HW130068   0.081   0.817   3.496
 9723SOL    HW230069   0.036   0.660   3.503
 9724SOL     OW30070   3.098   2.275   1.285
 9724SOL    HW130071   3.118   2.213   1.209
 9724SOL    HW230072   3.155   2.251   1.363
 9725SOL     OW30073   5.261   3.225   5.300
 9725SOL    HW130074   5.194   3.296   5.319
 9725SOL    HW230075   5.237   3.178   5.215
 9726SOL     OW30076   4.540   6.541   4.772
 9726SOL    HW130077   4.483   6.501   4.844
 9726SOL    HW230078   4.619   6.482   4.754
 9727SOL     OW30079   0.967   3.350   5.932
 9727SOL    HW130080   1.034   3.365   5.860
 9727SOL    HW230081   0.921   3.262   5.916
 9728SOL     OW30082   2.461   5.779   6.392
 9728SOL    HW130083   2.398   5.769   6.315
 9728SOL    HW230084   2.435   5.716   6.465
 9729SOL     OW30085   1.558   4.639   3.418
 9729SOL    HW130086   1.637   4.578   3.415
 9729SOL    HW230087   1.474   4.587   3.405
 9730SOL     OW30088   6.712   3.407   2.508
 9730SOL    HW130089   6.643   3.437   2.442
 9730SOL    HW230090   6.674   3.334   2.565
 9731SOL     OW30091   3.575   5.396   0.540
 9731SOL    HW130092   3.581   5.382   0.639
 9731SOL    HW230093   3.510   5.332   0.501
 9732SOL     OW30094   6.682   6.158   2.458
 9732SOL    HW130095   6.637   6.083   2.409
 9732SOL    HW230096   6.780   6.157   2.436
 9733SOL     OW30097   4.926   4.835   5.025
 9733SOL    HW130098   5.007   4.792   4.984
 9733SOL    HW230099   4.851   4.831   4.960
 9734SOL     OW30100   5.508   2.373   3.769
 9734SOL    HW130101   5.531   2.276   3.781
 9734SOL    HW230102   5.476   2.388   3.675
 9735SOL     OW30103   2.217   5.050   1.670
 9735SOL    HW130104   2.309   5.019   1.694
 9735SOL    HW230105   2.220   5.146   1.642
 9736SOL     OW30106   4.426   1.153   6.594
 9736SOL    HW130107   4.385   1.245   6.595
 9736SOL    HW230108   4.395   1.103   6.513
 9737SOL     OW30109   4.161   2.181   5.131
 9737SOL    HW130110   4.189   2.275   5.114
 9737SOL    HW230111   4.205   2.121   5.064
 9738SOL     OW30112   1.662   1.190   3.076
 9738SOL    HW130113   1.723   1.127   3.027
 9738SOL    HW230114   1.680   1.284   3.046
 9739SOL     OW30115   6.017   4.870   1.648
 9739SOL    HW130116   6.107   4.886   1.607
 9739SOL    HW230117   5.965   4.956   1.648
 9740SOL     OW30118   6.113   4.871   3.015
 9740SOL    HW130119   6.014   4.862   3.029
 9740SOL    HW230120   6.152   4.782   2.991
 9741SOL     OW30121   4.380   2.004   2.163
 9741SOL    HW130122   4.304   1.944   2.137
 9741SOL    HW230123   4.378   2.019   2.262
 9742SOL     OW30124   5.461   1.134   3.527
 9742SOL    HW130125   5.460   1.057   3.591
 9742SOL    HW230126   5.549   1.137   3.480
 9743SOL     OW30127   1.590   3.199   6.267
 9743SOL    HW130128   1.652   3.139   6.216
 9743SOL    HW230129   1.551   3.148   6.344
 9744SOL     OW30130   1.805   1.408   1.652
 9744SOL    HW130131   1.827   1.398   1.748
 9744SOL    HW230132   1.717   1.455   1.642
 9745SOL     OW30133   0.725   2.361   4.833
 9745SOL    HW130134   0.677   2.274   4.842
 9745SOL    HW230135   0.700   2.405   4.747
 9746SOL     OW30136   5.805   0.808   5.090
 9746SOL    HW130137   5.825   0.853   5.003
 9746SOL    HW230138   5.814   0.709   5.080
 9747SOL     OW30139   0.758   0.328   6.074
 9747SOL    HW130140   0.804   0.411   6.106
 9747SOL    HW230141   0.810   0.289   5.997
 9748SOL     OW30142   1.103   6.324   3.973
 9748SOL    HW130143   1.074   6.246   3.917
 9748SOL    HW230144   1.197   6.348   3.949
 9749SOL     OW30145   0.628   3.665   4.431
 9749SOL    HW130146   0.671   3.693   4.517
 9749SOL    HW230147   0.594   3.747   4.383
 9750SOL     OW30148   4.522   5.127   3.471
 9750SOL    HW130149   4.557   5.215   3.503
 9750SOL    HW230150   4.564   5.104   3.383
 9751SOL     OW30151   2.123   1.997   0.754
 9751SOL    HW130152   2.035   1.952   0.745
 9751SOL    HW230153   2.117   2.090   0.718
 9752SOL     OW30154   4.448   0.691   5.318
 9752SOL    HW130155   4.402   0.779   5.304
 9752SOL    HW230156   4.516   0.701   5.391
 9753SOL     OW30157   6.655   5.937   5.598
 9753SOL    HW130158   6.593   5.997   5.547
 9753SOL    HW230159   6.701   5.991   5.669
 9754SOL     OW30160   1.268   1.928   6.995
 9754SOL    HW130161   1.209   1.871   6.937
 9754SOL    HW230162   1.223   2.016   7.012
 9755SOL     OW30163   3.783   3.652   5.156
 9755SOL    HW130164   3.761   3.746   5.180
 9755SOL    HW230165   3.882   3.638   5.158
 9756SOL     OW30166   5.867   2.647   6.803
 9756SOL    HW130167   5.828   2.713   6.738
 9756SOL    HW230168   5.901   2.696   6.884
 9757SOL     OW30169   5.943   2.510   4.033
 9757SOL    HW130170   5.963   2.491   4.129
 9757SOL    HW230171   5.871   2.449   4.001
 9758SOL     OW30172   3.110   0.503   6.689
 9758SOL    HW130173   3.068   0.413   6.679
 9758SOL    HW230174   3.040   0.574   6.677
 9759SOL     OW30175   2.969   6.631   0.932
 9759SOL    HW130176   2.886   6.681   0.957
 9759SOL    HW230177   3.049   6.688   0.952
 9760SOL     OW30178   6.066   4.550   6.044
 9760SOL    HW130179   6.102   4.463   6.012
 9760SOL    HW230180   6.093   4.564   6.140
 9761SOL     OW30181   5.707   5.169   1.844
 9761SOL    HW130182   5.691   5.101   1.772
 9761SOL    HW230183   5.642   5.155   1.918
 9762SOL     OW30184   2.424   2.205   4.940
 9762SOL    HW130185   2.440   2.155   5.025
 9762SOL    HW230186   2.335   2.250   4.944
 9763SOL     OW30187   3.092   1.887   1.338
 9763SOL    HW130188   3.128   1.967   1.290
 9763SOL    HW230189   3.056   1.822   1.271
 9764SOL     OW30190   0.795   2.152   2.997
 9764SOL    HW130191   0.876   2.197   3.034
 9764SOL    HW230192   0.733   2.130   3.072
 9765SOL     OW30193   0.637   2.433   5.578
 9765SOL    HW130194   0.617   2.502   5.648
 9765SOL    HW230195   0.735   2.412   5.580
 9766SOL     OW30196   2.854   0.498   2.966
 9766SOL    HW130197   2.840   0.573   2.902
 9766SOL    HW230198   2.814   0.415   2.929
 9767SOL     OW30199   5.247   0.774   5.215
 9767SOL    HW130200   5.205   0.865   5.210
 9767SOL    HW230201   5.178   0.704   5.200
 9768SOL     OW30202   4.471   2.071   2.967
 9768SOL    HW130203   4.540   2.031   2.907
 9768SOL    HW230204   4.480   2.171   2.967
 9769SOL     OW30205   1.140   2.122   1.090
 9769SOL    HW130206   1.181   2.037   1.059
 9769SOL    HW230207   1.159   2.134   1.188
 9770SOL     OW30208   5.501   4.427   5.605
 9770SOL    HW130209   5.463   4.397   5.692
 9770SOL    HW230210   5.585   4.376   5.586
 9771SOL     OW30211   4.060   5.432   6.106
 9771SOL    HW130212   3.995   5.425   6.182
 9771SOL    HW230213   4.103   5.343   6.091
 9772SOL     OW30214   6.702   0.509   1.989
 9772SOL    HW130215   6.680   0.418   2.023
 9772SOL    HW230216   6.797   0.511   1.959
 9773SOL     OW30217   6.226   5.404   3.691
 9773SOL    HW130218   6.161   5.330   3.670
 9773SOL    HW230219   6.175   5.486   3.718
 9774SOL     OW30220   6.147   4.915   3.827
 9774SOL    HW130221   6.050   4.935   3.811
 9774SOL    HW230222   6.170   4.939   3.922
 9775SOL     OW30223   1.954   2.432   4.891
 9775SOL    HW130224   1.878   2.370   4.913
 9775SOL    HW230225   1.931   2.485   4.810
 9776SOL     OW30226   0.347   6.105   5.089
 9776SOL    HW130227   0.267   6.052   5.116
 9776SOL    HW230228   0.364   6.177   5.156
 9777SOL     OW30229   5.551   4.409   6.318
 9777SOL    HW130230   5.503   4.395   6.232
 9777SOL    HW230231   5.608   4.329   6.338
 9778SOL     OW30232   4.805   0.009   2.512
 9778SOL    HW130233   4.802   7.009   2.415
 9778SOL    HW230234   4.723   6.994   2.557
 9779SOL     OW30235   2.587   1.978   5.460
 9779SOL    HW130236   2.530   2.043   5.511
 9779SOL    HW230237   2.675   2.021   5.440
 9780SOL     OW30238   2.863   4.561   0.420
 9780SOL    HW130239   2.949   4.595   0.457
 9780SOL    HW230240   2.794   4.635   0.422
 9781SOL     OW30241   2.184   5.099   4.938
 9781SOL    HW130242   2.108   5.054   4.891
 9781SOL    HW230243   2.179   5.080   5.036
 9782SOL     OW30244   6.481   0.276   1.899
 9782SOL    HW130245   6.443   0.313   1.814
 9782SOL    HW230246   6.430   0.310   1.977
 9783SOL     OW30247   5.415   1.499   1.451
 9783SOL    HW130248   5.337   1.553   1.420
 9783SOL    HW230249   5.449   1.443   1.375
 9784SOL     OW30250   4.378   0.467   3.192
 9784SOL    HW130251   4.385   0.537   3.120
 9784SOL    HW230252   4.329   0.505   3.270
 9785SOL     OW30253   0.976   2.777   2.138
 9785SOL    HW130254   1.057   2.729   2.106
 9785SOL    HW230255   0.988   2.876   2.125
 9786SOL     OW30256   3.103   5.741   5.333
 9786SOL    HW130257   3.039   5.769   5.405
 9786SOL    HW230258   3.098   5.807   5.257
 9787SOL     OW30259   5.194   4.478   1.809
 9787SOL    HW130260   5.265   4.492   1.739
 9787SOL    HW230261   5.151   4.389   1.795
 9788SOL     OW30262   6.263   0.745   5.379
 9788SOL    HW130263   6.168   0.742   5.349
 9788SOL    HW230264   6.267   0.742   5.479
 9789SOL     OW30265   2.277   5.413   4.894
 9789SOL    HW130266   2.219   5.379   4.820
 9789SOL    HW230267   2.372   5.387   4.877
 9790SOL     OW30268   5.739   2.187   4.170
 9790SOL    HW130269   5.780   2.098   4.189
 9790SOL    HW230270   5.759   2.213   4.076
 9791SOL     OW30271   0.364   2.060   1.507
 9791SOL    HW130272   0.290   2.122   1.479
 9791SOL    HW230273   0.390   2.079   1.601
 9792SOL     OW30274   4.150   5.413   0.897
 9792SOL    HW130275   4.164   5.423   0.996
 9792SOL    HW230276   4.220   5.352   0.860
 9793SOL     OW30277   5.427   5.504   1.920
 9793SOL    HW130278   5.356   5.529   1.985
 9793SOL    HW230279   5.514   5.544   1.949
 9794SOL     OW30280   4.779   2.901   6.236
 9794SOL    HW130281   4.749   2.841   6.162
 9794SOL    HW230282   4.699   2.938   6.284
 9795SOL     OW30283   1.745   3.486   3.821
 9795SOL    HW130284   1.748   3.585   3.833
 9795SOL    HW230285   1.830   3.456   3.777
 9796SOL     OW30286   2.900   5.088   6.534
 9796SOL    HW130287   2.880   5.146   6.613
 9796SOL    HW230288   2.821   5.029   6.516
 9797SOL     OW30289   4.589   3.224   5.700
 9797SOL    HW130290   4.613   3.304   5.755
 9797SOL    HW230291   4.491   3.205   5.710
 9798SOL     OW30292   2.440   1.773   1.091
 9798SOL    HW130293   2.390   1.698   1.048
 9798SOL    HW230294   2.376   1.845   1.116
 9799SOL     OW30295   3.043   3.635   2.130
 9799SOL    HW130296   2.964   3.629   2.069
 9799SOL    HW230297   3.025   3.704   2.201
 9800SOL     OW30298   4.354   4.577   6.528
 9800SOL    HW130299   4.407   4.607   6.608
 9800SOL    HW230300   4.288   4.647   6.503
 9801SOL     OW30301   4.300   5.975   0.189
 9801SOL    HW130302   4.289   5.878   0.168
 9801SOL    HW230303   4.270   6.030   0.111
 9802SOL     OW30304   6.944   3.396   0.759
 9802SOL    HW130305   6.881   3.468   0.728
 9802SOL    HW230306   6.934   3.383   0.857
 9803SOL     OW30307   6.071   0.444   6.590
 9803SOL    HW130308   6.105   0.515   6.651
 9803SOL    HW230309   6.147   0.407   6.536
 9804SOL     OW30310   6.005   5.946   4.327
 9804SOL    HW130311   6.077   5.877   4.334
 9804SOL    HW230312   5.924   5.914   4.376
 9805SOL     OW30313   1.688   5.169   6.953
 9805SOL    HW130314   1.719   5.089   7.003
 9805SOL    HW230315   1.682   5.147   6.855
 9806SOL     OW30316   0.168   1.909   2.700
 9806SOL    HW130317   0.238   1.980   2.709
 9806SOL    HW230318   0.118   1.901   2.787
 9807SOL     OW30319   4.246   2.266   0.940
 9807SOL    HW130320   4.342   2.241   0.930
 9807SOL    HW230321   4.230   2.304   1.031
 9808SOL     OW30322   0.535   1.473   4.723
 9808SOL    HW130323   0.516   1.437   4.631
 9808SOL    HW230324   0.488   1.416   4.790
 9809SOL     OW30325   0.694   1.055   4.673
 9809SOL    HW130326   0.635   1.042   4.753
 9809SOL    HW230327   0.765   1.122   4.693
 9810SOL     OW30328   3.625   1.009   3.320
 9810SOL    HW130329   3.550   0.988   3.382
 9810SOL    HW230330   3.593   1.070   3.247
 9811SOL     OW30331   0.574   6.773   2.491
 9811SOL    HW130332   0.617   6.793   2.579
 9811SOL    HW230333   0.643   6.778   2.419
 9812SOL     OW30334   4.755   2.605   6.053
 9812SOL    HW130335   4.817   2.598   6.131
 9812SOL    HW230336   4.771   2.527   5.992
 9813SOL     OW30337   6.875   4.494   0.273
 9813SOL    HW130338   6.897   4.420   0.209
 9813SOL    HW230339   6.951   4.559   0.277
 9814SOL     OW30340   6.877   0.106   5.362
 9814SOL    HW130341   6.849   0.129   5.455
 9814SOL    HW230342   6.801   0.064   5.313
 9815SOL     OW30343   6.089   3.539   2.433
 9815SOL    HW130344   6.055   3.533   2.339
 9815SOL    HW230345   6.012   3.558   2.494
 9816SOL     OW30346   6.900   6.492   0.033
 9816SOL    HW130347   6.866   6.436   0.108
 9816SOL    HW230348   6.988   6.532   0.058
 9817SOL     OW30349   2.483   6.612   6.843
 9817SOL    HW130350   2.533   6.662   6.914
 9817SOL    HW230351   2.530   6.526   6.823
 9818SOL     OW30352   0.989   6.621   3.588
 9818SOL    HW130353   0.997   6.674   3.504
 9818SOL    HW230354   0.978   6.682   3.666
 9819SOL     OW30355   0.226   3.788   5.081
 9819SOL    HW130356   0.228   3.704   5.027
 9819SOL    HW230357   0.259   3.864   5.025
 9820SOL     OW30358   3.680   1.811   5.580
 9820SOL    HW130359   3.739   1.775   5.653
 9820SOL    HW230360   3.600   1.855   5.620
 9821SOL     OW30361   4.521   2.536   1.669
 9821SOL    HW130362   4.437   2.552   1.720
 9821SOL    HW230363   4.599   2.562   1.724
 9822SOL     OW30364   3.359   6.334   5.335
 9822SOL    HW130365   3.453   6.308   5.313
 9822SOL    HW230366   3.296   6.271   5.291
 9823SOL     OW30367   1.938   0.257   3.154
 9823SOL    HW130368   1.947   0.251   3.254
 9823SOL    HW230369   1.874   0.329   3.131
 9824SOL     OW30370   1.081   6.054   5.286
 9824SOL    HW130371   1.020   5.975   5.283
 9824SOL    HW230372   1.165   6.034   5.236
 9825SOL     OW30373   5.213   6.258   5.585
 9825SOL    HW130374   5.154   6.244   5.665
 9825SOL    HW230375   5.276   6.333   5.603
 9826SOL     OW30376   1.951   5.803   5.040
 9826SOL    HW130377   1.874   5.866   5.031
 9826SOL    HW230378   1.918   5.709   5.029
 9827SOL     OW30379   1.417   5.519   1.775
 9827SOL    HW130380   1.484   5.445   1.777
 9827SOL    HW230381   1.424   5.573   1.858
 9828SOL     OW30382   4.307   2.152   4.551
 9828SOL    HW130383   4.310   2.225   4.619
 9828SOL    HW230384   4.250   2.181   4.474
 9829SOL     OW30385   4.221   5.524   5.528
 9829SOL    HW130386   4.159   5.457   5.568
 9829SOL    HW230387   4.315   5.494   5.541
 9830SOL     OW30388   5.940   2.636   2.820
 9830SOL    HW130389   5.892   2.655   2.905
 9830SOL    HW230390   6.039   2.644   2.835
 9831SOL     OW30391   0.588   3.787   2.774
 9831SOL    HW130392   0.586   3.848   2.695
 9831SOL    HW230393   0.677   3.742   2.778
 9832SOL     OW30394   4.749   4.826   4.834
 9832SOL    HW130395   4.810   4.805   4.758
 9832SOL    HW230396   4.655   4.802   4.809
 9833SOL     OW30397   3.800   4.055   4.278
 9833SOL    HW130398   3.834   3.962   4.273
 9833SOL    HW230399   3.758   4.080   4.190
 9834SOL     OW30400   2.548   6.198   6.341
 9834SOL    HW130401   2.583   6.203   6.434
 9834SOL    HW230402   2.460   6.151   6.341
 9835SOL     OW30403   4.053   3.796   4.480
 9835SOL    HW130404   4.050   3.786   4.381
 9835SOL    HW230405   3.996   3.874   4.507
 9836SOL     OW30406   0.385   3.927   6.029
 9836SOL    HW130407   0.417   3.969   6.114
 9836SOL    HW230408   0.410   3.985   5.951
 9837SOL     OW30409   5.200   2.056   3.264
 9837SOL    HW130410   5.195   1.958   3.245
 9837SOL    HW230411   5.253   2.101   3.192
 9838SOL     OW30412   1.265   6.551   1.200
 9838SOL    HW130413   1.263   6.583   1.105
 9838SOL    HW230414   1.178   6.508   1.222
 9839SOL     OW30415   4.786   6.878   3.940
 9839SOL    HW130416   4.753   6.906   3.850
 9839SOL    HW230417   4.709   6.864   4.001
 9840SOL     OW30418   6.194   0.885   6.787
 9840SOL    HW130419   6.254   0.965   6.785
 9840SOL    HW230420   6.105   0.909   6.749
 9841SOL     OW30421   0.344   6.750   3.792
 9841SOL    HW130422   0.423   6.690   3.779
 9841SOL    HW230423   0.358   6.806   3.874
 9842SOL     OW30424   3.033   1.931   6.695
 9842SOL    HW130425   3.065   1.836   6.698
 9842SOL    HW230426   3.028   1.968   6.787
 9843SOL     OW30427   0.942   0.785   1.678
 9843SOL    HW130428   0.985   0.748   1.596
 9843SOL    HW230429   0.957   0.723   1.755
 9844SOL     OW30430   4.648   6.916   4.346
 9844SOL    HW130431   4.709   6.870   4.410
 9844SOL    HW230432   4.686   7.005   4.322
 9845SOL     OW30433   1.780   3.598   2.075
 9845SOL    HW130434   1.729   3.550   2.003
 9845SOL    HW230435   1.716   3.637   2.141
 9846SOL     OW30436   6.089   2.427   1.270
 9846SOL    HW130437   6.059   2.491   1.341
 9846SOL    HW230438   6.188   2.418   1.272
 9847SOL     OW30439   4.584   3.649   0.141
 9847SOL    HW130440   4.572   3.555   0.110
 9847SOL    HW230441   4.574   3.712   0.063
 9848SOL     OW30442   3.207   3.985   6.039
 9848SOL    HW130443   3.163   3.998   6.127
 9848SOL    HW230444   3.162   4.043   5.970
 9849SOL     OW30445   0.404   2.133   4.538
 9849SOL    HW130446   0.482   2.091   4.585
 9849SOL    HW230447   0.432   2.222   4.501
 9850SOL     OW30448   1.498   0.277   4.366
 9850SOL    HW130449   1.446   0.332   4.301
 9850SOL    HW230450   1.443   0.199   4.396
 9851SOL     OW30451   3.578   4.910   4.388
 9851SOL    HW130452   3.651   4.944   4.329
 9851SOL    HW230453   3.496   4.894   4.333
 9852SOL     OW30454   2.071   0.542   6.801
 9852SOL    HW130455   2.023   0.527   6.887
 9852SOL    HW230456   2.015   0.598   6.740
 9853SOL     OW30457   6.491   4.326   3.480
 9853SOL    HW130458   6.478   4.423   3.501
 9853SOL    HW230459   6.521   4.278   3.562
 9854SOL     OW30460   0.564   4.459   6.324
 9854SOL    HW130461   0.579   4.557   6.341
 9854SOL    HW230462   0.637   4.407   6.368
 9855SOL     OW30463   1.283   5.133   1.575
 9855SOL    HW130464   1.273   5.112   1.478
 9855SOL    HW230465   1.368   5.093   1.609
 9856SOL     OW30466   5.836   4.389   3.258
 9856SOL    HW130467   5.781   4.458   3.304
 9856SOL    HW230468   5.908   4.433   3.204
 9857SOL     OW30469   3.774   0.446   5.393
 9857SOL    HW130470   3.795   0.514   5.322
 9857SOL    HW230471   3.773   0.492   5.482
 9858SOL     OW30472   5.961   6.427   2.556
 9858SOL    HW130473   5.917   6.342   2.585
 9858SOL    HW230474   5.923   6.504   2.607
 9859SOL     OW30475   6.945   5.916   3.255
 9859SOL    HW130476   6.977   5.915   3.160
 9859SOL    HW230477   6.951   5.824   3.293
 9860SOL     OW30478   1.149   3.433   4.397
 9860SOL    HW130479   1.129   3.338   4.422
 9860SOL    HW230480   1.122   3.449   4.302
 9861SOL     OW30481   3.157   1.807   3.267
 9861SOL    HW130482   3.245   1.815   3.219
 9861SOL    HW230483   3.118   1.716   3.249
 9862SOL     OW30484   1.242   4.731   0.030
 9862SOL    HW130485   1.149   4.736   0.067
 9862SOL    HW230486   1.290   4.817   0.050
 9863SOL     OW30487   3.483   5.625   0.448
 9863SOL    HW130488   3.523   5.540   0.484
 9863SOL    HW230489   3.430   5.669   0.520
 9864SOL     OW30490   2.803   5.449   5.533
 9864SOL    HW130491   2.898   5.471   5.555
 9864SOL    HW230492   2.786   5.352   5.552
 9865SOL     OW30493   0.145   6.008   5.267
 9865SOL    HW130494   0.051   5.979   5.281
 9865SOL    HW230495   0.198   5.992   5.350
 9866SOL     OW30496   6.099   4.358   5.042
 9866SOL    HW130497   6.063   4.360   4.948
 9866SOL    HW230498   6.116   4.451   5.073
 9867SOL     OW30499   4.426   1.469   2.093
 9867SOL    HW130500   4.379   1.445   2.008
 9867SOL    HW230501   4.518   1.502   2.072
 9868SOL     OW30502   2.132   3.688   3.713
 9868SOL    HW130503   2.174   3.693   3.623
 9868SOL    HW230504   2.112   3.781   3.745
 9869SOL     OW30505   5.977   2.799   1.028
 9869SOL    HW130506   5.997   2.782   0.932
 9869SOL    HW230507   6.057   2.774   1.084
 9870SOL     OW30508   2.803   1.629   2.699
 9870SOL    HW130509   2.719   1.594   2.656
 9870SOL    HW230510   2.874   1.559   2.694
 9871SOL     OW30511   6.865   4.750   4.581
 9871SOL    HW130512   6.840   4.653   4.579
 9871SOL    HW230513   6.817   4.795   4.656
 9872SOL     OW30514   0.573   4.817   6.128
 9872SOL    HW130515   0.607   4.891   6.069
 9872SOL    HW230516   0.479   4.794   6.102
 9873SOL     OW30517   1.236   1.897   5.872
 9873SOL    HW130518   1.148   1.932   5.904
 9873SOL    HW230519   1.220   1.818   5.812
 9874SOL     OW30520   0.120   2.473   5.109
 9874SOL    HW130521   0.096   2.506   5.201
 9874SOL    HW230522   0.220   2.469   5.100
 9875SOL     OW30523   6.717   5.690   0.748
 9875SOL    HW130524   6.717   5.594   0.778
 9875SOL    HW230525   6.728   5.750   0.827
 9876SOL     OW30526   1.334   6.511   3.816
 9876SOL    HW130527   1.297   6.537   3.727
 9876SOL    HW230528   1.418   6.563   3.834
 9877SOL     OW30529   1.081   4.801   5.185
 9877SOL    HW130530   1.103   4.753   5.100
 9877SOL    HW230531   1.163   4.807   5.242
 9878SOL     OW30532   2.653   2.791   6.478
 9878SOL    HW130533   2.640   2.740   6.393
 9878SOL    HW230534   2.750   2.812   6.490
 9879SOL     OW30535   6.848   5.348   6.498
 9879SOL    HW130536   6.868   5.320   6.591
 9879SOL    HW230537   6.753   5.325   6.476
 9880SOL     OW30538   2.961   1.320   0.237
 9880SOL    HW130539   2.871   1.352   0.268
 9880SOL    HW230540   3.026   1.327   0.312
 9881SOL     OW30541   5.866   0.773   4.132
 9881SOL    HW130542   5.954   0.730   4.114
 9881SOL    HW230543   5.874   0.872   4.123
 9882SOL     OW30544   3.098   3.039   4.848
 9882SOL    HW130545   3.064   2.986   4.771
 9882SOL    HW230546   3.057   3.130   4.847
 9883SOL     OW30547   2.593   0.018   2.051
 9883SOL    HW130548   2.551   7.021   1.961
 9883SOL    HW230549   2.541   6.991   2.122
 9884SOL     OW30550   2.820   3.498   5.840
 9884SOL    HW130551   2.819   3.477   5.742
 9884SOL    HW230552   2.892   3.565   5.858
 9885SOL     OW30553   5.514   2.808   5.046
 9885SOL    HW130554   5.458   2.801   5.128
 9885SOL    HW230555   5.558   2.720   5.027
 9886SOL     OW30556   4.017   5.706   1.080
 9886SOL    HW130557   4.116   5.695   1.085
 9886SOL    HW230558   3.985   5.755   1.161
 9887SOL     OW30559   3.274   0.392   6.286
 9887SOL    HW130560   3.207   0.321   6.309
 9887SOL    HW230561   3.306   0.379   6.192
 9888SOL     OW30562   6.673   6.295   3.332
 9888SOL    HW130563   6.766   6.315   3.362
 9888SOL    HW230564   6.617   6.377   3.341
 9889SOL     OW30565   6.631   5.813   3.581
 9889SOL    HW130566   6.643   5.888   3.515
 9889SOL    HW230567   6.717   5.797   3.629
 9890SOL     OW30568   0.354   3.676   2.010
 9890SOL    HW130569   0.447   3.659   2.042
 9890SOL    HW230570   0.289   3.637   2.075
 9891SOL     OW30571   5.656   5.706   0.986
 9891SOL    HW130572   5.640   5.722   1.083
 9891SOL    HW230573   5.665   5.794   0.938
 9892SOL     OW30574   1.691   4.813   4.024
 9892SOL    HW130575   1.778   4.773   3.996
 9892SOL    HW230576   1.694   4.834   4.122
 9893SOL     OW30577   5.041   5.340   3.621
 9893SOL    HW130578   5.083   5.251   3.640
 9893SOL    HW230579   5.095   5.388   3.552
 9894SOL     OW30580   4.049   3.242   5.660
 9894SOL    HW130581   4.051   3.148   5.695
 9894SOL    HW230582   4.134   3.289   5.687
 9895SOL     OW30583   5.755   1.983   6.346
 9895SOL    HW130584   5.839   2.026   6.381
 9895SOL    HW230585   5.759   1.979   6.246
 9896SOL     OW30586   4.313   3.433   0.400
 9896SOL    HW130587   4.351   3.521   0.431
 9896SOL    HW230588   4.301   3.373   0.479
 9897SOL     OW30589   6.791   1.926   3.795
 9897SOL    HW130590   6.823   1.854   3.857
 9897SOL    HW230591   6.857   2.001   3.794
 9898SOL     OW30592   1.351   5.222   5.560
 9898SOL    HW130593   1.343   5.322   5.558
 9898SOL    HW230594   1.288   5.183   5.493
 9899SOL     OW30595   5.763   4.768   1.714
 9899SOL    HW130596   5.771   4.764   1.813
 9899SOL    HW230597   5.852   4.791   1.674
 9900SOL     OW30598   0.883   3.583   3.257
 9900SOL    HW130599   0.851   3.527   3.181
 9900SOL    HW230600   0.875   3.531   3.342
 9901SOL     OW30601   3.107   1.629   5.404
 9901SOL    HW130602   3.154   1.549   5.366
 9901SOL    HW230603   3.048   1.600   5.479
 9902SOL     OW30604   4.525   3.797   6.927
 9902SOL    HW130605   4.504   3.885   6.883
 9902SOL    HW230606   4.525   3.724   6.859
 9903SOL     OW30607   3.947   1.148   1.336
 9903SOL    HW130608   3.935   1.090   1.417
 9903SOL    HW230609   3.995   1.232   1.363
 9904SOL     OW30610   6.359   0.426   2.095
 9904SOL    HW130611   6.400   0.483   2.166
 9904SOL    HW230612   6.301   0.483   2.036
 9905SOL     OW30613   1.433   6.254   5.416
 9905SOL    HW130614   1.346   6.298   5.395
 9905SOL    HW230615   1.482   6.307   5.486
 9906SOL     OW30616   3.266   3.114   5.894
 9906SOL    HW130617   3.358   3.076   5.898
 9906SOL    HW230618   3.209   3.059   5.833
 9907SOL     OW30619   2.032   6.471   2.517
 9907SOL    HW130620   1.969   6.431   2.450
 9907SOL    HW230621   1.985   6.483   2.604
 9908SOL     OW30622   0.837   3.535   5.452
 9908SOL    HW130623   0.867   3.602   5.520
 9908SOL    HW230624   0.917   3.490   5.413
 9909SOL     OW30625   3.991   6.587   2.546
 9909SOL    HW130626   4.087   6.561   2.539
 9909SOL    HW230627   3.973   6.668   2.490
 9910SOL     OW30628   0.199   4.090   1.920
 9910SOL    HW130629   0.256   4.014   1.890
 9910SOL    HW230630   0.229   4.120   2.010
 9911SOL     OW30631   2.903   4.803   3.482
 9911SOL    HW130632   2.857   4.773   3.398
 9911SOL    HW230633   3.001   4.791   3.472
 9912SOL     OW30634   5.000   0.286   1.180
 9912SOL    HW130635   4.901   0.297   1.165
 9912SOL    HW230636   5.016   0.227   1.259
 9913SOL     OW30637   4.663   1.966   2.843
 9913SOL    HW130638   4.706   1.917   2.767
 9913SOL    HW230639   4.730   1.981   2.916
 9914SOL     OW30640   1.647   6.098   5.354
 9914SOL    HW130641   1.711   6.071   5.427
 9914SOL    HW230642   1.572   6.151   5.394
 9915SOL     OW30643   5.364   3.622   4.607
 9915SOL    HW130644   5.455   3.663   4.615
 9915SOL    HW230645   5.296   3.694   4.596
 9916SOL     OW30646   2.292   3.246   1.065
 9916SOL    HW130647   2.376   3.217   1.112
 9916SOL    HW230648   2.315   3.278   0.973
 9917SOL     OW30649   2.142   3.587   5.706
 9917SOL    HW130650   2.228   3.548   5.673
 9917SOL    HW230651   2.161   3.676   5.748
 9918SOL     OW30652   1.621   1.531   4.861
 9918SOL    HW130653   1.699   1.486   4.817
 9918SOL    HW230654   1.549   1.464   4.878
 9919SOL     OW30655   6.951   5.530   3.212
 9919SOL    HW130656   6.984   5.580   3.292
 9919SOL    HW230657   6.852   5.544   3.202
 9920SOL     OW30658   4.628   6.768   1.856
 9920SOL    HW130659   4.665   6.848   1.807
 9920SOL    HW230660   4.529   6.765   1.844
 9921SOL     OW30661   5.011   0.188   2.951
 9921SOL    HW130662   4.959   0.132   2.886
 9921SOL    HW230663   5.038   0.274   2.907
 9922SOL     OW30664   4.626   3.208   1.458
 9922SOL    HW130665   4.607   3.215   1.556
 9922SOL    HW230666   4.704   3.148   1.443
 9923SOL     OW30667   6.620   1.314   6.419
 9923SOL    HW130668   6.657   1.395   6.464
 9923SOL    HW230669   6.547   1.341   6.356
 9924SOL     OW30670   5.854   0.765   3.370
 9924SOL    HW130671   5.909   0.683   3.356
 9924SOL    HW230672   5.865   0.826   3.292
 9925SOL     OW30673   2.375   2.765   4.871
 9925SOL    HW130674   2.389   2.846   4.927
 9925SOL    HW230675   2.278   2.739   4.874
 9926SOL     OW30676   1.194   1.699   0.492
 9926SOL    HW130677   1.181   1.712   0.394
 9926SOL    HW230678   1.210   1.602   0.511
 9927SOL     OW30679   0.806   2.546   2.795
 9927SOL    HW130680   0.784   2.471   2.733
 9927SOL    HW230681   0.733   2.554   2.863
 9928SOL     OW30682   0.183   3.294   2.920
 9928SOL    HW130683   0.206   3.228   2.992
 9928SOL    HW230684   0.093   3.272   2.882
 9929SOL     OW30685   1.905   4.111   6.157
 9929SOL    HW130686   1.834   4.063   6.106
 9929SOL    HW230687   1.871   4.200   6.186
 9930SOL     OW30688   0.437   5.702   0.103
 9930SOL    HW130689   0.461   5.746   0.190
 9930SOL    HW230690   0.399   5.770   0.041
 9931SOL     OW30691   2.537   5.452   6.367
 9931SOL    HW130692   2.510   5.411   6.279
 9931SOL    HW230693   2.596   5.531   6.350
 9932SOL     OW30694   1.922   2.245   0.212
 9932SOL    HW130695   1.958   2.234   0.120
 9932SOL    HW230696   1.917   2.156   0.257
 9933SOL     OW30697   1.202   2.284   4.065
 9933SOL    HW130698   1.167   2.191   4.071
 9933SOL    HW230699   1.189   2.319   3.972
 9934SOL     OW30700   3.990   0.942   6.210
 9934SOL    HW130701   3.997   0.850   6.171
 9934SOL    HW230702   3.990   0.936   6.310
 9935SOL     OW30703   2.783   2.168   0.721
 9935SOL    HW130704   2.758   2.071   0.730
 9935SOL    HW230705   2.859   2.177   0.657
 9936SOL     OW30706   5.901   6.532   5.944
 9936SOL    HW130707   5.841   6.612   5.938
 9936SOL    HW230708   5.986   6.558   5.989
 9937SOL     OW30709   0.585   0.396   3.265
 9937SOL    HW130710   0.659   0.440   3.317
 9937SOL    HW230711   0.540   0.328   3.323
 9938SOL     OW30712   0.005   1.566   3.842
 9938SOL    HW130713   0.044   1.501   3.907
 9938SOL    HW230714   0.040   1.657   3.862
 9939SOL     OW30715   2.993   4.140   1.116
 9939SOL    HW130716   3.015   4.211   1.183
 9939SOL    HW230717   3.072   4.079   1.104
 9940SOL     OW30718   0.161   1.099   3.703
 9940SOL    HW130719   0.177   1.193   3.672
 9940SOL    HW230720   0.068   1.090   3.738
 9941SOL     OW30721   5.367   5.031   0.094
 9941SOL    HW130722   5.397   5.066   0.005
 9941SOL    HW230723   5.374   4.932   0.095
 9942SOL     OW30724   4.950   5.030   2.983
 9942SOL    HW130725   4.968   4.970   2.904
 9942SOL    HW230726   4.865   5.080   2.969
 9943SOL     OW30727   2.237   3.864   6.061
 9943SOL    HW130728   2.175   3.902   5.992
 9943SOL    HW230729   2.331   3.893   6.042
 9944SOL     OW30730   0.474   4.607   6.603
 9944SOL    HW130731   0.465   4.691   6.656
 9944SOL    HW230732   0.524   4.625   6.518
 9945SOL     OW30733   6.389   3.317   5.986
 9945SOL    HW130734   6.314   3.353   5.931
 9945SOL    HW230735   6.475   3.326   5.936
 9946SOL     OW30736   5.602   1.653   1.579
 9946SOL    HW130737   5.555   1.700   1.655
 9946SOL    HW230738   5.534   1.606   1.523
 9947SOL     OW30739   1.308   1.612   3.970
 9947SOL    HW130740   1.244   1.688   3.971
 9947SOL    HW230741   1.379   1.629   3.902
 9948SOL     OW30742   5.502   0.108   4.512
 9948SOL    HW130743   5.563   0.172   4.559
 9948SOL    HW230744   5.468   0.040   4.578
 9949SOL     OW30745   6.013   5.200   3.970
 9949SOL    HW130746   6.103   5.179   3.933
 9949SOL    HW230747   5.950   5.125   3.949
 9950SOL     OW30748   5.796   4.057   5.311
 9950SOL    HW130749   5.869   4.001   5.352
 9950SOL    HW230750   5.733   3.998   5.261
 9951SOL     OW30751   0.521   1.879   3.865
 9951SOL    HW130752   0.469   1.961   3.887
 9951SOL    HW230753   0.545   1.880   3.768
 9952SOL     OW30754   0.734   4.999   1.924
 9952SOL    HW130755   0.783   4.953   1.998
 9952SOL    HW230756   0.720   5.095   1.947
 9953SOL     OW30757   5.911   2.490   3.700
 9953SOL    HW130758   5.998   2.492   3.650
 9953SOL    HW230759   5.916   2.421   3.772
 9954SOL     OW30760   3.368   1.378   6.253
 9954SOL    HW130761   3.384   1.310   6.324
 9954SOL    HW230762   3.436   1.451   6.261
 9955SOL     OW30763   5.683   4.209   0.886
 9955SOL    HW130764   5.753   4.279   0.902
 9955SOL    HW230765   5.594   4.253   0.876
 9956SOL     OW30766   2.121   3.323   3.231
 9956SOL    HW130767   2.145   3.298   3.138
 9956SOL    HW230768   2.172   3.265   3.295
 9957SOL     OW30769   5.392   0.365   0.694
 9957SOL    HW130770   5.338   0.418   0.759
 9957SOL    HW230771   5.332   0.330   0.622
 9958SOL     OW30772   5.317   6.105   0.358
 9958SOL    HW130773   5.414   6.083   0.351
 9958SOL    HW230774   5.276   6.052   0.432
 9959SOL     OW30775   4.944   4.674   0.804
 9959SOL    HW130776   4.862   4.678   0.747
 9959SOL    HW230777   4.921   4.628   0.890
 9960SOL     OW30778   0.370   0.428   0.187
 9960SOL    HW130779   0.458   0.404   0.228
 9960SOL    HW230780   0.377   0.424   0.088
 9961SOL     OW30781   2.911   5.236   1.085
 9961SOL    HW130782   2.991   5.226   1.025
 9961SOL    HW230783   2.898   5.333   1.107
 9962SOL     OW30784   3.083   0.432   1.517
 9962SOL    HW130785   2.988   0.424   1.486
 9962SOL    HW230786   3.119   0.341   1.538
 9963SOL     OW30787   0.708   1.056   6.179
 9963SOL    HW130788   0.678   0.960   6.180
 9963SOL    HW230789   0.795   1.063   6.129
 9964SOL     OW30790   4.732   4.228   5.967
 9964SOL    HW130791   4.665   4.167   6.008
 9964SOL    HW230792   4.822   4.212   6.008
 9965SOL     OW30793   2.470   5.427   3.832
 9965SOL    HW130794   2.443   5.367   3.908
 9965SOL    HW230795   2.476   5.521   3.866
 9966SOL     OW30796   3.722   4.973   2.090
 9966SOL    HW130797   3.653   5.030   2.134
 9966SOL    HW230798   3.678   4.899   2.039
 9967SOL     OW30799   6.610   0.293   2.689
 9967SOL    HW130800   6.641   0.344   2.769
 9967SOL    HW230801   6.684   0.289   2.621
 9968SOL     OW30802   3.205   6.408   7.018
 9968SOL    HW130803   3.169   6.394   0.088
 9968SOL    HW230804   3.176   6.332   6.959
 9969SOL     OW30805   1.131   6.279   3.527
 9969SOL    HW130806   1.176   6.295   3.439
 9969SOL    HW230807   1.076   6.359   3.551
 9970SOL     OW30808   6.285   3.808   1.447
 9970SOL    HW130809   6.242   3.718   1.440
 9970SOL    HW230810   6.218   3.875   1.477
 9971SOL     OW30811   0.695   5.415   3.518
 9971SOL    HW130812   0.731   5.472   3.443
 9971SOL    HW230813   0.615   5.365   3.486
 9972SOL     OW30814   2.956   3.740   6.614
 9972SOL    HW130815   2.992   3.832   6.603
 9972SOL    HW230816   3.020   3.673   6.575
 9973SOL     OW30817   2.884   2.285   3.523
 9973SOL    HW130818   2.945   2.364   3.513
 9973SOL    HW230819   2.935   2.210   3.567
 9974SOL     OW30820   1.404   2.879   2.751
 9974SOL    HW130821   1.362   2.795   2.786
 9974SOL    HW230822   1.481   2.855   2.692
 9975SOL     OW30823   2.000   5.089   6.779
 9975SOL    HW130824   2.036   5.181   6.767
 9975SOL    HW230825   1.974   5.076   6.875
 9976SOL     OW30826   3.669   4.323   6.510
 9976SOL    HW130827   3.641   4.371   6.426
 9976SOL    HW230828   3.623   4.365   6.588
 9977SOL     OW30829   4.805   6.698   5.583
 9977SOL    HW130830   4.873   6.722   5.514
 9977SOL    HW230831   4.767   6.781   5.623
 9978SOL     OW30832   0.767   3.492   6.796
 9978SOL    HW130833   0.714   3.575   6.777
 9978SOL    HW230834   0.763   3.431   6.717
 9979SOL     OW30835   3.733   3.454   4.950
 9979SOL    HW130836   3.745   3.507   5.034
 9979SOL    HW230837   3.814   3.463   4.893
 9980SOL     OW30838   2.464   1.466   0.447
 9980SOL    HW130839   2.372   1.483   0.481
 9980SOL    HW230840   2.529   1.474   0.522
 9981SOL     OW30841   6.961   2.733   1.650
 9981SOL    HW130842   0.004   2.792   1.602
 9981SOL    HW230843   6.964   2.752   1.748
 9982SOL     OW30844   1.952   2.114   4.722
 9982SOL    HW130845   1.946   2.196   4.665
 9982SOL    HW230846   1.860   2.077   4.736
 9983SOL     OW30847   0.967   2.691   2.642
 9983SOL    HW130848   1.049   2.726   2.687
 9983SOL    HW230849   0.912   2.640   2.708
 9984SOL     OW30850   0.691   5.756   1.366
 9984SOL    HW130851   0.633   5.694   1.314
 9984SOL    HW230852   0.670   5.750   1.463
 9985SOL     OW30853   4.564   4.289   0.431
 9985SOL    HW130854   4.637   4.224   0.411
 9985SOL    HW230855   4.538   4.282   0.527
 9986SOL     OW30856   5.449   5.036   6.856
 9986SOL    HW130857   5.362   5.074   6.824
 9986SOL    HW230858   5.524   5.082   6.808
 9987SOL     OW30859   5.230   2.599   1.129
 9987SOL    HW130860   5.274   2.535   1.192
 9987SOL    HW230861   5.292   2.617   1.052
 9988SOL     OW30862   5.360   6.220   4.297
 9988SOL    HW130863   5.331   6.313   4.322
 9988SOL    HW230864   5.295   6.154   4.334
 9989SOL     OW30865   6.495   5.223   2.543
 9989SOL    HW130866   6.565   5.281   2.500
 9989SOL    HW230867   6.486   5.248   2.640
 9990SOL     OW30868   0.633   6.846   3.984
 9990SOL    HW130869   0.641   6.945   3.972
 9990SOL    HW230870   0.539   6.823   4.011
 9991SOL     OW30871   1.627   4.877   3.315
 9991SOL    HW130872   1.557   4.813   3.347
 9991SOL    HW230873   1.696   4.890   3.387
 9992SOL     OW30874   3.356   4.744   0.710
 9992SOL    HW130875   3.315   4.680   0.775
 9992SOL    HW230876   3.407   4.693   0.641
 9993SOL     OW30877   3.528   6.214   4.595
 9993SOL    HW130878   3.449   6.225   4.535
 9993SOL    HW230879   3.598   6.159   4.549
 9994SOL     OW30880   6.201   5.098   4.859
 9994SOL    HW130881   6.113   5.144   4.856
 9994SOL    HW230882   6.249   5.113   4.772
 9995SOL     OW30883   3.110   0.304   4.769
 9995SOL    HW130884   3.162   0.375   4.722
 9995SOL    HW230885   3.097   0.329   4.864
 9996SOL     OW30886   2.617   3.032   0.992
 9996SOL    HW130887   2.528   2.989   0.975
 9996SOL    HW230888   2.611   3.130   0.973
 9997SOL     OW30889   6.053   2.766   3.475
 9997SOL    HW130890   6.066   2.865   3.468
 9997SOL    HW230891   6.137   2.719   3.446
 9998SOL     OW30892   4.951   4.701   2.601
 9998SOL    HW130893   5.037   4.725   2.557
 9998SOL    HW230894   4.916   4.616   2.561
 9999SOL     OW30895   1.267   6.608   3.570
 9999SOL    HW130896   1.178   6.587   3.531
 9999SOL    HW230897   1.328   6.643   3.499
10000SOL     OW30898   5.425   2.047   1.506
10000SOL    HW130899   5.465   2.117   1.565
10000SOL    HW230900   5.404   1.966   1.561
10001SOL     OW30901   4.432   6.325   2.209
10001SOL    HW130902   4.410   6.364   2.298
10001SOL    HW230903   4.479   6.394   2.154
10002SOL     OW30904   2.942   0.925   1.568
10002SOL    HW130905   2.967   0.830   1.590
10002SOL    HW230906   2.947   0.938   1.469
10003SOL     OW30907   1.633   0.444   3.888
10003SOL    HW130908   1.555   0.492   3.927
10003SOL    HW230909   1.615   0.421   3.793
10004SOL     OW30910   6.351   3.929   5.179
10004SOL    HW130911   6.288   3.991   5.132
10004SOL    HW230912   6.432   3.914   5.123
10005SOL     OW30913   1.821   5.235   3.270
10005SOL    HW130914   1.863   5.170   3.207
10005SOL    HW230915   1.821   5.327   3.229
10006SOL     OW30916   5.153   0.184   4.926
10006SOL    HW130917   5.100   0.238   4.991
10006SOL    HW230918   5.139   0.221   4.834
10007SOL     OW30919   1.674   4.918   4.279
10007SOL    HW130920   1.645   5.002   4.233
10007SOL    HW230921   1.599   4.852   4.279
10008SOL     OW30922   4.542   1.387   6.014
10008SOL    HW130923   4.544   1.487   6.017
10008SOL    HW230924   4.564   1.351   6.104
10009SOL     OW30925   1.416   3.232   2.110
10009SOL    HW130926   1.426   3.137   2.138
10009SOL    HW230927   1.433   3.240   2.011
10010SOL     OW30928   2.406   3.614   0.294
10010SOL    HW130929   2.475   3.636   0.225
10010SOL    HW230930   2.357   3.697   0.320
10011SOL     OW30931   1.404   3.625   0.554
10011SOL    HW130932   1.435   3.719   0.561
10011SOL    HW230933   1.480   3.566   0.525
10012SOL     OW30934   5.105   1.841   2.665
10012SOL    HW130935   5.194   1.856   2.621
10012SOL    HW230936   5.107   1.878   2.757
10013SOL     OW30937   0.418   5.868   4.952
10013SOL    HW130938   0.325   5.833   4.942
10013SOL    HW230939   0.418   5.950   5.009
10014SOL     OW30940   0.839   6.902   2.970
10014SOL    HW130941   0.815   6.833   3.038
10014SOL    HW230942   0.866   6.986   3.016
10015SOL     OW30943   4.364   4.637   5.716
10015SOL    HW130944   4.373   4.548   5.672
10015SOL    HW230945   4.422   4.704   5.667
10016SOL     OW30946   2.256   0.231   2.817
10016SOL    HW130947   2.222   0.269   2.903
10016SOL    HW230948   2.308   0.302   2.769
10017SOL     OW30949   2.644   1.907   2.885
10017SOL    HW130950   2.741   1.907   2.909
10017SOL    HW230951   2.633   1.878   2.790
10018SOL     OW30952   6.332   2.812   6.199
10018SOL    HW130953   6.300   2.723   6.168
10018SOL    HW230954   6.427   2.806   6.228
10019SOL     OW30955   0.382   2.085   2.740
10019SOL    HW130956   0.318   2.160   2.724
10019SOL    HW230957   0.459   2.117   2.794
10020SOL     OW30958   6.101   0.631   2.108
10020SOL    HW130959   6.050   0.697   2.163
10020SOL    HW230960   6.045   0.549   2.094
10021SOL     OW30961   1.394   3.994   2.469
10021SOL    HW130962   1.360   3.900   2.456
10021SOL    HW230963   1.338   4.039   2.539
10022SOL     OW30964   2.698   5.860   0.081
10022SOL    HW130965   2.637   5.785   0.054
10022SOL    HW230966   2.644   5.943   0.093
10023SOL     OW30967   1.494   6.831   5.778
10023SOL    HW130968   1.467   6.739   5.806
10023SOL    HW230969   1.416   6.878   5.737
10024SOL     OW30970   1.842   4.700   2.662
10024SOL    HW130971   1.795   4.627   2.712
10024SOL    HW230972   1.925   4.727   2.711
10025SOL     OW30973   1.023   4.427   1.833
10025SOL    HW130974   1.074   4.383   1.907
10025SOL    HW230975   1.059   4.396   1.745
10026SOL     OW30976   5.330   1.679   4.165
10026SOL    HW130977   5.334   1.667   4.264
10026SOL    HW230978   5.280   1.763   4.144
10027SOL     OW30979   2.077   1.767   5.490
10027SOL    HW130980   2.020   1.721   5.558
10027SOL    HW230981   2.048   1.742   5.398
10028SOL     OW30982   4.802   0.636   1.391
10028SOL    HW130983   4.787   0.539   1.374
10028SOL    HW230984   4.767   0.690   1.314
10029SOL     OW30985   0.008   3.361   5.049
10029SOL    HW130986   0.054   3.353   5.137
10029SOL    HW230987   0.049   3.435   4.995
10030SOL     OW30988   2.563   0.114   4.880
10030SOL    HW130989   2.509   0.086   4.800
10030SOL    HW230990   2.655   0.075   4.874
10031SOL     OW30991   3.062   4.912   4.133
10031SOL    HW130992   3.120   4.880   4.059
10031SOL    HW230993   3.114   4.973   4.193
10032SOL     OW30994   2.845   6.179   4.827
10032SOL    HW130995   2.773   6.110   4.825
10032SOL    HW230996   2.934   6.135   4.814
10033SOL     OW30997   3.685   1.372   3.043
10033SOL    HW130998   3.654   1.362   2.948
10033SOL    HW230999   3.698   1.469   3.063
10034SOL     OW31000   2.717   0.610   3.545
10034SOL    HW131001   2.670   0.668   3.613
10034SOL    HW231002   2.722   0.659   3.458
10035SOL     OW31003   5.830   3.064   2.158
10035SOL    HW131004   5.786   3.153   2.145
10035SOL    HW231005   5.917   3.077   2.205
10036SOL     OW31006   6.717   0.442   6.603
10036SOL    HW131007   6.625   0.479   6.591
10036SOL    HW231008   6.768   0.499   6.667
10037SOL     OW31009   6.369   0.227   0.091
10037SOL    HW131010   6.400   0.144   0.136
10037SOL    HW231011   6.274   0.216   0.062
10038SOL     OW31012   4.222   0.071   0.194
10038SOL    HW131013   4.242   0.159   0.151
10038SOL    HW231014   4.300   0.010   0.183
10039SOL     OW31015   6.055   5.585   3.380
10039SOL    HW131016   6.141   5.539   3.362
10039SOL    HW231017   6.034   5.648   3.305
10040SOL     OW31018   3.572   0.248   0.230
10040SOL    HW131019   3.549   0.226   0.325
10040SOL    HW231020   3.622   0.172   0.190
10041SOL     OW31021   6.794   4.915   4.764
10041SOL    HW131022   6.859   4.985   4.733
10041SOL    HW231023   6.700   4.948   4.749
10042SOL     OW31024   0.388   0.621   4.744
10042SOL    HW131025   0.368   0.532   4.785
10042SOL    HW231026   0.367   0.694   4.809
10043SOL     OW31027   0.943   0.796   3.244
10043SOL    HW131028   0.974   0.845   3.326
10043SOL    HW231029   0.912   0.862   3.175
10044SOL     OW31030   2.284   1.525   5.683
10044SOL    HW131031   2.363   1.544   5.742
10044SOL    HW231032   2.276   1.598   5.615
10045SOL     OW31033   3.829   6.326   4.834
10045SOL    HW131034   3.796   6.357   4.745
10045SOL    HW231035   3.887   6.397   4.874
10046SOL     OW31036   6.808   2.637   2.053
10046SOL    HW131037   6.841   2.557   2.103
10046SOL    HW231038   6.883   2.701   2.038
10047SOL     OW31039   6.826   1.617   5.164
10047SOL    HW131040   6.776   1.694   5.125
10047SOL    HW231041   6.883   1.649   5.240
10048SOL     OW31042   3.593   1.828   1.448
10048SOL    HW131043   3.584   1.799   1.353
10048SOL    HW231044   3.528   1.777   1.505
10049SOL     OW31045   2.096   0.647   6.027
10049SOL    HW131046   2.116   0.745   6.026
10049SOL    HW231047   2.024   0.626   5.961
10050SOL     OW31048   5.177   2.885   4.418
10050SOL    HW131049   5.230   2.813   4.462
10050SOL    HW231050   5.217   2.974   4.439
10051SOL     OW31051   5.962   3.450   4.645
10051SOL    HW131052   5.946   3.353   4.628
10051SOL    HW231053   5.902   3.505   4.587
10052SOL     OW31054   1.372   3.569   1.743
10052SOL    HW131055   1.368   3.669   1.745
10052SOL    HW231056   1.400   3.538   1.652
10053SOL     OW31057   3.459   5.388   3.081
10053SOL    HW131058   3.522   5.450   3.128
10053SOL    HW231059   3.511   5.311   3.042
10054SOL     OW31060   3.552   5.528   4.939
10054SOL    HW131061   3.569   5.436   4.904
10054SOL    HW231062   3.586   5.535   5.033
10055SOL     OW31063   6.553   2.351   5.041
10055SOL    HW131064   6.529   2.287   5.115
10055SOL    HW231065   6.652   2.349   5.026
10056SOL     OW31066   6.421   4.734   1.730
10056SOL    HW131067   6.386   4.827   1.741
10056SOL    HW231068   6.351   4.669   1.760
10057SOL     OW31069   3.891   1.874   4.481
10057SOL    HW131070   3.967   1.873   4.547
10057SOL    HW231071   3.805   1.860   4.530
10058SOL     OW31072   0.156   5.224   4.157
10058SOL    HW131073   0.095   5.161   4.109
10058SOL    HW231074   0.237   5.241   4.101
10059SOL     OW31075   5.738   0.817   0.970
10059SOL    HW131076   5.681   0.833   1.052
10059SOL    HW231077   5.803   0.892   0.961
10060SOL     OW31078   3.046   2.078   1.703
10060SOL    HW131079   2.979   2.142   1.666
10060SOL    HW231080   3.044   2.081   1.803
10061SOL     OW31081   6.415   1.533   4.240
10061SOL    HW131082   6.403   1.462   4.310
10061SOL    HW231083   6.326   1.556   4.201
10062SOL     OW31084   6.171   5.829   3.504
10062SOL    HW131085   6.247   5.777   3.545
10062SOL    HW231086   6.104   5.765   3.467
10063SOL     OW31087   0.919   3.584   3.700
10063SOL    HW131088   0.962   3.656   3.646
10063SOL    HW231089   0.887   3.623   3.787
10064SOL     OW31090   5.070   5.790   4.294
10064SOL    HW131091   5.023   5.778   4.381
10064SOL    HW231092   5.073   5.704   4.245
10065SOL     OW31093   1.155   6.690   2.669
10065SOL    HW131094   1.090   6.683   2.744
10065SOL    HW231095   1.157   6.605   2.617
10066SOL     OW31096   0.627   6.837   4.251
10066SOL    HW131097   0.662   6.859   4.159
10066SOL    HW231098   0.704   6.820   4.312
10067SOL     OW31099   4.754   4.629   3.895
10067SOL    HW131100   4.827   4.584   3.945
10067SOL    HW231101   4.732   4.576   3.813
10068SOL     OW31102   5.395   3.081   4.653
10068SOL    HW131103   5.330   3.129   4.713
10068SOL    HW231104   5.487   3.091   4.688
10069SOL     OW31105   3.120   1.597   3.511
10069SOL    HW131106   3.071   1.648   3.582
10069SOL    HW231107   3.129   1.654   3.430
10070SOL     OW31108   1.108   6.536   4.919
10070SOL    HW131109   1.047   6.480   4.863
10070SOL    HW231110   1.117   6.627   4.878
10071SOL     OW31111   5.059   5.393   4.103
10071SOL    HW131112   5.044   5.440   4.016
10071SOL    HW231113   5.033   5.297   4.094
10072SOL     OW31114   0.276   6.429   3.442
10072SOL    HW131115   0.245   6.502   3.502
10072SOL    HW231116   0.260   6.455   3.347
10073SOL     OW31117   6.755   5.150   5.433
10073SOL    HW131118   6.782   5.163   5.337
10073SOL    HW231119   6.672   5.096   5.437
10074SOL     OW31120   1.316   0.107   6.249
10074SOL    HW131121   1.305   0.102   6.150
10074SOL    HW231122   1.408   0.138   6.271
10075SOL     OW31123   1.730   2.827   3.859
10075SOL    HW131124   1.736   2.920   3.893
10075SOL    HW231125   1.663   2.823   3.784
10076SOL     OW31126   4.795   6.741   4.487
10076SOL    HW131127   4.715   6.682   4.472
10076SOL    HW231128   4.792   6.779   4.579
10077SOL     OW31129   4.027   2.347   6.092
10077SOL    HW131130   4.093   2.347   6.167
10077SOL    HW231131   4.034   2.262   6.041
10078SOL     OW31132   5.607   0.163   5.161
10078SOL    HW131133   5.532   0.181   5.097
10078SOL    HW231134   5.664   0.244   5.169
10079SOL     OW31135   0.929   3.131   1.576
10079SOL    HW131136   0.852   3.173   1.528
10079SOL    HW231137   0.919   3.032   1.574
10080SOL     OW31138   2.158   2.688   0.101
10080SOL    HW131139   2.092   2.681   0.176
10080SOL    HW231140   2.249   2.708   0.139
10081SOL     OW31141   0.588   0.425   6.261
10081SOL    HW131142   0.638   0.379   6.187
10081SOL    HW231143   0.652   0.482   6.314
10082SOL     OW31144   6.273   2.683   1.606
10082SOL    HW131145   6.233   2.769   1.573
10082SOL    HW231146   6.232   2.659   1.694
10083SOL     OW31147   4.075   0.108   3.661
10083SOL    HW131148   3.976   0.093   3.663
10083SOL    HW231149   4.118   0.051   3.732
10084SOL     OW31150   2.297   1.262   5.581
10084SOL    HW131151   2.286   1.362   5.586
10084SOL    HW231152   2.388   1.241   5.543
10085SOL     OW31153   0.939   5.848   3.060
10085SOL    HW131154   0.903   5.843   3.153
10085SOL    HW231155   0.864   5.844   2.994
10086SOL     OW31156   6.209   4.587   1.895
10086SOL    HW131157   6.237   4.524   1.968
10086SOL    HW231158   6.146   4.540   1.833
10087SOL     OW31159   1.107   0.265   3.927
10087SOL    HW131160   1.090   0.352   3.881
10087SOL    HW231161   1.098   0.276   4.026
10088SOL     OW31162   0.852   6.504   4.799
10088SOL    HW131163   0.817   6.508   4.705
10088SOL    HW231164   0.801   6.436   4.851
10089SOL     OW31165   2.293   1.849   2.334
10089SOL    HW131166   2.279   1.926   2.272
10089SOL    HW231167   2.289   1.882   2.429
10090SOL     OW31168   1.445   4.306   0.554
10090SOL    HW131169   1.474   4.397   0.581
10090SOL    HW231170   1.459   4.242   0.630
10091SOL     OW31171   1.070   3.822   4.134
10091SOL    HW131172   1.039   3.729   4.153
10091SOL    HW231173   1.145   3.846   4.196
10092SOL     OW31174   1.686   3.354   4.900
10092SOL    HW131175   1.687   3.454   4.908
10092SOL    HW231176   1.674   3.328   4.804
10093SOL     OW31177   6.877   5.388   5.510
10093SOL    HW131178   6.831   5.431   5.588
10093SOL    HW231179   6.841   5.296   5.496
10094SOL     OW31180   2.462   1.251   2.499
10094SOL    HW131181   2.515   1.230   2.417
10094SOL    HW231182   2.365   1.235   2.482
10095SOL     OW31183   6.908   1.169   6.074
10095SOL    HW131184   6.823   1.187   6.123
10095SOL    HW231185   6.888   1.112   5.994
10096SOL     OW31186   0.251   5.398   2.455
10096SOL    HW131187   0.201   5.483   2.441
10096SOL    HW231188   0.192   5.331   2.501
10097SOL     OW31189   1.590   1.224   0.896
10097SOL    HW131190   1.613   1.317   0.925
10097SOL    HW231191   1.541   1.177   0.969
10098SOL     OW31192   2.163   5.865   6.099
10098SOL    HW131193   2.128   5.874   6.192
10098SOL    HW231194   2.239   5.800   6.097
10099SOL     OW31195   6.983   4.091   5.107
10099SOL    HW131196   6.899   4.046   5.136
10099SOL    HW231197   0.017   4.026   5.054
10100SOL     OW31198   4.689   0.822   4.710
10100SOL    HW131199   4.681   0.841   4.808
10100SOL    HW231200   4.721   0.728   4.697
10101SOL     OW31201   6.837   4.732   2.622
10101SOL    HW131202   6.847   4.728   2.522
10101SOL    HW231203   6.795   4.647   2.654
10102SOL     OW31204   3.655   1.371   2.202
10102SOL    HW131205   3.591   1.325   2.264
10102SOL    HW231206   3.638   1.469   2.203
10103SOL     OW31207   2.727   1.384   5.299
10103SOL    HW131208   2.628   1.392   5.293
10103SOL    HW231209   2.760   1.320   5.229
10104SOL     OW31210   1.307   4.842   5.365
10104SOL    HW131211   1.231   4.795   5.410
10104SOL    HW231212   1.295   4.941   5.375
10105SOL     OW31213   1.550   0.783   6.055
10105SOL    HW131214   1.623   0.755   6.117
10105SOL    HW231215   1.551   0.883   6.046
10106SOL     OW31216   5.353   5.617   1.047
10106SOL    HW131217   5.360   5.583   1.141
10106SOL    HW231218   5.445   5.631   1.010
10107SOL     OW31219   5.887   1.514   5.796
10107SOL    HW131220   5.841   1.426   5.799
10107SOL    HW231221   5.820   1.587   5.784
10108SOL     OW31222   6.259   6.566   0.552
10108SOL    HW131223   6.195   6.641   0.566
10108SOL    HW231224   6.272   6.550   0.454
10109SOL     OW31225   5.198   5.818   3.579
10109SOL    HW131226   5.206   5.721   3.558
10109SOL    HW231227   5.287   5.862   3.568
10110SOL     OW31228   3.500   6.755   6.215
10110SOL    HW131229   3.528   6.842   6.174
10110SOL    HW231230   3.570   6.686   6.197
10111SOL     OW31231   6.493   3.364   3.388
10111SOL    HW131232   6.515   3.295   3.457
10111SOL    HW231233   6.395   3.383   3.390
10112SOL     OW31234   5.185   4.192   5.460
10112SOL    HW131235   5.192   4.206   5.558
10112SOL    HW231236   5.186   4.094   5.440
10113SOL     OW31237   4.050   0.551   0.208
10113SOL    HW131238   4.085   0.579   0.118
10113SOL    HW231239   4.021   0.455   0.204
10114SOL     OW31240   5.166   1.438   6.995
10114SOL    HW131241   5.140   1.378   0.050
10114SOL    HW231242   5.194   1.527   0.010
10115SOL     OW31243   2.035   2.558   3.963
10115SOL    HW131244   1.967   2.488   3.942
10115SOL    HW231245   2.042   2.623   3.887
10116SOL     OW31246   0.414   0.319   1.221
10116SOL    HW131247   0.491   0.345   1.280
10116SOL    HW231248   0.338   0.383   1.236
10117SOL     OW31249   6.126   0.235   5.566
10117SOL    HW131250   6.202   0.170   5.561
10117SOL    HW231251   6.071   0.227   5.483
10118SOL     OW31252   6.989   5.296   2.538
10118SOL    HW131253   6.898   5.319   2.504
10118SOL    HW231254   6.991   5.304   2.637
10119SOL     OW31255   2.674   0.686   5.371
10119SOL    HW131256   2.749   0.642   5.321
10119SOL    HW231257   2.674   0.784   5.352
10120SOL     OW31258   0.581   3.382   4.107
10120SOL    HW131259   0.532   3.344   4.028
10120SOL    HW231260   0.619   3.307   4.162
10121SOL     OW31261   5.935   4.838   5.195
10121SOL    HW131262   5.941   4.839   5.295
10121SOL    HW231263   5.952   4.929   5.159
10122SOL     OW31264   5.015   3.027   0.112
10122SOL    HW131265   4.932   3.010   0.059
10122SOL    HW231266   5.069   2.943   0.117
10123SOL     OW31267   0.318   5.924   0.723
10123SOL    HW131268   0.338   5.972   0.808
10123SOL    HW231269   0.288   5.989   0.653
10124SOL     OW31270   3.270   4.028   0.240
10124SOL    HW131271   3.249   4.114   0.288
10124SOL    HW231272   3.265   4.043   0.141
10125SOL     OW31273   1.812   0.954   2.933
10125SOL    HW131274   1.807   1.003   2.846
10125SOL    HW231275   1.867   0.872   2.922
10126SOL     OW31276   6.516   5.159   7.005
10126SOL    HW131277   6.497   5.092   6.934
10126SOL    HW231278   6.476   5.247   6.978
10127SOL     OW31279   3.340   5.229   5.439
10127SOL    HW131280   3.365   5.320   5.472
10127SOL    HW231281   3.414   5.191   5.385
10128SOL     OW31282   6.991   1.868   0.521
10128SOL    HW131283   6.952   1.899   0.607
10128SOL    HW231284   0.052   1.921   0.500
10129SOL     OW31285   5.088   2.732   3.598
10129SOL    HW131286   5.083   2.760   3.694
10129SOL    HW231287   5.021   2.660   3.581
10130SOL     OW31288   0.898   5.619   2.893
10130SOL    HW131289   0.824   5.599   2.829
10130SOL    HW231290   0.958   5.539   2.901
10131SOL     OW31291   0.678   1.792   2.036
10131SOL    HW131292   0.700   1.712   1.981
10131SOL    HW231293   0.707   1.777   2.131
10132SOL     OW31294   3.595   6.414   2.921
10132SOL    HW131295   3.636   6.505   2.913
10132SOL    HW231296   3.549   6.391   2.836
10133SOL     OW31297   4.390   6.153   3.573
10133SOL    HW131298   4.341   6.087   3.516
10133SOL    HW231299   4.376   6.245   3.538
10134SOL     OW31300   6.467   1.328   3.411
10134SOL    HW131301   6.462   1.251   3.346
10134SOL    HW231302   6.560   1.336   3.445
10135SOL     OW31303   4.457   4.710   3.013
10135SOL    HW131304   4.490   4.712   3.108
10135SOL    HW231305   4.371   4.760   3.006
10136SOL     OW31306   5.970   6.860   3.659
10136SOL    HW131307   5.937   6.766   3.654
10136SOL    HW231308   5.939   6.902   3.744
10137SOL     OW31309   6.485   5.751   4.424
10137SOL    HW131310   6.468   5.848   4.440
10137SOL    HW231311   6.527   5.710   4.505
10138SOL     OW31312   5.409   2.226   0.310
10138SOL    HW131313   5.345   2.152   0.332
10138SOL    HW231314   5.358   2.304   0.272
10139SOL     OW31315   3.460   2.859   3.307
10139SOL    HW131316   3.434   2.891   3.398
10139SOL    HW231317   3.551   2.893   3.284
10140SOL     OW31318   6.075   5.294   0.159
10140SOL    HW131319   5.990   5.283   0.212
10140SOL    HW231320   6.109   5.204   0.132
10141SOL     OW31321   2.556   1.688   5.050
10141SOL    HW131322   2.614   1.739   5.113
10141SOL    HW231323   2.476   1.653   5.099
10142SOL     OW31324   4.563   6.190   5.128
10142SOL    HW131325   4.631   6.261   5.144
10142SOL    HW231326   4.541   6.144   5.214
10143SOL     OW31327   4.866   0.105   1.428
10143SOL    HW131328   4.841   0.087   1.332
10143SOL    HW231329   4.783   0.110   1.483
10144SOL     OW31330   3.377   5.562   5.927
10144SOL    HW131331   3.409   5.612   5.847
10144SOL    HW231332   3.329   5.479   5.899
10145SOL     OW31333   2.901   5.732   6.149
10145SOL    HW131334   2.985   5.781   6.172
10145SOL    HW231335   2.857   5.777   6.072
10146SOL     OW31336   3.617   5.224   4.366
10146SOL    HW131337   3.525   5.211   4.403
10146SOL    HW231338   3.683   5.179   4.426
10147SOL     OW31339   4.868   4.389   4.004
10147SOL    HW131340   4.828   4.377   4.095
10147SOL    HW231341   4.813   4.340   3.937
10148SOL     OW31342   6.092   5.933   0.467
10148SOL    HW131343   5.994   5.926   0.446
10148SOL    HW231344   6.120   6.029   0.464
10149SOL     OW31345   4.627   1.611   0.856
10149SOL    HW131346   4.611   1.693   0.801
10149SOL    HW231347   4.715   1.619   0.904
10150SOL     OW31348   4.639   4.773   0.866
10150SOL    HW131349   4.576   4.848   0.843
10150SOL    HW231350   4.635   4.755   0.964
10151SOL     OW31351   0.863   6.960   6.608
10151SOL    HW131352   0.778   7.013   6.600
10151SOL    HW231353   0.905   6.977   6.697
10152SOL     OW31354   1.577   5.311   3.877
10152SOL    HW131355   1.562   5.401   3.835
10152SOL    HW231356   1.499   5.252   3.857
10153SOL     OW31357   4.205   5.757   3.627
10153SOL    HW131358   4.245   5.724   3.713
10153SOL    HW231359   4.233   5.851   3.611
10154SOL     OW31360   6.413   6.112   5.777
10154SOL    HW131361   6.316   6.134   5.787
10154SOL    HW231362   6.459   6.187   5.729
10155SOL     OW31363   3.765   0.477   6.102
10155SOL    HW131364   3.805   0.561   6.066
10155SOL    HW231365   3.672   0.495   6.133
10156SOL     OW31366   5.463   0.019   2.732
10156SOL    HW131367   5.477   0.022   2.831
10156SOL    HW231368   5.366   0.010   2.712
10157SOL     OW31369   5.984   1.486   6.223
10157SOL    HW131370   5.948   1.551   6.290
10157SOL    HW231371   5.913   1.419   6.200
10158SOL     OW31372   4.939   3.956   6.918
10158SOL    HW131373   4.994   4.013   6.978
10158SOL    HW231374   4.949   3.860   6.945
10159SOL     OW31375   2.805   2.941   6.156
10159SOL    HW131376   2.805   2.994   6.241
10159SOL    HW231377   2.733   2.974   6.095
10160SOL     OW31378   0.726   4.458   2.744
10160SOL    HW131379   0.650   4.510   2.704
10160SOL    HW231380   0.690   4.394   2.812
10161SOL     OW31381   3.066   4.696   0.209
10161SOL    HW131382   3.027   4.745   0.287
10161SOL    HW231383   3.032   4.737   0.124
10162SOL     OW31384   2.410   3.493   6.818
10162SOL    HW131385   2.425   3.581   6.772
10162SOL    HW231386   2.465   3.489   6.901
10163SOL     OW31387   5.950   3.839   6.400
10163SOL    HW131388   6.022   3.826   6.468
10163SOL    HW231389   5.864   3.805   6.437
10164SOL     OW31390   6.609   3.285   4.326
10164SOL    HW131391   6.666   3.365   4.308
10164SOL    HW231392   6.623   3.255   4.421
10165SOL     OW31393   0.849   2.345   4.456
10165SOL    HW131394   0.910   2.384   4.524
10165SOL    HW231395   0.756   2.339   4.493
10166SOL     OW31396   3.541   0.845   1.460
10166SOL    HW131397   3.599   0.870   1.382
10166SOL    HW231398   3.550   0.913   1.532
10167SOL     OW31399   5.634   1.139   6.674
10167SOL    HW131400   5.673   1.120   6.764
10167SOL    HW231401   5.544   1.180   6.685
10168SOL     OW31402   0.059   4.211   4.837
10168SOL    HW131403   0.147   4.171   4.859
10168SOL    HW231404   0.015   4.245   4.920
10169SOL     OW31405   6.216   4.903   3.373
10169SOL    HW131406   6.295   4.959   3.397
10169SOL    HW231407   6.228   4.864   3.282
10170SOL     OW31408   0.705   4.348   5.795
10170SOL    HW131409   0.700   4.250   5.814
10170SOL    HW231410   0.735   4.396   5.878
10171SOL     OW31411   6.640   3.344   5.870
10171SOL    HW131412   6.704   3.276   5.833
10171SOL    HW231413   6.682   3.434   5.866
10172SOL     OW31414   5.493   0.327   3.051
10172SOL    HW131415   5.506   0.386   3.130
10172SOL    HW231416   5.411   0.271   3.064
10173SOL     OW31417   2.272   1.769   0.680
10173SOL    HW131418   2.222   1.714   0.613
10173SOL    HW231419   2.218   1.851   0.702
10174SOL     OW31420   5.617   4.456   3.027
10174SOL    HW131421   5.676   4.375   3.021
10174SOL    HW231422   5.534   4.440   2.974
10175SOL     OW31423   6.545   2.937   4.063
10175SOL    HW131424   6.531   2.924   4.162
10175SOL    HW231425   6.457   2.929   4.016
10176SOL     OW31426   1.470   3.344   6.057
10176SOL    HW131427   1.498   3.289   6.135
10176SOL    HW231428   1.445   3.284   5.981
10177SOL     OW31429   2.916   0.314   0.582
10177SOL    HW131430   2.823   0.319   0.618
10177SOL    HW231431   2.955   0.224   0.604
10178SOL     OW31432   6.164   2.930   4.165
10178SOL    HW131433   6.081   2.878   4.185
10178SOL    HW231434   6.221   2.935   4.247
10179SOL     OW31435   0.477   2.225   6.237
10179SOL    HW131436   0.491   2.147   6.176
10179SOL    HW231437   0.464   2.191   6.331
10180SOL     OW31438   2.917   5.211   6.024
10180SOL    HW131439   2.939   5.143   6.094
10180SOL    HW231440   2.841   5.267   6.055
10181SOL     OW31441   5.356   3.389   2.014
10181SOL    HW131442   5.310   3.383   2.103
10181SOL    HW231443   5.341   3.480   1.976
10182SOL     OW31444   5.878   1.612   1.650
10182SOL    HW131445   5.897   1.638   1.745
10182SOL    HW231446   5.785   1.639   1.626
10183SOL     OW31447   1.115   2.203   6.648
10183SOL    HW131448   1.111   2.276   6.716
10183SOL    HW231449   1.028   2.200   6.598
10184SOL     OW31450   4.504   1.677   5.975
10184SOL    HW131451   4.562   1.723   5.907
10184SOL    HW231452   4.523   1.714   6.066
10185SOL     OW31453   4.750   6.768   0.976
10185SOL    HW131454   4.807   6.735   0.901
10185SOL    HW231455   4.715   6.859   0.954
10186SOL     OW31456   5.687   3.309   3.278
10186SOL    HW131457   5.638   3.246   3.217
10186SOL    HW231458   5.721   3.259   3.358
10187SOL     OW31459   0.439   2.141   1.762
10187SOL    HW131460   0.507   2.071   1.785
10187SOL    HW231461   0.416   2.193   1.844
10188SOL     OW31462   3.615   6.218   0.264
10188SOL    HW131463   3.646   6.282   0.194
10188SOL    HW231464   3.615   6.125   0.226
10189SOL     OW31465   2.309   6.842   5.324
10189SOL    HW131466   2.378   6.893   5.374
10189SOL    HW231467   2.332   6.842   5.226
10190SOL     OW31468   5.019   2.177   0.947
10190SOL    HW131469   4.947   2.175   1.017
10190SOL    HW231470   5.019   2.265   0.900
10191SOL     OW31471   5.141   4.298   6.936
10191SOL    HW131472   5.042   4.284   6.928
10191SOL    HW231473   5.166   4.385   6.893
10192SOL     OW31474   4.044   0.686   4.737
10192SOL    HW131475   4.096   0.605   4.762
10192SOL    HW231476   4.035   0.691   4.637
10193SOL     OW31477   4.225   3.908   1.563
10193SOL    HW131478   4.175   3.823   1.544
10193SOL    HW231479   4.273   3.938   1.481
10194SOL     OW31480   5.916   4.181   4.697
10194SOL    HW131481   5.840   4.211   4.640
10194SOL    HW231482   5.988   4.251   4.697
10195SOL     OW31483   5.699   4.524   1.581
10195SOL    HW131484   5.742   4.606   1.618
10195SOL    HW231485   5.629   4.549   1.514
10196SOL     OW31486   6.467   1.762   4.812
10196SOL    HW131487   6.415   1.723   4.736
10196SOL    HW231488   6.438   1.857   4.827
10197SOL     OW31489   6.758   0.973   5.071
10197SOL    HW131490   6.843   0.924   5.054
10197SOL    HW231491   6.719   1.005   4.985
10198SOL     OW31492   3.931   0.445   2.400
10198SOL    HW131493   3.882   0.438   2.313
10198SOL    HW231494   3.999   0.373   2.405
10199SOL     OW31495   1.041   2.855   5.495
10199SOL    HW131496   0.972   2.806   5.549
10199SOL    HW231497   1.053   2.947   5.533
10200SOL     OW31498   4.957   2.556   1.146
10200SOL    HW131499   5.053   2.584   1.137
10200SOL    HW231500   4.947   2.500   1.228
10201SOL     OW31501   1.582   4.164   0.747
10201SOL    HW131502   1.637   4.113   0.681
10201SOL    HW231503   1.643   4.205   0.815
10202SOL     OW31504   3.998   1.469   5.674
10202SOL    HW131505   4.086   1.476   5.628
10202SOL    HW231506   3.971   1.558   5.710
10203SOL     OW31507   5.447   2.530   4.929
10203SOL    HW131508   5.479   2.555   4.838
10203SOL    HW231509   5.477   2.437   4.951
10204SOL     OW31510   5.061   6.517   6.649
10204SOL    HW131511   5.030   6.548   6.559
10204SOL    HW231512   5.029   6.580   6.719
10205SOL     OW31513   0.437   1.537   6.859
10205SOL    HW131514   0.537   1.537   6.850
10205SOL    HW231515   0.411   1.582   6.944
10206SOL     OW31516   1.045   0.580   5.862
10206SOL    HW131517   1.065   0.561   5.766
10206SOL    HW231518   1.101   0.656   5.894
10207SOL     OW31519   1.417   2.122   6.036
10207SOL    HW131520   1.385   2.029   6.058
10207SOL    HW231521   1.516   2.121   6.024
10208SOL     OW31522   5.250   5.334   4.965
10208SOL    HW131523   5.296   5.246   4.964
10208SOL    HW231524   5.201   5.345   5.052
10209SOL     OW31525   0.023   0.314   6.130
10209SOL    HW131526   0.061   0.243   6.190
10209SOL    HW231527   0.077   0.398   6.140
10210SOL     OW31528   4.482   6.322   1.538
10210SOL    HW131529   4.382   6.332   1.533
10210SOL    HW231530   4.525   6.407   1.507
10211SOL     OW31531   4.049   6.621   5.385
10211SOL    HW131532   4.092   6.690   5.442
10211SOL    HW231533   4.119   6.560   5.347
10212SOL     OW31534   1.026   0.063   5.597
10212SOL    HW131535   0.996   0.133   5.532
10212SOL    HW231536   0.950   7.021   5.613
10213SOL     OW31537   5.158   2.345   0.188
10213SOL    HW131538   5.161   2.444   0.177
10213SOL    HW231539   5.070   2.318   0.226
10214SOL     OW31540   1.267   2.656   1.520
10214SOL    HW131541   1.279   2.620   1.427
10214SOL    HW231542   1.170   2.672   1.536
10215SOL     OW31543   4.109   3.664   2.501
10215SOL    HW131544   4.107   3.664   2.601
10215SOL    HW231545   4.088   3.572   2.468
10216SOL     OW31546   5.946   0.396   2.103
10216SOL    HW131547   5.974   0.331   2.174
10216SOL    HW231548   5.860   0.439   2.130
10217SOL     OW31549   2.943   1.361   3.565
10217SOL    HW131550   2.908   1.409   3.646
10217SOL    HW231551   3.012   1.418   3.520
10218SOL     OW31552   1.386   2.796   2.415
10218SOL    HW131553   1.465   2.833   2.464
10218SOL    HW231554   1.380   2.698   2.433
10219SOL     OW31555   0.749   1.126   2.221
10219SOL    HW131556   0.674   1.192   2.221
10219SOL    HW231557   0.748   1.073   2.136
10220SOL     OW31558   3.891   2.570   1.430
10220SOL    HW131559   3.887   2.482   1.382
10220SOL    HW231560   3.883   2.554   1.529
10221SOL     OW31561   0.797   6.485   2.835
10221SOL    HW131562   0.839   6.494   2.745
10221SOL    HW231563   0.721   6.421   2.829
10222SOL     OW31564   2.878   3.568   4.865
10222SOL    HW131565   2.909   3.661   4.845
10222SOL    HW231566   2.813   3.570   4.941
10223SOL     OW31567   0.642   5.649   0.949
10223SOL    HW131568   0.616   5.577   0.886
10223SOL    HW231569   0.617   5.622   1.042
10224SOL     OW31570   6.078   4.208   3.320
10224SOL    HW131571   6.135   4.126   3.330
10224SOL    HW231572   6.137   4.287   3.302
10225SOL     OW31573   1.485   3.485   5.818
10225SOL    HW131574   1.556   3.437   5.766
10225SOL    HW231575   1.483   3.450   5.912
10226SOL     OW31576   4.589   2.296   0.031
10226SOL    HW131577   4.530   2.320   0.108
10226SOL    HW231578   4.571   2.359   6.977
10227SOL     OW31579   5.507   3.993   0.777
10227SOL    HW131580   5.448   4.069   0.803
10227SOL    HW231581   5.451   3.913   0.755
10228SOL     OW31582   5.389   0.931   0.534
10228SOL    HW131583   5.332   0.857   0.569
10228SOL    HW231584   5.378   1.012   0.593
10229SOL     OW31585   0.352   3.616   5.264
10229SOL    HW131586   0.332   3.638   5.169
10229SOL    HW231587   0.451   3.608   5.276
10230SOL     OW31588   6.364   5.750   2.554
10230SOL    HW131589   6.435   5.796   2.608
10230SOL    HW231590   6.290   5.721   2.615
10231SOL     OW31591   1.760   6.425   3.174
10231SOL    HW131592   1.816   6.500   3.210
10231SOL    HW231593   1.664   6.442   3.197
10232SOL     OW31594   4.324   6.833   2.669
10232SOL    HW131595   4.267   6.857   2.748
10232SOL    HW231596   4.368   6.745   2.685
10233SOL     OW31597   3.931   3.890   6.261
10233SOL    HW131598   4.011   3.901   6.321
10233SOL    HW231599   3.898   3.980   6.234
10234SOL     OW31600   6.870   1.222   1.371
10234SOL    HW131601   6.923   1.206   1.288
10234SOL    HW231602   6.880   1.144   1.433
10235SOL     OW31603   1.052   1.145   3.184
10235SOL    HW131604   1.090   1.059   3.218
10235SOL    HW231605   1.028   1.134   3.087
10236SOL     OW31606   1.898   0.125   0.880
10236SOL    HW131607   1.990   0.121   0.918
10236SOL    HW231608   1.870   0.034   0.850
10237SOL     OW31609   0.407   3.646   6.869
10237SOL    HW131610   0.329   3.610   6.820
10237SOL    HW231611   0.379   3.674   6.961
10238SOL     OW31612   4.127   5.463   0.607
10238SOL    HW131613   4.039   5.458   0.560
10238SOL    HW231614   4.112   5.477   0.705
10239SOL     OW31615   1.579   2.764   4.708
10239SOL    HW131616   1.554   2.852   4.746
10239SOL    HW231617   1.677   2.764   4.685
10240SOL     OW31618   2.503   0.219   0.923
10240SOL    HW131619   2.580   0.277   0.952
10240SOL    HW231620   2.422   0.243   0.977
10241SOL     OW31621   4.640   2.294   1.615
10241SOL    HW131622   4.733   2.316   1.645
10241SOL    HW231623   4.588   2.378   1.604
10242SOL     OW31624   6.870   2.193   0.545
10242SOL    HW131625   6.939   2.223   0.611
10242SOL    HW231626   6.780   2.192   0.590
10243SOL     OW31627   2.725   4.671   0.807
10243SOL    HW131628   2.815   4.714   0.808
10243SOL    HW231629   2.732   4.580   0.767
10244SOL     OW31630   2.376   4.079   1.824
10244SOL    HW131631   2.346   3.997   1.774
10244SOL    HW231632   2.366   4.063   1.922
10245SOL     OW31633   3.982   4.077   0.477
10245SOL    HW131634   3.971   4.100   0.574
10245SOL    HW231635   3.892   4.062   0.436
10246SOL     OW31636   3.463   2.939   4.235
10246SOL    HW131637   3.377   2.939   4.183
10246SOL    HW231638   3.445   2.910   4.329
10247SOL     OW31639   1.142   3.917   4.522
10247SOL    HW131640   1.067   3.946   4.583
10247SOL    HW231641   1.212   3.989   4.520
10248SOL     OW31642   1.334   0.507   3.357
10248SOL    HW131643   1.238   0.481   3.349
10248SOL    HW231644   1.391   0.438   3.312
10249SOL     OW31645   2.214   4.385   6.552
10249SOL    HW131646   2.215   4.471   6.501
10249SOL    HW231647   2.134   4.383   6.612
10250SOL     OW31648   5.008   2.707   6.724
10250SOL    HW131649   5.060   2.772   6.668
10250SOL    HW231650   5.071   2.639   6.761
10251SOL     OW31651   1.892   0.325   3.915
10251SOL    HW131652   1.908   0.239   3.867
10251SOL    HW231653   1.797   0.352   3.903
10252SOL     OW31654   5.253   4.245   5.815
10252SOL    HW131655   5.265   4.150   5.789
10252SOL    HW231656   5.188   4.289   5.753
10253SOL     OW31657   4.132   6.544   6.985
10253SOL    HW131658   4.130   6.506   6.893
10253SOL    HW231659   4.215   6.599   6.996
10254SOL     OW31660   5.819   1.833   4.537
10254SOL    HW131661   5.893   1.806   4.600
10254SOL    HW231662   5.756   1.895   4.584
10255SOL     OW31663   3.582   5.589   1.560
10255SOL    HW131664   3.517   5.562   1.631
10255SOL    HW231665   3.581   5.688   1.550
10256SOL     OW31666   5.009   1.016   2.672
10256SOL    HW131667   4.941   1.077   2.712
10256SOL    HW231668   5.094   1.022   2.724
10257SOL     OW31669   2.949   4.961   2.503
10257SOL    HW131670   2.959   5.052   2.464
10257SOL    HW231671   2.897   4.903   2.440
10258SOL     OW31672   2.173   2.035   2.134
10258SOL    HW131673   2.251   2.057   2.075
10258SOL    HW231674   2.152   2.115   2.191
10259SOL     OW31675   0.772   4.278   3.956
10259SOL    HW131676   0.813   4.347   3.897
10259SOL    HW231677   0.678   4.260   3.926
10260SOL     OW31678   1.664   1.343   3.644
10260SOL    HW131679   1.627   1.348   3.551
10260SOL    HW231680   1.590   1.354   3.710
10261SOL     OW31681   6.621   3.809   0.537
10261SOL    HW131682   6.581   3.887   0.585
10261SOL    HW231683   6.602   3.725   0.588
10262SOL     OW31684   3.762   1.180   6.808
10262SOL    HW131685   3.736   1.269   6.770
10262SOL    HW231686   3.860   1.165   6.793
10263SOL     OW31687   5.894   1.094   1.835
10263SOL    HW131688   5.856   1.084   1.927
10263SOL    HW231689   5.861   1.180   1.795
10264SOL     OW31690   5.960   5.198   6.729
10264SOL    HW131691   5.962   5.175   6.827
10264SOL    HW231692   5.906   5.128   6.680
10265SOL     OW31693   2.243   2.058   0.071
10265SOL    HW131694   2.165   2.115   0.045
10265SOL    HW231695   2.314   2.114   0.112
10266SOL     OW31696   2.974   3.246   2.314
10266SOL    HW131697   2.915   3.257   2.235
10266SOL    HW231698   3.015   3.334   2.337
10267SOL     OW31699   5.658   1.201   0.793
10267SOL    HW131700   5.722   1.223   0.867
10267SOL    HW231701   5.690   1.119   0.744
10268SOL     OW31702   4.929   6.947   1.194
10268SOL    HW131703   4.847   6.983   1.150
10268SOL    HW231704   4.968   6.875   1.137
10269SOL     OW31705   2.175   2.070   6.194
10269SOL    HW131706   2.148   2.146   6.254
10269SOL    HW231707   2.163   2.098   6.098
10270SOL     OW31708   3.195   5.948   1.583
10270SOL    HW131709   3.252   6.029   1.595
10270SOL    HW231710   3.234   5.872   1.635
10271SOL     OW31711   1.981   2.000   0.316
10271SOL    HW131712   1.951   1.976   0.223
10271SOL    HW231713   2.056   1.940   0.343
10272SOL     OW31714   6.673   0.636   4.386
10272SOL    HW131715   6.706   0.607   4.476
10272SOL    HW231716   6.707   0.728   4.367
10273SOL     OW31717   2.695   4.987   3.911
10273SOL    HW131718   2.764   5.055   3.937
10273SOL    HW231719   2.740   4.912   3.862
10274SOL     OW31720   0.282   5.258   5.225
10274SOL    HW131721   0.217   5.188   5.199
10274SOL    HW231722   0.350   5.219   5.288
10275SOL     OW31723   0.354   0.520   2.816
10275SOL    HW131724   0.380   0.427   2.839
10275SOL    HW231725   0.430   0.565   2.768
10276SOL     OW31726   4.329   5.860   5.862
10276SOL    HW131727   4.360   5.950   5.831
10276SOL    HW231728   4.378   5.834   5.945
10277SOL     OW31729   1.288   6.451   4.368
10277SOL    HW131730   1.233   6.502   4.302
10277SOL    HW231731   1.300   6.357   4.336
10278SOL     OW31732   0.496   0.543   5.106
10278SOL    HW131733   0.440   0.502   5.034
10278SOL    HW231734   0.550   0.472   5.151
10279SOL     OW31735   1.974   4.889   4.159
10279SOL    HW131736   2.061   4.861   4.117
10279SOL    HW231737   1.942   4.818   4.221
10280SOL     OW31738   5.430   4.321   0.739
10280SOL    HW131739   5.503   4.306   0.672
10280SOL    HW231740   5.369   4.393   0.708
10281SOL     OW31741   6.282   2.136   3.344
10281SOL    HW131742   6.369   2.089   3.357
10281SOL    HW231743   6.239   2.105   3.260
10282SOL     OW31744   4.902   3.495   2.883
10282SOL    HW131745   4.976   3.547   2.926
10282SOL    HW231746   4.875   3.540   2.798
10283SOL     OW31747   0.436   4.141   1.227
10283SOL    HW131748   0.372   4.216   1.210
10283SOL    HW231749   0.387   4.065   1.270
10284SOL     OW31750   0.297   2.563   3.793
10284SOL    HW131751   0.197   2.565   3.794
10284SOL    HW231752   0.331   2.555   3.886
10285SOL     OW31753   4.532   6.092   3.803
10285SOL    HW131754   4.454   6.085   3.742
10285SOL    HW231755   4.587   6.173   3.779
10286SOL     OW31756   3.218   1.587   4.338
10286SOL    HW131757   3.183   1.511   4.394
10286SOL    HW231758   3.158   1.666   4.349
10287SOL     OW31759   1.949   5.665   2.010
10287SOL    HW131760   2.043   5.678   2.043
10287SOL    HW231761   1.903   5.598   2.068
10288SOL     OW31762   3.820   6.985   5.164
10288SOL    HW131763   3.846   0.055   5.192
10288SOL    HW231764   3.744   6.989   5.100
10289SOL     OW31765   2.684   6.276   0.323
10289SOL    HW131766   2.604   6.335   0.313
10289SOL    HW231767   2.761   6.315   0.272
10290SOL     OW31768   3.205   3.007   2.464
10290SOL    HW131769   3.243   2.950   2.537
10290SOL    HW231770   3.105   3.001   2.467
10291SOL     OW31771   3.150   1.163   2.557
10291SOL    HW131772   3.187   1.251   2.529
10291SOL    HW231773   3.052   1.160   2.538
10292SOL     OW31774   6.830   0.353   6.373
10292SOL    HW131775   6.755   0.343   6.438
10292SOL    HW231776   6.799   0.324   6.282
10293SOL     OW31777   0.486   4.311   3.877
10293SOL    HW131778   0.480   4.355   3.788
10293SOL    HW231779   0.484   4.380   3.949
10294SOL     OW31780   3.327   2.102   2.629
10294SOL    HW131781   3.256   2.148   2.682
10294SOL    HW231782   3.293   2.014   2.595
10295SOL     OW31783   0.917   2.519   6.978
10295SOL    HW131784   0.984   2.536   0.029
10295SOL    HW231785   0.851   2.594   6.977
10296SOL     OW31786   5.956   0.678   5.732
10296SOL    HW131787   5.925   0.583   5.721
10296SOL    HW231788   5.990   0.692   5.825
10297SOL     OW31789   3.007   2.093   6.465
10297SOL    HW131790   3.079   2.040   6.421
10297SOL    HW231791   2.997   2.062   6.560
10298SOL     OW31792   0.805   3.246   2.448
10298SOL    HW131793   0.842   3.154   2.445
10298SOL    HW231794   0.814   3.289   2.358
10299SOL     OW31795   4.877   6.250   2.164
10299SOL    HW131796   4.791   6.243   2.215
10299SOL    HW231797   4.948   6.198   2.211
10300SOL     OW31798   0.617   3.532   2.071
10300SOL    HW131799   0.636   3.628   2.050
10300SOL    HW231800   0.639   3.475   1.992
10301SOL     OW31801   4.178   1.289   6.281
10301SOL    HW131802   4.151   1.383   6.261
10301SOL    HW231803   4.149   1.228   6.207
10302SOL     OW31804   2.656   5.874   4.534
10302SOL    HW131805   2.645   5.836   4.626
10302SOL    HW231806   2.599   5.957   4.525
10303SOL     OW31807   1.020   6.137   4.241
10303SOL    HW131808   1.029   6.231   4.209
10303SOL    HW231809   1.103   6.086   4.218
10304SOL     OW31810   6.410   0.031   0.274
10304SOL    HW131811   6.486   7.015   0.327
10304SOL    HW231812   6.346   6.979   0.252
10305SOL     OW31813   2.698   3.567   6.066
10305SOL    HW131814   2.724   3.662   6.051
10305SOL    HW231815   2.717   3.513   5.984
10306SOL     OW31816   5.949   0.556   1.163
10306SOL    HW131817   5.989   0.524   1.249
10306SOL    HW231818   5.853   0.529   1.158
10307SOL     OW31819   3.144   0.783   4.831
10307SOL    HW131820   3.061   0.768   4.885
10307SOL    HW231821   3.119   0.811   4.738
10308SOL     OW31822   2.525   4.530   2.179
10308SOL    HW131823   2.492   4.497   2.091
10308SOL    HW231824   2.493   4.469   2.252
10309SOL     OW31825   6.220   0.721   5.653
10309SOL    HW131826   6.120   0.711   5.654
10309SOL    HW231827   6.246   0.799   5.709
10310SOL     OW31828   2.707   3.246   6.630
10310SOL    HW131829   2.737   3.342   6.631
10310SOL    HW231830   2.615   3.240   6.670
10311SOL     OW31831   5.620   5.820   6.706
10311SOL    HW131832   5.540   5.770   6.738
10311SOL    HW231833   5.595   5.915   6.688
10312SOL     OW31834   4.642   0.287   2.020
10312SOL    HW131835   4.600   0.289   2.111
10312SOL    HW231836   4.571   0.272   1.951
10313SOL     OW31837   4.533   6.072   2.685
10313SOL    HW131838   4.619   6.123   2.687
10313SOL    HW231839   4.543   5.988   2.738
10314SOL     OW31840   0.843   6.873   6.923
10314SOL    HW131841   0.836   6.973   6.921
10314SOL    HW231842   0.779   6.836   6.990
10315SOL     OW31843   4.978   6.633   3.694
10315SOL    HW131844   5.049   6.697   3.724
10315SOL    HW231845   5.003   6.594   3.605
10316SOL     OW31846   6.574   2.113   6.383
10316SOL    HW131847   6.628   2.194   6.359
10316SOL    HW231848   6.549   2.064   6.300
10317SOL     OW31849   3.358   5.915   6.397
10317SOL    HW131850   3.293   5.972   6.448
10317SOL    HW231851   3.449   5.955   6.401
10318SOL     OW31852   5.470   6.933   0.018
10318SOL    HW131853   5.549   6.939   6.979
10318SOL    HW231854   5.433   0.003   0.034
10319SOL     OW31855   0.217   4.716   4.852
10319SOL    HW131856   0.209   4.628   4.806
10319SOL    HW231857   0.309   4.753   4.837
10320SOL     OW31858   0.128   0.498   3.537
10320SOL    HW131859   0.070   0.420   3.559
10320SOL    HW231860   0.144   0.501   3.438
10321SOL     OW31861   5.619   2.152   2.057
10321SOL    HW131862   5.634   2.189   2.149
10321SOL    HW231863   5.578   2.060   2.065
10322SOL     OW31864   4.344   4.658   4.128
10322SOL    HW131865   4.339   4.644   4.227
10322SOL    HW231866   4.411   4.594   4.089
10323SOL     OW31867   6.657   4.540   5.636
10323SOL    HW131868   6.700   4.473   5.576
10323SOL    HW231869   6.707   4.626   5.633
10324SOL     OW31870   3.225   3.457   2.291
10324SOL    HW131871   3.317   3.484   2.265
10324SOL    HW231872   3.158   3.513   2.242
10325SOL     OW31873   0.434   5.936   2.151
10325SOL    HW131874   0.368   5.976   2.088
10325SOL    HW231875   0.400   5.848   2.183
10326SOL     OW31876   5.411   3.904   6.824
10326SOL    HW131877   5.367   3.963   6.757
10326SOL    HW231878   5.347   3.880   6.896
10327SOL     OW31879   2.702   3.840   1.160
10327SOL    HW131880   2.603   3.838   1.178
10327SOL    HW231881   2.752   3.832   1.247
10328SOL     OW31882   6.488   3.403   2.039
10328SOL    HW131883   6.538   3.321   2.011
10328SOL    HW231884   6.464   3.457   1.959
10329SOL     OW31885   2.911   0.939   3.123
10329SOL    HW131886   2.994   0.906   3.079
10329SOL    HW231887   2.893   0.885   3.206
10330SOL     OW31888   5.032   0.327   0.775
10330SOL    HW131889   4.939   0.342   0.808
10330SOL    HW231890   5.091   0.300   0.851
10331SOL     OW31891   6.223   6.230   6.760
10331SOL    HW131892   6.200   6.264   6.669
10331SOL    HW231893   6.315   6.259   6.785
10332SOL     OW31894   1.045   1.171   0.465
10332SOL    HW131895   1.010   1.100   0.403
10332SOL    HW231896   1.065   1.131   0.554
10333SOL     OW31897   0.692   5.870   4.297
10333SOL    HW131898   0.620   5.827   4.350
10333SOL    HW231899   0.720   5.809   4.223
10334SOL     OW31900   2.932   6.915   3.955
10334SOL    HW131901   2.868   6.977   4.000
10334SOL    HW231902   3.015   6.908   4.010
10335SOL     OW31903   0.083   4.555   6.532
10335SOL    HW131904   0.074   4.581   6.628
10335SOL    HW231905   0.168   4.503   6.520
10336SOL     OW31906   6.093   6.807   2.774
10336SOL    HW131907   6.083   6.847   2.865
10336SOL    HW231908   6.185   6.767   2.766
10337SOL     OW31909   6.098   5.516   6.874
10337SOL    HW131910   6.088   5.433   6.928
10337SOL    HW231911   6.059   5.502   6.783
10338SOL     OW31912   1.880   6.252   1.650
10338SOL    HW131913   1.829   6.245   1.564
10338SOL    HW231914   1.977   6.232   1.633
10339SOL     OW31915   6.738   2.991   6.000
10339SOL    HW131916   6.835   3.003   5.981
10339SOL    HW231917   6.701   2.917   5.943
10340SOL     OW31918   1.208   3.149   6.223
10340SOL    HW131919   1.172   3.242   6.216
10340SOL    HW231920   1.267   3.142   6.303
10341SOL     OW31921   2.159   3.149   2.559
10341SOL    HW131922   2.238   3.090   2.574
10341SOL    HW231923   2.143   3.159   2.461
10342SOL     OW31924   1.823   0.447   3.482
10342SOL    HW131925   1.790   0.489   3.397
10342SOL    HW231926   1.751   0.448   3.550
10343SOL     OW31927   2.274   5.693   0.840
10343SOL    HW131928   2.242   5.786   0.821
10343SOL    HW231929   2.214   5.627   0.795
10344SOL     OW31930   3.707   3.883   6.702
10344SOL    HW131931   3.660   3.917   6.621
10344SOL    HW231932   3.650   3.900   6.783
10345SOL     OW31933   1.355   2.941   5.279
10345SOL    HW131934   1.344   3.040   5.278
10345SOL    HW231935   1.400   2.911   5.195
10346SOL     OW31936   6.799   5.681   1.450
10346SOL    HW131937   6.872   5.748   1.433
10346SOL    HW231938   6.721   5.728   1.492
10347SOL     OW31939   4.533   0.965   3.899
10347SOL    HW131940   4.442   0.936   3.869
10347SOL    HW231941   4.551   0.931   3.991
10348SOL     OW31942   5.844   3.240   0.284
10348SOL    HW131943   5.815   3.334   0.264
10348SOL    HW231944   5.943   3.238   0.293
10349SOL     OW31945   0.688   6.732   6.212
10349SOL    HW131946   0.716   6.701   6.302
10349SOL    HW231947   0.708   6.830   6.202
10350SOL     OW31948   2.953   6.457   5.400
10350SOL    HW131949   2.934   6.380   5.462
10350SOL    HW231950   2.899   6.447   5.317
10351SOL     OW31951   4.476   5.298   5.830
10351SOL    HW131952   4.380   5.285   5.805
10351SOL    HW231953   4.482   5.366   5.903
10352SOL     OW31954   3.631   1.259   6.084
10352SOL    HW131955   3.578   1.275   6.167
10352SOL    HW231956   3.709   1.322   6.082
10353SOL     OW31957   6.518   2.984   4.334
10353SOL    HW131958   6.586   3.058   4.337
10353SOL    HW231959   6.432   3.017   4.373
10354SOL     OW31960   5.257   0.867   1.698
10354SOL    HW131961   5.185   0.846   1.765
10354SOL    HW231962   5.226   0.942   1.639
10355SOL     OW31963   2.500   5.992   2.336
10355SOL    HW131964   2.527   6.087   2.329
10355SOL    HW231965   2.524   5.956   2.426
10356SOL     OW31966   6.782   4.324   5.510
10356SOL    HW131967   6.717   4.249   5.497
10356SOL    HW231968   6.872   4.287   5.531
10357SOL     OW31969   2.117   2.250   6.700
10357SOL    HW131970   2.020   2.274   6.690
10357SOL    HW231971   2.171   2.334   6.712
10358SOL     OW31972   0.481   3.038   2.875
10358SOL    HW131973   0.532   3.082   2.949
10358SOL    HW231974   0.457   3.107   2.806
10359SOL     OW31975   0.393   1.432   1.751
10359SOL    HW131976   0.295   1.413   1.747
10359SOL    HW231977   0.442   1.365   1.695
10360SOL     OW31978   5.284   6.339   3.270
10360SOL    HW131979   5.378   6.371   3.277
10360SOL    HW231980   5.242   6.337   3.361
10361SOL     OW31981   2.823   5.841   2.142
10361SOL    HW131982   2.847   5.758   2.192
10361SOL    HW231983   2.906   5.890   2.117
10362SOL     OW31984   2.065   4.427   4.818
10362SOL    HW131985   2.136   4.401   4.883
10362SOL    HW231986   2.072   4.525   4.797
10363SOL     OW31987   5.137   0.337   3.789
10363SOL    HW131988   5.165   0.433   3.781
10363SOL    HW231989   5.218   0.279   3.800
10364SOL     OW31990   2.095   4.390   1.145
10364SOL    HW131991   2.110   4.433   1.056
10364SOL    HW231992   2.015   4.431   1.189
10365SOL     OW31993   4.807   4.902   0.198
10365SOL    HW131994   4.885   4.943   0.150
10365SOL    HW231995   4.733   4.885   0.133
10366SOL     OW31996   2.760   6.845   3.541
10366SOL    HW131997   2.852   6.872   3.569
10366SOL    HW231998   2.757   6.835   3.442
10367SOL     OW31999   6.009   2.755   3.124
10367SOL    HW132000   5.909   2.745   3.119
10367SOL    HW232001   6.033   2.852   3.119
10368SOL     OW32002   2.142   1.280   1.957
10368SOL    HW132003   2.178   1.344   2.025
10368SOL    HW232004   2.199   1.197   1.956
10369SOL     OW32005   3.620   2.264   0.427
10369SOL    HW132006   3.658   2.182   0.385
10369SOL    HW232007   3.523   2.273   0.404
10370SOL     OW32008   4.333   0.956   5.263
10370SOL    HW132009   4.238   0.980   5.285
10370SOL    HW232010   4.369   1.021   5.197
10371SOL     OW32011   4.552   5.783   5.328
10371SOL    HW132012   4.614   5.739   5.393
10371SOL    HW232013   4.556   5.882   5.340
10372SOL     OW32014   2.372   1.284   3.768
10372SOL    HW132015   2.286   1.266   3.815
10372SOL    HW232016   2.448   1.253   3.825
10373SOL     OW32017   1.103   6.764   4.178
10373SOL    HW132018   1.043   6.740   4.254
10373SOL    HW232019   1.060   6.735   4.092
10374SOL     OW32020   2.947   1.972   3.052
10374SOL    HW132021   2.970   1.986   3.149
10374SOL    HW232022   2.938   1.874   3.035
10375SOL     OW32023   5.928   1.760   1.127
10375SOL    HW132024   5.885   1.824   1.064
10375SOL    HW232025   5.932   1.799   1.218
10376SOL     OW32026   0.222   0.882   3.877
10376SOL    HW132027   0.218   0.798   3.823
10376SOL    HW232028   0.252   0.958   3.819
10377SOL     OW32029   0.277   0.676   3.717
10377SOL    HW132030   0.267   0.610   3.792
10377SOL    HW232031   0.250   0.634   3.631
10378SOL     OW32032   6.888   0.545   6.077
10378SOL    HW132033   6.892   0.570   6.173
10378SOL    HW232034   6.933   0.456   6.063
10379SOL     OW32035   5.226   0.848   4.504
10379SOL    HW132036   5.236   0.814   4.598
10379SOL    HW232037   5.300   0.812   4.447
10380SOL     OW32038   5.231   0.560   1.887
10380SOL    HW132039   5.234   0.516   1.976
10380SOL    HW232040   5.143   0.606   1.875
10381SOL     OW32041   4.579   4.907   5.959
10381SOL    HW132042   4.628   4.992   5.940
10381SOL    HW232043   4.642   4.830   5.951
10382SOL     OW32044   2.471   5.033   6.731
10382SOL    HW132045   2.507   5.037   6.638
10382SOL    HW232046   2.460   4.938   6.758
10383SOL     OW32047   0.616   2.560   1.402
10383SOL    HW132048   0.542   2.550   1.336
10383SOL    HW232049   0.682   2.486   1.390
10384SOL     OW32050   6.452   6.971   0.598
10384SOL    HW132051   6.378   0.011   0.623
10384SOL    HW232052   6.498   6.938   0.680
10385SOL     OW32053   6.331   1.146   6.770
10385SOL    HW132054   6.263   1.193   6.714
10385SOL    HW232055   6.353   1.202   6.850
10386SOL     OW32056   6.410   3.037   5.219
10386SOL    HW132057   6.451   3.117   5.174
10386SOL    HW232058   6.336   3.001   5.163
10387SOL     OW32059   1.828   2.474   3.403
10387SOL    HW132060   1.861   2.529   3.326
10387SOL    HW232061   1.899   2.409   3.430
10388SOL     OW32062   1.411   5.095   3.001
10388SOL    HW132063   1.341   5.163   3.025
10388SOL    HW232064   1.482   5.097   3.071
10389SOL     OW32065   0.731   4.798   3.388
10389SOL    HW132066   0.716   4.760   3.297
10389SOL    HW232067   0.673   4.879   3.400
10390SOL     OW32068   0.884   3.423   3.481
10390SOL    HW132069   0.883   3.493   3.552
10390SOL    HW232070   0.964   3.363   3.494
10391SOL     OW32071   2.622   6.558   5.856
10391SOL    HW132072   2.563   6.479   5.872
10391SOL    HW232073   2.616   6.621   5.934
10392SOL     OW32074   6.959   5.272   0.398
10392SOL    HW132075   6.943   5.360   0.354
10392SOL    HW232076   6.933   5.198   0.337
10393SOL     OW32077   1.457   1.376   4.098
10393SOL    HW132078   1.493   1.287   4.071
10393SOL    HW232079   1.361   1.367   4.122
10394SOL     OW32080   2.338   6.567   0.090
10394SOL    HW132081   2.333   6.566   7.012
10394SOL    HW232082   2.414   6.509   0.120
10395SOL     OW32083   0.545   0.999   4.879
10395SOL    HW132084   0.558   1.082   4.933
10395SOL    HW232085   0.519   0.923   4.940
10396SOL     OW32086   1.346   6.877   5.079
10396SOL    HW132087   1.311   6.971   5.078
10396SOL    HW232088   1.316   6.830   4.996
10397SOL     OW32089   3.388   1.600   2.898
10397SOL    HW132090   3.456   1.672   2.909
10397SOL    HW232091   3.304   1.639   2.860
10398SOL     OW32092   6.078   2.758   2.468
10398SOL    HW132093   6.173   2.761   2.438
10398SOL    HW232094   6.022   2.713   2.399
10399SOL     OW32095   5.512   2.362   5.209
10399SOL    HW132096   5.421   2.402   5.208
10399SOL    HW232097   5.504   2.262   5.210
10400SOL     OW32098   2.551   5.450   1.727
10400SOL    HW132099   2.529   5.374   1.665
10400SOL    HW232100   2.505   5.533   1.696
10401SOL     OW32101   0.832   6.030   1.982
10401SOL    HW132102   0.919   6.078   1.972
10401SOL    HW232103   0.757   6.096   1.984
10402SOL     OW32104   0.410   3.512   4.506
10402SOL    HW132105   0.506   3.539   4.513
10402SOL    HW232106   0.380   3.521   4.412
10403SOL     OW32107   5.528   1.331   1.948
10403SOL    HW132108   5.586   1.270   2.001
10403SOL    HW232109   5.541   1.314   1.851
10404SOL     OW32110   0.444   6.345   3.644
10404SOL    HW132111   0.507   6.421   3.656
10404SOL    HW232112   0.395   6.355   3.558
10405SOL     OW32113   1.757   6.248   6.213
10405SOL    HW132114   1.687   6.316   6.193
10405SOL    HW232115   1.723   6.185   6.282
10406SOL     OW32116   2.279   4.486   6.006
10406SOL    HW132117   2.345   4.531   5.946
10406SOL    HW232118   2.314   4.397   6.034
10407SOL     OW32119   0.616   2.175   7.020
10407SOL    HW132120   0.647   2.149   0.090
10407SOL    HW232121   0.609   2.093   6.963
10408SOL     OW32122   4.592   5.843   2.812
10408SOL    HW132123   4.573   5.748   2.786
10408SOL    HW232124   4.672   5.847   2.871
10409SOL     OW32125   6.150   4.936   2.706
10409SOL    HW132126   6.128   4.936   2.804
10409SOL    HW232127   6.147   5.030   2.671
10410SOL     OW32128   5.300   0.502   0.897
10410SOL    HW132129   5.224   0.550   0.940
10410SOL    HW232130   5.385   0.528   0.941
10411SOL     OW32131   2.098   4.945   2.896
10411SOL    HW132132   2.172   4.881   2.914
10411SOL    HW232133   2.011   4.906   2.925
10412SOL     OW32134   0.443   2.367   0.806
10412SOL    HW132135   0.408   2.304   0.737
10412SOL    HW232136   0.463   2.455   0.763
10413SOL     OW32137   0.107   1.941   6.855
10413SOL    HW132138   0.010   1.919   6.841
10413SOL    HW232139   0.115   2.010   6.928
10414SOL     OW32140   5.924   6.390   5.413
10414SOL    HW132141   5.908   6.435   5.502
10414SOL    HW232142   6.004   6.331   5.420
10415SOL     OW32143   0.492   5.875   3.722
10415SOL    HW132144   0.535   5.965   3.720
10415SOL    HW232145   0.409   5.878   3.778
10416SOL     OW32146   5.683   1.223   5.699
10416SOL    HW132147   5.643   1.314   5.710
10416SOL    HW232148   5.619   1.163   5.651
10417SOL     OW32149   3.788   4.960   4.216
10417SOL    HW132150   3.859   4.889   4.218
10417SOL    HW232151   3.826   5.047   4.247
10418SOL     OW32152   5.892   3.558   6.480
10418SOL    HW132153   5.977   3.574   6.531
10418SOL    HW232154   5.845   3.479   6.520
10419SOL     OW32155   2.731   1.682   4.389
10419SOL    HW132156   2.682   1.612   4.442
10419SOL    HW232157   2.764   1.753   4.451
10420SOL     OW32158   6.319   3.764   3.274
10420SOL    HW132159   6.343   3.833   3.206
10420SOL    HW232160   6.382   3.687   3.268
10421SOL     OW32161   1.099   4.333   4.811
10421SOL    HW132162   1.020   4.393   4.814
10421SOL    HW232163   1.092   4.264   4.884
10422SOL     OW32164   6.575   3.702   4.976
10422SOL    HW132165   6.655   3.744   4.935
10422SOL    HW232166   6.587   3.696   5.075
10423SOL     OW32167   2.912   4.959   3.703
10423SOL    HW132168   2.942   4.905   3.624
10423SOL    HW232169   2.990   5.011   3.738
10424SOL     OW32170   4.019   1.257   0.471
10424SOL    HW132171   4.095   1.301   0.519
10424SOL    HW232172   3.934   1.302   0.495
10425SOL     OW32173   1.522   2.377   0.648
10425SOL    HW132174   1.571   2.459   0.620
10425SOL    HW232175   1.425   2.397   0.659
10426SOL     OW32176   6.115   2.157   6.126
10426SOL    HW132177   6.209   2.167   6.158
10426SOL    HW232178   6.112   2.085   6.057
10427SOL     OW32179   5.379   6.509   4.514
10427SOL    HW132180   5.280   6.505   4.502
10427SOL    HW232181   5.411   6.602   4.497
10428SOL     OW32182   2.605   0.436   3.982
10428SOL    HW132183   2.590   0.458   3.885
10428SOL    HW232184   2.552   0.355   4.006
10429SOL     OW32185   1.366   2.517   2.295
10429SOL    HW132186   1.353   2.596   2.236
10429SOL    HW232187   1.323   2.437   2.254
10430SOL     OW32188   3.427   0.149   3.505
10430SOL    HW132189   3.388   0.094   3.431
10430SOL    HW232190   3.378   0.130   3.590
10431SOL     OW32191   3.445   0.388   2.641
10431SOL    HW132192   3.474   0.409   2.548
10431SOL    HW232193   3.389   0.463   2.676
10432SOL     OW32194   1.201   5.832   6.012
10432SOL    HW132195   1.196   5.817   6.111
10432SOL    HW232196   1.251   5.757   5.969
10433SOL     OW32197   2.559   0.162   2.546
10433SOL    HW132198   2.644   0.190   2.590
10433SOL    HW232199   2.527   0.076   2.587
10434SOL     OW32200   4.826   0.189   5.583
10434SOL    HW132201   4.866   0.186   5.674
10434SOL    HW232202   4.897   0.167   5.515
10435SOL     OW32203   2.301   1.906   6.873
10435SOL    HW132204   2.275   1.970   6.946
10435SOL    HW232205   2.258   1.933   6.787
10436SOL     OW32206   6.544   3.472   5.365
10436SOL    HW132207   6.602   3.549   5.339
10436SOL    HW232208   6.455   3.506   5.394
10437SOL     OW32209   5.216   6.578   5.035
10437SOL    HW132210   5.315   6.573   5.048
10437SOL    HW232211   5.188   6.514   4.964
10438SOL     OW32212   6.573   6.066   6.710
10438SOL    HW132213   6.526   5.998   6.652
10438SOL    HW232214   6.558   6.157   6.671
10439SOL     OW32215   6.794   6.531   5.004
10439SOL    HW132216   6.736   6.454   5.031
10439SOL    HW232217   6.740   6.595   4.950
10440SOL     OW32218   6.807   2.498   0.674
10440SOL    HW132219   6.857   2.584   0.674
10440SOL    HW232220   6.713   2.513   0.643
10441SOL     OW32221   4.283   1.667   0.472
10441SOL    HW132222   4.310   1.744   0.414
10441SOL    HW232223   4.279   1.696   0.567
10442SOL     OW32224   2.231   2.201   5.940
10442SOL    HW132225   2.208   2.287   5.894
10442SOL    HW232226   2.324   2.206   5.976
10443SOL     OW32227   0.458   1.478   2.960
10443SOL    HW132228   0.505   1.510   2.878
10443SOL    HW232229   0.523   1.432   3.020
10444SOL     OW32230   4.026   5.400   4.281
10444SOL    HW132231   4.049   5.315   4.233
10444SOL    HW232232   4.064   5.477   4.230
10445SOL     OW32233   0.760   3.459   3.034
10445SOL    HW132234   0.673   3.434   3.075
10445SOL    HW232235   0.782   3.396   2.960
10446SOL     OW32236   1.893   4.367   5.764
10446SOL    HW132237   1.801   4.332   5.749
10446SOL    HW232238   1.952   4.293   5.796
10447SOL     OW32239   0.294   1.806   3.197
10447SOL    HW132240   0.350   1.778   3.275
10447SOL    HW232241   0.343   1.875   3.144
10448SOL     OW32242   2.378   6.479   2.428
10448SOL    HW132243   2.400   6.514   2.519
10448SOL    HW232244   2.323   6.547   2.379
10449SOL     OW32245   3.661   4.906   4.628
10449SOL    HW132246   3.705   4.819   4.651
10449SOL    HW232247   3.638   4.907   4.531
10450SOL     OW32248   0.028   0.853   6.093
10450SOL    HW132249   0.128   0.862   6.092
10450SOL    HW232250   7.019   0.806   6.011
10451SOL     OW32251   2.868   0.849   3.402
10451SOL    HW132252   2.851   0.898   3.488
10451SOL    HW232253   2.915   0.763   3.421
10452SOL     OW32254   6.532   3.654   4.594
10452SOL    HW132255   6.584   3.573   4.620
10452SOL    HW232256   6.590   3.735   4.603
10453SOL     OW32257   3.806   5.897   3.529
10453SOL    HW132258   3.730   5.936   3.477
10453SOL    HW232259   3.771   5.855   3.613
10454SOL     OW32260   6.629   1.067   5.864
10454SOL    HW132261   6.624   1.153   5.814
10454SOL    HW232262   6.711   1.016   5.836
10455SOL     OW32263   6.371   5.760   3.666
10455SOL    HW132264   6.459   5.772   3.620
10455SOL    HW232265   6.381   5.781   3.764
10456SOL     OW32266   1.036   5.118   6.640
10456SOL    HW132267   1.037   5.022   6.611
10456SOL    HW232268   0.986   5.172   6.573
10457SOL     OW32269   3.573   2.548   6.597
10457SOL    HW132270   3.623   2.634   6.607
10457SOL    HW232271   3.633   2.471   6.619
10458SOL     OW32272   0.137   5.976   6.579
10458SOL    HW132273   0.156   5.912   6.653
10458SOL    HW232274   0.205   5.963   6.506
10459SOL     OW32275   0.168   5.159   0.589
10459SOL    HW132276   0.141   5.253   0.565
10459SOL    HW232277   0.189   5.109   0.505
10460SOL     OW32278   0.110   1.719   0.840
10460SOL    HW132279   0.051   1.780   0.893
10460SOL    HW232280   0.199   1.763   0.825
10461SOL     OW32281   6.709   5.089   6.069
10461SOL    HW132282   6.689   5.057   5.976
10461SOL    HW232283   6.701   5.188   6.073
10462SOL     OW32284   4.753   2.156   0.717
10462SOL    HW132285   4.794   2.067   0.696
10462SOL    HW232286   4.806   2.202   0.788
10463SOL     OW32287   4.454   2.718   6.415
10463SOL    HW132288   4.477   2.723   6.318
10463SOL    HW232289   4.511   2.650   6.460
10464SOL     OW32290   6.629   4.950   2.565
10464SOL    HW132291   6.617   5.040   2.607
10464SOL    HW232292   6.714   4.909   2.600
10465SOL     OW32293   5.066   4.478   1.024
10465SOL    HW132294   5.105   4.568   1.044
10465SOL    HW232295   5.138   4.414   0.999
10466SOL     OW32296   6.193   4.929   6.727
10466SOL    HW132297   6.143   4.853   6.768
10466SOL    HW232298   6.138   4.969   6.654
10467SOL     OW32299   0.745   3.501   0.395
10467SOL    HW132300   0.712   3.523   0.487
10467SOL    HW232301   0.727   3.578   0.334
10468SOL     OW32302   2.076   4.586   4.200
10468SOL    HW132303   2.005   4.631   4.254
10468SOL    HW232304   2.162   4.587   4.251
10469SOL     OW32305   0.049   1.391   4.091
10469SOL    HW132306   0.107   1.453   4.145
10469SOL    HW232307   0.098   1.305   4.076
10470SOL     OW32308   1.926   2.609   3.185
10470SOL    HW132309   1.964   2.701   3.190
10470SOL    HW232310   1.887   2.593   3.094
10471SOL     OW32311   2.766   6.857   6.802
10471SOL    HW132312   2.713   6.813   6.875
10471SOL    HW232313   2.807   6.941   6.837
10472SOL     OW32314   3.999   4.576   6.742
10472SOL    HW132315   4.076   4.534   6.694
10472SOL    HW232316   3.921   4.582   6.680
10473SOL     OW32317   5.352   5.384   0.492
10473SOL    HW132318   5.331   5.343   0.403
10473SOL    HW232319   5.341   5.315   0.564
10474SOL     OW32320   5.438   0.768   4.382
10474SOL    HW132321   5.522   0.803   4.340
10474SOL    HW232322   5.426   0.672   4.358
10475SOL     OW32323   1.483   6.484   0.762
10475SOL    HW132324   1.435   6.459   0.677
10475SOL    HW232325   1.419   6.480   0.839
10476SOL     OW32326   4.244   5.716   0.145
10476SOL    HW132327   4.244   5.672   0.235
10476SOL    HW232328   4.302   5.663   0.082
10477SOL     OW32329   6.699   5.328   3.667
10477SOL    HW132330   6.756   5.371   3.597
10477SOL    HW232331   6.634   5.395   3.703
10478SOL     OW32332   5.795   1.138   0.299
10478SOL    HW132333   5.876   1.166   0.350
10478SOL    HW232334   5.795   1.039   0.287
10479SOL     OW32335   1.430   2.372   1.957
10479SOL    HW132336   1.357   2.378   1.889
10479SOL    HW232337   1.391   2.380   2.048
10480SOL     OW32338   1.996   0.210   2.044
10480SOL    HW132339   2.014   0.176   1.952
10480SOL    HW232340   2.038   0.300   2.056
10481SOL     OW32341   6.849   0.965   2.101
10481SOL    HW132342   6.883   1.032   2.167
10481SOL    HW232343   6.923   0.902   2.076
10482SOL     OW32344   4.828   4.033   4.745
10482SOL    HW132345   4.867   4.019   4.654
10482SOL    HW232346   4.735   4.069   4.736
10483SOL     OW32347   5.915   6.578   0.355
10483SOL    HW132348   5.944   6.534   0.270
10483SOL    HW232349   5.894   6.509   0.423
10484SOL     OW32350   6.077   1.180   2.539
10484SOL    HW132351   6.099   1.088   2.573
10484SOL    HW232352   5.978   1.189   2.530
10485SOL     OW32353   5.798   3.752   5.496
10485SOL    HW132354   5.812   3.850   5.514
10485SOL    HW232355   5.863   3.722   5.426
10486SOL     OW32356   5.328   2.822   1.697
10486SOL    HW132357   5.335   2.786   1.790
10486SOL    HW232358   5.244   2.877   1.688
10487SOL     OW32359   5.971   6.670   1.404
10487SOL    HW132360   5.992   6.724   1.485
10487SOL    HW232361   6.055   6.630   1.367
10488SOL     OW32362   2.257   2.439   6.352
10488SOL    HW132363   2.302   2.522   6.385
10488SOL    HW232364   2.185   2.463   6.287
10489SOL     OW32365   0.919   5.893   6.347
10489SOL    HW132366   0.876   5.827   6.409
10489SOL    HW232367   0.922   5.855   6.254
10490SOL     OW32368   6.962   1.028   3.883
10490SOL    HW132369   6.942   1.018   3.980
10490SOL    HW232370   6.910   1.104   3.845
10491SOL     OW32371   1.495   4.070   5.883
10491SOL    HW132372   1.439   4.152   5.897
10491SOL    HW232373   1.439   3.989   5.899
10492SOL     OW32374   4.947   3.404   4.932
10492SOL    HW132375   4.896   3.476   4.978
10492SOL    HW232376   5.041   3.434   4.916
10493SOL     OW32377   2.928   1.182   1.772
10493SOL    HW132378   2.976   1.123   1.706
10493SOL    HW232379   2.990   1.253   1.805
10494SOL     OW32380   6.139   2.349   4.464
10494SOL    HW132381   6.084   2.411   4.408
10494SOL    HW232382   6.096   2.259   4.467
10495SOL     OW32383   0.911   6.576   0.371
10495SOL    HW132384   0.903   6.477   0.365
10495SOL    HW232385   0.952   6.612   0.287
10496SOL     OW32386   0.092   7.000   5.450
10496SOL    HW132387   0.038   0.007   5.371
10496SOL    HW232388   0.039   7.012   5.534
10497SOL     OW32389   1.382   1.150   1.118
10497SOL    HW132390   1.420   1.134   1.209
10497SOL    HW232391   1.349   1.063   1.081
10498SOL     OW32392   2.383   5.743   6.132
10498SOL    HW132393   2.440   5.821   6.109
10498SOL    HW232394   2.397   5.670   6.065
10499SOL     OW32395   3.374   5.785   2.975
10499SOL    HW132396   3.323   5.869   2.957
10499SOL    HW232397   3.310   5.710   2.994
10500SOL     OW32398   1.073   1.732   6.251
10500SOL    HW132399   1.012   1.758   6.325
10500SOL    HW232400   1.022   1.730   6.165
10501SOL     OW32401   1.479   3.447   2.733
10501SOL    HW132402   1.404   3.410   2.788
10501SOL    HW232403   1.502   3.382   2.660
10502SOL     OW32404   3.273   5.784   6.656
10502SOL    HW132405   3.294   5.791   6.558
10502SOL    HW232406   3.350   5.744   6.704
10503SOL     OW32407   3.108   3.182   6.691
10503SOL    HW132408   3.105   3.085   6.716
10503SOL    HW232409   3.038   3.231   6.743
10504SOL     OW32410   2.929   2.983   1.034
10504SOL    HW132411   2.834   2.971   1.060
10504SOL    HW232412   2.980   2.899   1.052
10505SOL     OW32413   7.017   5.820   1.361
10505SOL    HW132414   0.088   5.795   1.388
10505SOL    HW232415   7.021   5.885   1.285
10506SOL     OW32416   0.484   4.098   5.807
10506SOL    HW132417   0.467   4.064   5.714
10506SOL    HW232418   0.582   4.097   5.825
10507SOL     OW32419   0.918   0.289   5.859
10507SOL    HW132420   1.006   0.327   5.888
10507SOL    HW232421   0.934   0.215   5.794
10508SOL     OW32422   5.211   4.232   3.027
10508SOL    HW132423   5.169   4.141   3.023
10508SOL    HW232424   5.139   4.300   3.042
10509SOL     OW32425   1.455   0.428   6.483
10509SOL    HW132426   1.534   0.368   6.491
10509SOL    HW232427   1.439   0.475   6.570
10510SOL     OW32428   6.496   5.571   0.038
10510SOL    HW132429   6.456   5.494   7.011
10510SOL    HW232430   6.428   5.644   0.048
10511SOL     OW32431   4.228   2.722   0.740
10511SOL    HW132432   4.215   2.807   0.688
10511SOL    HW232433   4.242   2.646   0.677
10512SOL     OW32434   4.141   6.445   6.089
10512SOL    HW132435   4.043   6.427   6.100
10512SOL    HW232436   4.192   6.401   6.162
10513SOL     OW32437   0.441   2.601   6.961
10513SOL    HW132438   0.429   2.522   6.900
10513SOL    HW232439   0.538   2.624   6.965
10514SOL     OW32440   0.402   5.021   1.074
10514SOL    HW132441   0.435   5.083   1.003
10514SOL    HW232442   0.302   5.028   1.081
10515SOL     OW32443   6.812   2.104   3.406
10515SOL    HW132444   6.820   2.190   3.457
10515SOL    HW232445   6.881   2.040   3.438
10516SOL     OW32446   4.115   0.408   5.994
10516SOL    HW132447   4.028   0.368   5.965
10516SOL    HW232448   4.177   0.335   6.023
10517SOL     OW32449   6.828   2.124   2.764
10517SOL    HW132450   6.897   2.165   2.704
10517SOL    HW232451   6.783   2.196   2.817
10518SOL     OW32452   0.925   6.167   1.088
10518SOL    HW132453   0.945   6.194   0.993
10518SOL    HW232454   1.009   6.134   1.131
10519SOL     OW32455   2.968   3.252   5.339
10519SOL    HW132456   2.925   3.162   5.330
10519SOL    HW232457   3.061   3.248   5.303
10520SOL     OW32458   4.642   2.055   6.993
10520SOL    HW132459   4.632   2.148   0.006
10520SOL    HW232460   4.677   1.996   0.045
10521SOL     OW32461   6.374   5.664   1.232
10521SOL    HW132462   6.472   5.651   1.218
10521SOL    HW232463   6.331   5.685   1.145
10522SOL     OW32464   6.430   1.036   1.797
10522SOL    HW132465   6.369   1.087   1.856
10522SOL    HW232466   6.377   0.988   1.727
10523SOL     OW32467   6.930   5.685   6.154
10523SOL    HW132468   6.948   5.596   6.197
10523SOL    HW232469   6.911   5.753   6.224
10524SOL     OW32470   2.927   0.590   3.752
10524SOL    HW132471   2.922   0.498   3.792
10524SOL    HW232472   2.845   0.607   3.697
10525SOL     OW32473   2.299   6.066   5.108
10525SOL    HW132474   2.267   6.027   5.022
10525SOL    HW232475   2.319   6.163   5.095
10526SOL     OW32476   6.788   0.904   2.571
10526SOL    HW132477   6.820   0.815   2.538
10526SOL    HW232478   6.697   0.923   2.533
10527SOL     OW32479   0.793   2.695   4.444
10527SOL    HW132480   0.716   2.707   4.508
10527SOL    HW232481   0.760   2.703   4.350
10528SOL     OW32482   0.481   5.008   5.075
10528SOL    HW132483   0.558   5.050   5.123
10528SOL    HW232484   0.434   5.078   5.021
10529SOL     OW32485   6.959   0.311   3.595
10529SOL    HW132486   6.902   0.391   3.615
10529SOL    HW232487   6.946   0.242   3.667
10530SOL     OW32488   2.864   1.980   6.102
10530SOL    HW132489   2.845   1.901   6.161
10530SOL    HW232490   2.962   1.985   6.085
10531SOL     OW32491   1.800   3.003   5.358
10531SOL    HW132492   1.855   3.018   5.441
10531SOL    HW232493   1.747   2.919   5.369
10532SOL     OW32494   3.869   2.449   5.650
10532SOL    HW132495   3.913   2.445   5.739
10532SOL    HW232496   3.926   2.502   5.587
10533SOL     OW32497   2.548   1.202   5.475
10533SOL    HW132498   2.615   1.276   5.473
10533SOL    HW232499   2.588   1.120   5.435
10534SOL     OW32500   0.087   5.299   0.893
10534SOL    HW132501   0.143   5.371   0.935
10534SOL    HW232502   0.101   5.301   0.794
10535SOL     OW32503   0.568   1.326   2.208
10535SOL    HW132504   0.516   1.382   2.143
10535SOL    HW232505   0.590   1.381   2.288
10536SOL     OW32506   4.658   0.336   2.759
10536SOL    HW132507   4.633   0.270   2.830
10536SOL    HW232508   4.688   0.421   2.803
10537SOL     OW32509   1.380   4.836   2.335
10537SOL    HW132510   1.435   4.854   2.254
10537SOL    HW232511   1.420   4.760   2.386
10538SOL     OW32512   4.430   3.554   0.683
10538SOL    HW132513   4.498   3.582   0.615
10538SOL    HW232514   4.343   3.600   0.663
10539SOL     OW32515   0.473   3.617   6.444
10539SOL    HW132516   0.549   3.625   6.379
10539SOL    HW232517   0.490   3.542   6.507
10540SOL     OW32518   2.122   0.245   6.314
10540SOL    HW132519   2.137   0.344   6.306
10540SOL    HW232520   2.043   0.228   6.373
10541SOL     OW32521   3.834   3.142   6.980
10541SOL    HW132522   3.820   3.239   6.960
10541SOL    HW232523   3.746   3.096   6.991
10542SOL     OW32524   6.942   2.579   0.389
10542SOL    HW132525   6.887   2.585   0.306
10542SOL    HW232526   6.897   2.520   0.455
10543SOL     OW32527   0.977   1.057   5.748
10543SOL    HW132528   0.950   1.116   5.672
10543SOL    HW232529   0.920   0.975   5.749
10544SOL     OW32530   1.963   2.377   2.145
10544SOL    HW132531   1.914   2.435   2.209
10544SOL    HW232532   2.021   2.313   2.195
10545SOL     OW32533   6.444   0.772   2.596
10545SOL    HW132534   6.460   0.673   2.593
10545SOL    HW232535   6.384   0.793   2.673
10546SOL     OW32536   2.719   0.641   4.109
10546SOL    HW132537   2.663   0.565   4.074
10546SOL    HW232538   2.672   0.728   4.092
10547SOL     OW32539   4.453   1.568   1.520
10547SOL    HW132540   4.467   1.611   1.431
10547SOL    HW232541   4.356   1.574   1.545
10548SOL     OW32542   5.199   4.148   4.881
10548SOL    HW132543   5.106   4.119   4.860
10548SOL    HW232544   5.264   4.084   4.842
10549SOL     OW32545   1.145   1.471   1.750
10549SOL    HW132546   1.070   1.490   1.814
10549SOL    HW232547   1.198   1.555   1.737
10550SOL     OW32548   4.812   0.106   4.334
10550SOL    HW132549   4.785   0.190   4.382
10550SOL    HW232550   4.881   0.058   4.387
10551SOL     OW32551   1.066   2.610   6.120
10551SOL    HW132552   1.053   2.631   6.217
10551SOL    HW232553   1.048   2.513   6.105
10552SOL     OW32554   3.442   2.260   5.267
10552SOL    HW132555   3.436   2.269   5.367
10552SOL    HW232556   3.358   2.295   5.225
10553SOL     OW32557   1.513   5.195   0.143
10553SOL    HW132558   1.575   5.203   0.066
10553SOL    HW232559   1.457   5.112   0.132
10554SOL     OW32560   6.960   4.805   6.999
10554SOL    HW132561   6.926   4.887   6.951
10554SOL    HW232562   0.028   4.824   0.016
10555SOL     OW32563   3.535   1.498   1.677
10555SOL    HW132564   3.540   1.581   1.732
10555SOL    HW232565   3.461   1.507   1.610
10556SOL     OW32566   1.843   3.510   5.223
10556SOL    HW132567   1.827   3.555   5.135
10556SOL    HW232568   1.940   3.486   5.230
10557SOL     OW32569   6.854   2.752   3.378
10557SOL    HW132570   6.929   2.808   3.412
10557SOL    HW232571   6.822   2.788   3.290
10558SOL     OW32572   4.778   6.126   5.458
10558SOL    HW132573   4.785   6.201   5.523
10558SOL    HW232574   4.712   6.149   5.387
10559SOL     OW32575   4.198   2.012   0.804
10559SOL    HW132576   4.191   2.062   0.890
10559SOL    HW232577   4.108   2.010   0.760
10560SOL     OW32578   1.016   3.490   4.154
10560SOL    HW132579   0.924   3.526   4.170
10560SOL    HW232580   1.020   3.448   4.064
10561SOL     OW32581   2.511   3.983   6.895
10561SOL    HW132582   2.605   3.974   6.927
10561SOL    HW232583   2.448   3.962   6.969
10562SOL     OW32584   4.202   1.417   0.580
10562SOL    HW132585   4.241   1.494   0.529
10562SOL    HW232586   4.159   1.450   0.664
10563SOL     OW32587   1.311   2.081   5.508
10563SOL    HW132588   1.358   2.127   5.582
10563SOL    HW232589   1.300   1.984   5.531
10564SOL     OW32590   6.291   2.359   1.744
10564SOL    HW132591   6.382   2.362   1.786
10564SOL    HW232592   6.241   2.443   1.766
10565SOL     OW32593   5.886   1.733   4.916
10565SOL    HW132594   5.936   1.774   4.840
10565SOL    HW232595   5.931   1.757   5.002
10566SOL     OW32596   3.768   3.737   6.409
10566SOL    HW132597   3.686   3.789   6.432
10566SOL    HW232598   3.838   3.798   6.372
10567SOL     OW32599   1.807   3.771   3.844
10567SOL    HW132600   1.791   3.733   3.936
10567SOL    HW232601   1.850   3.860   3.852
10568SOL     OW32602   4.894   1.279   2.998
10568SOL    HW132603   4.932   1.197   3.041
10568SOL    HW232604   4.853   1.337   3.069
10569SOL     OW32605   5.544   3.007   4.416
10569SOL    HW132606   5.489   3.047   4.489
10569SOL    HW232607   5.549   2.908   4.428
10570SOL     OW32608   1.625   5.133   2.771
10570SOL    HW132609   1.527   5.132   2.787
10570SOL    HW232610   1.645   5.095   2.681
10571SOL     OW32611   6.401   6.356   3.093
10571SOL    HW132612   6.384   6.313   3.181
10571SOL    HW232613   6.318   6.402   3.061
10572SOL     OW32614   5.698   3.526   1.795
10572SOL    HW132615   5.605   3.489   1.790
10572SOL    HW232616   5.700   3.616   1.750
10573SOL     OW32617   5.967   5.256   4.869
10573SOL    HW132618   5.957   5.352   4.892
10573SOL    HW232619   5.981   5.247   4.770
10574SOL     OW32620   0.333   1.598   3.482
10574SOL    HW132621   0.338   1.670   3.552
10574SOL    HW232622   0.262   1.622   3.416
10575SOL     OW32623   1.282   0.270   5.259
10575SOL    HW132624   1.350   0.251   5.189
10575SOL    HW232625   1.199   0.218   5.241
10576SOL     OW32626   1.875   5.600   3.761
10576SOL    HW132627   1.834   5.549   3.685
10576SOL    HW232628   1.925   5.537   3.820
10577SOL     OW32629   1.691   2.981   6.077
10577SOL    HW132630   1.617   2.916   6.096
10577SOL    HW232631   1.778   2.941   6.104
10578SOL     OW32632   6.078   0.158   5.811
10578SOL    HW132633   6.072   0.197   5.719
10578SOL    HW232634   6.053   0.061   5.808
10579SOL     OW32635   4.538   1.821   0.712
10579SOL    HW132636   4.505   1.882   0.639
10579SOL    HW232637   4.459   1.790   0.766
10580SOL     OW32638   6.671   6.058   0.149
10580SOL    HW132639   6.735   5.984   0.127
10580SOL    HW232640   6.578   6.023   0.149
10581SOL     OW32641   5.953   0.379   3.645
10581SOL    HW132642   5.934   0.395   3.548
10581SOL    HW232643   5.914   0.453   3.699
10582SOL     OW32644   3.999   5.006   6.529
10582SOL    HW132645   3.966   4.968   6.616
10582SOL    HW232646   3.922   5.038   6.474
10583SOL     OW32647   4.196   1.116   0.218
10583SOL    HW132648   4.098   1.113   0.239
10583SOL    HW232649   4.239   1.032   0.251
10584SOL     OW32650   5.786   6.977   1.164
10584SOL    HW132651   5.759   0.049   1.186
10584SOL    HW232652   5.706   6.917   1.171
10585SOL     OW32653   0.709   2.958   6.168
10585SOL    HW132654   0.710   3.044   6.219
10585SOL    HW232655   0.790   2.904   6.193
10586SOL     OW32656   2.969   6.226   5.862
10586SOL    HW132657   2.974   6.315   5.816
10586SOL    HW232658   2.900   6.230   5.934
10587SOL     OW32659   6.094   4.106   0.792
10587SOL    HW132660   6.177   4.051   0.805
10587SOL    HW232661   6.108   4.197   0.831
10588SOL     OW32662   0.490   5.419   3.214
10588SOL    HW132663   0.415   5.411   3.148
10588SOL    HW232664   0.574   5.445   3.167
10589SOL     OW32665   5.785   1.974   3.773
10589SOL    HW132666   5.823   1.921   3.697
10589SOL    HW232667   5.792   2.071   3.753
10590SOL     OW32668   1.468   0.249   3.167
10590SOL    HW132669   1.453   0.309   3.089
10590SOL    HW232670   1.449   0.154   3.141
10591SOL     OW32671   0.870   2.182   0.496
10591SOL    HW132672   0.953   2.129   0.515
10591SOL    HW232673   0.891   2.279   0.498
10592SOL     OW32674   6.354   1.389   0.401
10592SOL    HW132675   6.365   1.473   0.455
10592SOL    HW232676   6.443   1.344   0.393
10593SOL     OW32677   2.080   5.561   1.084
10593SOL    HW132678   2.028   5.476   1.075
10593SOL    HW232679   2.074   5.614   1.000
10594SOL     OW32680   0.109   2.024   4.067
10594SOL    HW132681   0.099   2.050   4.163
10594SOL    HW232682   0.033   2.061   4.014
10595SOL     OW32683   3.725   6.456   6.434
10595SOL    HW132684   3.690   6.513   6.508
10595SOL    HW232685   3.782   6.384   6.472
10596SOL     OW32686   3.789   0.001   2.595
10596SOL    HW132687   3.844   0.084   2.582
10596SOL    HW232688   3.711   0.022   2.655
10597SOL     OW32689   1.639   0.922   4.867
10597SOL    HW132690   1.560   0.875   4.907
10597SOL    HW232691   1.644   0.900   4.770
10598SOL     OW32692   2.028   2.205   6.993
10598SOL    HW132693   1.978   2.202   6.907
10598SOL    HW232694   2.074   2.293   7.002
10599SOL     OW32695   5.703   1.616   6.994
10599SOL    HW132696   5.609   1.585   7.009
10599SOL    HW232697   5.766   1.565   0.031
10600SOL     OW32698   2.306   2.820   6.062
10600SOL    HW132699   2.334   2.763   6.139
10600SOL    HW232700   2.220   2.786   6.024
10601SOL     OW32701   3.189   6.146   6.527
10601SOL    HW132702   3.274   6.167   6.576
10601SOL    HW232703   3.111   6.186   6.576
10602SOL     OW32704   4.467   1.775   1.712
10602SOL    HW132705   4.403   1.755   1.785
10602SOL    HW232706   4.468   1.699   1.647
10603SOL     OW32707   1.388   5.784   4.291
10603SOL    HW132708   1.360   5.710   4.230
10603SOL    HW232709   1.313   5.850   4.299
10604SOL     OW32710   6.766   4.516   4.435
10604SOL    HW132711   6.766   4.441   4.501
10604SOL    HW232712   6.673   4.528   4.399
10605SOL     OW32713   1.258   5.327   6.692
10605SOL    HW132714   1.328   5.393   6.720
10605SOL    HW232715   1.269   5.307   6.595
10606SOL     OW32716   0.896   0.477   2.070
10606SOL    HW132717   0.901   0.560   2.125
10606SOL    HW232718   0.913   0.500   1.974
10607SOL     OW32719   5.445   4.776   0.071
10607SOL    HW132720   5.428   4.707   0.143
10607SOL    HW232721   5.492   4.732   7.016
10608SOL     OW32722   6.603   1.457   4.025
10608SOL    HW132723   6.602   1.472   3.926
10608SOL    HW232724   6.543   1.523   4.070
10609SOL     OW32725   3.727   6.612   0.942
10609SOL    HW132726   3.823   6.615   0.914
10609SOL    HW232727   3.721   6.625   1.041
10610SOL     OW32728   1.160   3.371   5.763
10610SOL    HW132729   1.208   3.457   5.782
10610SOL    HW232730   1.227   3.301   5.737
10611SOL     OW32731   5.781   2.493   5.742
10611SOL    HW132732   5.836   2.455   5.816
10611SOL    HW232733   5.805   2.449   5.655
10612SOL     OW32734   1.645   0.327   6.984
10612SOL    HW132735   1.597   0.304   0.046
10612SOL    HW232736   1.581   0.367   6.918
10613SOL     OW32737   0.805   6.185   5.541
10613SOL    HW132738   0.760   6.133   5.468
10613SOL    HW232739   0.846   6.122   5.606
10614SOL     OW32740   6.718   0.898   4.337
10614SOL    HW132741   6.623   0.929   4.333
10614SOL    HW232742   6.761   0.935   4.419
10615SOL     OW32743   5.032   5.529   5.535
10615SOL    HW132744   5.111   5.483   5.494
10615SOL    HW232745   4.977   5.463   5.585
10616SOL     OW32746   2.864   5.875   6.875
10616SOL    HW132747   2.792   5.831   6.820
10616SOL    HW232748   2.843   5.866   6.972
10617SOL     OW32749   1.519   2.223   6.996
10617SOL    HW132750   1.601   2.264   0.015
10617SOL    HW232751   1.535   2.125   6.981
10618SOL     OW32752   5.818   3.043   0.100
10618SOL    HW132753   5.817   3.127   0.154
10618SOL    HW232754   5.902   2.992   0.119
10619SOL     OW32755   1.152   4.366   4.210
10619SOL    HW132756   1.208   4.323   4.139
10619SOL    HW232757   1.105   4.445   4.172
10620SOL     OW32758   1.443   5.758   4.731
10620SOL    HW132759   1.481   5.723   4.816
10620SOL    HW232760   1.356   5.714   4.713
10621SOL     OW32761   1.978   6.747   0.316
10621SOL    HW132762   1.941   6.839   0.305
10621SOL    HW232763   1.912   6.680   0.281
10622SOL     OW32764   3.885   0.902   1.461
10622SOL    HW132765   3.870   0.921   1.558
10622SOL    HW232766   3.849   0.811   1.440
10623SOL     OW32767   6.064   2.119   3.535
10623SOL    HW132768   6.126   2.156   3.465
10623SOL    HW232769   6.019   2.037   3.499
10624SOL     OW32770   1.591   0.597   4.300
10624SOL    HW132771   1.624   0.502   4.296
10624SOL    HW232772   1.575   0.630   4.207
10625SOL     OW32773   0.380   3.142   0.925
10625SOL    HW132774   0.291   3.186   0.939
10625SOL    HW232775   0.369   3.043   0.919
10626SOL     OW32776   0.556   2.478   1.662
10626SOL    HW132777   0.604   2.392   1.676
10626SOL    HW232778   0.574   2.510   1.568
10627SOL     OW32779   6.069   6.332   3.775
10627SOL    HW132780   5.989   6.322   3.834
10627SOL    HW232781   6.087   6.245   3.728
10628SOL     OW32782   5.948   5.551   5.890
10628SOL    HW132783   5.941   5.591   5.799
10628SOL    HW232784   5.893   5.467   5.893
10629SOL     OW32785   2.490   5.590   5.939
10629SOL    HW132786   2.413   5.561   5.882
10629SOL    HW232787   2.566   5.618   5.880
10630SOL     OW32788   6.517   1.836   3.523
10630SOL    HW132789   6.451   1.823   3.597
10630SOL    HW232790   6.591   1.769   3.532
10631SOL     OW32791   0.786   6.955   3.535
10631SOL    HW132792   0.778   6.983   3.630
10631SOL    HW232793   0.700   6.912   3.506
10632SOL     OW32794   0.328   1.846   5.086
10632SOL    HW132795   0.330   1.836   5.186
10632SOL    HW232796   0.327   1.942   5.062
10633SOL     OW32797   1.799   4.952   1.803
10633SOL    HW132798   1.887   4.962   1.849
10633SOL    HW232799   1.810   4.896   1.721
10634SOL     OW32800   3.475   6.354   1.227
10634SOL    HW132801   3.378   6.374   1.212
10634SOL    HW232802   3.507   6.291   1.157
10635SOL     OW32803   2.387   0.826   1.339
10635SOL    HW132804   2.473   0.860   1.299
10635SOL    HW232805   2.401   0.734   1.375
10636SOL     OW32806   1.192   2.398   1.254
10636SOL    HW132807   1.181   2.305   1.287
10636SOL    HW232808   1.134   2.412   1.173
10637SOL     OW32809   3.376   4.084   4.866
10637SOL    HW132810   3.334   4.174   4.851
10637SOL    HW232811   3.472   4.088   4.840
10638SOL     OW32812   0.226   6.329   5.524
10638SOL    HW132813   0.241   6.234   5.552
10638SOL    HW232814   0.273   6.391   5.587
10639SOL     OW32815   2.128   0.761   4.694
10639SOL    HW132816   2.091   0.743   4.603
10639SOL    HW232817   2.052   0.777   4.758
10640SOL     OW32818   4.286   0.825   6.909
10640SOL    HW132819   4.362   0.832   6.973
10640SOL    HW232820   4.233   0.742   6.927
10641SOL     OW32821   5.762   1.855   6.884
10641SOL    HW132822   5.723   1.772   6.925
10641SOL    HW232823   5.689   1.923   6.872
10642SOL     OW32824   0.321   2.936   2.035
10642SOL    HW132825   0.350   2.973   1.947
10642SOL    HW232826   0.283   3.010   2.091
10643SOL     OW32827   2.513   3.272   5.652
10643SOL    HW132828   2.571   3.316   5.583
10643SOL    HW232829   2.419   3.307   5.642
10644SOL     OW32830   4.516   1.524   4.023
10644SOL    HW132831   4.544   1.545   4.117
10644SOL    HW232832   4.530   1.427   4.005
10645SOL     OW32833   2.950   0.604   4.899
10645SOL    HW132834   2.889   0.683   4.888
10645SOL    HW232835   2.934   0.539   4.825
10646SOL     OW32836   1.212   3.594   6.726
10646SOL    HW132837   1.134   3.572   6.784
10646SOL    HW232838   1.206   3.690   6.697
10647SOL     OW32839   7.005   5.018   0.756
10647SOL    HW132840   0.064   5.066   0.721
10647SOL    HW232841   6.929   5.030   0.691
10648SOL     OW32842   4.640   2.796   6.808
10648SOL    HW132843   4.708   2.813   6.879
10648SOL    HW232844   4.677   2.733   6.740
10649SOL     OW32845   0.145   5.053   5.748
10649SOL    HW132846   0.124   4.966   5.794
10649SOL    HW232847   0.081   5.069   5.674
10650SOL     OW32848   3.124   6.629   3.606
10650SOL    HW132849   3.221   6.649   3.592
10650SOL    HW232850   3.113   6.571   3.687
10651SOL     OW32851   4.483   6.159   6.474
10651SOL    HW132852   4.504   6.221   6.400
10651SOL    HW232853   4.466   6.211   6.558
10652SOL     OW32854   3.167   0.776   6.191
10652SOL    HW132855   3.266   0.787   6.195
10652SOL    HW232856   3.126   0.804   6.278
10653SOL     OW32857   5.437   3.472   4.130
10653SOL    HW132858   5.393   3.561   4.119
10653SOL    HW232859   5.449   3.430   4.041
10654SOL     OW32860   4.096   0.782   0.409
10654SOL    HW132861   4.163   0.765   0.482
10654SOL    HW232862   4.106   0.713   0.338
10655SOL     OW32863   2.680   6.208   1.271
10655SOL    HW132864   2.699   6.166   1.182
10655SOL    HW232865   2.750   6.180   1.337
10656SOL     OW32866   6.647   2.526   6.512
10656SOL    HW132867   6.685   2.457   6.574
10656SOL    HW232868   6.631   2.611   6.562
10657SOL     OW32869   6.342   0.753   1.187
10657SOL    HW132870   6.362   0.656   1.204
10657SOL    HW232871   6.245   0.764   1.165
10658SOL     OW32872   0.005   5.364   4.657
10658SOL    HW132873   6.959   5.433   4.629
10658SOL    HW232874   0.078   5.360   4.589
10659SOL     OW32875   5.860   0.873   0.273
10659SOL    HW132876   5.877   0.847   0.178
10659SOL    HW232877   5.812   0.799   0.320
10660SOL     OW32878   4.691   5.079   5.664
10660SOL    HW132879   4.602   5.109   5.628
10660SOL    HW232880   4.714   4.990   5.627
10661SOL     OW32881   0.250   6.588   2.775
10661SOL    HW132882   0.296   6.616   2.691
10661SOL    HW232883   0.152   6.608   2.768
10662SOL     OW32884   5.689   1.394   0.563
10662SOL    HW132885   5.721   1.486   0.585
10662SOL    HW232886   5.677   1.341   0.647
10663SOL     OW32887   6.763   0.197   0.110
10663SOL    HW132888   6.708   0.177   0.028
10663SOL    HW232889   6.770   0.297   0.121
10664SOL     OW32890   1.955   5.312   0.124
10664SOL    HW132891   1.995   5.389   0.076
10664SOL    HW232892   2.009   5.291   0.206
10665SOL     OW32893   6.696   1.496   1.023
10665SOL    HW132894   6.705   1.403   0.987
10665SOL    HW232895   6.674   1.492   1.121
10666SOL     OW32896   1.315   6.915   0.257
10666SOL    HW132897   1.316   6.903   0.356
10666SOL    HW232898   1.241   6.860   0.218
10667SOL     OW32899   3.455   1.890   5.312
10667SOL    HW132900   3.440   1.970   5.370
10667SOL    HW232901   3.551   1.886   5.285
10668SOL     OW32902   1.627   1.212   5.790
10668SOL    HW132903   1.679   1.163   5.860
10668SOL    HW232904   1.655   1.308   5.789
10669SOL     OW32905   0.993   6.767   6.465
10669SOL    HW132906   1.061   6.804   6.401
10669SOL    HW232907   0.961   6.841   6.524
10670SOL     OW32908   6.440   4.527   6.064
10670SOL    HW132909   6.360   4.548   6.008
10670SOL    HW232910   6.496   4.609   6.073
10671SOL     OW32911   1.919   1.095   3.412
10671SOL    HW132912   1.938   1.046   3.327
10671SOL    HW232913   2.004   1.131   3.450
10672SOL     OW32914   0.564   3.083   1.315
10672SOL    HW132915   0.492   3.024   1.279
10672SOL    HW232916   0.568   3.167   1.260
10673SOL     OW32917   2.764   3.004   5.515
10673SOL    HW132918   2.676   2.998   5.468
10673SOL    HW232919   2.837   2.973   5.454
10674SOL     OW32920   3.877   2.493   1.689
10674SOL    HW132921   3.970   2.456   1.681
10674SOL    HW232922   3.827   2.443   1.759
10675SOL     OW32923   0.379   0.746   5.876
10675SOL    HW132924   0.340   0.812   5.813
10675SOL    HW232925   0.341   0.655   5.857
10676SOL     OW32926   6.733   0.068   6.268
10676SOL    HW132927   6.743   0.025   6.357
10676SOL    HW232928   6.645   0.116   6.264
10677SOL     OW32929   0.427   0.316   0.856
10677SOL    HW132930   0.361   0.386   0.830
10677SOL    HW232931   0.484   0.350   0.931
10678SOL     OW32932   2.462   6.362   3.187
10678SOL    HW132933   2.403   6.443   3.195
10678SOL    HW232934   2.557   6.391   3.184
10679SOL     OW32935   5.259   5.172   4.381
10679SOL    HW132936   5.233   5.201   4.473
10679SOL    HW232937   5.351   5.204   4.360
10680SOL     OW32938   1.411   1.979   3.707
10680SOL    HW132939   1.487   1.981   3.642
10680SOL    HW232940   1.444   2.001   3.799
10681SOL     OW32941   0.169   1.267   6.213
10681SOL    HW132942   0.181   1.345   6.274
10681SOL    HW232943   0.259   1.231   6.186
10682SOL     OW32944   6.908   1.720   2.698
10682SOL    HW132945   6.945   1.794   2.754
10682SOL    HW232946   6.829   1.679   2.743
10683SOL     OW32947   1.862   1.801   4.823
10683SOL    HW132948   1.906   1.723   4.867
10683SOL    HW232949   1.799   1.844   4.888
10684SOL     OW32950   5.893   5.429   0.389
10684SOL    HW132951   5.988   5.441   0.417
10684SOL    HW232952   5.870   5.332   0.389
10685SOL     OW32953   0.235   2.884   2.678
10685SOL    HW132954   0.276   2.945   2.610
10685SOL    HW232955   0.294   2.881   2.759
10686SOL     OW32956   3.649   4.950   0.541
10686SOL    HW132957   3.716   5.014   0.504
10686SOL    HW232958   3.576   4.935   0.474
10687SOL     OW32959   0.300   4.647   2.762
10687SOL    HW132960   0.273   4.738   2.730
10687SOL    HW232961   0.395   4.629   2.734
10688SOL     OW32962   6.284   5.464   2.126
10688SOL    HW132963   6.361   5.408   2.095
10688SOL    HW232964   6.238   5.504   2.047
10689SOL     OW32965   0.299   0.857   2.314
10689SOL    HW132966   0.259   0.913   2.386
10689SOL    HW232967   0.280   0.898   2.225
10690SOL     OW32968   4.543   5.150   1.815
10690SOL    HW132969   4.641   5.131   1.820
10690SOL    HW232970   4.491   5.066   1.828
10691SOL     OW32971   0.189   1.420   1.419
10691SOL    HW132972   0.143   1.506   1.402
10691SOL    HW232973   0.152   1.378   1.502
10692SOL     OW32974   3.974   5.907   3.868
10692SOL    HW132975   3.990   5.976   3.798
10692SOL    HW232976   3.926   5.829   3.828
10693SOL     OW32977   6.310   2.102   2.136
10693SOL    HW132978   6.301   2.073   2.041
10693SOL    HW232979   6.357   2.190   2.140
10694SOL     OW32980   3.782   6.304   0.849
10694SOL    HW132981   3.740   6.350   0.770
10694SOL    HW232982   3.842   6.231   0.817
10695SOL     OW32983   6.382   3.305   3.825
10695SOL    HW132984   6.283   3.291   3.829
10695SOL    HW232985   6.422   3.291   3.915
10696SOL     OW32986   6.513   6.304   1.557
10696SOL    HW132987   6.496   6.208   1.533
10696SOL    HW232988   6.602   6.332   1.520
10697SOL     OW32989   2.851   5.819   3.370
10697SOL    HW132990   2.859   5.868   3.283
10697SOL    HW232991   2.768   5.847   3.417
10698SOL     OW32992   3.069   0.341   3.567
10698SOL    HW132993   3.102   0.247   3.565
10698SOL    HW232994   2.978   0.343   3.609
10699SOL     OW32995   1.983   2.409   2.883
10699SOL    HW132996   2.006   2.506   2.887
10699SOL    HW232997   1.941   2.388   2.795
10700SOL     OW32998   6.872   0.399   1.311
10700SOL    HW132999   6.837   0.470   1.371
10700SOL    HW233000   6.839   0.414   1.218
10701SOL     OW33001   3.395   6.245   0.445
10701SOL    HW133002   3.465   6.241   0.374
10701SOL    HW233003   3.359   6.154   0.461
10702SOL     OW33004   6.330   3.150   1.424
10702SOL    HW133005   6.296   3.227   1.369
10702SOL    HW233006   6.361   3.183   1.513
10703SOL     OW33007   4.096   3.549   3.601
10703SOL    HW133008   4.105   3.576   3.697
10703SOL    HW233009   4.078   3.451   3.595
10704SOL     OW33010   5.535   6.471   1.826
10704SOL    HW133011   5.532   6.551   1.765
10704SOL    HW233012   5.442   6.438   1.841
10705SOL     OW33013   0.188   2.488   6.808
10705SOL    HW133014   0.135   2.567   6.841
10705SOL    HW233015   0.166   2.471   6.712
10706SOL     OW33016   3.470   1.064   2.035
10706SOL    HW133017   3.454   1.124   2.113
10706SOL    HW233018   3.410   1.092   1.959
10707SOL     OW33019   6.094   6.805   5.846
10707SOL    HW133020   6.061   6.855   5.926
10707SOL    HW233021   6.175   6.753   5.871
10708SOL     OW33022   4.466   0.938   1.155
10708SOL    HW133023   4.437   0.992   1.234
10708SOL    HW233024   4.484   0.999   1.077
10709SOL     OW33025   0.282   6.011   5.969
10709SOL    HW133026   0.271   6.066   6.052
10709SOL    HW233027   0.278   5.914   5.993
10710SOL     OW33028   6.106   5.994   3.210
10710SOL    HW133029   6.133   6.030   3.121
10710SOL    HW233030   6.172   6.024   3.279
10711SOL     OW33031   2.084   5.526   4.525
10711SOL    HW133032   2.028   5.496   4.602
10711SOL    HW233033   2.036   5.508   4.440
10712SOL     OW33034   3.864   1.353   5.041
10712SOL    HW133035   3.946   1.322   5.089
10712SOL    HW233036   3.805   1.404   5.104
10713SOL     OW33037   1.214   5.841   1.546
10713SOL    HW133038   1.187   5.921   1.601
10713SOL    HW233039   1.314   5.834   1.546
10714SOL     OW33040   6.990   4.787   5.622
10714SOL    HW133041   7.010   4.738   5.707
10714SOL    HW233042   0.035   4.762   5.553
10715SOL     OW33043   6.097   1.470   4.214
10715SOL    HW133044   6.060   1.472   4.307
10715SOL    HW233045   6.047   1.535   4.157
10716SOL     OW33046   6.254   0.361   2.936
10716SOL    HW133047   6.256   0.350   2.836
10716SOL    HW233048   6.343   0.337   2.974
10717SOL     OW33049   6.800   6.349   2.018
10717SOL    HW133050   6.864   6.307   1.953
10717SOL    HW233051   6.844   6.361   2.106
10718SOL     OW33052   6.893   4.519   6.375
10718SOL    HW133053   6.916   4.438   6.322
10718SOL    HW233054   6.966   4.538   6.441
10719SOL     OW33055   4.791   0.630   2.158
10719SOL    HW133056   4.757   0.581   2.239
10719SOL    HW233057   4.860   0.697   2.186
10720SOL     OW33058   0.739   3.738   0.247
10720SOL    HW133059   0.826   3.785   0.262
10720SOL    HW233060   0.729   3.715   0.150
10721SOL     OW33061   4.776   2.802   4.196
10721SOL    HW133062   4.748   2.881   4.142
10721SOL    HW233063   4.741   2.718   4.154
10722SOL     OW33064   0.265   4.054   0.798
10722SOL    HW133065   0.243   4.151   0.799
10722SOL    HW233066   0.291   4.026   0.706
10723SOL     OW33067   6.318   4.166   0.491
10723SOL    HW133068   6.303   4.150   0.394
10723SOL    HW233069   6.294   4.260   0.514
10724SOL     OW33070   3.739   6.662   5.476
10724SOL    HW133071   3.764   6.759   5.469
10724SOL    HW233072   3.666   6.643   5.410
10725SOL     OW33073   6.961   6.537   4.736
10725SOL    HW133074   7.019   6.482   4.676
10725SOL    HW233075   6.871   6.494   4.744
10726SOL     OW33076   5.009   0.962   4.439
10726SOL    HW133077   5.025   1.051   4.395
10726SOL    HW233078   5.096   0.928   4.477
10727SOL     OW33079   1.972   6.253   6.916
10727SOL    HW133080   1.995   6.292   6.826
10727SOL    HW233081   2.000   6.316   6.988
10728SOL     OW33082   5.671   5.835   3.606
10728SOL    HW133083   5.710   5.800   3.692
10728SOL    HW233084   5.578   5.868   3.624
10729SOL     OW33085   6.032   3.518   4.190
10729SOL    HW133086   6.088   3.511   4.108
10729SOL    HW233087   5.942   3.555   4.166
10730SOL     OW33088   1.534   5.904   3.009
10730SOL    HW133089   1.603   5.894   3.080
10730SOL    HW233090   1.528   6.000   2.981
10731SOL     OW33091   4.503   6.545   7.000
10731SOL    HW133092   4.597   6.568   0.006
10731SOL    HW233093   4.503   6.519   6.903
10732SOL     OW33094   5.724   5.992   3.009
10732SOL    HW133095   5.634   5.979   3.049
10732SOL    HW233096   5.794   5.990   3.081
10733SOL     OW33097   0.400   0.971   6.499
10733SOL    HW133098   0.414   1.025   6.417
10733SOL    HW233099   0.348   1.024   6.566
10734SOL     OW33100   1.301   1.151   4.336
10734SOL    HW133101   1.378   1.124   4.278
10734SOL    HW233102   1.330   1.222   4.400
10735SOL     OW33103   0.184   6.267   2.074
10735SOL    HW133104   0.246   6.346   2.068
10735SOL    HW233105   0.120   6.281   2.149
10736SOL     OW33106   5.864   6.282   3.941
10736SOL    HW133107   5.850   6.376   3.971
10736SOL    HW233108   5.776   6.240   3.919
10737SOL     OW33109   6.270   1.262   2.725
10737SOL    HW133110   6.347   1.270   2.662
10737SOL    HW233111   6.189   1.230   2.676
10738SOL     OW33112   3.949   0.991   1.106
10738SOL    HW133113   3.998   0.909   1.134
10738SOL    HW233114   3.966   1.065   1.171
10739SOL     OW33115   5.726   3.064   3.427
10739SOL    HW133116   5.721   2.977   3.475
10739SOL    HW233117   5.640   3.113   3.439
10740SOL     OW33118   2.158   0.420   5.672
10740SOL    HW133119   2.151   0.409   5.771
10740SOL    HW233120   2.187   0.514   5.651
10741SOL     OW33121   2.357   2.291   3.881
10741SOL    HW133122   2.363   2.216   3.947
10741SOL    HW233123   2.300   2.265   3.804
10742SOL     OW33124   6.079   6.325   2.306
10742SOL    HW133125   6.034   6.371   2.382
10742SOL    HW233126   6.177   6.321   2.322
10743SOL     OW33127   2.741   1.325   5.953
10743SOL    HW133128   2.700   1.236   5.934
10743SOL    HW233129   2.841   1.316   5.955
10744SOL     OW33130   2.011   1.312   0.325
10744SOL    HW133131   2.023   1.220   0.287
10744SOL    HW233132   1.942   1.362   0.272
10745SOL     OW33133   1.638   4.175   1.991
10745SOL    HW133134   1.669   4.122   2.069
10745SOL    HW233135   1.648   4.121   1.907
10746SOL     OW33136   1.726   6.171   6.737
10746SOL    HW133137   1.715   6.258   6.689
10746SOL    HW233138   1.775   6.186   6.823
10747SOL     OW33139   6.419   1.344   4.730
10747SOL    HW133140   6.456   1.255   4.759
10747SOL    HW233141   6.482   1.417   4.759
10748SOL     OW33142   3.413   6.250   1.547
10748SOL    HW133143   3.414   6.320   1.619
10748SOL    HW233144   3.495   6.259   1.491
10749SOL     OW33145   6.052   4.450   1.696
10749SOL    HW133146   5.994   4.487   1.624
10749SOL    HW233147   5.996   4.397   1.760
10750SOL     OW33148   4.140   2.235   4.357
10750SOL    HW133149   4.143   2.266   4.262
10750SOL    HW233150   4.045   2.230   4.388
10751SOL     OW33151   0.487   5.482   4.860
10751SOL    HW133152   0.571   5.521   4.897
10751SOL    HW233153   0.412   5.494   4.926
10752SOL     OW33154   5.910   6.392   0.549
10752SOL    HW133155   5.979   6.382   0.620
10752SOL    HW233156   5.865   6.303   0.533
10753SOL     OW33157   5.004   6.771   4.301
10753SOL    HW133158   5.035   6.861   4.332
10753SOL    HW233159   4.921   6.746   4.350
10754SOL     OW33160   0.700   3.943   2.574
10754SOL    HW133161   0.696   3.949   2.474
10754SOL    HW233162   0.724   4.032   2.612
10755SOL     OW33163   0.069   2.791   1.194
10755SOL    HW133164   0.107   2.795   1.287
10755SOL    HW233165   0.127   2.842   1.132
10756SOL     OW33166   1.216   1.364   0.804
10756SOL    HW133167   1.261   1.376   0.893
10756SOL    HW233168   1.157   1.284   0.808
10757SOL     OW33169   0.137   3.838   2.172
10757SOL    HW133170   0.182   3.834   2.261
10757SOL    HW233171   0.198   3.882   2.105
10758SOL     OW33172   0.625   0.639   0.100
10758SOL    HW133173   0.613   0.654   0.002
10758SOL    HW233174   0.610   0.725   0.149
10759SOL     OW33175   2.936   2.130   5.756
10759SOL    HW133176   3.011   2.130   5.691
10759SOL    HW233177   2.917   2.224   5.785
10760SOL     OW33178   1.183   4.969   0.246
10760SOL    HW133179   1.149   5.026   0.321
10760SOL    HW233180   1.283   4.969   0.247
10761SOL     OW33181   1.124   1.672   5.780
10761SOL    HW133182   1.124   1.644   5.877
10761SOL    HW233183   1.032   1.702   5.754
10762SOL     OW33184   3.045   5.897   6.392
10762SOL    HW133185   3.068   5.811   6.438
10762SOL    HW233186   3.086   5.973   6.442
10763SOL     OW33187   5.228   7.011   3.701
10763SOL    HW133188   5.286   0.062   3.665
10763SOL    HW233189   5.132   0.015   3.690
10764SOL     OW33190   4.412   0.005   4.482
10764SOL    HW133191   4.344   6.960   4.513
10764SOL    HW233192   4.483   6.979   4.429
10765SOL     OW33193   0.428   2.409   2.634
10765SOL    HW133194   0.454   2.334   2.574
10765SOL    HW233195   0.373   2.475   2.583
10766SOL     OW33196   2.161   4.826   6.497
10766SOL    HW133197   2.097   4.901   6.515
10766SOL    HW233198   2.220   4.813   6.577
10767SOL     OW33199   1.504   5.177   0.428
10767SOL    HW133200   1.408   5.197   0.406
10767SOL    HW233201   1.563   5.212   0.355
10768SOL     OW33202   5.679   5.887   6.998
10768SOL    HW133203   5.698   5.845   6.910
10768SOL    HW233204   5.765   5.906   0.024
10769SOL     OW33205   3.211   2.999   4.532
10769SOL    HW133206   3.272   3.077   4.544
10769SOL    HW233207   3.249   2.919   4.577
10770SOL     OW33208   5.970   6.937   3.365
10770SOL    HW133209   5.961   6.884   3.449
10770SOL    HW233210   6.008   0.006   3.386
10771SOL     OW33211   4.723   5.915   5.604
10771SOL    HW133212   4.764   5.990   5.552
10771SOL    HW233213   4.631   5.941   5.633
10772SOL     OW33214   5.834   5.145   2.421
10772SOL    HW133215   5.902   5.184   2.359
10772SOL    HW233216   5.781   5.219   2.463
10773SOL     OW33217   6.865   3.483   1.291
10773SOL    HW133218   6.914   3.487   1.378
10773SOL    HW233219   6.772   3.450   1.306
10774SOL     OW33220   0.492   2.661   1.048
10774SOL    HW133221   0.550   2.695   0.974
10774SOL    HW233222   0.509   2.563   1.062
10775SOL     OW33223   1.503   3.865   0.549
10775SOL    HW133224   1.590   3.912   0.541
10775SOL    HW233225   1.428   3.931   0.545
10776SOL     OW33226   0.702   2.750   4.213
10776SOL    HW133227   0.662   2.660   4.192
10776SOL    HW233228   0.718   2.800   4.128
10777SOL     OW33229   2.830   1.385   1.431
10777SOL    HW133230   2.831   1.468   1.487
10777SOL    HW233231   2.809   1.306   1.489
10778SOL     OW33232   5.888   0.227   3.358
10778SOL    HW133233   5.978   0.192   3.383
10778SOL    HW233234   5.896   0.292   3.284
10779SOL     OW33235   5.554   3.979   5.190
10779SOL    HW133236   5.545   3.949   5.285
10779SOL    HW233237   5.578   3.900   5.132
10780SOL     OW33238   2.133   5.281   4.673
10780SOL    HW133239   2.198   5.211   4.643
10780SOL    HW233240   2.134   5.357   4.608
10781SOL     OW33241   5.828   2.367   4.896
10781SOL    HW133242   5.738   2.327   4.876
10781SOL    HW233243   5.883   2.367   4.813
10782SOL     OW33244   0.968   1.603   5.491
10782SOL    HW133245   1.020   1.637   5.413
10782SOL    HW233246   0.947   1.679   5.553
10783SOL     OW33247   1.390   2.560   3.898
10783SOL    HW133248   1.386   2.621   3.819
10783SOL    HW233249   1.454   2.597   3.965
10784SOL     OW33250   3.566   5.630   2.693
10784SOL    HW133251   3.580   5.639   2.792
10784SOL    HW233252   3.510   5.549   2.675
10785SOL     OW33253   1.107   5.083   2.053
10785SOL    HW133254   1.178   5.020   2.020
10785SOL    HW233255   1.047   5.108   1.977
10786SOL     OW33256   4.367   1.486   2.389
10786SOL    HW133257   4.370   1.458   2.293
10786SOL    HW233258   4.276   1.520   2.411
10787SOL     OW33259   4.224   0.612   3.359
10787SOL    HW133260   4.207   0.706   3.328
10787SOL    HW233261   4.137   0.562   3.363
10788SOL     OW33262   1.737   3.989   0.091
10788SOL    HW133263   1.684   3.943   0.162
10788SOL    HW233264   1.776   4.074   0.129
10789SOL     OW33265   6.739   1.420   1.652
10789SOL    HW133266   6.689   1.416   1.739
10789SOL    HW233267   6.690   1.367   1.583
10790SOL     OW33268   0.681   1.697   5.786
10790SOL    HW133269   0.587   1.723   5.810
10790SOL    HW233270   0.682   1.660   5.693
10791SOL     OW33271   1.370   1.901   4.047
10791SOL    HW133272   1.380   1.801   4.038
10791SOL    HW233273   1.273   1.924   4.050
10792SOL     OW33274   3.979   1.870   2.381
10792SOL    HW133275   4.069   1.894   2.343
10792SOL    HW233276   3.914   1.943   2.361
10793SOL     OW33277   4.561   2.160   4.876
10793SOL    HW133278   4.623   2.236   4.856
10793SOL    HW233279   4.588   2.117   4.962
10794SOL     OW33280   5.305   1.807   0.964
10794SOL    HW133281   5.379   1.861   0.924
10794SOL    HW233282   5.335   1.766   1.050
10795SOL     OW33283   7.021   3.687   3.148
10795SOL    HW133284   6.999   3.768   3.093
10795SOL    HW233285   0.058   3.713   3.224
10796SOL     OW33286   0.301   6.883   5.697
10796SOL    HW133287   0.290   6.961   5.634
10796SOL    HW233288   0.343   6.914   5.782
10797SOL     OW33289   4.313   4.117   6.577
10797SOL    HW133290   4.246   4.190   6.594
10797SOL    HW233291   4.376   4.147   6.505
10798SOL     OW33292   1.570   6.958   6.708
10798SOL    HW133293   1.484   6.909   6.723
10798SOL    HW233294   1.611   6.927   6.622
10799SOL     OW33295   3.186   1.107   2.839
10799SOL    HW133296   3.154   1.173   2.907
10799SOL    HW233297   3.177   1.146   2.748
10800SOL     OW33298   2.203   0.197   5.547
10800SOL    HW133299   2.195   0.286   5.592
10800SOL    HW233300   2.182   0.207   5.449
10801SOL     OW33301   2.529   5.938   5.986
10801SOL    HW133302   2.527   6.037   5.998
10801SOL    HW233303   2.623   5.906   5.987
10802SOL     OW33304   0.801   5.008   4.632
10802SOL    HW133305   0.782   4.914   4.601
10802SOL    HW233306   0.722   5.043   4.682
10803SOL     OW33307   0.344   4.172   4.735
10803SOL    HW133308   0.372   4.120   4.655
10803SOL    HW233309   0.343   4.270   4.713
10804SOL     OW33310   4.853   4.495   1.209
10804SOL    HW133311   4.763   4.481   1.168
10804SOL    HW233312   4.921   4.511   1.137
10805SOL     OW33313   3.693   6.018   0.585
10805SOL    HW133314   3.631   6.048   0.512
10805SOL    HW233315   3.784   6.056   0.569
10806SOL     OW33316   5.849   3.747   6.834
10806SOL    HW133317   5.901   3.818   6.882
10806SOL    HW233318   5.862   3.659   6.880
10807SOL     OW33319   4.529   0.250   3.983
10807SOL    HW133320   4.486   0.320   3.925
10807SOL    HW233321   4.495   0.160   3.956
10808SOL     OW33322   0.712   2.725   6.907
10808SOL    HW133323   0.747   2.799   6.965
10808SOL    HW233324   0.711   2.755   6.812
10809SOL     OW33325   3.197   0.459   3.200
10809SOL    HW133326   3.179   0.439   3.104
10809SOL    HW233327   3.266   0.396   3.235
10810SOL     OW33328   0.663   2.010   6.811
10810SOL    HW133329   0.744   2.004   6.869
10810SOL    HW233330   0.689   2.001   6.715
10811SOL     OW33331   4.851   4.822   5.682
10811SOL    HW133332   4.882   4.827   5.777
10811SOL    HW233333   4.903   4.752   5.634
10812SOL     OW33334   6.867   2.609   2.777
10812SOL    HW133335   6.866   2.571   2.685
10812SOL    HW233336   6.776   2.644   2.799
10813SOL     OW33337   2.680   5.567   2.404
10813SOL    HW133338   2.718   5.629   2.473
10813SOL    HW233339   2.581   5.580   2.400
10814SOL     OW33340   1.756   5.997   5.099
10814SOL    HW133341   1.727   6.048   5.018
10814SOL    HW233342   1.699   6.023   5.177
10815SOL     OW33343   4.472   2.545   3.576
10815SOL    HW133344   4.480   2.463   3.520
10815SOL    HW233345   4.390   2.540   3.633
10816SOL     OW33346   2.155   2.263   2.313
10816SOL    HW133347   2.212   2.342   2.336
10816SOL    HW233348   2.115   2.226   2.396
10817SOL     OW33349   4.908   6.701   1.947
10817SOL    HW133350   4.904   6.606   1.980
10817SOL    HW233351   4.815   6.737   1.942
10818SOL     OW33352   4.557   2.976   6.341
10818SOL    HW133353   4.588   3.044   6.407
10818SOL    HW233354   4.522   2.896   6.389
10819SOL     OW33355   0.703   3.648   6.254
10819SOL    HW133356   0.769   3.606   6.316
10819SOL    HW233357   0.732   3.632   6.159
10820SOL     OW33358   0.426   0.202   4.504
10820SOL    HW133359   0.356   0.226   4.571
10820SOL    HW233360   0.413   0.108   4.473
10821SOL     OW33361   0.251   0.148   0.454
10821SOL    HW133362   0.257   0.075   0.386
10821SOL    HW233363   0.207   0.228   0.413
10822SOL     OW33364   1.592   4.827   0.637
10822SOL    HW133365   1.550   4.824   0.728
10822SOL    HW233366   1.691   4.821   0.645
10823SOL     OW33367   1.204   2.177   1.812
10823SOL    HW133368   1.230   2.115   1.886
10823SOL    HW233369   1.201   2.127   1.726
10824SOL     OW33370   5.321   0.520   3.334
10824SOL    HW133371   5.263   0.442   3.355
10824SOL    HW233372   5.414   0.489   3.316
10825SOL     OW33373   3.517   1.782   0.877
10825SOL    HW133374   3.508   1.745   0.784
10825SOL    HW233375   3.577   1.724   0.931
10826SOL     OW33376   6.876   2.942   1.349
10826SOL    HW133377   6.802   2.883   1.381
10826SOL    HW233378   6.926   2.897   1.275
10827SOL     OW33379   1.242   2.564   4.467
10827SOL    HW133380   1.172   2.611   4.522
10827SOL    HW233381   1.267   2.621   4.389
10828SOL     OW33382   1.441   6.305   0.022
10828SOL    HW133383   1.486   6.374   0.080
10828SOL    HW233384   1.451   6.331   6.948
10829SOL     OW33385   2.366   3.828   1.696
10829SOL    HW133386   2.317   3.772   1.629
10829SOL    HW233387   2.318   3.825   1.783
10830SOL     OW33388   4.804   1.764   3.824
10830SOL    HW133389   4.837   1.848   3.868
10830SOL    HW233390   4.859   1.747   3.742
10831SOL     OW33391   5.119   2.733   3.216
10831SOL    HW133392   5.044   2.735   3.149
10831SOL    HW233393   5.102   2.802   3.286
10832SOL     OW33394   6.833   2.567   2.506
10832SOL    HW133395   6.760   2.627   2.473
10832SOL    HW233396   6.799   2.474   2.514
10833SOL     OW33397   3.183   0.330   4.291
10833SOL    HW133398   3.154   0.239   4.321
10833SOL    HW233399   3.110   0.373   4.239
10834SOL     OW33400   0.058   1.102   5.659
10834SOL    HW133401   6.998   1.119   5.604
10834SOL    HW233402   0.079   1.183   5.713
10835SOL     OW33403   6.932   2.209   2.376
10835SOL    HW133404   6.933   2.241   2.471
10835SOL    HW233405   6.978   2.277   2.318
10836SOL     OW33406   1.685   2.899   0.796
10836SOL    HW133407   1.715   2.987   0.831
10836SOL    HW233408   1.618   2.859   0.858
10837SOL     OW33409   0.948   5.786   1.307
10837SOL    HW133410   0.850   5.780   1.323
10837SOL    HW233411   0.994   5.816   1.391
10838SOL     OW33412   6.250   6.858   1.300
10838SOL    HW133413   6.179   6.827   1.238
10838SOL    HW233414   6.299   6.779   1.337
10839SOL     OW33415   1.810   1.704   0.330
10839SOL    HW133416   1.855   1.683   0.417
10839SOL    HW233417   1.793   1.802   0.325
10840SOL     OW33418   3.833   4.986   2.355
10840SOL    HW133419   3.822   4.973   2.256
10840SOL    HW233420   3.919   5.034   2.373
10841SOL     OW33421   5.125   3.477   5.318
10841SOL    HW133422   5.129   3.523   5.407
10841SOL    HW233423   5.097   3.543   5.248
10842SOL     OW33424   6.691   2.867   1.047
10842SOL    HW133425   6.640   2.782   1.036
10842SOL    HW233426   6.637   2.933   1.099
10843SOL     OW33427   0.579   1.190   1.818
10843SOL    HW133428   0.654   1.124   1.812
10843SOL    HW233429   0.535   1.181   1.907
10844SOL     OW33430   3.379   6.717   3.442
10844SOL    HW133431   3.415   6.629   3.475
10844SOL    HW233432   3.373   6.781   3.519
10845SOL     OW33433   0.786   3.014   0.847
10845SOL    HW133434   0.866   2.957   0.828
10845SOL    HW233435   0.757   3.000   0.942
10846SOL     OW33436   3.693   1.929   1.986
10846SOL    HW133437   3.685   2.026   2.008
10846SOL    HW233438   3.733   1.880   2.064
10847SOL     OW33439   3.701   2.561   5.917
10847SOL    HW133440   3.793   2.534   5.888
10847SOL    HW233441   3.694   2.554   6.016
10848SOL     OW33442   0.896   1.479   0.831
10848SOL    HW133443   0.860   1.388   0.850
10848SOL    HW233444   0.960   1.506   0.903
10849SOL     OW33445   2.737   5.035   4.246
10849SOL    HW133446   2.774   4.942   4.250
10849SOL    HW233447   2.782   5.085   4.171
10850SOL     OW33448   5.848   0.765   1.985
10850SOL    HW133449   5.873   0.861   1.972
10850SOL    HW233450   5.904   0.707   1.926
10851SOL     OW33451   4.248   2.291   6.247
10851SOL    HW133452   4.285   2.213   6.197
10851SOL    HW233453   4.284   2.291   6.340
10852SOL     OW33454   0.218   6.469   6.218
10852SOL    HW133455   0.311   6.506   6.223
10852SOL    HW233456   0.219   6.384   6.164
10853SOL     OW33457   1.905   0.965   4.406
10853SOL    HW133458   1.916   0.992   4.501
10853SOL    HW233459   1.964   0.887   4.386
10854SOL     OW33460   0.358   6.237   0.676
10854SOL    HW133461   0.380   6.236   0.579
10854SOL    HW233462   0.436   6.205   0.729
10855SOL     OW33463   1.469   5.924   1.667
10855SOL    HW133464   1.463   5.960   1.760
10855SOL    HW233465   1.533   5.847   1.666
10856SOL     OW33466   6.035   0.387   6.258
10856SOL    HW133467   6.063   0.376   6.163
10856SOL    HW233468   6.073   0.472   6.294
10857SOL     OW33469   6.257   0.626   5.017
10857SOL    HW133470   6.342   0.621   5.070
10857SOL    HW233471   6.211   0.712   5.038
10858SOL     OW33472   2.410   2.261   0.177
10858SOL    HW133473   2.460   2.296   0.098
10858SOL    HW233474   2.368   2.338   0.226
10859SOL     OW33475   0.919   5.886   2.288
10859SOL    HW133476   0.978   5.841   2.356
10859SOL    HW233477   0.880   5.818   2.226
10860SOL     OW33478   5.674   3.250   0.732
10860SOL    HW133479   5.646   3.156   0.751
10860SOL    HW233480   5.771   3.252   0.708
10861SOL     OW33481   2.923   2.617   1.550
10861SOL    HW133482   2.891   2.596   1.458
10861SOL    HW233483   2.965   2.535   1.590
10862SOL     OW33484   3.182   3.184   5.552
10862SOL    HW133485   3.144   3.166   5.461
10862SOL    HW233486   3.108   3.178   5.620
10863SOL     OW33487   2.497   0.969   2.939
10863SOL    HW133488   2.561   0.930   2.872
10863SOL    HW233489   2.501   0.916   3.023
10864SOL     OW33490   3.133   4.532   1.689
10864SOL    HW133491   3.061   4.504   1.752
10864SOL    HW233492   3.129   4.476   1.606
10865SOL     OW33493   3.845   1.253   2.688
10865SOL    HW133494   3.817   1.347   2.707
10865SOL    HW233495   3.876   1.246   2.594
10866SOL     OW33496   0.045   3.385   3.600
10866SOL    HW133497   6.976   3.409   3.634
10866SOL    HW233498   0.039   3.302   3.545
10867SOL     OW33499   4.542   3.149   0.991
10867SOL    HW133500   4.463   3.104   0.950
10867SOL    HW233501   4.555   3.115   1.084
10868SOL     OW33502   1.476   0.141   5.067
10868SOL    HW133503   1.529   0.143   5.152
10868SOL    HW233504   1.522   0.197   4.998
10869NA      NA33505   7.007   1.374   6.106
10870NA      NA33506   4.522   4.600   5.110
10871NA      NA33507   1.357   4.878   2.890
10872NA      NA33508   5.866   4.150   3.237
10873NA      NA33509   3.786   2.294   5.443
10874NA      NA33510   2.162   4.953   0.123
10875NA      NA33511   1.146   5.182   6.836
10876NA      NA33512   3.638   4.232   0.919
10877NA      NA33513   4.625   4.526   0.379
10878NA      NA33514   3.565   1.052   6.818
10879NA      NA33515   5.694   0.014   1.680
10880NA      NA33516   2.326   6.408   5.405
10881NA      NA33517   3.994   5.219   1.454
10882NA      NA33518   3.975   3.104   6.525
   7.02168   7.02168   7.02168
