Generated by trjconv : CNT in water t= 367.00000
33518
    1C        C    1   2.846   2.776   4.745
    1C        C    2   2.902   2.728   4.865
    1C        C    3   2.849   2.781   4.984
    1C        C    4   2.850   2.779   4.258
    1C        C    5   2.902   2.734   4.382
    1C        C    6   2.846   2.774   4.505
    1C        C    7   3.016   2.643   4.625
    1C        C    8   2.898   2.722   4.625
    1C        C    9   3.077   2.607   4.747
    1C        C   10   3.010   2.638   4.868
    1C        C   11   3.183   2.498   4.975
    1C        C   12   3.061   2.566   4.977
    1C        C   13   2.853   2.774   3.774
    1C        C   14   2.900   2.725   3.897
    1C        C   15   2.850   2.780   4.017
    1C        C   16   3.018   2.646   4.138
    1C        C   17   2.905   2.730   4.137
    1C        C   18   3.080   2.612   4.261
    1C        C   19   3.018   2.654   4.381
    1C        C   20   3.207   2.557   4.504
    1C        C   21   3.077   2.612   4.502
    1C        C   22   3.279   2.544   4.625
    1C        C   23   3.209   2.553   4.747
    1C        C   24   3.415   2.485   4.868
    1C        C   25   3.273   2.506   4.865
    1C        C   26   3.492   2.480   4.984
    1C        C   27   2.856   2.775   3.283
    1C        C   28   2.909   2.732   3.406
    1C        C   29   2.860   2.783   3.529
    1C        C   30   3.022   2.647   3.650
    1C        C   31   2.909   2.732   3.651
    1C        C   32   3.081   2.609   3.773
    1C        C   33   3.016   2.644   3.893
    1C        C   34   3.208   2.553   4.017
    1C        C   35   3.079   2.612   4.015
    1C        C   36   3.273   2.526   4.139
    1C        C   37   3.209   2.556   4.261
    1C        C   38   3.416   2.510   4.383
    1C        C   39   3.276   2.533   4.383
    1C        C   40   3.488   2.504   4.504
    1C        C   41   3.417   2.512   4.626
    1C        C   42   3.630   2.485   4.746
    1C        C   43   3.488   2.490   4.746
    1C        C   44   3.708   2.491   4.864
    1C        C   45   3.631   2.484   4.981
    1C        C   46   2.845   2.762   2.794
    1C        C   47   2.903   2.723   2.917
    1C        C   48   2.853   2.773   3.039
    1C        C   49   3.022   2.644   3.162
    1C        C   50   2.904   2.722   3.161
    1C        C   51   3.084   2.610   3.285
    1C        C   52   3.022   2.647   3.406
    1C        C   53   3.210   2.549   3.527
    1C        C   54   3.081   2.607   3.528
    1C        C   55   3.278   2.532   3.650
    1C        C   56   3.212   2.555   3.773
    1C        C   57   3.416   2.505   3.896
    1C        C   58   3.277   2.530   3.896
    1C        C   59   3.487   2.503   4.018
    1C        C   60   3.413   2.507   4.139
    1C        C   61   3.626   2.498   4.262
    1C        C   62   3.484   2.496   4.261
    1C        C   63   3.700   2.506   4.382
    1C        C   64   3.629   2.503   4.504
    1C        C   65   3.836   2.546   4.624
    1C        C   66   3.701   2.503   4.626
    1C        C   67   3.905   2.571   4.744
    1C        C   68   3.843   2.531   4.865
    1C        C   69   4.056   2.591   4.978
    1C        C   70   3.930   2.532   4.975
    1C        C   71   2.830   2.740   2.308
    1C        C   72   2.884   2.693   2.429
    1C        C   73   2.837   2.751   2.549
    1C        C   74   3.010   2.629   2.673
    1C        C   75   2.895   2.712   2.672
    1C        C   76   3.070   2.593   2.795
    1C        C   77   3.012   2.634   2.917
    1C        C   78   3.205   2.543   3.038
    1C        C   79   3.078   2.604   3.039
    1C        C   80   3.275   2.526   3.160
    1C        C   81   3.213   2.552   3.284
    1C        C   82   3.416   2.493   3.404
    1C        C   83   3.278   2.525   3.406
    1C        C   84   3.484   2.488   3.528
    1C        C   85   3.415   2.500   3.651
    1C        C   86   3.627   2.500   3.771
    1C        C   87   3.486   2.498   3.773
    1C        C   88   3.696   2.506   3.894
    1C        C   89   3.628   2.507   4.018
    1C        C   90   3.834   2.552   4.136
    1C        C   91   3.697   2.517   4.141
    1C        C   92   3.903   2.569   4.258
    1C        C   93   3.836   2.542   4.380
    1C        C   94   4.028   2.634   4.500
    1C        C   95   3.902   2.569   4.502
    1C        C   96   4.094   2.672   4.619
    1C        C   97   4.032   2.636   4.740
    1C        C   98   4.196   2.768   4.863
    1C        C   99   4.103   2.659   4.861
    1C        C  100   4.219   2.847   4.976
    1C        C  101   2.821   2.729   2.073
    1C        C  102   2.994   2.592   2.190
    1C        C  103   2.880   2.678   2.190
    1C        C  104   3.066   2.578   2.312
    1C        C  105   3.003   2.616   2.433
    1C        C  106   3.202   2.534   2.553
    1C        C  107   3.070   2.585   2.553
    1C        C  108   3.271   2.514   2.675
    1C        C  109   3.201   2.539   2.795
    1C        C  110   3.410   2.491   2.916
    1C        C  111   3.271   2.519   2.916
    1C        C  112   3.482   2.483   3.037
    1C        C  113   3.413   2.496   3.160
    1C        C  114   3.626   2.488   3.281
    1C        C  115   3.484   2.484   3.281
    1C        C  116   3.694   2.503   3.404
    1C        C  117   3.625   2.497   3.527
    1C        C  118   3.834   2.541   3.646
    1C        C  119   3.696   2.509   3.648
    1C        C  120   3.897   2.571   3.769
    1C        C  121   3.832   2.545   3.892
    1C        C  122   4.024   2.639   4.012
    1C        C  123   3.899   2.573   4.013
    1C        C  124   4.083   2.674   4.135
    1C        C  125   4.026   2.638   4.259
    1C        C  126   4.192   2.773   4.377
    1C        C  127   4.088   2.678   4.380
    1C        C  128   4.242   2.825   4.498
    1C        C  129   4.194   2.771   4.620
    1C        C  130   4.330   2.937   4.738
    1C        C  131   4.243   2.824   4.741
    1C        C  132   4.360   3.006   4.857
    1C        C  133   4.286   2.969   4.970
    1C        C  134   3.173   2.474   2.082
    1C        C  135   3.037   2.508   2.082
    1C        C  136   3.260   2.476   2.191
    1C        C  137   3.197   2.524   2.308
    1C        C  138   3.403   2.475   2.430
    1C        C  139   3.265   2.503   2.431
    1C        C  140   3.477   2.475   2.550
    1C        C  141   3.410   2.486   2.674
    1C        C  142   3.623   2.489   2.793
    1C        C  143   3.482   2.481   2.795
    1C        C  144   3.694   2.502   2.914
    1C        C  145   3.623   2.490   3.036
    1C        C  146   3.829   2.539   3.157
    1C        C  147   3.694   2.496   3.158
    1C        C  148   3.898   2.562   3.278
    1C        C  149   3.831   2.539   3.400
    1C        C  150   4.019   2.636   3.522
    1C        C  151   3.896   2.566   3.522
    1C        C  152   4.079   2.674   3.644
    1C        C  153   4.022   2.636   3.768
    1C        C  154   4.188   2.771   3.888
    1C        C  155   4.080   2.680   3.889
    1C        C  156   4.237   2.817   4.012
    1C        C  157   4.192   2.764   4.135
    1C        C  158   4.334   2.929   4.255
    1C        C  159   4.246   2.818   4.254
    1C        C  160   4.378   2.988   4.375
    1C        C  161   4.334   2.932   4.498
    1C        C  162   4.440   3.119   4.617
    1C        C  163   4.376   2.994   4.617
    1C        C  164   4.472   3.185   4.738
    1C        C  165   4.441   3.122   4.860
    1C        C  166   4.516   3.320   4.974
    1C        C  167   4.486   3.184   4.977
    1C        C  168   3.478   2.435   2.074
    1C        C  169   3.400   2.455   2.189
    1C        C  170   3.616   2.466   2.310
    1C        C  171   3.474   2.460   2.309
    1C        C  172   3.693   2.483   2.427
    1C        C  173   3.618   2.482   2.547
    1C        C  174   3.824   2.540   2.668
    1C        C  175   3.690   2.495   2.668
    1C        C  176   3.894   2.564   2.788
    1C        C  177   3.831   2.538   2.912
    1C        C  178   4.023   2.625   3.032
    1C        C  179   3.896   2.563   3.035
    1C        C  180   4.083   2.664   3.154
    1C        C  181   4.022   2.631   3.277
    1C        C  182   4.192   2.757   3.399
    1C        C  183   4.080   2.671   3.399
    1C        C  184   4.239   2.811   3.521
    1C        C  185   4.192   2.759   3.644
    1C        C  186   4.339   2.915   3.766
    1C        C  187   4.245   2.809   3.765
    1C        C  188   4.377   2.975   3.889
    1C        C  189   4.329   2.925   4.012
    1C        C  190   4.446   3.107   4.127
    1C        C  191   4.371   2.987   4.131
    1C        C  192   4.470   3.173   4.249
    1C        C  193   4.444   3.113   4.375
    1C        C  194   4.512   3.318   4.493
    1C        C  195   4.473   3.182   4.494
    1C        C  196   4.528   3.389   4.614
    1C        C  197   4.513   3.321   4.737
    1C        C  198   4.555   3.537   4.852
    1C        C  199   4.534   3.395   4.857
    1C        C  200   4.585   3.621   4.964
    1C        C  201   3.616   2.415   2.076
    1C        C  202   3.826   2.507   2.184
    1C        C  203   3.691   2.460   2.189
    1C        C  204   3.896   2.542   2.303
    1C        C  205   3.829   2.518   2.426
    1C        C  206   4.020   2.616   2.543
    1C        C  207   3.894   2.552   2.547
    1C        C  208   4.083   2.651   2.665
    1C        C  209   4.019   2.628   2.789
    1C        C  210   4.194   2.750   2.908
    1C        C  211   4.082   2.664   2.910
    1C        C  212   4.246   2.798   3.031
    1C        C  213   4.192   2.754   3.153
    1C        C  214   4.332   2.913   3.274
    1C        C  215   4.243   2.803   3.276
    1C        C  216   4.373   2.972   3.396
    1C        C  217   4.335   2.914   3.519
    1C        C  218   4.437   3.097   3.638
    1C        C  219   4.380   2.968   3.642
    1C        C  220   4.463   3.166   3.758
    1C        C  221   4.441   3.100   3.881
    1C        C  222   4.504   3.305   4.004
    1C        C  223   4.471   3.168   4.002
    1C        C  224   4.515   3.379   4.124
    1C        C  225   4.503   3.310   4.247
    1C        C  226   4.531   3.522   4.367
    1C        C  227   4.522   3.381   4.368
    1C        C  228   4.526   3.598   4.486
    1C        C  229   4.532   3.530   4.610
    1C        C  230   4.503   3.743   4.731
    1C        C  231   4.539   3.606   4.729
    1C        C  232   4.496   3.821   4.849
    1C        C  233   4.542   3.754   4.963
    1C        C  234   4.022   2.604   2.063
    1C        C  235   3.899   2.539   2.068
    1C        C  236   4.082   2.650   2.181
    1C        C  237   4.020   2.611   2.302
    1C        C  238   4.198   2.736   2.426
    1C        C  239   4.083   2.653   2.422
    1C        C  240   4.252   2.786   2.546
    1C        C  241   4.194   2.739   2.666
    1C        C  242   4.333   2.906   2.785
    1C        C  243   4.249   2.792   2.785
    1C        C  244   4.373   2.964   2.907
    1C        C  245   4.334   2.908   3.031
    1C        C  246   4.439   3.096   3.152
    1C        C  247   4.372   2.971   3.151
    1C        C  248   4.460   3.164   3.274
    1C        C  249   4.437   3.098   3.396
    1C        C  250   4.496   3.303   3.516
    1C        C  251   4.461   3.167   3.517
    1C        C  252   4.512   3.374   3.638
    1C        C  253   4.499   3.303   3.759
    1C        C  254   4.521   3.513   3.880
    1C        C  255   4.519   3.372   3.881
    1C        C  256   4.516   3.586   4.001
    1C        C  257   4.525   3.520   4.125
    1C        C  258   4.498   3.733   4.243
    1C        C  259   4.525   3.594   4.245
    1C        C  260   4.474   3.802   4.364
    1C        C  261   4.492   3.735   4.487
    1C        C  262   4.426   3.939   4.604
    1C        C  263   4.473   3.806   4.608
    1C        C  264   4.401   4.010   4.723
    1C        C  265   4.432   3.947   4.845
    1C        C  266   4.319   4.135   4.962
    1C        C  267   4.391   4.016   4.960
    1C        C  268   4.259   2.775   2.066
    1C        C  269   4.196   2.732   2.184
    1C        C  270   4.345   2.888   2.301
    1C        C  271   4.253   2.780   2.304
    1C        C  272   4.384   2.954   2.420
    1C        C  273   4.342   2.896   2.542
    1C        C  274   4.442   3.086   2.662
    1C        C  275   4.374   2.962   2.662
    1C        C  276   4.472   3.150   2.784
    1C        C  277   4.446   3.086   2.907
    1C        C  278   4.506   3.292   3.023
    1C        C  279   4.474   3.154   3.028
    1C        C  280   4.512   3.365   3.144
    1C        C  281   4.501   3.299   3.268
    1C        C  282   4.516   3.509   3.390
    1C        C  283   4.508   3.368   3.391
    1C        C  284   4.516   3.582   3.511
    1C        C  285   4.520   3.515   3.635
    1C        C  286   4.492   3.724   3.755
    1C        C  287   4.516   3.585   3.758
    1C        C  288   4.475   3.791   3.878
    1C        C  289   4.495   3.726   4.002
    1C        C  290   4.432   3.933   4.117
    1C        C  291   4.484   3.801   4.121
    1C        C  292   4.393   3.995   4.237
    1C        C  293   4.425   3.934   4.361
    1C        C  294   4.324   4.123   4.477
    1C        C  295   4.397   4.003   4.481
    1C        C  296   4.285   4.187   4.597
    1C        C  297   4.323   4.129   4.720
    1C        C  298   4.204   4.313   4.835
    1C        C  299   4.285   4.195   4.841
    1C        C  300   4.170   4.401   4.943
    1C        C  301   4.352   2.878   2.064
    1C        C  302   4.472   3.065   2.174
    1C        C  303   4.395   2.944   2.180
    1C        C  304   4.485   3.139   2.295
    1C        C  305   4.449   3.079   2.418
    1C        C  306   4.513   3.284   2.538
    1C        C  307   4.473   3.149   2.539
    1C        C  308   4.521   3.356   2.659
    1C        C  309   4.502   3.288   2.782
    1C        C  310   4.528   3.503   2.900
    1C        C  311   4.518   3.362   2.901
    1C        C  312   4.523   3.576   3.020
    1C        C  313   4.519   3.506   3.143
    1C        C  314   4.487   3.715   3.265
    1C        C  315   4.512   3.576   3.266
    1C        C  316   4.476   3.788   3.386
    1C        C  317   4.493   3.721   3.509
    1C        C  318   4.425   3.922   3.628
    1C        C  319   4.474   3.790   3.631
    1C        C  320   4.392   3.986   3.750
    1C        C  321   4.426   3.923   3.872
    1C        C  322   4.318   4.107   3.990
    1C        C  323   4.399   3.991   3.993
    1C        C  324   4.272   4.166   4.110
    1C        C  325   4.321   4.117   4.233
    1C        C  326   4.187   4.284   4.353
    1C        C  327   4.280   4.177   4.354
    1C        C  328   4.135   4.336   4.473
    1C        C  329   4.192   4.293   4.595
    1C        C  330   4.026   4.434   4.711
    1C        C  331   4.139   4.348   4.714
    1C        C  332   3.969   4.488   4.829
    1C        C  333   4.055   4.480   4.939
    1C        C  334   4.555   3.267   2.063
    1C        C  335   4.530   3.129   2.060
    1C        C  336   4.541   3.349   2.176
    1C        C  337   4.513   3.278   2.295
    1C        C  338   4.523   3.494   2.413
    1C        C  339   4.517   3.352   2.415
    1C        C  340   4.520   3.567   2.534
    1C        C  341   4.529   3.497   2.656
    1C        C  342   4.495   3.710   2.775
    1C        C  343   4.520   3.571   2.776
    1C        C  344   4.476   3.780   2.896
    1C        C  345   4.493   3.714   3.020
    1C        C  346   4.423   3.916   3.138
    1C        C  347   4.468   3.782   3.142
    1C        C  348   4.392   3.981   3.260
    1C        C  349   4.428   3.921   3.382
    1C        C  350   4.319   4.102   3.502
    1C        C  351   4.399   3.985   3.505
    1C        C  352   4.269   4.156   3.623
    1C        C  353   4.310   4.101   3.746
    1C        C  354   4.177   4.266   3.870
    1C        C  355   4.273   4.162   3.868
    1C        C  356   4.122   4.317   3.989
    1C        C  357   4.175   4.269   4.111
    1C        C  358   4.011   4.404   4.231
    1C        C  359   4.130   4.327   4.232
    1C        C  360   3.952   4.449   4.351
    1C        C  361   4.017   4.415   4.472
    1C        C  362   3.829   4.520   4.592
    1C        C  363   3.960   4.466   4.590
    1C        C  364   3.762   4.546   4.713
    1C        C  365   3.838   4.539   4.832
    1C        C  366   3.629   4.591   4.950
    1C        C  367   3.766   4.572   4.948
    1C        C  368   4.509   3.562   2.054
    1C        C  369   4.524   3.489   2.173
    1C        C  370   4.505   3.705   2.287
    1C        C  371   4.522   3.565   2.292
    1C        C  372   4.484   3.775   2.408
    1C        C  373   4.498   3.707   2.530
    1C        C  374   4.419   3.905   2.648
    1C        C  375   4.472   3.775   2.652
    1C        C  376   4.388   3.971   2.769
    1C        C  377   4.422   3.911   2.892
    1C        C  378   4.316   4.094   3.011
    1C        C  379   4.394   3.976   3.014
    1C        C  380   4.269   4.148   3.133
    1C        C  381   4.311   4.097   3.257
    1C        C  382   4.174   4.257   3.377
    1C        C  383   4.272   4.155   3.380
    1C        C  384   4.122   4.305   3.499
    1C        C  385   4.173   4.260   3.623
    1C        C  386   4.007   4.387   3.741
    1C        C  387   4.125   4.310   3.746
    1C        C  388   3.943   4.423   3.862
    1C        C  389   4.003   4.393   3.986
    1C        C  390   3.818   4.492   4.107
    1C        C  391   3.948   4.437   4.109
    1C        C  392   3.754   4.520   4.229
    1C        C  393   3.823   4.506   4.352
    1C        C  394   3.615   4.556   4.475
    1C        C  395   3.755   4.535   4.472
    1C        C  396   3.544   4.562   4.596
    1C        C  397   3.622   4.563   4.714
    1C        C  398   3.410   4.555   4.837
    1C        C  399   3.550   4.574   4.835
    1C        C  400   3.343   4.515   4.953
    1C        C  401   4.494   3.700   2.049
    1C        C  402   4.455   3.913   2.170
    1C        C  403   4.493   3.777   2.166
    1C        C  404   4.420   3.982   2.288
    1C        C  405   4.442   3.910   2.408
    1C        C  406   4.324   4.094   2.525
    1C        C  407   4.397   3.973   2.526
    1C        C  408   4.275   4.152   2.645
    1C        C  409   4.314   4.092   2.766
    1C        C  410   4.172   4.249   2.886
    1C        C  411   4.272   4.149   2.888
    1C        C  412   4.119   4.295   3.009
    1C        C  413   4.169   4.248   3.132
    1C        C  414   4.003   4.381   3.252
    1C        C  415   4.119   4.299   3.254
    1C        C  416   3.942   4.414   3.374
    1C        C  417   4.005   4.385   3.497
    1C        C  418   3.812   4.472   3.619
    1C        C  419   3.943   4.420   3.619
    1C        C  420   3.748   4.502   3.742
    1C        C  421   3.817   4.487   3.864
    1C        C  422   3.612   4.543   3.986
    1C        C  423   3.750   4.516   3.985
    1C        C  424   3.543   4.546   4.109
    1C        C  425   3.615   4.544   4.231
    1C        C  426   3.403   4.546   4.357
    1C        C  427   3.544   4.556   4.353
    1C        C  428   3.330   4.546   4.478
    1C        C  429   3.403   4.561   4.598
    1C        C  430   3.194   4.521   4.723
    1C        C  431   3.332   4.555   4.720
    1C        C  432   3.125   4.495   4.845
    1C        C  433   3.206   4.492   4.960
    1C        C  434   4.388   4.124   2.054
    1C        C  435   4.453   4.000   2.060
    1C        C  436   4.302   4.162   2.162
    1C        C  437   4.337   4.097   2.284
    1C        C  438   4.183   4.251   2.402
    1C        C  439   4.285   4.153   2.403
    1C        C  440   4.125   4.300   2.521
    1C        C  441   4.176   4.253   2.644
    1C        C  442   4.005   4.382   2.767
    1C        C  443   4.118   4.297   2.765
    1C        C  444   3.944   4.419   2.889
    1C        C  445   4.007   4.381   3.009
    1C        C  446   3.813   4.473   3.133
    1C        C  447   3.943   4.418   3.129
    1C        C  448   3.746   4.496   3.256
    1C        C  449   3.814   4.473   3.378
    1C        C  450   3.608   4.533   3.496
    1C        C  451   3.745   4.499   3.498
    1C        C  452   3.542   4.544   3.621
    1C        C  453   3.611   4.534   3.744
    1C        C  454   3.398   4.545   3.864
    1C        C  455   3.539   4.549   3.865
    1C        C  456   3.332   4.536   3.989
    1C        C  457   3.402   4.544   4.111
    1C        C  458   3.196   4.500   4.236
    1C        C  459   3.334   4.529   4.234
    1C        C  460   3.128   4.479   4.358
    1C        C  461   3.194   4.507   4.480
    1C        C  462   3.002   4.424   4.606
    1C        C  463   3.127   4.490   4.603
    1C        C  464   2.933   4.392   4.726
    1C        C  465   2.994   4.439   4.845
    1C        C  466   2.802   4.343   4.958
    1C        C  467   2.909   4.433   4.961
    1C        C  468   4.124   4.283   2.043
    1C        C  469   4.188   4.248   2.163
    1C        C  470   4.011   4.379   2.280
    1C        C  471   4.129   4.300   2.281
    1C        C  472   3.941   4.404   2.400
    1C        C  473   4.007   4.378   2.523
    1C        C  474   3.814   4.471   2.643
    1C        C  475   3.944   4.415   2.644
    1C        C  476   3.746   4.495   2.765
    1C        C  477   3.813   4.472   2.887
    1C        C  478   3.607   4.515   3.008
    1C        C  479   3.747   4.494   3.010
    1C        C  480   3.537   4.533   3.129
    1C        C  481   3.609   4.527   3.251
    1C        C  482   3.397   4.536   3.377
    1C        C  483   3.538   4.535   3.373
    1C        C  484   3.329   4.533   3.500
    1C        C  485   3.400   4.542   3.622
    1C        C  486   3.191   4.501   3.747
    1C        C  487   3.327   4.536   3.742
    1C        C  488   3.126   4.475   3.870
    1C        C  489   3.196   4.497   3.991
    1C        C  490   3.001   4.417   4.117
    1C        C  491   3.129   4.478   4.114
    1C        C  492   2.942   4.382   4.240
    1C        C  493   3.001   4.418   4.363
    1C        C  494   2.829   4.297   4.483
    1C        C  495   2.938   4.387   4.486
    1C        C  496   2.771   4.255   4.604
    1C        C  497   2.818   4.308   4.726
    1C        C  498   2.666   4.162   4.846
    1C        C  499   2.759   4.269   4.847
    1C        C  500   2.600   4.116   4.960
    1C        C  501   4.004   4.353   2.043
    1C        C  502   3.817   4.466   2.156
    1C        C  503   3.945   4.406   2.158
    1C        C  504   3.746   4.485   2.276
    1C        C  505   3.810   4.455   2.399
    1C        C  506   3.606   4.510   2.518
    1C        C  507   3.745   4.486   2.521
    1C        C  508   3.536   4.519   2.640
    1C        C  509   3.607   4.520   2.762
    1C        C  510   3.397   4.526   2.888
    1C        C  511   3.538   4.526   2.885
    1C        C  512   3.324   4.528   3.009
    1C        C  513   3.396   4.535   3.131
    1C        C  514   3.191   4.489   3.257
    1C        C  515   3.327   4.525   3.254
    1C        C  516   3.123   4.468   3.379
    1C        C  517   3.192   4.498   3.499
    1C        C  518   3.002   4.410   3.627
    1C        C  519   3.128   4.473   3.623
    1C        C  520   2.940   4.374   3.749
    1C        C  521   3.000   4.411   3.872
    1C        C  522   2.834   4.284   3.997
    1C        C  523   2.943   4.374   3.996
    1C        C  524   2.786   4.237   4.121
    1C        C  525   2.831   4.294   4.243
    1C        C  526   2.687   4.136   4.364
    1C        C  527   2.775   4.247   4.363
    1C        C  528   2.648   4.077   4.486
    1C        C  529   2.682   4.144   4.605
    1C        C  530   2.578   3.960   4.732
    1C        C  531   2.640   4.088   4.728
    1C        C  532   2.543   3.899   4.855
    1C        C  533   2.533   3.993   4.962
    1C        C  534   3.622   4.564   2.042
    1C        C  535   3.751   4.510   2.040
    1C        C  536   3.537   4.533   2.153
    1C        C  537   3.607   4.514   2.275
    1C        C  538   3.394   4.517   2.399
    1C        C  539   3.535   4.519   2.396
    1C        C  540   3.325   4.508   2.522
    1C        C  541   3.395   4.516   2.644
    1C        C  542   3.186   4.488   2.767
    1C        C  543   3.324   4.516   2.767
    1C        C  544   3.122   4.464   2.891
    1C        C  545   3.188   4.491   3.013
    1C        C  546   2.996   4.402   3.136
    1C        C  547   3.123   4.464   3.136
    1C        C  548   2.940   4.363   3.260
    1C        C  549   3.000   4.399   3.382
    1C        C  550   2.833   4.277   3.507
    1C        C  551   2.941   4.369   3.507
    1C        C  552   2.783   4.231   3.630
    1C        C  553   2.832   4.283   3.752
    1C        C  554   2.698   4.122   3.876
    1C        C  555   2.784   4.234   3.875
    1C        C  556   2.662   4.065   4.000
    1C        C  557   2.700   4.125   4.122
    1C        C  558   2.602   3.937   4.244
    1C        C  559   2.661   4.066   4.244
    1C        C  560   2.570   3.877   4.368
    1C        C  561   2.589   3.948   4.488
    1C        C  562   2.526   3.751   4.617
    1C        C  563   2.558   3.888   4.612
    1C        C  564   2.509   3.681   4.738
    1C        C  565   2.515   3.758   4.858
    1C        C  566   2.524   3.545   4.978
    1C        C  567   2.521   3.684   4.977
    1C        C  568   3.328   4.481   2.040
    1C        C  569   3.396   4.516   2.157
    1C        C  570   3.183   4.476   2.282
    1C        C  571   3.322   4.507   2.278
    1C        C  572   3.116   4.457   2.405
    1C        C  573   3.187   4.478   2.525
    1C        C  574   2.989   4.401   2.648
    1C        C  575   3.118   4.460   2.647
    1C        C  576   2.934   4.359   2.771
    1C        C  577   2.997   4.398   2.891
    1C        C  578   2.829   4.271   3.017
    1C        C  579   2.939   4.359   3.014
    1C        C  580   2.777   4.222   3.138
    1C        C  581   2.830   4.274   3.259
    1C        C  582   2.698   4.115   3.385
    1C        C  583   2.785   4.227   3.384
    1C        C  584   2.659   4.057   3.508
    1C        C  585   2.696   4.119   3.629
    1C        C  586   2.597   3.936   3.757
    1C        C  587   2.661   4.062   3.754
    1C        C  588   2.566   3.874   3.881
    1C        C  589   2.593   3.941   4.002
    1C        C  590   2.532   3.735   4.128
    1C        C  591   2.574   3.870   4.123
    1C        C  592   2.520   3.669   4.252
    1C        C  593   2.531   3.741   4.373
    1C        C  594   2.513   3.534   4.497
    1C        C  595   2.520   3.675   4.498
    1C        C  596   2.509   3.464   4.620
    1C        C  597   2.507   3.539   4.740
    1C        C  598   2.530   3.327   4.861
    1C        C  599   2.518   3.468   4.861
    1C        C  600   2.535   3.251   4.979
    1C        C  601   3.197   4.438   2.044
    1C        C  602   2.982   4.398   2.162
    1C        C  603   3.118   4.443   2.160
    1C        C  604   2.930   4.354   2.287
    1C        C  605   2.989   4.393   2.408
    1C        C  606   2.818   4.268   2.530
    1C        C  607   2.923   4.363   2.529
    1C        C  608   2.770   4.219   2.654
    1C        C  609   2.826   4.268   2.774
    1C        C  610   2.683   4.113   2.897
    1C        C  611   2.775   4.220   2.897
    1C        C  612   2.650   4.053   3.021
    1C        C  613   2.692   4.109   3.143
    1C        C  614   2.582   3.930   3.265
    1C        C  615   2.654   4.051   3.267
    1C        C  616   2.558   3.871   3.391
    1C        C  617   2.592   3.933   3.513
    1C        C  618   2.524   3.734   3.637
    1C        C  619   2.567   3.869   3.637
    1C        C  620   2.510   3.668   3.761
    1C        C  621   2.527   3.739   3.882
    1C        C  622   2.500   3.528   4.010
    1C        C  623   2.516   3.668   4.004
    1C        C  624   2.503   3.457   4.133
    1C        C  625   2.512   3.528   4.254
    1C        C  626   2.531   3.318   4.378
    1C        C  627   2.515   3.459   4.378
    1C        C  628   2.546   3.250   4.501
    1C        C  629   2.533   3.325   4.620
    1C        C  630   2.597   3.120   4.742
    1C        C  631   2.552   3.255   4.742
    1C        C  632   2.617   3.051   4.865
    1C        C  633   2.564   3.114   4.983
    1C        C  634   2.776   4.311   2.056
    1C        C  635   2.893   4.389   2.050
    1C        C  636   2.745   4.235   2.170
    1C        C  637   2.813   4.272   2.288
    1C        C  638   2.679   4.106   2.411
    1C        C  639   2.767   4.216   2.409
    1C        C  640   2.635   4.051   2.534
    1C        C  641   2.678   4.112   2.654
    1C        C  642   2.583   3.923   2.777
    1C        C  643   2.642   4.051   2.777
    1C        C  644   2.558   3.860   2.900
    1C        C  645   2.588   3.925   3.022
    1C        C  646   2.522   3.725   3.148
    1C        C  647   2.560   3.861   3.144
    1C        C  648   2.512   3.661   3.274
    1C        C  649   2.526   3.733   3.394
    1C        C  650   2.505   3.521   3.520
    1C        C  651   2.516   3.662   3.516
    1C        C  652   2.508   3.453   3.644
    1C        C  653   2.502   3.527   3.765
    1C        C  654   2.527   3.318   3.887
    1C        C  655   2.505   3.457   3.888
    1C        C  656   2.545   3.253   4.012
    1C        C  657   2.523   3.317   4.135
    1C        C  658   2.590   3.115   4.258
    1C        C  659   2.538   3.246   4.257
    1C        C  660   2.617   3.049   4.380
    1C        C  661   2.583   3.113   4.501
    1C        C  662   2.710   2.939   4.622
    1C        C  663   2.627   3.053   4.621
    1C        C  664   2.749   2.880   4.745
    1C        C  665   2.698   2.933   4.866
    1C        C  666   2.740   2.867   4.983
    1C        C  667   2.681   4.029   2.055
    1C        C  668   2.676   4.112   2.168
    1C        C  669   2.584   3.917   2.290
    1C        C  670   2.638   4.049   2.289
    1C        C  671   2.558   3.852   2.413
    1C        C  672   2.575   3.924   2.533
    1C        C  673   2.513   3.721   2.658
    1C        C  674   2.551   3.858   2.656
    1C        C  675   2.504   3.653   2.781
    1C        C  676   2.518   3.724   2.902
    1C        C  677   2.501   3.515   3.029
    1C        C  678   2.507   3.656   3.025
    1C        C  679   2.508   3.447   3.153
    1C        C  680   2.503   3.520   3.274
    1C        C  681   2.529   3.312   3.401
    1C        C  682   2.503   3.451   3.397
    1C        C  683   2.549   3.245   3.523
    1C        C  684   2.529   3.313   3.645
    1C        C  685   2.598   3.114   3.772
    1C        C  686   2.543   3.244   3.768
    1C        C  687   2.634   3.054   3.895
    1C        C  688   2.602   3.124   4.013
    1C        C  689   2.717   2.946   4.139
    1C        C  690   2.634   3.060   4.136
    1C        C  691   2.760   2.888   4.261
    1C        C  692   2.705   2.938   4.381
    1C        C  693   2.752   2.880   4.501
    1C        C  694   2.628   3.900   2.056
    1C        C  695   2.528   3.708   2.174
    1C        C  696   2.582   3.838   2.173
    1C        C  697   2.511   3.642   2.298
    1C        C  698   2.523   3.715   2.418
    1C        C  699   2.487   3.505   2.543
    1C        C  700   2.498   3.646   2.539
    1C        C  701   2.495   3.437   2.667
    1C        C  702   2.496   3.512   2.786
    1C        C  703   2.524   3.301   2.911
    1C        C  704   2.503   3.441   2.909
    1C        C  705   2.543   3.235   3.035
    1C        C  706   2.531   3.308   3.155
    1C        C  707   2.597   3.109   3.281
    1C        C  708   2.549   3.242   3.279
    1C        C  709   2.633   3.050   3.404
    1C        C  710   2.596   3.112   3.526
    1C        C  711   2.713   2.937   3.651
    1C        C  712   2.629   3.051   3.649
    1C        C  713   2.759   2.880   3.771
    1C        C  714   2.714   2.937   3.893
    1C        C  715   2.758   2.887   4.017
    1C        C  716   2.457   3.501   2.062
    1C        C  717   2.493   3.636   2.059
    1C        C  718   2.468   3.426   2.183
    1C        C  719   2.490   3.502   2.301
    1C        C  720   2.512   3.292   2.425
    1C        C  721   2.488   3.431   2.423
    1C        C  722   2.531   3.224   2.547
    1C        C  723   2.512   3.297   2.667
    1C        C  724   2.597   3.103   2.792
    1C        C  725   2.540   3.232   2.789
    1C        C  726   2.633   3.045   2.915
    1C        C  727   2.601   3.106   3.038
    1C        C  728   2.708   2.927   3.162
    1C        C  729   2.626   3.041   3.161
    1C        C  730   2.755   2.875   3.284
    1C        C  731   2.716   2.935   3.406
    1C        C  732   2.760   2.883   3.529
    1C        C  733   2.492   3.202   2.074
    1C        C  734   2.496   3.285   2.186
    1C        C  735   2.585   3.086   2.305
    1C        C  736   2.528   3.217   2.306
    1C        C  737   2.611   3.023   2.428
    1C        C  738   2.586   3.094   2.548
    1C        C  739   2.709   2.921   2.669
    1C        C  740   2.628   3.037   2.671
    1C        C  741   2.752   2.868   2.793
    1C        C  742   2.712   2.927   2.915
    1C        C  743   2.754   2.875   3.039
    1C        C  744   2.546   3.074   2.072
    1C        C  745   2.692   2.903   2.184
    1C        C  746   2.611   3.018   2.184
    1C        C  747   2.736   2.847   2.306
    1C        C  748   2.692   2.908   2.426
    1C        C  749   2.747   2.860   2.547
    1C        C  750   2.733   2.837   2.068
    1C        C  751   3.651   2.291   2.004
    1C        O  752   3.649   2.179   2.062
    1C        O  753   3.722   2.300   1.883
    1C        C  754   4.598   3.054   1.952
    1C        O  755   4.547   3.041   1.838
    1C        O  756   4.738   3.052   1.944
    1C        C  757   4.438   4.226   1.960
    1C        O  758   4.532   4.305   1.991
    1C        O  759   4.374   4.250   1.837
    1C        C  760   3.603   4.678   1.949
    1C        O  761   3.695   4.763   1.935
    1C        O  762   3.534   4.666   1.828
    1C        C  763   2.913   4.443   1.914
    1C        O  764   2.934   4.370   1.814
    1C        O  765   2.859   4.564   1.870
    1C        C  766   2.340   3.475   1.975
    1C        O  767   2.350   3.472   1.849
    1C        O  768   2.211   3.484   2.029
    1C        C  769   4.705   3.592   5.045
    1C        O  770   4.698   3.609   5.169
    1C        O  771   4.837   3.591   4.997
    1C        C  772   4.269   4.456   5.038
    1C        O  773   4.282   4.410   5.155
    1C        O  774   4.400   4.489   5.001
    1C        C  775   4.156   2.531   5.069
    1C        O  776   4.231   2.432   5.044
    1C        O  777   4.157   2.567   5.204
    1C        C  778   2.917   4.531   5.072
    1C        O  779   2.853   4.640   5.064
    1C        O  780   2.962   4.499   5.200
    1C        C  781   2.476   3.029   5.066
    1C        O  782   2.354   3.010   5.042
    1C        O  783   2.492   3.009   5.203
    1C        C  784   2.412   4.009   5.046
    1C        O  785   2.297   4.007   4.994
    1C        O  786   2.414   3.974   5.182
    1C        C  787   2.945   2.414   2.015
    1C        O  788   2.897   2.417   1.898
    1C        O  789   2.888   2.310   2.086
    1C        C  790   3.180   2.380   5.065
    1C        O  791   3.128   2.268   5.040
    1C        O  792   3.187   2.399   5.204
    1C        H  793   4.250   3.045   5.037
    1C        H  794   4.209   2.809   5.076
    1C        H  795   4.508   3.118   5.058
    1C        H  796   4.494   3.378   5.061
    1C        H  797   4.526   3.791   5.062
    1C        H  798   4.359   3.950   5.039
    1C        H  799   4.316   4.181   5.059
    1C        H  800   4.034   4.546   5.021
    1C        H  801   3.814   4.612   5.035
    1C        H  802   3.588   4.649   5.030
    1C        H  803   3.395   4.501   5.046
    1C        H  804   3.180   4.418   5.033
    1C        H  805   3.897   2.480   5.063
    1C        H  806   3.676   2.440   5.068
    1C        H  807   3.014   2.566   5.074
    1C        H  808   3.450   2.511   5.078
    1C        H  809   2.909   2.778   5.073
    1C        H  810   2.727   2.912   5.079
    1C        H  811   2.506   3.300   5.069
    1C        H  812   2.517   3.508   5.078
    1C        H  813   2.516   3.736   5.070
    1C        H  814   2.641   4.143   5.055
    1C        H  815   2.742   4.351   5.046
    1C        H  816   2.702   2.866   1.969
    1C        H  817   2.817   2.662   1.990
    1C        H  818   3.197   2.400   2.007
    1C        H  819   3.429   2.434   1.978
    1C        H  820   3.837   2.553   1.982
    1C        H  821   4.079   2.582   1.975
    1C        H  822   4.252   2.713   1.979
    1C        H  823   4.383   2.925   1.973
    1C        H  824   4.583   3.317   1.973
    1C        H  825   4.518   3.519   1.956
    1C        H  826   4.433   3.739   1.970
    1C        H  827   3.802   4.505   1.946
    1C        H  828   3.946   4.352   1.953
    1C        H  829   4.168   4.258   1.949
    1C        H  830   4.535   3.992   1.991
    1C        H  831   2.602   3.862   1.960
    1C        H  832   2.753   4.049   1.978
    1C        H  833   2.712   4.303   1.972
    1C        H  834   3.390   4.453   1.957
    1C        H  835   3.172   4.365   1.971
    1C        H  836   2.558   3.020   1.981
    1C        H  837   2.448   3.238   1.983
    1C        H  838   2.455   3.692   1.976
    2V3OU   H29  839   2.809   3.551   3.943
    2V3OU   C27  840   2.792   3.503   4.042
    2V3OU   H27  841   2.735   3.571   4.110
    2V3OU   H28  842   2.740   3.407   4.016
    2V3OU   O11  843   2.913   3.479   4.115
    2V3OU   C15  844   2.928   3.399   4.227
    2V3OU   C13  845   3.056   3.377   4.282
    2V3OU   C14  846   3.080   3.277   4.377
    2V3OU   C16  847   2.979   3.194   4.425
    2V3OU    H6  848   2.998   3.098   4.475
    2V3OU   C12  849   3.216   3.238   4.420
    2V3OU    O2  850   3.235   3.132   4.483
    2V3OU   C10  851   3.329   3.308   4.356
    2V3OU    C8  852   3.461   3.271   4.384
    2V3OU   O10  853   3.490   3.157   4.453
    2V3OU   H26  854   3.406   3.111   4.468
    2V3OU    C6  855   3.567   3.355   4.339
    2V3OU    C5  856   3.540   3.473   4.270
    2V3OU    C4  857   3.705   3.299   4.346
    2V3OU    H4  858   3.722   3.232   4.435
    2V3OU    H5  859   3.708   3.229   4.258
    2V3OU    C2  860   3.817   3.402   4.331
    2V3OU    O6  861   3.809   3.477   4.452
    2V3OU   H21  862   3.763   3.559   4.430
    2V3OU    C3  863   3.780   3.496   4.216
    2V3OU    H2  864   3.859   3.576   4.211
    2V3OU    H3  865   3.783   3.445   4.116
    2V3OU   C25  866   3.946   3.324   4.303
    2V3OU    O7  867   3.998   3.307   4.193
    2V3OU   C26  868   4.028   3.292   4.427
    2V3OU   H22  869   4.068   3.384   4.477
    2V3OU   H23  870   4.117   3.230   4.399
    2V3OU    O8  871   3.965   3.208   4.521
    2V3OU   H24  872   3.935   3.264   4.593
    2V3OU    C1  873   3.648   3.570   4.232
    2V3OU    H1  874   3.625   3.623   4.135
    2V3OU    O3  875   3.660   3.657   4.344
    2V3OU   C19  876   3.619   3.792   4.320
    2V3OU    H9  877   3.521   3.793   4.265
    2V3OU    O4  878   3.716   3.848   4.234
    2V3OU   C20  879   3.841   3.870   4.299
    2V3OU   H10  880   3.906   3.777   4.302
    2V3OU   C24  881   3.611   3.857   4.459
    2V3OU   H16  882   3.541   3.793   4.518
    2V3OU   H17  883   3.564   3.958   4.446
    2V3OU   C23  884   3.748   3.870   4.526
    2V3OU   H15  885   3.793   3.766   4.541
    2V3OU    N1  886   3.739   3.958   4.641
    2V3OU   H19  887   3.816   3.930   4.698
    2V3OU   H20  888   3.659   3.941   4.698
    2V3OU   C21  889   3.844   3.948   4.430
    2V3OU   H11  890   3.948   3.921   4.466
    2V3OU    O5  891   3.830   4.089   4.429
    2V3OU   H18  892   3.783   4.113   4.511
    2V3OU   C22  893   3.913   3.951   4.192
    2V3OU   H12  894   3.858   4.046   4.174
    2V3OU   H13  895   3.913   3.898   4.094
    2V3OU   H14  896   4.022   3.962   4.215
    2V3OU   C11  897   3.164   3.473   4.260
    2V3OU    O1  898   3.141   3.588   4.217
    2V3OU    C9  899   3.302   3.421   4.276
    2V3OU    C7  900   3.404   3.510   4.244
    2V3OU    O9  901   3.382   3.623   4.167
    2V3OU   H25  902   3.288   3.636   4.182
    2V3OU   C17  903   2.828   3.321   4.288
    2V3OU    H7  904   2.733   3.357   4.247
    2V3OU   C18  905   2.850   3.221   4.381
    2V3OU    H8  906   2.788   3.173   4.459
    3SOL     OW  907   2.992   4.448   5.452
    3SOL    HW1  908   2.961   4.476   5.361
    3SOL    HW2  909   3.009   4.349   5.452
    4SOL     OW  910   6.705   0.134   0.237
    4SOL    HW1  911   6.741   0.220   0.274
    4SOL    HW2  912   6.606   0.143   0.224
    5SOL     OW  913   5.094   1.535   2.405
    5SOL    HW1  914   5.081   1.536   2.306
    5SOL    HW2  915   5.045   1.613   2.445
    6SOL     OW  916   5.609   1.969   3.087
    6SOL    HW1  917   5.525   1.975   3.034
    6SOL    HW2  918   5.647   2.061   3.101
    7SOL     OW  919   0.902   4.272   4.748
    7SOL    HW1  920   0.852   4.233   4.670
    7SOL    HW2  921   0.921   4.369   4.730
    8SOL     OW  922   2.512   2.396   5.263
    8SOL    HW1  923   2.446   2.442   5.205
    8SOL    HW2  924   2.489   2.411   5.359
    9SOL     OW  925   6.612   1.778   6.155
    9SOL    HW1  926   6.650   1.797   6.064
    9SOL    HW2  927   6.681   1.729   6.209
   10SOL     OW  928   3.742   5.148   3.921
   10SOL    HW1  929   3.817   5.213   3.911
   10SOL    HW2  930   3.751   5.075   3.854
   11SOL     OW  931   2.140   0.441   0.234
   11SOL    HW1  932   2.187   0.528   0.251
   11SOL    HW2  933   2.063   0.432   0.297
   12SOL     OW  934   2.630   4.641   4.038
   12SOL    HW1  935   2.718   4.668   4.000
   12SOL    HW2  936   2.559   4.706   4.009
   13SOL     OW  937   3.578   6.402   2.833
   13SOL    HW1  938   3.664   6.353   2.849
   13SOL    HW2  939   3.515   6.385   2.909
   14SOL     OW  940   4.646   4.964   5.674
   14SOL    HW1  941   4.670   4.912   5.593
   14SOL    HW2  942   4.654   4.907   5.755
   15SOL     OW  943   0.180   6.077   6.593
   15SOL    HW1  944   0.254   6.142   6.607
   15SOL    HW2  945   0.098   6.108   6.641
   16SOL     OW  946   5.388   2.730   6.271
   16SOL    HW1  947   5.310   2.670   6.254
   16SOL    HW2  948   5.421   2.767   6.184
   17SOL     OW  949   6.173   0.361   5.916
   17SOL    HW1  950   6.192   0.369   5.818
   17SOL    HW2  951   6.259   0.359   5.966
   18SOL     OW  952   3.152   1.681   5.216
   18SOL    HW1  953   3.062   1.649   5.189
   18SOL    HW2  954   3.154   1.695   5.315
   19SOL     OW  955   0.678   2.244   2.694
   19SOL    HW1  956   0.729   2.318   2.649
   19SOL    HW2  957   0.641   2.183   2.624
   20SOL     OW  958   5.876   1.645   5.812
   20SOL    HW1  959   5.838   1.737   5.812
   20SOL    HW2  960   5.973   1.649   5.838
   21SOL     OW  961   3.232   6.660   2.478
   21SOL    HW1  962   3.329   6.685   2.474
   21SOL    HW2  963   3.200   6.666   2.572
   22SOL     OW  964   1.198   5.926   5.609
   22SOL    HW1  965   1.165   5.833   5.591
   22SOL    HW2  966   1.255   5.956   5.533
   23SOL     OW  967   4.591   4.750   2.582
   23SOL    HW1  968   4.642   4.747   2.668
   23SOL    HW2  969   4.508   4.804   2.595
   24SOL     OW  970   3.614   0.442   1.537
   24SOL    HW1  971   3.539   0.388   1.574
   24SOL    HW2  972   3.693   0.383   1.521
   25SOL     OW  973   3.246   6.915   3.872
   25SOL    HW1  974   3.184   6.844   3.841
   25SOL    HW2  975   3.195   6.984   3.923
   26SOL     OW  976   1.423   2.207   6.879
   26SOL    HW1  977   1.332   2.210   6.921
   26SOL    HW2  978   1.492   2.196   6.951
   27SOL     OW  979   0.584   1.131   2.662
   27SOL    HW1  980   0.644   1.055   2.688
   27SOL    HW2  981   0.493   1.096   2.642
   28SOL     OW  982   0.960   0.716   4.657
   28SOL    HW1  983   0.926   0.666   4.736
   28SOL    HW2  984   1.040   0.770   4.683
   29SOL     OW  985   6.025   0.995   1.156
   29SOL    HW1  986   6.120   0.985   1.184
   29SOL    HW2  987   5.975   1.048   1.224
   30SOL     OW  988   3.640   0.328   4.972
   30SOL    HW1  989   3.656   0.258   4.903
   30SOL    HW2  990   3.696   0.409   4.951
   31SOL     OW  991   0.115   1.901   5.092
   31SOL    HW1  992   0.174   1.976   5.121
   31SOL    HW2  993   0.103   1.904   4.993
   32SOL     OW  994   1.320   1.506   1.937
   32SOL    HW1  995   1.260   1.428   1.917
   32SOL    HW2  996   1.296   1.544   2.027
   33SOL     OW  997   6.963   3.727   5.324
   33SOL    HW1  998   6.969   3.789   5.402
   33SOL    HW2  999   0.009   3.751   5.257
   34SOL     OW 1000   2.136   5.178   4.883
   34SOL    HW1 1001   2.204   5.239   4.926
   34SOL    HW2 1002   2.104   5.219   4.798
   35SOL     OW 1003   3.718   2.258   5.762
   35SOL    HW1 1004   3.775   2.251   5.844
   35SOL    HW2 1005   3.658   2.178   5.756
   36SOL     OW 1006   5.076   1.325   4.257
   36SOL    HW1 1007   5.001   1.259   4.252
   36SOL    HW2 1008   5.154   1.290   4.205
   37SOL     OW 1009   2.201   1.330   3.720
   37SOL    HW1 1010   2.133   1.401   3.707
   37SOL    HW2 1011   2.279   1.367   3.770
   38SOL     OW 1012   2.110   4.578   1.650
   38SOL    HW1 1013   2.065   4.528   1.724
   38SOL    HW2 1014   2.202   4.543   1.635
   39SOL     OW 1015   6.257   4.542   6.703
   39SOL    HW1 1016   6.293   4.534   6.610
   39SOL    HW2 1017   6.227   4.635   6.720
   40SOL     OW 1018   3.459   0.221   6.041
   40SOL    HW1 1019   3.490   0.160   6.114
   40SOL    HW2 1020   3.502   0.194   5.955
   41SOL     OW 1021   6.025   4.179   2.512
   41SOL    HW1 1022   6.063   4.158   2.422
   41SOL    HW2 1023   5.992   4.095   2.555
   42SOL     OW 1024   2.857   6.525   4.615
   42SOL    HW1 1025   2.857   6.489   4.521
   42SOL    HW2 1026   2.769   6.506   4.658
   43SOL     OW 1027   3.998   6.653   4.597
   43SOL    HW1 1028   3.978   6.609   4.684
   43SOL    HW2 1029   3.928   6.723   4.578
   44SOL     OW 1030   6.019   3.072   5.213
   44SOL    HW1 1031   5.969   3.092   5.129
   44SOL    HW2 1032   6.110   3.114   5.208
   45SOL     OW 1033   4.234   5.762   2.094
   45SOL    HW1 1034   4.144   5.746   2.136
   45SOL    HW2 1035   4.304   5.713   2.146
   46SOL     OW 1036   0.746   3.032   4.332
   46SOL    HW1 1037   0.744   2.934   4.314
   46SOL    HW2 1038   0.841   3.063   4.340
   47SOL     OW 1039   5.372   4.262   1.569
   47SOL    HW1 1040   5.384   4.355   1.535
   47SOL    HW2 1041   5.315   4.210   1.506
   48SOL     OW 1042   0.399   3.032   6.819
   48SOL    HW1 1043   0.360   3.112   6.774
   48SOL    HW2 1044   0.396   3.045   6.918
   49SOL     OW 1045   4.981   2.678   0.707
   49SOL    HW1 1046   5.013   2.769   0.681
   49SOL    HW2 1047   5.022   2.609   0.646
   50SOL     OW 1048   6.100   1.369   6.007
   50SOL    HW1 1049   6.098   1.379   5.908
   50SOL    HW2 1050   6.163   1.295   6.032
   51SOL     OW 1051   2.384   5.298   2.279
   51SOL    HW1 1052   2.429   5.209   2.274
   51SOL    HW2 1053   2.372   5.324   2.375
   52SOL     OW 1054   5.531   2.587   1.169
   52SOL    HW1 1055   5.511   2.507   1.226
   52SOL    HW2 1056   5.630   2.592   1.152
   53SOL     OW 1057   4.921   0.212   3.327
   53SOL    HW1 1058   4.845   0.275   3.341
   53SOL    HW2 1059   4.886   0.122   3.302
   54SOL     OW 1060   5.935   6.438   0.352
   54SOL    HW1 1061   5.860   6.441   0.286
   54SOL    HW2 1062   5.968   6.531   0.369
   55SOL     OW 1063   2.195   2.416   6.361
   55SOL    HW1 1064   2.294   2.406   6.358
   55SOL    HW2 1065   2.154   2.370   6.282
   56SOL     OW 1066   1.586   1.791   0.898
   56SOL    HW1 1067   1.686   1.795   0.905
   56SOL    HW2 1068   1.550   1.732   0.969
   57SOL     OW 1069   3.737   0.448   6.763
   57SOL    HW1 1070   3.712   0.412   6.673
   57SOL    HW2 1071   3.654   0.470   6.814
   58SOL     OW 1072   0.853   1.232   6.314
   58SOL    HW1 1073   0.795   1.170   6.366
   58SOL    HW2 1074   0.834   1.326   6.341
   59SOL     OW 1075   6.184   3.247   6.240
   59SOL    HW1 1076   6.202   3.161   6.288
   59SOL    HW2 1077   6.158   3.228   6.146
   60SOL     OW 1078   5.849   1.195   3.766
   60SOL    HW1 1079   5.857   1.207   3.667
   60SOL    HW2 1080   5.755   1.167   3.788
   61SOL     OW 1081   0.572   1.101   4.427
   61SOL    HW1 1082   0.638   1.062   4.491
   61SOL    HW2 1083   0.582   1.058   4.338
   62SOL     OW 1084   1.065   1.340   1.818
   62SOL    HW1 1085   1.005   1.314   1.894
   62SOL    HW2 1086   1.136   1.270   1.805
   63SOL     OW 1087   4.392   6.718   3.992
   63SOL    HW1 1088   4.297   6.712   3.962
   63SOL    HW2 1089   4.452   6.687   3.918
   64SOL     OW 1090   0.979   3.578   6.502
   64SOL    HW1 1091   1.046   3.596   6.574
   64SOL    HW2 1092   0.905   3.522   6.538
   65SOL     OW 1093   0.053   6.918   5.710
   65SOL    HW1 1094   7.015   6.996   5.705
   65SOL    HW2 1095   0.092   6.912   5.802
   66SOL     OW 1096   3.144   0.430   2.833
   66SOL    HW1 1097   3.234   0.390   2.815
   66SOL    HW2 1098   3.124   0.500   2.765
   67SOL     OW 1099   0.358   2.443   0.004
   67SOL    HW1 1100   0.277   2.500   0.016
   67SOL    HW2 1101   0.431   2.474   0.066
   68SOL     OW 1102   6.929   1.456   5.875
   68SOL    HW1 1103   6.947   1.546   5.836
   68SOL    HW2 1104   6.925   1.463   5.974
   69SOL     OW 1105   1.572   4.820   6.194
   69SOL    HW1 1106   1.596   4.757   6.121
   69SOL    HW2 1107   1.510   4.775   6.258
   70SOL     OW 1108   5.389   3.907   4.787
   70SOL    HW1 1109   5.414   3.824   4.737
   70SOL    HW2 1110   5.436   3.908   4.875
   71SOL     OW 1111   4.753   1.971   4.236
   71SOL    HW1 1112   4.687   2.047   4.228
   71SOL    HW2 1113   4.824   1.983   4.167
   72SOL     OW 1114   0.244   0.922   3.034
   72SOL    HW1 1115   0.322   0.875   2.992
   72SOL    HW2 1116   0.260   0.930   3.133
   73SOL     OW 1117   3.245   0.561   0.009
   73SOL    HW1 1118   3.313   0.608   6.978
   73SOL    HW2 1119   3.163   0.618   0.016
   74SOL     OW 1120   2.087   1.709   6.218
   74SOL    HW1 1121   2.064   1.635   6.280
   74SOL    HW2 1122   2.012   1.775   6.215
   75SOL     OW 1123   4.371   1.842   1.212
   75SOL    HW1 1124   4.460   1.797   1.217
   75SOL    HW2 1125   4.380   1.939   1.235
   76SOL     OW 1126   2.873   4.418   6.133
   76SOL    HW1 1127   2.776   4.411   6.111
   76SOL    HW2 1128   2.927   4.380   6.058
   77SOL     OW 1129   1.996   5.474   4.318
   77SOL    HW1 1130   2.082   5.509   4.356
   77SOL    HW2 1131   1.923   5.489   4.384
   78SOL     OW 1132   4.087   1.061   0.889
   78SOL    HW1 1133   4.028   1.009   0.951
   78SOL    HW2 1134   4.042   1.072   0.801
   79SOL     OW 1135   2.330   5.617   1.964
   79SOL    HW1 1136   2.392   5.644   2.039
   79SOL    HW2 1137   2.267   5.692   1.945
   80SOL     OW 1138   4.777   1.941   4.668
   80SOL    HW1 1139   4.752   1.984   4.755
   80SOL    HW2 1140   4.796   2.012   4.600
   81SOL     OW 1141   1.828   0.471   0.669
   81SOL    HW1 1142   1.866   0.460   0.761
   81SOL    HW2 1143   1.819   0.569   0.648
   82SOL     OW 1144   0.372   6.284   2.329
   82SOL    HW1 1145   0.396   6.319   2.238
   82SOL    HW2 1146   0.451   6.237   2.369
   83SOL     OW 1147   6.790   1.829   5.941
   83SOL    HW1 1148   6.757   1.901   5.881
   83SOL    HW2 1149   6.854   1.770   5.892
   84SOL     OW 1150   6.014   2.974   3.646
   84SOL    HW1 1151   6.069   2.958   3.728
   84SOL    HW2 1152   6.072   3.011   3.574
   85SOL     OW 1153   1.674   6.798   3.871
   85SOL    HW1 1154   1.626   6.883   3.893
   85SOL    HW2 1155   1.648   6.727   3.936
   86SOL     OW 1156   6.159   1.033   6.920
   86SOL    HW1 1157   6.170   0.941   6.884
   86SOL    HW2 1158   6.087   1.034   6.990
   87SOL     OW 1159   4.441   4.353   6.954
   87SOL    HW1 1160   4.389   4.419   7.009
   87SOL    HW2 1161   4.485   4.401   6.878
   88SOL     OW 1162   2.773   2.162   5.633
   88SOL    HW1 1163   2.737   2.253   5.611
   88SOL    HW2 1164   2.831   2.169   5.715
   89SOL     OW 1165   3.059   3.855   2.295
   89SOL    HW1 1166   3.073   3.938   2.240
   89SOL    HW2 1167   3.024   3.782   2.237
   90SOL     OW 1168   4.538   4.467   2.825
   90SOL    HW1 1169   4.599   4.426   2.757
   90SOL    HW2 1170   4.452   4.492   2.781
   91SOL     OW 1171   6.217   5.930   5.914
   91SOL    HW1 1172   6.118   5.940   5.928
   91SOL    HW2 1173   6.252   6.011   5.868
   92SOL     OW 1174   5.193   3.890   0.228
   92SOL    HW1 1175   5.197   3.890   0.128
   92SOL    HW2 1176   5.181   3.797   0.261
   93SOL     OW 1177   3.251   3.534   1.188
   93SOL    HW1 1178   3.153   3.549   1.180
   93SOL    HW2 1179   3.279   3.543   1.284
   94SOL     OW 1180   2.393   0.072   6.717
   94SOL    HW1 1181   2.457   0.002   6.748
   94SOL    HW2 1182   2.313   0.029   6.676
   95SOL     OW 1183   0.549   0.516   4.543
   95SOL    HW1 1184   0.467   0.544   4.493
   95SOL    HW2 1185   0.553   0.566   4.630
   96SOL     OW 1186   5.025   5.174   0.165
   96SOL    HW1 1187   5.001   5.234   0.242
   96SOL    HW2 1188   5.052   5.230   0.086
   97SOL     OW 1189   1.838   4.834   5.233
   97SOL    HW1 1190   1.782   4.871   5.159
   97SOL    HW2 1191   1.932   4.824   5.202
   98SOL     OW 1192   0.525   2.551   1.592
   98SOL    HW1 1193   0.601   2.544   1.529
   98SOL    HW2 1194   0.472   2.466   1.590
   99SOL     OW 1195   3.783   3.840   3.084
   99SOL    HW1 1196   3.769   3.923   3.029
   99SOL    HW2 1197   3.861   3.790   3.048
  100SOL     OW 1198   6.935   0.035   3.919
  100SOL    HW1 1199   7.007   0.099   3.892
  100SOL    HW2 1200   6.909   0.052   4.014
  101SOL     OW 1201   1.083   4.646   2.288
  101SOL    HW1 1202   1.076   4.745   2.281
  101SOL    HW2 1203   1.013   4.612   2.351
  102SOL     OW 1204   2.255   6.036   2.495
  102SOL    HW1 1205   2.195   6.037   2.415
  102SOL    HW2 1206   2.299   5.946   2.502
  103SOL     OW 1207   1.698   1.250   2.395
  103SOL    HW1 1208   1.662   1.188   2.326
  103SOL    HW2 1209   1.651   1.234   2.482
  104SOL     OW 1210   1.277   4.708   2.084
  104SOL    HW1 1211   1.224   4.640   2.135
  104SOL    HW2 1212   1.352   4.742   2.141
  105SOL     OW 1213   5.344   1.061   6.494
  105SOL    HW1 1214   5.354   1.029   6.400
  105SOL    HW2 1215   5.249   1.047   6.523
  106SOL     OW 1216   4.747   5.044   1.659
  106SOL    HW1 1217   4.662   5.073   1.703
  106SOL    HW2 1218   4.762   4.947   1.678
  107SOL     OW 1219   6.514   1.005   0.597
  107SOL    HW1 1220   6.560   1.093   0.585
  107SOL    HW2 1221   6.452   0.989   0.521
  108SOL     OW 1222   2.776   0.242   4.645
  108SOL    HW1 1223   2.694   0.295   4.622
  108SOL    HW2 1224   2.765   0.203   4.737
  109SOL     OW 1225   3.300   0.734   2.712
  109SOL    HW1 1226   3.295   0.718   2.811
  109SOL    HW2 1227   3.287   0.647   2.664
  110SOL     OW 1228   2.374   4.403   5.188
  110SOL    HW1 1229   2.314   4.323   5.190
  110SOL    HW2 1230   2.438   4.400   5.265
  111SOL     OW 1231   6.814   1.281   2.573
  111SOL    HW1 1232   6.856   1.370   2.555
  111SOL    HW2 1233   6.747   1.290   2.647
  112SOL     OW 1234   4.399   6.134   6.790
  112SOL    HW1 1235   4.391   6.190   6.708
  112SOL    HW2 1236   4.308   6.102   6.817
  113SOL     OW 1237   6.451   5.363   2.806
  113SOL    HW1 1238   6.399   5.318   2.879
  113SOL    HW2 1239   6.525   5.303   2.776
  114SOL     OW 1240   1.309   4.813   3.162
  114SOL    HW1 1241   1.339   4.738   3.221
  114SOL    HW2 1242   1.265   4.884   3.217
  115SOL     OW 1243   5.799   1.269   3.497
  115SOL    HW1 1244   5.840   1.197   3.441
  115SOL    HW2 1245   5.699   1.265   3.487
  116SOL     OW 1246   0.283   6.205   1.080
  116SOL    HW1 1247   0.339   6.143   1.135
  116SOL    HW2 1248   0.192   6.166   1.069
  117SOL     OW 1249   3.109   1.702   0.069
  117SOL    HW1 1250   3.106   1.605   0.093
  117SOL    HW2 1251   3.155   1.713   7.006
  118SOL     OW 1252   1.348   1.339   3.392
  118SOL    HW1 1253   1.258   1.374   3.367
  118SOL    HW2 1254   1.396   1.406   3.447
  119SOL     OW 1255   0.023   6.851   0.285
  119SOL    HW1 1256   0.080   6.777   0.320
  119SOL    HW2 1257   0.016   6.844   0.186
  120SOL     OW 1258   4.670   0.397   4.798
  120SOL    HW1 1259   4.612   0.366   4.873
  120SOL    HW2 1260   4.744   0.331   4.783
  121SOL     OW 1261   1.074   3.928   0.291
  121SOL    HW1 1262   1.097   3.852   0.230
  121SOL    HW2 1263   1.158   3.971   0.323
  122SOL     OW 1264   1.172   4.335   0.174
  122SOL    HW1 1265   1.150   4.301   0.083
  122SOL    HW2 1266   1.241   4.407   0.167
  123SOL     OW 1267   1.610   0.879   1.615
  123SOL    HW1 1268   1.537   0.810   1.614
  123SOL    HW2 1269   1.654   0.882   1.525
  124SOL     OW 1270   3.289   2.527   0.490
  124SOL    HW1 1271   3.190   2.540   0.486
  124SOL    HW2 1272   3.315   2.448   0.435
  125SOL     OW 1273   3.017   2.614   6.769
  125SOL    HW1 1274   3.082   2.617   6.845
  125SOL    HW2 1275   3.030   2.695   6.712
  126SOL     OW 1276   2.901   3.353   3.454
  126SOL    HW1 1277   2.854   3.286   3.512
  126SOL    HW2 1278   2.910   3.315   3.361
  127SOL     OW 1279   6.763   5.852   5.479
  127SOL    HW1 1280   6.697   5.828   5.550
  127SOL    HW2 1281   6.722   5.836   5.389
  128SOL     OW 1282   4.949   3.792   2.387
  128SOL    HW1 1283   4.894   3.711   2.365
  128SOL    HW2 1284   4.941   3.859   2.313
  129SOL     OW 1285   2.215   5.380   0.982
  129SOL    HW1 1286   2.152   5.415   1.051
  129SOL    HW2 1287   2.293   5.337   1.028
  130SOL     OW 1288   6.000   1.744   4.082
  130SOL    HW1 1289   6.034   1.826   4.128
  130SOL    HW2 1290   5.907   1.725   4.112
  131SOL     OW 1291   6.474   1.152   3.920
  131SOL    HW1 1292   6.449   1.215   3.993
  131SOL    HW2 1293   6.450   1.059   3.947
  132SOL     OW 1294   3.506   4.127   1.547
  132SOL    HW1 1295   3.500   4.028   1.553
  132SOL    HW2 1296   3.505   4.166   1.639
  133SOL     OW 1297   5.342   0.864   3.615
  133SOL    HW1 1298   5.428   0.904   3.582
  133SOL    HW2 1299   5.331   0.772   3.578
  134SOL     OW 1300   6.605   0.807   2.352
  134SOL    HW1 1301   6.511   0.790   2.382
  134SOL    HW2 1302   6.669   0.771   2.419
  135SOL     OW 1303   4.912   3.426   4.477
  135SOL    HW1 1304   4.878   3.416   4.571
  135SOL    HW2 1305   4.841   3.400   4.412
  136SOL     OW 1306   2.487   6.094   4.944
  136SOL    HW1 1307   2.398   6.050   4.937
  136SOL    HW2 1308   2.510   6.107   5.040
  137SOL     OW 1309   4.045   1.180   4.699
  137SOL    HW1 1310   4.084   1.271   4.686
  137SOL    HW2 1311   3.957   1.189   4.746
  138SOL     OW 1312   0.670   5.515   3.518
  138SOL    HW1 1313   0.687   5.455   3.440
  138SOL    HW2 1314   0.678   5.611   3.490
  139SOL     OW 1315   2.098   5.485   6.586
  139SOL    HW1 1316   2.008   5.523   6.610
  139SOL    HW2 1317   2.161   5.560   6.566
  140SOL     OW 1318   1.828   0.147   3.145
  140SOL    HW1 1319   1.878   0.067   3.112
  140SOL    HW2 1320   1.763   0.177   3.075
  141SOL     OW 1321   6.367   3.443   0.292
  141SOL    HW1 1322   6.407   3.383   0.223
  141SOL    HW2 1323   6.416   3.530   0.295
  142SOL     OW 1324   1.587   4.380   1.548
  142SOL    HW1 1325   1.564   4.451   1.481
  142SOL    HW2 1326   1.653   4.416   1.614
  143SOL     OW 1327   5.724   6.608   1.360
  143SOL    HW1 1328   5.777   6.673   1.414
  143SOL    HW2 1329   5.776   6.523   1.349
  144SOL     OW 1330   3.181   4.999   4.136
  144SOL    HW1 1331   3.189   4.906   4.101
  144SOL    HW2 1332   3.261   5.020   4.192
  145SOL     OW 1333   0.446   4.359   2.436
  145SOL    HW1 1334   0.483   4.451   2.448
  145SOL    HW2 1335   0.348   4.359   2.459
  146SOL     OW 1336   5.881   1.114   5.793
  146SOL    HW1 1337   5.799   1.171   5.789
  146SOL    HW2 1338   5.868   1.033   5.735
  147SOL     OW 1339   5.261   1.299   4.748
  147SOL    HW1 1340   5.219   1.214   4.717
  147SOL    HW2 1341   5.306   1.344   4.671
  148SOL     OW 1342   1.347   4.775   1.612
  148SOL    HW1 1343   1.373   4.703   1.676
  148SOL    HW2 1344   1.273   4.741   1.553
  149SOL     OW 1345   2.510   2.109   5.266
  149SOL    HW1 1346   2.487   2.072   5.356
  149SOL    HW2 1347   2.527   2.208   5.274
  150SOL     OW 1348   4.082   1.826   5.702
  150SOL    HW1 1349   4.081   1.727   5.716
  150SOL    HW2 1350   4.120   1.845   5.611
  151SOL     OW 1351   4.054   2.093   0.668
  151SOL    HW1 1352   3.977   2.061   0.723
  151SOL    HW2 1353   4.036   2.074   0.572
  152SOL     OW 1354   0.584   1.592   6.913
  152SOL    HW1 1355   0.574   1.506   6.864
  152SOL    HW2 1356   0.504   1.650   6.895
  153SOL     OW 1357   2.806   0.956   2.909
  153SOL    HW1 1358   2.811   1.056   2.912
  153SOL    HW2 1359   2.881   0.921   2.853
  154SOL     OW 1360   6.352   2.344   0.913
  154SOL    HW1 1361   6.306   2.270   0.963
  154SOL    HW2 1362   6.424   2.305   0.855
  155SOL     OW 1363   0.147   0.110   1.691
  155SOL    HW1 1364   0.074   0.169   1.726
  155SOL    HW2 1365   0.112   0.017   1.680
  156SOL     OW 1366   5.598   1.009   0.732
  156SOL    HW1 1367   5.581   0.916   0.765
  156SOL    HW2 1368   5.653   1.059   0.800
  157SOL     OW 1369   5.670   3.407   0.394
  157SOL    HW1 1370   5.721   3.425   0.309
  157SOL    HW2 1371   5.713   3.332   0.444
  158SOL     OW 1372   1.172   2.596   2.260
  158SOL    HW1 1373   1.085   2.643   2.244
  158SOL    HW2 1374   1.228   2.649   2.324
  159SOL     OW 1375   4.978   5.000   0.721
  159SOL    HW1 1376   4.965   5.087   0.768
  159SOL    HW2 1377   4.917   4.931   0.760
  160SOL     OW 1378   6.243   0.204   0.958
  160SOL    HW1 1379   6.336   0.223   0.929
  160SOL    HW2 1380   6.199   0.289   0.987
  161SOL     OW 1381   1.132   6.816   1.097
  161SOL    HW1 1382   1.130   6.905   1.143
  161SOL    HW2 1383   1.040   6.790   1.071
  162SOL     OW 1384   2.398   6.420   0.357
  162SOL    HW1 1385   2.341   6.412   0.275
  162SOL    HW2 1386   2.347   6.387   0.436
  163SOL     OW 1387   6.946   4.842   3.095
  163SOL    HW1 1388   6.883   4.826   3.019
  163SOL    HW2 1389   0.003   4.889   3.061
  164SOL     OW 1390   1.728   2.117   3.253
  164SOL    HW1 1391   1.756   2.185   3.185
  164SOL    HW2 1392   1.652   2.063   3.217
  165SOL     OW 1393   6.984   5.281   2.305
  165SOL    HW1 1394   6.900   5.325   2.338
  165SOL    HW2 1395   0.015   5.252   2.383
  166SOL     OW 1396   6.239   4.038   1.152
  166SOL    HW1 1397   6.230   3.999   1.060
  166SOL    HW2 1398   6.334   4.031   1.182
  167SOL     OW 1399   5.185   1.446   6.708
  167SOL    HW1 1400   5.252   1.451   6.782
  167SOL    HW2 1401   5.231   1.431   6.621
  168SOL     OW 1402   4.237   3.265   1.964
  168SOL    HW1 1403   4.206   3.340   2.023
  168SOL    HW2 1404   4.309   3.214   2.012
  169SOL     OW 1405   6.307   3.000   0.606
  169SOL    HW1 1406   6.341   3.051   0.527
  169SOL    HW2 1407   6.235   2.937   0.577
  170SOL     OW 1408   1.146   5.902   2.944
  170SOL    HW1 1409   1.204   5.826   2.914
  170SOL    HW2 1410   1.124   5.891   3.041
  171SOL     OW 1411   1.507   3.327   6.991
  171SOL    HW1 1412   1.537   3.417   6.958
  171SOL    HW2 1413   1.511   3.326   0.066
  172SOL     OW 1414   5.656   2.196   1.666
  172SOL    HW1 1415   5.571   2.239   1.637
  172SOL    HW2 1416   5.675   2.221   1.761
  173SOL     OW 1417   5.737   1.028   5.107
  173SOL    HW1 1418   5.832   1.049   5.085
  173SOL    HW2 1419   5.726   0.929   5.118
  174SOL     OW 1420   5.158   5.146   5.339
  174SOL    HW1 1421   5.217   5.203   5.282
  174SOL    HW2 1422   5.106   5.084   5.280
  175SOL     OW 1423   2.155   1.074   0.739
  175SOL    HW1 1424   2.187   1.160   0.698
  175SOL    HW2 1425   2.228   1.005   0.733
  176SOL     OW 1426   5.081   4.917   2.856
  176SOL    HW1 1427   5.000   4.868   2.824
  176SOL    HW2 1428   5.128   4.958   2.777
  177SOL     OW 1429   5.055   1.920   4.849
  177SOL    HW1 1430   5.018   1.830   4.825
  177SOL    HW2 1431   4.985   1.990   4.833
  178SOL     OW 1432   2.439   5.676   5.151
  178SOL    HW1 1433   2.517   5.708   5.098
  178SOL    HW2 1434   2.354   5.713   5.112
  179SOL     OW 1435   4.048   5.594   0.307
  179SOL    HW1 1436   4.127   5.542   0.338
  179SOL    HW2 1437   4.041   5.588   0.207
  180SOL     OW 1438   3.556   0.159   0.994
  180SOL    HW1 1439   3.521   0.220   1.065
  180SOL    HW2 1440   3.527   0.065   1.014
  181SOL     OW 1441   2.953   2.484   5.311
  181SOL    HW1 1442   2.882   2.474   5.241
  181SOL    HW2 1443   3.042   2.461   5.271
  182SOL     OW 1444   5.330   3.451   0.791
  182SOL    HW1 1445   5.310   3.502   0.875
  182SOL    HW2 1446   5.357   3.514   0.719
  183SOL     OW 1447   4.193   2.255   4.391
  183SOL    HW1 1448   4.218   2.215   4.479
  183SOL    HW2 1449   4.098   2.233   4.370
  184SOL     OW 1450   0.998   5.969   3.591
  184SOL    HW1 1451   1.043   5.901   3.533
  184SOL    HW2 1452   0.916   5.929   3.632
  185SOL     OW 1453   0.783   1.720   4.462
  185SOL    HW1 1454   0.700   1.687   4.416
  185SOL    HW2 1455   0.860   1.717   4.398
  186SOL     OW 1456   5.993   6.210   3.958
  186SOL    HW1 1457   6.000   6.111   3.964
  186SOL    HW2 1458   5.990   6.250   4.050
  187SOL     OW 1459   4.427   5.362   2.664
  187SOL    HW1 1460   4.486   5.441   2.683
  187SOL    HW2 1461   4.353   5.360   2.731
  188SOL     OW 1462   1.763   2.368   3.083
  188SOL    HW1 1463   1.692   2.406   3.142
  188SOL    HW2 1464   1.829   2.439   3.059
  189SOL     OW 1465   6.340   5.043   6.754
  189SOL    HW1 1466   6.438   5.027   6.761
  189SOL    HW2 1467   6.321   5.105   6.677
  190SOL     OW 1468   6.078   5.259   6.889
  190SOL    HW1 1469   6.167   5.297   6.863
  190SOL    HW2 1470   6.063   5.273   6.987
  191SOL     OW 1471   6.830   1.119   6.074
  191SOL    HW1 1472   6.832   1.019   6.083
  191SOL    HW2 1473   6.818   1.143   5.977
  192SOL     OW 1474   0.563   4.196   1.522
  192SOL    HW1 1475   0.641   4.137   1.501
  192SOL    HW2 1476   0.487   4.175   1.459
  193SOL     OW 1477   3.632   4.139   6.020
  193SOL    HW1 1478   3.539   4.170   5.998
  193SOL    HW2 1479   3.658   4.067   5.955
  194SOL     OW 1480   3.874   6.718   1.755
  194SOL    HW1 1481   3.928   6.772   1.690
  194SOL    HW2 1482   3.827   6.779   1.818
  195SOL     OW 1483   3.034   0.861   2.492
  195SOL    HW1 1484   3.082   0.827   2.411
  195SOL    HW2 1485   2.960   0.922   2.463
  196SOL     OW 1486   2.476   1.011   6.607
  196SOL    HW1 1487   2.567   1.029   6.570
  196SOL    HW2 1488   2.412   0.996   6.532
  197SOL     OW 1489   2.060   5.973   6.328
  197SOL    HW1 1490   2.008   5.997   6.246
  197SOL    HW2 1491   2.009   5.905   6.382
  198SOL     OW 1492   4.667   5.743   1.014
  198SOL    HW1 1493   4.640   5.716   0.921
  198SOL    HW2 1494   4.587   5.781   1.062
  199SOL     OW 1495   6.698   1.615   2.277
  199SOL    HW1 1496   6.646   1.625   2.362
  199SOL    HW2 1497   6.737   1.523   2.272
  200SOL     OW 1498   1.519   3.377   2.124
  200SOL    HW1 1499   1.431   3.419   2.099
  200SOL    HW2 1500   1.506   3.316   2.202
  201SOL     OW 1501   2.807   0.699   6.370
  201SOL    HW1 1502   2.822   0.617   6.425
  201SOL    HW2 1503   2.805   0.674   6.273
  202SOL     OW 1504   4.997   6.707   4.810
  202SOL    HW1 1505   4.959   6.742   4.724
  202SOL    HW2 1506   5.089   6.672   4.793
  203SOL     OW 1507   5.128   2.669   6.083
  203SOL    HW1 1508   5.060   2.627   6.142
  203SOL    HW2 1509   5.176   2.598   6.031
  204SOL     OW 1510   0.853   0.042   0.271
  204SOL    HW1 1511   0.911   0.046   0.190
  204SOL    HW2 1512   0.808   6.978   0.276
  205SOL     OW 1513   0.909   1.519   1.166
  205SOL    HW1 1514   1.005   1.523   1.197
  205SOL    HW2 1515   0.905   1.533   1.067
  206SOL     OW 1516   0.408   4.641   1.536
  206SOL    HW1 1517   0.472   4.698   1.484
  206SOL    HW2 1518   0.317   4.649   1.496
  207SOL     OW 1519   4.382   0.497   5.361
  207SOL    HW1 1520   4.436   0.547   5.429
  207SOL    HW2 1521   4.353   0.560   5.289
  208SOL     OW 1522   5.000   4.756   5.923
  208SOL    HW1 1523   5.027   4.847   5.955
  208SOL    HW2 1524   5.070   4.721   5.862
  209SOL     OW 1525   0.568   5.831   5.747
  209SOL    HW1 1526   0.509   5.903   5.710
  209SOL    HW2 1527   0.602   5.860   5.837
  210SOL     OW 1528   4.275   2.316   2.269
  210SOL    HW1 1529   4.243   2.347   2.180
  210SOL    HW2 1530   4.356   2.368   2.296
  211SOL     OW 1531   0.708   0.628   2.942
  211SOL    HW1 1532   0.741   0.662   2.854
  211SOL    HW2 1533   0.708   0.528   2.941
  212SOL     OW 1534   1.524   4.834   2.750
  212SOL    HW1 1535   1.559   4.744   2.774
  212SOL    HW2 1536   1.504   4.886   2.833
  213SOL     OW 1537   4.937   1.249   6.324
  213SOL    HW1 1538   4.843   1.218   6.309
  213SOL    HW2 1539   4.980   1.267   6.236
  214SOL     OW 1540   1.750   5.932   3.189
  214SOL    HW1 1541   1.729   5.889   3.277
  214SOL    HW2 1542   1.816   6.006   3.203
  215SOL     OW 1543   3.856   3.707   1.866
  215SOL    HW1 1544   3.766   3.704   1.910
  215SOL    HW2 1545   3.848   3.683   1.770
  216SOL     OW 1546   1.475   6.766   5.364
  216SOL    HW1 1547   1.512   6.814   5.443
  216SOL    HW2 1548   1.387   6.724   5.388
  217SOL     OW 1549   1.688   2.791   4.279
  217SOL    HW1 1550   1.734   2.797   4.368
  217SOL    HW2 1551   1.739   2.844   4.211
  218SOL     OW 1552   1.994   2.495   4.867
  218SOL    HW1 1553   1.898   2.504   4.837
  218SOL    HW2 1554   2.051   2.474   4.788
  219SOL     OW 1555   3.516   4.008   6.515
  219SOL    HW1 1556   3.539   4.055   6.430
  219SOL    HW2 1557   3.421   3.978   6.511
  220SOL     OW 1558   2.856   5.952   0.218
  220SOL    HW1 1559   2.804   6.022   0.169
  220SOL    HW2 1560   2.854   5.972   0.316
  221SOL     OW 1561   5.170   3.873   3.699
  221SOL    HW1 1562   5.077   3.839   3.712
  221SOL    HW2 1563   5.200   3.852   3.606
  222SOL     OW 1564   1.583   5.538   5.404
  222SOL    HW1 1565   1.549   5.593   5.327
  222SOL    HW2 1566   1.676   5.508   5.384
  223SOL     OW 1567   0.473   3.374   1.448
  223SOL    HW1 1568   0.515   3.464   1.463
  223SOL    HW2 1569   0.478   3.351   1.351
  224SOL     OW 1570   2.992   2.215   2.986
  224SOL    HW1 1571   2.999   2.202   2.888
  224SOL    HW2 1572   2.963   2.130   3.029
  225SOL     OW 1573   5.937   0.994   0.058
  225SOL    HW1 1574   5.904   1.083   0.090
  225SOL    HW2 1575   5.861   0.943   0.017
  226SOL     OW 1576   0.157   0.229   0.139
  226SOL    HW1 1577   0.134   0.262   0.230
  226SOL    HW2 1578   0.086   0.258   0.074
  227SOL     OW 1579   1.270   4.210   3.552
  227SOL    HW1 1580   1.335   4.145   3.592
  227SOL    HW2 1581   1.190   4.218   3.611
  228SOL     OW 1582   3.866   0.126   4.660
  228SOL    HW1 1583   3.848   0.193   4.587
  228SOL    HW2 1584   3.965   0.114   4.669
  229SOL     OW 1585   5.901   5.892   1.578
  229SOL    HW1 1586   5.984   5.927   1.623
  229SOL    HW2 1587   5.906   5.913   1.481
  230SOL     OW 1588   2.047   4.341   3.952
  230SOL    HW1 1589   1.964   4.298   3.916
  230SOL    HW2 1590   2.045   4.439   3.931
  231SOL     OW 1591   6.128   2.777   5.901
  231SOL    HW1 1592   6.048   2.719   5.889
  231SOL    HW2 1593   6.155   2.777   5.998
  232SOL     OW 1594   1.271   3.368   6.169
  232SOL    HW1 1595   1.339   3.296   6.160
  232SOL    HW2 1596   1.316   3.457   6.158
  233SOL     OW 1597   2.043   0.785   5.036
  233SOL    HW1 1598   2.055   0.714   4.967
  233SOL    HW2 1599   2.133   0.816   5.068
  234SOL     OW 1600   2.733   5.139   6.340
  234SOL    HW1 1601   2.645   5.147   6.293
  234SOL    HW2 1602   2.764   5.230   6.367
  235SOL     OW 1603   3.702   3.426   2.951
  235SOL    HW1 1604   3.675   3.363   3.024
  235SOL    HW2 1605   3.638   3.503   2.947
  236SOL     OW 1606   6.686   2.935   6.823
  236SOL    HW1 1607   6.756   2.950   6.753
  236SOL    HW2 1608   6.730   2.898   6.906
  237SOL     OW 1609   0.477   6.743   1.126
  237SOL    HW1 1610   0.454   6.808   1.053
  237SOL    HW2 1611   0.466   6.788   1.215
  238SOL     OW 1612   5.989   3.265   1.321
  238SOL    HW1 1613   6.008   3.239   1.226
  238SOL    HW2 1614   6.054   3.218   1.382
  239SOL     OW 1615   6.478   5.787   0.009
  239SOL    HW1 1616   6.524   5.875   0.025
  239SOL    HW2 1617   6.387   5.803   6.997
  240SOL     OW 1618   0.500   3.420   5.876
  240SOL    HW1 1619   0.523   3.492   5.811
  240SOL    HW2 1620   0.541   3.441   5.965
  241SOL     OW 1621   0.756   1.007   3.547
  241SOL    HW1 1622   0.754   0.908   3.531
  241SOL    HW2 1623   0.843   1.032   3.588
  242SOL     OW 1624   1.225   3.036   5.209
  242SOL    HW1 1625   1.283   2.964   5.246
  242SOL    HW2 1626   1.273   3.123   5.213
  243SOL     OW 1627   4.725   0.054   6.339
  243SOL    HW1 1628   4.778   0.081   6.419
  243SOL    HW2 1629   4.633   0.094   6.345
  244SOL     OW 1630   4.568   2.631   4.177
  244SOL    HW1 1631   4.509   2.560   4.213
  244SOL    HW2 1632   4.649   2.590   4.135
  245SOL     OW 1633   6.707   2.546   4.588
  245SOL    HW1 1634   6.635   2.612   4.566
  245SOL    HW2 1635   6.670   2.453   4.582
  246SOL     OW 1636   5.389   4.066   3.693
  246SOL    HW1 1637   5.398   4.097   3.788
  246SOL    HW2 1638   5.337   3.981   3.691
  247SOL     OW 1639   2.561   1.518   2.800
  247SOL    HW1 1640   2.559   1.599   2.741
  247SOL    HW2 1641   2.524   1.439   2.751
  248SOL     OW 1642   4.614   2.339   4.502
  248SOL    HW1 1643   4.625   2.412   4.434
  248SOL    HW2 1644   4.691   2.275   4.494
  249SOL     OW 1645   3.054   6.529   4.971
  249SOL    HW1 1646   3.041   6.587   4.891
  249SOL    HW2 1647   3.084   6.438   4.941
  250SOL     OW 1648   5.620   1.739   5.657
  250SOL    HW1 1649   5.568   1.812   5.613
  250SOL    HW2 1650   5.606   1.742   5.756
  251SOL     OW 1651   4.494   3.380   6.126
  251SOL    HW1 1652   4.488   3.282   6.104
  251SOL    HW2 1653   4.428   3.402   6.198
  252SOL     OW 1654   0.392   1.497   5.344
  252SOL    HW1 1655   0.300   1.484   5.381
  252SOL    HW2 1656   0.408   1.431   5.270
  253SOL     OW 1657   1.842   3.884   1.202
  253SOL    HW1 1658   1.908   3.888   1.127
  253SOL    HW2 1659   1.832   3.789   1.233
  254SOL     OW 1660   6.513   2.762   4.479
  254SOL    HW1 1661   6.555   2.838   4.429
  254SOL    HW2 1662   6.436   2.796   4.533
  255SOL     OW 1663   3.110   2.181   3.820
  255SOL    HW1 1664   3.143   2.113   3.755
  255SOL    HW2 1665   3.171   2.184   3.899
  256SOL     OW 1666   6.323   5.376   6.835
  256SOL    HW1 1667   6.339   5.438   6.758
  256SOL    HW2 1668   6.358   5.417   6.919
  257SOL     OW 1669   3.172   5.425   5.922
  257SOL    HW1 1670   3.250   5.369   5.947
  257SOL    HW2 1671   3.186   5.463   5.831
  258SOL     OW 1672   4.800   4.155   4.944
  258SOL    HW1 1673   4.779   4.144   4.847
  258SOL    HW2 1674   4.865   4.230   4.956
  259SOL     OW 1675   1.499   2.907   2.764
  259SOL    HW1 1676   1.503   2.986   2.703
  259SOL    HW2 1677   1.591   2.867   2.773
  260SOL     OW 1678   4.882   0.861   6.836
  260SOL    HW1 1679   4.842   0.886   6.924
  260SOL    HW2 1680   4.972   0.819   6.851
  261SOL     OW 1681   0.833   3.436   1.525
  261SOL    HW1 1682   0.827   3.337   1.532
  261SOL    HW2 1683   0.741   3.476   1.534
  262SOL     OW 1684   1.247   3.199   2.335
  262SOL    HW1 1685   1.339   3.164   2.318
  262SOL    HW2 1686   1.249   3.299   2.336
  263SOL     OW 1687   0.298   2.047   4.345
  263SOL    HW1 1688   0.324   2.131   4.392
  263SOL    HW2 1689   0.207   2.018   4.374
  264SOL     OW 1690   0.467   3.248   5.278
  264SOL    HW1 1691   0.389   3.311   5.270
  264SOL    HW2 1692   0.477   3.197   5.193
  265SOL     OW 1693   4.707   4.273   4.035
  265SOL    HW1 1694   4.804   4.298   4.040
  265SOL    HW2 1695   4.672   4.256   4.127
  266SOL     OW 1696   3.411   2.023   6.977
  266SOL    HW1 1697   3.369   2.051   0.039
  266SOL    HW2 1698   3.504   2.059   6.972
  267SOL     OW 1699   1.514   2.566   0.246
  267SOL    HW1 1700   1.419   2.559   0.277
  267SOL    HW2 1701   1.520   2.632   0.171
  268SOL     OW 1702   4.487   4.547   4.507
  268SOL    HW1 1703   4.520   4.453   4.514
  268SOL    HW2 1704   4.564   4.610   4.508
  269SOL     OW 1705   1.401   1.737   6.332
  269SOL    HW1 1706   1.373   1.647   6.366
  269SOL    HW2 1707   1.501   1.746   6.338
  270SOL     OW 1708   5.304   1.059   2.358
  270SOL    HW1 1709   5.403   1.049   2.368
  270SOL    HW2 1710   5.277   1.151   2.385
  271SOL     OW 1711   2.277   1.014   1.216
  271SOL    HW1 1712   2.340   1.001   1.293
  271SOL    HW2 1713   2.274   1.111   1.190
  272SOL     OW 1714   3.849   5.522   4.718
  272SOL    HW1 1715   3.941   5.559   4.704
  272SOL    HW2 1716   3.854   5.422   4.720
  273SOL     OW 1717   1.236   5.428   4.912
  273SOL    HW1 1718   1.152   5.376   4.924
  273SOL    HW2 1719   1.256   5.480   4.995
  274SOL     OW 1720   5.436   2.756   3.558
  274SOL    HW1 1721   5.518   2.702   3.580
  274SOL    HW2 1722   5.406   2.734   3.465
  275SOL     OW 1723   0.606   6.049   6.320
  275SOL    HW1 1724   0.540   5.978   6.344
  275SOL    HW2 1725   0.570   6.139   6.345
  276SOL     OW 1726   6.828   5.169   3.721
  276SOL    HW1 1727   6.884   5.152   3.639
  276SOL    HW2 1728   6.736   5.133   3.706
  277SOL     OW 1729   3.011   0.849   5.284
  277SOL    HW1 1730   3.042   0.759   5.318
  277SOL    HW2 1731   3.082   0.917   5.302
  278SOL     OW 1732   5.478   4.541   2.525
  278SOL    HW1 1733   5.567   4.517   2.488
  278SOL    HW2 1734   5.438   4.462   2.572
  279SOL     OW 1735   0.210   2.976   3.486
  279SOL    HW1 1736   0.261   3.037   3.547
  279SOL    HW2 1737   0.128   2.944   3.533
  280SOL     OW 1738   4.903   6.322   3.696
  280SOL    HW1 1739   4.869   6.398   3.752
  280SOL    HW2 1740   5.000   6.333   3.679
  281SOL     OW 1741   3.881   5.659   3.898
  281SOL    HW1 1742   3.936   5.676   3.980
  281SOL    HW2 1743   3.910   5.720   3.825
  282SOL     OW 1744   4.142   1.567   5.735
  282SOL    HW1 1745   4.193   1.541   5.817
  282SOL    HW2 1746   4.191   1.535   5.654
  283SOL     OW 1747   6.032   0.217   5.176
  283SOL    HW1 1748   6.101   0.147   5.197
  283SOL    HW2 1749   5.975   0.184   5.100
  284SOL     OW 1750   0.339   4.803   4.825
  284SOL    HW1 1751   0.422   4.858   4.821
  284SOL    HW2 1752   0.339   4.738   4.749
  285SOL     OW 1753   5.724   6.844   0.226
  285SOL    HW1 1754   5.649   6.910   0.214
  285SOL    HW2 1755   5.782   6.845   0.145
  286SOL     OW 1756   3.388   5.282   4.869
  286SOL    HW1 1757   3.293   5.263   4.891
  286SOL    HW2 1758   3.421   5.216   4.802
  287SOL     OW 1759   1.741   5.800   6.181
  287SOL    HW1 1760   1.718   5.875   6.243
  287SOL    HW2 1761   1.822   5.824   6.127
  288SOL     OW 1762   4.481   0.639   1.135
  288SOL    HW1 1763   4.457   0.587   1.053
  288SOL    HW2 1764   4.430   0.604   1.213
  289SOL     OW 1765   1.237   5.514   5.674
  289SOL    HW1 1766   1.183   5.572   5.612
  289SOL    HW2 1767   1.332   5.543   5.672
  290SOL     OW 1768   4.396   0.491   2.781
  290SOL    HW1 1769   4.408   0.400   2.823
  290SOL    HW2 1770   4.316   0.535   2.820
  291SOL     OW 1771   4.174   0.527   4.096
  291SOL    HW1 1772   4.154   0.442   4.048
  291SOL    HW2 1773   4.226   0.507   4.179
  292SOL     OW 1774   3.774   0.303   3.791
  292SOL    HW1 1775   3.721   0.256   3.721
  292SOL    HW2 1776   3.844   0.242   3.828
  293SOL     OW 1777   4.417   6.812   2.633
  293SOL    HW1 1778   4.420   6.727   2.580
  293SOL    HW2 1779   4.325   6.851   2.629
  294SOL     OW 1780   5.617   6.848   5.670
  294SOL    HW1 1781   5.517   6.856   5.678
  294SOL    HW2 1782   5.642   6.751   5.670
  295SOL     OW 1783   1.322   2.273   5.159
  295SOL    HW1 1784   1.276   2.255   5.246
  295SOL    HW2 1785   1.305   2.197   5.096
  296SOL     OW 1786   6.482   1.844   1.597
  296SOL    HW1 1787   6.575   1.812   1.615
  296SOL    HW2 1788   6.481   1.902   1.516
  297SOL     OW 1789   5.238   5.252   3.852
  297SOL    HW1 1790   5.178   5.323   3.815
  297SOL    HW2 1791   5.214   5.234   3.947
  298SOL     OW 1792   4.722   0.762   0.785
  298SOL    HW1 1793   4.624   0.749   0.801
  298SOL    HW2 1794   4.773   0.698   0.842
  299SOL     OW 1795   3.319   2.013   0.320
  299SOL    HW1 1796   3.306   2.095   0.264
  299SOL    HW2 1797   3.231   1.970   0.337
  300SOL     OW 1798   3.262   1.274   2.284
  300SOL    HW1 1799   3.234   1.340   2.215
  300SOL    HW2 1800   3.219   1.185   2.265
  301SOL     OW 1801   5.241   6.520   1.347
  301SOL    HW1 1802   5.250   6.571   1.261
  301SOL    HW2 1803   5.326   6.528   1.399
  302SOL     OW 1804   6.847   6.616   1.426
  302SOL    HW1 1805   6.781   6.592   1.497
  302SOL    HW2 1806   6.839   6.714   1.405
  303SOL     OW 1807   5.932   5.809   2.283
  303SOL    HW1 1808   5.913   5.754   2.201
  303SOL    HW2 1809   5.859   5.876   2.296
  304SOL     OW 1810   1.564   0.080   5.839
  304SOL    HW1 1811   1.649   0.058   5.887
  304SOL    HW2 1812   1.563   0.033   5.751
  305SOL     OW 1813   1.248   3.293   1.412
  305SOL    HW1 1814   1.292   3.205   1.429
  305SOL    HW2 1815   1.318   3.361   1.387
  306SOL     OW 1816   6.969   0.773   2.185
  306SOL    HW1 1817   7.002   0.683   2.154
  306SOL    HW2 1818   6.981   0.780   2.284
  307SOL     OW 1819   3.376   3.400   0.705
  307SOL    HW1 1820   3.345   3.462   0.778
  307SOL    HW2 1821   3.387   3.308   0.743
  308SOL     OW 1822   5.673   1.953   4.498
  308SOL    HW1 1823   5.737   1.880   4.471
  308SOL    HW2 1824   5.724   2.036   4.518
  309SOL     OW 1825   0.637   6.805   0.119
  309SOL    HW1 1826   0.641   6.875   0.048
  309SOL    HW2 1827   0.613   6.717   0.078
  310SOL     OW 1828   6.028   6.577   4.241
  310SOL    HW1 1829   6.121   6.613   4.248
  310SOL    HW2 1830   6.029   6.477   4.248
  311SOL     OW 1831   2.767   4.863   2.478
  311SOL    HW1 1832   2.800   4.931   2.412
  311SOL    HW2 1833   2.738   4.909   2.562
  312SOL     OW 1834   4.750   2.584   3.782
  312SOL    HW1 1835   4.717   2.514   3.718
  312SOL    HW2 1836   4.818   2.641   3.737
  313SOL     OW 1837   3.357   3.388   2.536
  313SOL    HW1 1838   3.265   3.412   2.506
  313SOL    HW2 1839   3.422   3.454   2.500
  314SOL     OW 1840   1.933   5.747   5.401
  314SOL    HW1 1841   1.921   5.649   5.389
  314SOL    HW2 1842   1.927   5.771   5.498
  315SOL     OW 1843   6.833   1.335   2.974
  315SOL    HW1 1844   6.818   1.411   3.037
  315SOL    HW2 1845   6.877   1.260   3.023
  316SOL     OW 1846   4.690   1.878   5.277
  316SOL    HW1 1847   4.711   1.887   5.374
  316SOL    HW2 1848   4.597   1.912   5.260
  317SOL     OW 1849   1.584   1.379   1.867
  317SOL    HW1 1850   1.595   1.381   1.768
  317SOL    HW2 1851   1.509   1.439   1.895
  318SOL     OW 1852   6.805   0.059   6.352
  318SOL    HW1 1853   6.750   7.015   6.305
  318SOL    HW2 1854   6.761   0.148   6.345
  319SOL     OW 1855   0.237   2.442   3.027
  319SOL    HW1 1856   0.151   2.487   3.002
  319SOL    HW2 1857   0.277   2.400   2.946
  320SOL     OW 1858   5.883   2.380   6.803
  320SOL    HW1 1859   5.793   2.337   6.802
  320SOL    HW2 1860   5.873   2.475   6.833
  321SOL     OW 1861   3.527   3.433   0.349
  321SOL    HW1 1862   3.609   3.435   0.292
  321SOL    HW2 1863   3.542   3.489   0.431
  322SOL     OW 1864   3.715   3.247   5.389
  322SOL    HW1 1865   3.640   3.208   5.337
  322SOL    HW2 1866   3.784   3.284   5.327
  323SOL     OW 1867   0.854   2.613   3.792
  323SOL    HW1 1868   0.781   2.549   3.766
  323SOL    HW2 1869   0.832   2.704   3.758
  324SOL     OW 1870   2.655   6.791   3.266
  324SOL    HW1 1871   2.601   6.815   3.185
  324SOL    HW2 1872   2.615   6.833   3.347
  325SOL     OW 1873   1.523   3.621   2.510
  325SOL    HW1 1874   1.525   3.522   2.524
  325SOL    HW2 1875   1.428   3.654   2.517
  326SOL     OW 1876   1.857   4.484   6.564
  326SOL    HW1 1877   1.867   4.475   6.663
  326SOL    HW2 1878   1.805   4.567   6.543
  327SOL     OW 1879   2.597   4.624   2.349
  327SOL    HW1 1880   2.664   4.689   2.384
  327SOL    HW2 1881   2.606   4.617   2.250
  328SOL     OW 1882   2.374   4.319   1.486
  328SOL    HW1 1883   2.289   4.302   1.536
  328SOL    HW2 1884   2.375   4.414   1.454
  329SOL     OW 1885   3.016   4.030   0.168
  329SOL    HW1 1886   3.098   3.989   0.129
  329SOL    HW2 1887   2.950   4.050   0.095
  330SOL     OW 1888   4.179   6.027   6.977
  330SOL    HW1 1889   4.138   5.958   0.012
  330SOL    HW2 1890   4.155   6.118   7.009
  331SOL     OW 1891   5.239   4.734   0.911
  331SOL    HW1 1892   5.294   4.653   0.893
  331SOL    HW2 1893   5.230   4.788   0.828
  332SOL     OW 1894   5.571   2.003   3.791
  332SOL    HW1 1895   5.562   2.098   3.761
  332SOL    HW2 1896   5.495   1.949   3.755
  333SOL     OW 1897   4.050   0.850   5.147
  333SOL    HW1 1898   4.131   0.863   5.205
  333SOL    HW2 1899   4.074   0.793   5.068
  334SOL     OW 1900   3.685   2.666   1.530
  334SOL    HW1 1901   3.644   2.586   1.572
  334SOL    HW2 1902   3.741   2.637   1.452
  335SOL     OW 1903   4.615   7.025   6.618
  335SOL    HW1 1904   4.544   0.061   6.653
  335SOL    HW2 1905   4.696   0.054   6.593
  336SOL     OW 1906   3.014   1.892   2.554
  336SOL    HW1 1907   2.948   1.880   2.479
  336SOL    HW2 1908   3.094   1.940   2.520
  337SOL     OW 1909   1.786   2.418   6.072
  337SOL    HW1 1910   1.790   2.333   6.020
  337SOL    HW2 1911   1.812   2.400   6.167
  338SOL     OW 1912   3.689   3.273   0.900
  338SOL    HW1 1913   3.654   3.239   0.814
  338SOL    HW2 1914   3.632   3.348   0.933
  339SOL     OW 1915   4.526   4.890   4.277
  339SOL    HW1 1916   4.583   4.848   4.207
  339SOL    HW2 1917   4.436   4.845   4.278
  340SOL     OW 1918   5.301   3.736   5.219
  340SOL    HW1 1919   5.230   3.676   5.258
  340SOL    HW2 1920   5.374   3.748   5.286
  341SOL     OW 1921   5.984   5.784   4.432
  341SOL    HW1 1922   5.921   5.855   4.464
  341SOL    HW2 1923   5.994   5.713   4.502
  342SOL     OW 1924   4.570   3.362   0.651
  342SOL    HW1 1925   4.642   3.304   0.612
  342SOL    HW2 1926   4.561   3.342   0.749
  343SOL     OW 1927   0.176   6.112   2.541
  343SOL    HW1 1928   0.245   6.039   2.546
  343SOL    HW2 1929   0.218   6.195   2.506
  344SOL     OW 1930   0.989   1.994   2.284
  344SOL    HW1 1931   1.081   2.026   2.265
  344SOL    HW2 1932   0.989   1.940   2.369
  345SOL     OW 1933   6.725   2.154   3.969
  345SOL    HW1 1934   6.656   2.083   3.951
  345SOL    HW2 1935   6.778   2.171   3.885
  346SOL     OW 1936   1.709   0.190   2.501
  346SOL    HW1 1937   1.661   0.116   2.549
  346SOL    HW2 1938   1.658   0.275   2.512
  347SOL     OW 1939   2.584   5.835   6.426
  347SOL    HW1 1940   2.492   5.854   6.460
  347SOL    HW2 1941   2.648   5.837   6.502
  348SOL     OW 1942   4.312   5.161   3.105
  348SOL    HW1 1943   4.351   5.152   3.197
  348SOL    HW2 1944   4.365   5.227   3.053
  349SOL     OW 1945   6.726   4.266   2.356
  349SOL    HW1 1946   6.678   4.239   2.273
  349SOL    HW2 1947   6.738   4.186   2.415
  350SOL     OW 1948   3.140   3.104   0.237
  350SOL    HW1 1949   3.235   3.132   0.251
  350SOL    HW2 1950   3.079   3.180   0.260
  351SOL     OW 1951   2.694   3.207   0.658
  351SOL    HW1 1952   2.783   3.180   0.693
  351SOL    HW2 1953   2.658   3.282   0.714
  352SOL     OW 1954   4.105   6.560   3.605
  352SOL    HW1 1955   4.055   6.516   3.680
  352SOL    HW2 1956   4.116   6.495   3.530
  353SOL     OW 1957   3.202   0.215   6.120
  353SOL    HW1 1958   3.287   0.247   6.078
  353SOL    HW2 1959   3.221   0.183   6.213
  354SOL     OW 1960   5.107   2.469   0.555
  354SOL    HW1 1961   5.192   2.440   0.600
  354SOL    HW2 1962   5.118   2.463   0.456
  355SOL     OW 1963   1.844   3.149   2.413
  355SOL    HW1 1964   1.847   3.085   2.490
  355SOL    HW2 1965   1.857   3.242   2.447
  356SOL     OW 1966   1.974   0.716   4.646
  356SOL    HW1 1967   1.922   0.798   4.621
  356SOL    HW2 1968   1.933   0.636   4.603
  357SOL     OW 1969   0.760   5.982   4.478
  357SOL    HW1 1970   0.847   6.020   4.448
  357SOL    HW2 1971   0.721   6.041   4.549
  358SOL     OW 1972   4.407   6.584   0.724
  358SOL    HW1 1973   4.378   6.643   0.649
  358SOL    HW2 1974   4.363   6.494   0.714
  359SOL     OW 1975   3.490   0.920   1.604
  359SOL    HW1 1976   3.567   0.978   1.574
  359SOL    HW2 1977   3.408   0.946   1.554
  360SOL     OW 1978   1.457   4.264   4.373
  360SOL    HW1 1979   1.535   4.265   4.436
  360SOL    HW2 1980   1.378   4.227   4.421
  361SOL     OW 1981   6.846   6.241   2.887
  361SOL    HW1 1982   6.939   6.208   2.900
  361SOL    HW2 1983   6.846   6.341   2.880
  362SOL     OW 1984   3.369   4.077   0.669
  362SOL    HW1 1985   3.388   4.175   0.680
  362SOL    HW2 1986   3.346   4.057   0.574
  363SOL     OW 1987   6.183   4.366   3.134
  363SOL    HW1 1988   6.134   4.448   3.165
  363SOL    HW2 1989   6.121   4.288   3.135
  364SOL     OW 1990   0.557   4.947   6.536
  364SOL    HW1 1991   0.604   4.956   6.624
  364SOL    HW2 1992   0.464   4.981   6.543
  365SOL     OW 1993   4.042   1.409   1.401
  365SOL    HW1 1994   3.959   1.402   1.457
  365SOL    HW2 1995   4.120   1.373   1.452
  366SOL     OW 1996   5.249   2.441   6.718
  366SOL    HW1 1997   5.309   2.371   6.679
  366SOL    HW2 1998   5.203   2.405   6.799
  367SOL     OW 1999   5.715   2.497   6.010
  367SOL    HW1 2000   5.665   2.429   5.956
  367SOL    HW2 2001   5.748   2.455   6.095
  368SOL     OW 2002   6.755   2.269   5.716
  368SOL    HW1 2003   6.748   2.356   5.667
  368SOL    HW2 2004   6.824   2.211   5.673
  369SOL     OW 2005   5.973   4.563   2.863
  369SOL    HW1 2006   5.924   4.538   2.946
  369SOL    HW2 2007   6.031   4.486   2.834
  370SOL     OW 2008   0.867   1.940   3.815
  370SOL    HW1 2009   0.808   2.017   3.838
  370SOL    HW2 2010   0.842   1.861   3.870
  371SOL     OW 2011   2.127   4.224   6.829
  371SOL    HW1 2012   2.187   4.283   6.884
  371SOL    HW2 2013   2.149   4.237   6.732
  372SOL     OW 2014   1.637   0.125   5.109
  372SOL    HW1 2015   1.613   0.059   5.038
  372SOL    HW2 2016   1.716   0.092   5.161
  373SOL     OW 2017   5.279   6.295   5.253
  373SOL    HW1 2018   5.343   6.324   5.182
  373SOL    HW2 2019   5.277   6.364   5.326
  374SOL     OW 2020   2.412   2.264   2.923
  374SOL    HW1 2021   2.510   2.283   2.930
  374SOL    HW2 2022   2.398   2.176   2.879
  375SOL     OW 2023   0.629   4.607   4.693
  375SOL    HW1 2024   0.686   4.637   4.770
  375SOL    HW2 2025   0.551   4.555   4.728
  376SOL     OW 2026   1.499   2.038   5.284
  376SOL    HW1 2027   1.462   2.064   5.373
  376SOL    HW2 2028   1.442   2.075   5.211
  377SOL     OW 2029   2.150   2.554   7.017
  377SOL    HW1 2030   2.173   2.468   6.972
  377SOL    HW2 2031   2.235   2.602   0.016
  378SOL     OW 2032   3.823   1.747   6.527
  378SOL    HW1 2033   3.901   1.806   6.546
  378SOL    HW2 2034   3.738   1.792   6.555
  379SOL     OW 2035   5.044   2.568   0.025
  379SOL    HW1 2036   4.974   2.497   0.018
  379SOL    HW2 2037   5.012   2.652   7.007
  380SOL     OW 2038   3.153   1.229   0.698
  380SOL    HW1 2039   3.160   1.182   0.786
  380SOL    HW2 2040   3.208   1.312   0.701
  381SOL     OW 2041   1.289   3.882   4.201
  381SOL    HW1 2042   1.287   3.917   4.295
  381SOL    HW2 2043   1.343   3.798   4.198
  382SOL     OW 2044   5.818   0.494   0.104
  382SOL    HW1 2045   5.727   0.490   0.063
  382SOL    HW2 2046   5.878   0.431   0.056
  383SOL     OW 2047   3.999   3.040   0.395
  383SOL    HW1 2048   4.024   3.025   0.299
  383SOL    HW2 2049   4.062   2.990   0.454
  384SOL     OW 2050   0.246   5.394   4.203
  384SOL    HW1 2051   0.201   5.332   4.267
  384SOL    HW2 2052   0.345   5.375   4.202
  385SOL     OW 2053   3.439   6.215   5.811
  385SOL    HW1 2054   3.499   6.139   5.787
  385SOL    HW2 2055   3.484   6.302   5.791
  386SOL     OW 2056   3.813   0.307   4.109
  386SOL    HW1 2057   3.809   0.312   4.209
  386SOL    HW2 2058   3.814   0.400   4.071
  387SOL     OW 2059   1.153   5.604   1.984
  387SOL    HW1 2060   1.083   5.565   2.044
  387SOL    HW2 2061   1.220   5.534   1.960
  388SOL     OW 2062   1.816   2.114   6.518
  388SOL    HW1 2063   1.778   2.105   6.610
  388SOL    HW2 2064   1.891   2.048   6.507
  389SOL     OW 2065   3.348   3.385   2.126
  389SOL    HW1 2066   3.375   3.328   2.048
  389SOL    HW2 2067   3.430   3.420   2.171
  390SOL     OW 2068   3.092   0.972   3.428
  390SOL    HW1 2069   3.032   0.904   3.385
  390SOL    HW2 2070   3.178   0.929   3.455
  391SOL     OW 2071   2.249   2.629   6.676
  391SOL    HW1 2072   2.195   2.571   6.615
  391SOL    HW2 2073   2.318   2.572   6.723
  392SOL     OW 2074   1.266   4.141   0.373
  392SOL    HW1 2075   1.209   4.197   0.313
  392SOL    HW2 2076   1.360   4.176   0.372
  393SOL     OW 2077   6.992   4.469   5.448
  393SOL    HW1 2078   7.010   4.527   5.528
  393SOL    HW2 2079   6.899   4.485   5.415
  394SOL     OW 2080   0.046   1.086   6.749
  394SOL    HW1 2081   0.095   1.102   6.834
  394SOL    HW2 2082   6.985   1.138   6.749
  395SOL     OW 2083   5.020   4.102   3.399
  395SOL    HW1 2084   5.102   4.061   3.357
  395SOL    HW2 2085   5.048   4.172   3.465
  396SOL     OW 2086   4.028   3.913   1.899
  396SOL    HW1 2087   4.073   3.912   1.810
  396SOL    HW2 2088   3.954   3.845   1.899
  397SOL     OW 2089   3.996   2.346   5.675
  397SOL    HW1 2090   3.970   2.392   5.590
  397SOL    HW2 2091   3.924   2.281   5.701
  398SOL     OW 2092   0.278   6.469   2.003
  398SOL    HW1 2093   0.296   6.524   1.921
  398SOL    HW2 2094   0.338   6.390   2.004
  399SOL     OW 2095   4.972   6.658   2.696
  399SOL    HW1 2096   4.885   6.706   2.696
  399SOL    HW2 2097   4.959   6.564   2.728
  400SOL     OW 2098   6.535   6.329   5.272
  400SOL    HW1 2099   6.519   6.427   5.258
  400SOL    HW2 2100   6.572   6.314   5.364
  401SOL     OW 2101   4.826   0.806   5.250
  401SOL    HW1 2102   4.877   0.798   5.335
  401SOL    HW2 2103   4.861   0.739   5.184
  402SOL     OW 2104   6.101   6.867   2.934
  402SOL    HW1 2105   6.194   6.831   2.940
  402SOL    HW2 2106   6.036   6.793   2.949
  403SOL     OW 2107   4.223   2.199   5.192
  403SOL    HW1 2108   4.157   2.193   5.267
  403SOL    HW2 2109   4.217   2.289   5.149
  404SOL     OW 2110   1.649   6.273   4.398
  404SOL    HW1 2111   1.683   6.180   4.414
  404SOL    HW2 2112   1.697   6.312   4.320
  405SOL     OW 2113   1.622   3.730   1.793
  405SOL    HW1 2114   1.654   3.694   1.706
  405SOL    HW2 2115   1.652   3.825   1.803
  406SOL     OW 2116   0.724   3.738   3.797
  406SOL    HW1 2117   0.778   3.821   3.786
  406SOL    HW2 2118   0.656   3.732   3.724
  407SOL     OW 2119   2.153   0.309   3.703
  407SOL    HW1 2120   2.107   0.392   3.674
  407SOL    HW2 2121   2.230   0.332   3.762
  408SOL     OW 2122   1.090   1.460   3.314
  408SOL    HW1 2123   1.074   1.559   3.311
  408SOL    HW2 2124   1.102   1.425   3.221
  409SOL     OW 2125   6.161   3.011   1.143
  409SOL    HW1 2126   6.224   3.002   1.220
  409SOL    HW2 2127   6.197   2.962   1.063
  410SOL     OW 2128   2.132   0.302   0.011
  410SOL    HW1 2129   2.059   0.235   7.022
  410SOL    HW2 2130   2.121   0.345   0.101
  411SOL     OW 2131   6.090   6.754   6.740
  411SOL    HW1 2132   6.027   6.765   6.662
  411SOL    HW2 2133   6.106   6.656   6.755
  412SOL     OW 2134   5.038   6.628   3.640
  412SOL    HW1 2135   5.112   6.664   3.698
  412SOL    HW2 2136   4.982   6.703   3.607
  413SOL     OW 2137   5.243   5.031   2.049
  413SOL    HW1 2138   5.205   5.123   2.046
  413SOL    HW2 2139   5.209   4.979   1.971
  414SOL     OW 2140   3.526   4.999   4.015
  414SOL    HW1 2141   3.480   5.063   4.076
  414SOL    HW2 2142   3.623   5.021   4.009
  415SOL     OW 2143   1.132   6.218   6.554
  415SOL    HW1 2144   1.111   6.146   6.488
  415SOL    HW2 2145   1.224   6.204   6.591
  416SOL     OW 2146   5.078   5.210   4.126
  416SOL    HW1 2147   5.114   5.140   4.188
  416SOL    HW2 2148   5.011   5.168   4.065
  417SOL     OW 2149   2.543   5.389   0.727
  417SOL    HW1 2150   2.595   5.473   0.740
  417SOL    HW2 2151   2.455   5.410   0.683
  418SOL     OW 2152   4.144   5.803   1.817
  418SOL    HW1 2153   4.193   5.778   1.901
  418SOL    HW2 2154   4.082   5.729   1.792
  419SOL     OW 2155   1.675   0.512   1.494
  419SOL    HW1 2156   1.626   0.593   1.526
  419SOL    HW2 2157   1.610   0.442   1.466
  420SOL     OW 2158   6.254   2.622   0.752
  420SOL    HW1 2159   6.339   2.574   0.776
  420SOL    HW2 2160   6.230   2.685   0.826
  421SOL     OW 2161   6.625   4.694   6.100
  421SOL    HW1 2162   6.612   4.712   6.003
  421SOL    HW2 2163   6.722   4.701   6.123
  422SOL     OW 2164   5.336   4.597   0.456
  422SOL    HW1 2165   5.388   4.512   0.468
  422SOL    HW2 2166   5.241   4.582   0.484
  423SOL     OW 2167   0.747   2.935   0.303
  423SOL    HW1 2168   0.781   2.850   0.262
  423SOL    HW2 2169   0.656   2.955   0.267
  424SOL     OW 2170   2.867   3.307   1.307
  424SOL    HW1 2171   2.915   3.273   1.388
  424SOL    HW2 2172   2.886   3.404   1.295
  425SOL     OW 2173   6.497   1.398   1.979
  425SOL    HW1 2174   6.423   1.340   1.944
  425SOL    HW2 2175   6.473   1.494   1.964
  426SOL     OW 2176   4.779   2.483   4.074
  426SOL    HW1 2177   4.770   2.535   3.989
  426SOL    HW2 2178   4.862   2.511   4.122
  427SOL     OW 2179   5.384   5.119   3.023
  427SOL    HW1 2180   5.433   5.035   3.045
  427SOL    HW2 2181   5.393   5.138   2.925
  428SOL     OW 2182   4.427   0.206   4.736
  428SOL    HW1 2183   4.482   0.185   4.654
  428SOL    HW2 2184   4.480   0.181   4.818
  429SOL     OW 2185   2.826   3.648   1.411
  429SOL    HW1 2186   2.852   3.735   1.452
  429SOL    HW2 2187   2.793   3.586   1.482
  430SOL     OW 2188   0.175   0.212   3.904
  430SOL    HW1 2189   0.263   0.239   3.940
  430SOL    HW2 2190   0.188   0.159   3.820
  431SOL     OW 2191   4.115   0.103   0.898
  431SOL    HW1 2192   4.020   0.094   0.927
  431SOL    HW2 2193   4.169   0.144   0.971
  432SOL     OW 2194   6.775   2.046   1.728
  432SOL    HW1 2195   6.847   1.995   1.774
  432SOL    HW2 2196   6.773   2.022   1.631
  433SOL     OW 2197   3.242   6.300   4.442
  433SOL    HW1 2198   3.284   6.382   4.404
  433SOL    HW2 2199   3.176   6.263   4.377
  434SOL     OW 2200   3.728   5.812   1.978
  434SOL    HW1 2201   3.800   5.879   1.999
  434SOL    HW2 2202   3.644   5.838   2.025
  435SOL     OW 2203   4.396   2.055   5.364
  435SOL    HW1 2204   4.317   2.094   5.316
  435SOL    HW2 2205   4.475   2.115   5.353
  436SOL     OW 2206   3.533   6.160   0.971
  436SOL    HW1 2207   3.581   6.125   1.051
  436SOL    HW2 2208   3.560   6.255   0.954
  437SOL     OW 2209   0.678   0.055   6.559
  437SOL    HW1 2210   0.750   7.011   6.552
  437SOL    HW2 2211   0.593   0.012   6.589
  438SOL     OW 2212   2.079   3.075   2.012
  438SOL    HW1 2213   2.018   3.092   1.935
  438SOL    HW2 2214   2.125   2.987   1.999
  439SOL     OW 2215   6.052   4.566   3.289
  439SOL    HW1 2216   6.078   4.651   3.334
  439SOL    HW2 2217   6.074   4.488   3.348
  440SOL     OW 2218   1.362   1.327   4.942
  440SOL    HW1 2219   1.400   1.250   4.891
  440SOL    HW2 2220   1.437   1.382   4.979
  441SOL     OW 2221   1.208   2.846   4.045
  441SOL    HW1 2222   1.187   2.905   3.968
  441SOL    HW2 2223   1.123   2.815   4.088
  442SOL     OW 2224   2.447   5.165   6.513
  442SOL    HW1 2225   2.473   5.182   6.418
  442SOL    HW2 2226   2.524   5.184   6.573
  443SOL     OW 2227   0.154   4.178   4.200
  443SOL    HW1 2228   0.055   4.189   4.210
  443SOL    HW2 2229   0.185   4.105   4.260
  444SOL     OW 2230   5.421   1.935   5.903
  444SOL    HW1 2231   5.335   1.885   5.912
  444SOL    HW2 2232   5.498   1.871   5.908
  445SOL     OW 2233   1.422   5.260   3.019
  445SOL    HW1 2234   1.352   5.311   2.969
  445SOL    HW2 2235   1.411   5.162   3.002
  446SOL     OW 2236   3.995   4.923   3.885
  446SOL    HW1 2237   4.014   4.882   3.974
  446SOL    HW2 2238   4.025   4.861   3.813
  447SOL     OW 2239   0.515   2.725   6.912
  447SOL    HW1 2240   0.427   2.714   6.957
  447SOL    HW2 2241   0.578   2.655   6.945
  448SOL     OW 2242   3.044   0.800   4.603
  448SOL    HW1 2243   3.055   0.721   4.543
  448SOL    HW2 2244   3.127   0.855   4.601
  449SOL     OW 2245   4.264   0.773   4.577
  449SOL    HW1 2246   4.358   0.740   4.568
  449SOL    HW2 2247   4.257   0.835   4.655
  450SOL     OW 2248   1.413   5.878   4.194
  450SOL    HW1 2249   1.425   5.945   4.121
  450SOL    HW2 2250   1.464   5.795   4.172
  451SOL     OW 2251   2.183   2.072   3.762
  451SOL    HW1 2252   2.111   2.052   3.696
  451SOL    HW2 2253   2.244   2.143   3.725
  452SOL     OW 2254   6.084   6.399   1.143
  452SOL    HW1 2255   6.095   6.315   1.091
  452SOL    HW2 2256   6.142   6.470   1.103
  453SOL     OW 2257   3.650   1.034   4.864
  453SOL    HW1 2258   3.710   1.114   4.863
  453SOL    HW2 2259   3.704   0.953   4.839
  454SOL     OW 2260   6.370   4.645   6.184
  454SOL    HW1 2261   6.462   4.661   6.147
  454SOL    HW2 2262   6.305   4.635   6.109
  455SOL     OW 2263   5.881   2.765   3.120
  455SOL    HW1 2264   5.917   2.678   3.085
  455SOL    HW2 2265   5.948   2.806   3.182
  456SOL     OW 2266   5.631   6.393   4.397
  456SOL    HW1 2267   5.559   6.408   4.329
  456SOL    HW2 2268   5.617   6.303   4.440
  457SOL     OW 2269   1.867   3.712   3.535
  457SOL    HW1 2270   1.874   3.755   3.625
  457SOL    HW2 2271   1.957   3.710   3.492
  458SOL     OW 2272   4.150   5.524   3.644
  458SOL    HW1 2273   4.127   5.427   3.634
  458SOL    HW2 2274   4.109   5.576   3.570
  459SOL     OW 2275   1.897   0.070   5.193
  459SOL    HW1 2276   1.977   0.087   5.136
  459SOL    HW2 2277   1.908   0.118   5.280
  460SOL     OW 2278   1.566   0.010   3.887
  460SOL    HW1 2279   1.547   0.098   3.843
  460SOL    HW2 2280   1.563   0.021   3.986
  461SOL     OW 2281   6.063   6.929   5.791
  461SOL    HW1 2282   6.030   6.867   5.720
  461SOL    HW2 2283   6.142   6.889   5.837
  462SOL     OW 2284   3.561   2.590   6.082
  462SOL    HW1 2285   3.556   2.490   6.095
  462SOL    HW2 2286   3.625   2.610   6.009
  463SOL     OW 2287   6.660   5.738   3.296
  463SOL    HW1 2288   6.662   5.832   3.332
  463SOL    HW2 2289   6.745   5.720   3.247
  464SOL     OW 2290   1.948   2.607   5.960
  464SOL    HW1 2291   1.882   2.536   5.983
  464SOL    HW2 2292   1.974   2.599   5.864
  465SOL     OW 2293   0.882   2.485   5.033
  465SOL    HW1 2294   0.884   2.451   5.127
  465SOL    HW2 2295   0.866   2.584   5.033
  466SOL     OW 2296   1.265   5.687   2.853
  466SOL    HW1 2297   1.247   5.665   2.757
  466SOL    HW2 2298   1.356   5.653   2.878
  467SOL     OW 2299   1.598   1.280   0.237
  467SOL    HW1 2300   1.641   1.245   0.154
  467SOL    HW2 2301   1.573   1.376   0.223
  468SOL     OW 2302   3.741   6.504   6.927
  468SOL    HW1 2303   3.757   6.535   7.021
  468SOL    HW2 2304   3.803   6.429   6.906
  469SOL     OW 2305   3.063   4.649   0.358
  469SOL    HW1 2306   2.993   4.578   0.351
  469SOL    HW2 2307   3.077   4.691   0.269
  470SOL     OW 2308   4.391   0.139   2.295
  470SOL    HW1 2309   4.355   0.204   2.228
  470SOL    HW2 2310   4.406   0.050   2.252
  471SOL     OW 2311   2.081   2.451   3.990
  471SOL    HW1 2312   2.055   2.499   3.907
  471SOL    HW2 2313   2.038   2.361   3.992
  472SOL     OW 2314   5.176   3.769   6.510
  472SOL    HW1 2315   5.192   3.734   6.418
  472SOL    HW2 2316   5.201   3.700   6.577
  473SOL     OW 2317   1.030   3.083   2.706
  473SOL    HW1 2318   1.100   3.155   2.708
  473SOL    HW2 2319   1.050   3.020   2.631
  474SOL     OW 2320   5.337   5.455   4.193
  474SOL    HW1 2321   5.402   5.413   4.130
  474SOL    HW2 2322   5.306   5.387   4.260
  475SOL     OW 2323   5.925   0.785   6.499
  475SOL    HW1 2324   5.985   0.797   6.420
  475SOL    HW2 2325   5.842   0.839   6.487
  476SOL     OW 2326   6.764   3.836   3.268
  476SOL    HW1 2327   6.812   3.890   3.336
  476SOL    HW2 2328   6.731   3.896   3.194
  477SOL     OW 2329   1.639   4.586   4.064
  477SOL    HW1 2330   1.673   4.570   3.971
  477SOL    HW2 2331   1.663   4.508   4.122
  478SOL     OW 2332   3.193   0.354   1.718
  478SOL    HW1 2333   3.133   0.337   1.640
  478SOL    HW2 2334   3.143   0.337   1.803
  479SOL     OW 2335   4.110   2.248   6.047
  479SOL    HW1 2336   4.014   2.254   6.019
  479SOL    HW2 2337   4.166   2.226   5.968
  480SOL     OW 2338   2.126   1.379   0.108
  480SOL    HW1 2339   2.115   1.468   0.151
  480SOL    HW2 2340   2.169   1.389   0.018
  481SOL     OW 2341   1.735   0.421   0.257
  481SOL    HW1 2342   1.785   0.344   0.298
  481SOL    HW2 2343   1.646   0.429   0.300
  482SOL     OW 2344   4.554   4.919   3.250
  482SOL    HW1 2345   4.581   4.955   3.161
  482SOL    HW2 2346   4.556   4.819   3.249
  483SOL     OW 2347   6.754   1.288   2.041
  483SOL    HW1 2348   6.662   1.318   2.017
  483SOL    HW2 2349   6.792   1.347   2.112
  484SOL     OW 2350   1.367   3.068   4.862
  484SOL    HW1 2351   1.411   3.132   4.925
  484SOL    HW2 2352   1.329   3.118   4.784
  485SOL     OW 2353   3.858   5.235   2.931
  485SOL    HW1 2354   3.918   5.224   3.011
  485SOL    HW2 2355   3.912   5.224   2.847
  486SOL     OW 2356   6.765   1.946   0.453
  486SOL    HW1 2357   6.842   1.903   0.500
  486SOL    HW2 2358   6.713   2.002   0.518
  487SOL     OW 2359   1.597   1.189   1.342
  487SOL    HW1 2360   1.622   1.235   1.427
  487SOL    HW2 2361   1.502   1.157   1.349
  488SOL     OW 2362   0.076   1.410   2.333
  488SOL    HW1 2363   0.131   1.411   2.249
  488SOL    HW2 2364   0.134   1.383   2.410
  489SOL     OW 2365   2.967   6.107   6.343
  489SOL    HW1 2366   2.898   6.065   6.402
  489SOL    HW2 2367   2.964   6.206   6.354
  490SOL     OW 2368   6.909   5.882   3.401
  490SOL    HW1 2369   6.821   5.929   3.404
  490SOL    HW2 2370   6.911   5.809   3.469
  491SOL     OW 2371   0.339   3.235   2.336
  491SOL    HW1 2372   0.410   3.174   2.301
  491SOL    HW2 2373   0.287   3.188   2.407
  492SOL     OW 2374   2.461   0.417   5.917
  492SOL    HW1 2375   2.420   0.336   5.874
  492SOL    HW2 2376   2.486   0.395   6.011
  493SOL     OW 2377   4.919   6.029   5.107
  493SOL    HW1 2378   4.945   6.113   5.060
  493SOL    HW2 2379   4.938   6.038   5.204
  494SOL     OW 2380   6.702   0.841   6.886
  494SOL    HW1 2381   6.701   0.741   6.879
  494SOL    HW2 2382   6.712   0.880   6.794
  495SOL     OW 2383   4.978   6.066   3.596
  495SOL    HW1 2384   4.896   6.116   3.567
  495SOL    HW2 2385   5.046   6.068   3.522
  496SOL     OW 2386   4.975   3.696   1.707
  496SOL    HW1 2387   4.979   3.622   1.774
  496SOL    HW2 2388   5.068   3.717   1.676
  497SOL     OW 2389   3.302   1.047   4.305
  497SOL    HW1 2390   3.365   1.120   4.276
  497SOL    HW2 2391   3.307   1.035   4.404
  498SOL     OW 2392   1.955   4.103   1.646
  498SOL    HW1 2393   1.974   4.012   1.683
  498SOL    HW2 2394   2.028   4.166   1.673
  499SOL     OW 2395   2.618   0.065   4.215
  499SOL    HW1 2396   2.580   0.071   4.123
  499SOL    HW2 2397   2.717   0.083   4.211
  500SOL     OW 2398   0.382   3.656   4.293
  500SOL    HW1 2399   0.442   3.590   4.247
  500SOL    HW2 2400   0.403   3.748   4.261
  501SOL     OW 2401   2.770   5.820   0.509
  501SOL    HW1 2402   2.727   5.795   0.422
  501SOL    HW2 2403   2.700   5.852   0.573
  502SOL     OW 2404   6.740   3.766   0.201
  502SOL    HW1 2405   6.802   3.726   0.133
  502SOL    HW2 2406   6.770   3.739   0.292
  503SOL     OW 2407   6.377   5.579   6.637
  503SOL    HW1 2408   6.332   5.652   6.689
  503SOL    HW2 2409   6.312   5.538   6.573
  504SOL     OW 2410   1.925   5.487   3.019
  504SOL    HW1 2411   2.010   5.524   2.981
  504SOL    HW2 2412   1.913   5.520   3.113
  505SOL     OW 2413   3.346   6.548   5.127
  505SOL    HW1 2414   3.301   6.581   5.044
  505SOL    HW2 2415   3.444   6.534   5.109
  506SOL     OW 2416   1.634   5.366   4.821
  506SOL    HW1 2417   1.615   5.301   4.894
  506SOL    HW2 2418   1.549   5.390   4.775
  507SOL     OW 2419   3.365   6.660   3.149
  507SOL    HW1 2420   3.378   6.666   3.248
  507SOL    HW2 2421   3.279   6.613   3.130
  508SOL     OW 2422   7.004   3.941   2.216
  508SOL    HW1 2423   0.055   3.876   2.226
  508SOL    HW2 2424   6.940   3.930   2.292
  509SOL     OW 2425   3.340   0.946   1.912
  509SOL    HW1 2426   3.272   1.000   1.862
  509SOL    HW2 2427   3.406   0.908   1.848
  510SOL     OW 2428   6.127   4.688   0.340
  510SOL    HW1 2429   6.097   4.608   0.288
  510SOL    HW2 2430   6.067   4.765   0.320
  511SOL     OW 2431   0.758   1.229   5.688
  511SOL    HW1 2432   0.825   1.269   5.625
  511SOL    HW2 2433   0.773   1.131   5.695
  512SOL     OW 2434   6.284   2.748   0.030
  512SOL    HW1 2435   6.280   2.845   0.054
  512SOL    HW2 2436   6.341   2.736   6.973
  513SOL     OW 2437   5.826   6.152   3.268
  513SOL    HW1 2438   5.855   6.194   3.182
  513SOL    HW2 2439   5.903   6.101   3.307
  514SOL     OW 2440   6.554   2.570   4.230
  514SOL    HW1 2441   6.574   2.630   4.308
  514SOL    HW2 2442   6.630   2.506   4.216
  515SOL     OW 2443   1.677   0.926   6.883
  515SOL    HW1 2444   1.716   0.924   6.975
  515SOL    HW2 2445   1.590   0.976   6.885
  516SOL     OW 2446   2.622   4.673   1.553
  516SOL    HW1 2447   2.605   4.662   1.651
  516SOL    HW2 2448   2.606   4.586   1.507
  517SOL     OW 2449   4.525   5.355   2.400
  517SOL    HW1 2450   4.555   5.273   2.351
  517SOL    HW2 2451   4.478   5.327   2.484
  518SOL     OW 2452   2.284   2.577   2.528
  518SOL    HW1 2453   2.210   2.524   2.486
  518SOL    HW2 2454   2.372   2.547   2.493
  519SOL     OW 2455   0.735   0.950   4.616
  519SOL    HW1 2456   0.795   0.925   4.693
  519SOL    HW2 2457   0.753   0.889   4.539
  520SOL     OW 2458   6.114   4.499   0.097
  520SOL    HW1 2459   6.157   4.586   0.074
  520SOL    HW2 2460   6.170   4.424   0.063
  521SOL     OW 2461   6.790   3.575   5.641
  521SOL    HW1 2462   6.813   3.669   5.617
  521SOL    HW2 2463   6.709   3.547   5.589
  522SOL     OW 2464   3.565   3.156   5.180
  522SOL    HW1 2465   3.626   3.077   5.187
  522SOL    HW2 2466   3.470   3.126   5.186
  523SOL     OW 2467   0.592   5.241   1.480
  523SOL    HW1 2468   0.672   5.225   1.422
  523SOL    HW2 2469   0.606   5.196   1.569
  524SOL     OW 2470   0.299   1.270   0.965
  524SOL    HW1 2471   0.305   1.206   1.042
  524SOL    HW2 2472   0.386   1.268   0.914
  525SOL     OW 2473   1.732   3.279   6.374
  525SOL    HW1 2474   1.823   3.320   6.365
  525SOL    HW2 2475   1.668   3.325   6.313
  526SOL     OW 2476   4.472   6.063   4.284
  526SOL    HW1 2477   4.480   6.050   4.186
  526SOL    HW2 2478   4.376   6.062   4.311
  527SOL     OW 2479   6.569   3.040   0.046
  527SOL    HW1 2480   6.584   3.013   6.976
  527SOL    HW2 2481   6.642   3.002   0.104
  528SOL     OW 2482   1.122   1.319   3.597
  528SOL    HW1 2483   1.181   1.381   3.650
  528SOL    HW2 2484   1.178   1.268   3.531
  529SOL     OW 2485   1.255   6.761   3.899
  529SOL    HW1 2486   1.273   6.799   3.808
  529SOL    HW2 2487   1.214   6.671   3.890
  530SOL     OW 2488   3.285   2.996   5.038
  530SOL    HW1 2489   3.273   2.976   4.941
  530SOL    HW2 2490   3.354   2.935   5.077
  531SOL     OW 2491   0.790   0.031   2.852
  531SOL    HW1 2492   0.712   0.081   2.814
  531SOL    HW2 2493   0.871   0.090   2.850
  532SOL     OW 2494   1.162   2.281   6.974
  532SOL    HW1 2495   1.226   2.354   6.999
  532SOL    HW2 2496   1.111   2.253   0.030
  533SOL     OW 2497   4.700   0.312   3.601
  533SOL    HW1 2498   4.794   0.280   3.612
  533SOL    HW2 2499   4.690   0.357   3.513
  534SOL     OW 2500   5.191   6.149   2.527
  534SOL    HW1 2501   5.190   6.054   2.556
  534SOL    HW2 2502   5.193   6.154   2.427
  535SOL     OW 2503   0.773   3.502   4.835
  535SOL    HW1 2504   0.726   3.589   4.838
  535SOL    HW2 2505   0.727   3.437   4.896
  536SOL     OW 2506   6.811   5.181   1.630
  536SOL    HW1 2507   6.905   5.158   1.604
  536SOL    HW2 2508   6.747   5.125   1.577
  537SOL     OW 2509   1.723   6.511   3.936
  537SOL    HW1 2510   1.784   6.562   3.997
  537SOL    HW2 2511   1.778   6.455   3.873
  538SOL     OW 2512   1.019   4.301   2.609
  538SOL    HW1 2513   1.077   4.253   2.543
  538SOL    HW2 2514   1.030   4.261   2.700
  539SOL     OW 2515   1.089   6.581   0.551
  539SOL    HW1 2516   1.113   6.659   0.609
  539SOL    HW2 2517   1.025   6.610   0.481
  540SOL     OW 2518   0.891   0.446   2.717
  540SOL    HW1 2519   0.973   0.501   2.700
  540SOL    HW2 2520   0.917   0.358   2.756
  541SOL     OW 2521   3.915   6.072   4.367
  541SOL    HW1 2522   3.832   6.128   4.376
  541SOL    HW2 2523   3.892   5.976   4.385
  542SOL     OW 2524   6.524   0.349   0.029
  542SOL    HW1 2525   6.502   0.302   0.114
  542SOL    HW2 2526   6.611   0.397   0.039
  543SOL     OW 2527   1.640   4.350   5.552
  543SOL    HW1 2528   1.689   4.415   5.610
  543SOL    HW2 2529   1.690   4.264   5.548
  544SOL     OW 2530   2.444   3.977   0.639
  544SOL    HW1 2531   2.381   3.905   0.612
  544SOL    HW2 2532   2.533   3.937   0.661
  545SOL     OW 2533   2.795   0.467   3.088
  545SOL    HW1 2534   2.775   0.546   3.146
  545SOL    HW2 2535   2.874   0.418   3.126
  546SOL     OW 2536   1.628   3.397   0.788
  546SOL    HW1 2537   1.537   3.365   0.815
  546SOL    HW2 2538   1.695   3.367   0.856
  547SOL     OW 2539   3.022   1.314   6.833
  547SOL    HW1 2540   3.118   1.287   6.822
  547SOL    HW2 2541   2.965   1.233   6.843
  548SOL     OW 2542   3.791   3.104   2.697
  548SOL    HW1 2543   3.774   3.051   2.614
  548SOL    HW2 2544   3.710   3.158   2.719
  549SOL     OW 2545   4.698   3.391   1.159
  549SOL    HW1 2546   4.739   3.376   1.249
  549SOL    HW2 2547   4.721   3.483   1.127
  550SOL     OW 2548   6.141   4.244   3.442
  550SOL    HW1 2549   6.107   4.312   3.506
  550SOL    HW2 2550   6.241   4.240   3.446
  551SOL     OW 2551   1.155   0.702   1.279
  551SOL    HW1 2552   1.138   0.800   1.263
  551SOL    HW2 2553   1.154   0.684   1.377
  552SOL     OW 2554   4.900   4.701   0.092
  552SOL    HW1 2555   4.824   4.645   0.058
  552SOL    HW2 2556   4.931   4.764   0.021
  553SOL     OW 2557   1.889   6.629   2.151
  553SOL    HW1 2558   1.893   6.529   2.147
  553SOL    HW2 2559   1.971   6.667   2.107
  554SOL     OW 2560   5.573   6.784   5.365
  554SOL    HW1 2561   5.638   6.853   5.399
  554SOL    HW2 2562   5.540   6.729   5.442
  555SOL     OW 2563   2.437   5.384   2.839
  555SOL    HW1 2564   2.353   5.425   2.876
  555SOL    HW2 2565   2.419   5.347   2.748
  556SOL     OW 2566   5.717   2.631   3.548
  556SOL    HW1 2567   5.754   2.680   3.469
  556SOL    HW2 2568   5.717   2.533   3.530
  557SOL     OW 2569   0.536   4.937   0.306
  557SOL    HW1 2570   0.551   4.845   0.344
  557SOL    HW2 2571   0.521   4.931   0.208
  558SOL     OW 2572   2.918   3.668   4.796
  558SOL    HW1 2573   2.840   3.628   4.845
  558SOL    HW2 2574   2.982   3.596   4.770
  559SOL     OW 2575   6.657   5.603   6.603
  559SOL    HW1 2576   6.711   5.675   6.648
  559SOL    HW2 2577   6.560   5.618   6.620
  560SOL     OW 2578   4.431   5.517   0.502
  560SOL    HW1 2579   4.382   5.435   0.532
  560SOL    HW2 2580   4.498   5.492   0.432
  561SOL     OW 2581   6.262   0.966   0.428
  561SOL    HW1 2582   6.249   1.048   0.373
  561SOL    HW2 2583   6.191   0.962   0.500
  562SOL     OW 2584   4.579   0.810   5.874
  562SOL    HW1 2585   4.550   0.871   5.948
  562SOL    HW2 2586   4.657   0.756   5.904
  563SOL     OW 2587   2.172   0.060   2.994
  563SOL    HW1 2588   2.202   0.002   2.918
  563SOL    HW2 2589   2.132   0.002   3.066
  564SOL     OW 2590   3.012   1.710   6.502
  564SOL    HW1 2591   2.958   1.686   6.421
  564SOL    HW2 2592   2.951   1.739   6.576
  565SOL     OW 2593   3.702   3.585   5.816
  565SOL    HW1 2594   3.693   3.497   5.768
  565SOL    HW2 2595   3.614   3.632   5.816
  566SOL     OW 2596   6.118   4.109   4.507
  566SOL    HW1 2597   6.188   4.173   4.474
  566SOL    HW2 2598   6.028   4.141   4.479
  567SOL     OW 2599   3.835   4.011   2.502
  567SOL    HW1 2600   3.848   4.015   2.403
  567SOL    HW2 2601   3.741   4.037   2.524
  568SOL     OW 2602   3.500   2.447   0.247
  568SOL    HW1 2603   3.448   2.371   0.207
  568SOL    HW2 2604   3.460   2.534   0.218
  569SOL     OW 2605   1.212   3.719   0.134
  569SOL    HW1 2606   1.269   3.678   0.063
  569SOL    HW2 2607   1.208   3.658   0.213
  570SOL     OW 2608   2.227   6.526   6.871
  570SOL    HW1 2609   2.230   6.455   6.802
  570SOL    HW2 2610   2.237   6.486   6.962
  571SOL     OW 2611   2.902   7.001   2.845
  571SOL    HW1 2612   2.816   7.006   2.897
  571SOL    HW2 2613   2.892   0.026   2.759
  572SOL     OW 2614   2.244   4.823   5.887
  572SOL    HW1 2615   2.282   4.879   5.813
  572SOL    HW2 2616   2.213   4.883   5.961
  573SOL     OW 2617   4.786   1.325   5.297
  573SOL    HW1 2618   4.733   1.256   5.347
  573SOL    HW2 2619   4.769   1.315   5.199
  574SOL     OW 2620   2.692   2.376   3.556
  574SOL    HW1 2621   2.763   2.362   3.625
  574SOL    HW2 2622   2.636   2.454   3.581
  575SOL     OW 2623   5.995   2.994   6.995
  575SOL    HW1 2624   5.940   2.945   0.038
  575SOL    HW2 2625   6.091   2.996   0.000
  576SOL     OW 2626   1.333   2.119   2.535
  576SOL    HW1 2627   1.326   2.214   2.568
  576SOL    HW2 2628   1.316   2.116   2.437
  577SOL     OW 2629   1.975   1.034   3.342
  577SOL    HW1 2630   1.876   1.030   3.356
  577SOL    HW2 2631   2.013   0.942   3.349
  578SOL     OW 2632   6.780   4.277   3.231
  578SOL    HW1 2633   6.734   4.194   3.260
  578SOL    HW2 2634   6.791   4.276   3.131
  579SOL     OW 2635   2.360   3.329   1.422
  579SOL    HW1 2636   2.379   3.427   1.420
  579SOL    HW2 2637   2.388   3.288   1.336
  580SOL     OW 2638   0.762   4.672   6.671
  580SOL    HW1 2639   0.662   4.673   6.673
  580SOL    HW2 2640   0.793   4.596   6.614
  581SOL     OW 2641   3.084   3.420   2.153
  581SOL    HW1 2642   3.039   3.338   2.118
  581SOL    HW2 2643   3.181   3.401   2.171
  582SOL     OW 2644   6.102   5.265   2.468
  582SOL    HW1 2645   6.197   5.294   2.456
  582SOL    HW2 2646   6.094   5.207   2.550
  583SOL     OW 2647   2.329   5.507   6.246
  583SOL    HW1 2648   2.244   5.552   6.273
  583SOL    HW2 2649   2.311   5.449   6.166
  584SOL     OW 2650   1.212   4.714   5.921
  584SOL    HW1 2651   1.193   4.732   5.824
  584SOL    HW2 2652   1.186   4.794   5.975
  585SOL     OW 2653   5.751   2.733   6.160
  585SOL    HW1 2654   5.829   2.698   6.211
  585SOL    HW2 2655   5.724   2.665   6.091
  586SOL     OW 2656   3.238   0.797   6.196
  586SOL    HW1 2657   3.259   0.704   6.226
  586SOL    HW2 2658   3.174   0.839   6.259
  587SOL     OW 2659   2.769   2.420   5.136
  587SOL    HW1 2660   2.681   2.441   5.180
  587SOL    HW2 2661   2.753   2.368   5.053
  588SOL     OW 2662   2.536   5.123   0.728
  588SOL    HW1 2663   2.551   5.221   0.719
  588SOL    HW2 2664   2.527   5.083   0.637
  589SOL     OW 2665   3.808   5.484   1.416
  589SOL    HW1 2666   3.854   5.441   1.493
  589SOL    HW2 2667   3.876   5.530   1.358
  590SOL     OW 2668   5.812   2.916   1.265
  590SOL    HW1 2669   5.861   2.832   1.242
  590SOL    HW2 2670   5.877   2.990   1.276
  591SOL     OW 2671   4.089   6.187   3.958
  591SOL    HW1 2672   4.136   6.109   3.916
  591SOL    HW2 2673   4.132   6.272   3.928
  592SOL     OW 2674   4.059   0.320   1.265
  592SOL    HW1 2675   4.019   0.409   1.286
  592SOL    HW2 2676   4.119   0.291   1.339
  593SOL     OW 2677   4.806   2.228   3.566
  593SOL    HW1 2678   4.815   2.172   3.649
  593SOL    HW2 2679   4.798   2.168   3.487
  594SOL     OW 2680   4.733   2.190   6.322
  594SOL    HW1 2681   4.758   2.127   6.248
  594SOL    HW2 2682   4.743   2.284   6.290
  595SOL     OW 2683   5.373   7.021   3.555
  595SOL    HW1 2684   5.444   6.956   3.528
  595SOL    HW2 2685   5.404   0.089   3.537
  596SOL     OW 2686   1.272   3.836   2.124
  596SOL    HW1 2687   1.336   3.825   2.048
  596SOL    HW2 2688   1.192   3.888   2.093
  597SOL     OW 2689   4.647   6.919   5.742
  597SOL    HW1 2690   4.681   6.863   5.817
  597SOL    HW2 2691   4.629   6.861   5.662
  598SOL     OW 2692   3.302   4.029   0.038
  598SOL    HW1 2693   3.398   4.027   0.009
  598SOL    HW2 2694   3.264   3.937   0.033
  599SOL     OW 2695   1.811   6.375   3.340
  599SOL    HW1 2696   1.861   6.407   3.260
  599SOL    HW2 2697   1.864   6.306   3.389
  600SOL     OW 2698   1.282   1.214   1.229
  600SOL    HW1 2699   1.309   1.286   1.165
  600SOL    HW2 2700   1.265   1.129   1.178
  601SOL     OW 2701   3.632   6.717   4.289
  601SOL    HW1 2702   3.573   6.681   4.217
  601SOL    HW2 2703   3.630   6.655   4.367
  602SOL     OW 2704   1.328   2.469   0.039
  602SOL    HW1 2705   1.325   2.537   0.113
  602SOL    HW2 2706   1.358   2.514   6.979
  603SOL     OW 2707   4.202   1.844   3.462
  603SOL    HW1 2708   4.247   1.933   3.469
  603SOL    HW2 2709   4.199   1.815   3.366
  604SOL     OW 2710   0.608   3.794   1.408
  604SOL    HW1 2711   0.556   3.755   1.332
  604SOL    HW2 2712   0.647   3.882   1.380
  605SOL     OW 2713   6.708   5.401   2.950
  605SOL    HW1 2714   6.710   5.302   2.963
  605SOL    HW2 2715   6.618   5.437   2.977
  606SOL     OW 2716   4.942   0.338   5.711
  606SOL    HW1 2717   4.985   0.291   5.788
  606SOL    HW2 2718   4.853   0.298   5.693
  607SOL     OW 2719   5.346   0.706   5.679
  607SOL    HW1 2720   5.303   0.796   5.674
  607SOL    HW2 2721   5.278   0.637   5.705
  608SOL     OW 2722   4.197   6.287   0.044
  608SOL    HW1 2723   4.289   6.305   0.012
  608SOL    HW2 2724   4.183   6.330   0.133
  609SOL     OW 2725   3.508   3.521   3.899
  609SOL    HW1 2726   3.457   3.448   3.944
  609SOL    HW2 2727   3.606   3.508   3.914
  610SOL     OW 2728   5.072   2.164   2.214
  610SOL    HW1 2729   4.987   2.216   2.221
  610SOL    HW2 2730   5.051   2.069   2.191
  611SOL     OW 2731   1.679   0.475   6.425
  611SOL    HW1 2732   1.661   0.555   6.482
  611SOL    HW2 2733   1.671   0.499   6.329
  612SOL     OW 2734   4.014   5.869   5.563
  612SOL    HW1 2735   3.989   5.823   5.649
  612SOL    HW2 2736   3.983   5.813   5.486
  613SOL     OW 2737   4.390   6.791   5.385
  613SOL    HW1 2738   4.486   6.818   5.375
  613SOL    HW2 2739   4.353   6.832   5.468
  614SOL     OW 2740   5.868   4.329   1.247
  614SOL    HW1 2741   5.930   4.252   1.253
  614SOL    HW2 2742   5.919   4.411   1.222
  615SOL     OW 2743   0.723   1.820   1.232
  615SOL    HW1 2744   0.677   1.761   1.165
  615SOL    HW2 2745   0.654   1.870   1.284
  616SOL     OW 2746   6.002   1.622   2.963
  616SOL    HW1 2747   6.036   1.528   2.958
  616SOL    HW2 2748   5.931   1.636   2.893
  617SOL     OW 2749   6.924   3.359   6.782
  617SOL    HW1 2750   6.851   3.427   6.792
  617SOL    HW2 2751   6.947   3.350   6.685
  618SOL     OW 2752   6.654   3.445   0.864
  618SOL    HW1 2753   6.579   3.381   0.850
  618SOL    HW2 2754   6.660   3.507   0.786
  619SOL     OW 2755   4.256   6.872   6.782
  619SOL    HW1 2756   4.333   6.878   6.845
  619SOL    HW2 2757   4.214   6.962   6.773
  620SOL     OW 2758   5.944   2.854   0.982
  620SOL    HW1 2759   5.992   2.935   1.017
  620SOL    HW2 2760   5.948   2.853   0.882
  621SOL     OW 2761   1.516   0.049   5.401
  621SOL    HW1 2762   1.557   0.090   5.320
  621SOL    HW2 2763   1.431   0.003   5.377
  622SOL     OW 2764   0.142   1.617   5.092
  622SOL    HW1 2765   0.131   1.717   5.098
  622SOL    HW2 2766   0.153   1.580   5.184
  623SOL     OW 2767   0.474   6.689   5.408
  623SOL    HW1 2768   0.404   6.683   5.337
  623SOL    HW2 2769   0.449   6.762   5.472
  624SOL     OW 2770   6.558   0.649   0.509
  624SOL    HW1 2771   6.483   0.684   0.453
  624SOL    HW2 2772   6.627   0.721   0.522
  625SOL     OW 2773   1.716   2.107   0.962
  625SOL    HW1 2774   1.629   2.073   0.998
  625SOL    HW2 2775   1.752   2.042   0.894
  626SOL     OW 2776   0.548   5.880   2.626
  626SOL    HW1 2777   0.544   5.948   2.699
  626SOL    HW2 2778   0.457   5.868   2.586
  627SOL     OW 2779   6.574   6.445   0.912
  627SOL    HW1 2780   6.589   6.447   0.813
  627SOL    HW2 2781   6.601   6.533   0.951
  628SOL     OW 2782   5.715   3.908   5.110
  628SOL    HW1 2783   5.726   4.005   5.086
  628SOL    HW2 2784   5.805   3.867   5.124
  629SOL     OW 2785   0.722   1.219   6.906
  629SOL    HW1 2786   0.689   1.284   6.837
  629SOL    HW2 2787   0.724   1.127   6.866
  630SOL     OW 2788   0.356   2.554   0.612
  630SOL    HW1 2789   0.397   2.472   0.652
  630SOL    HW2 2790   0.422   2.598   0.551
  631SOL     OW 2791   3.917   1.479   4.479
  631SOL    HW1 2792   3.834   1.533   4.491
  631SOL    HW2 2793   3.955   1.456   4.568
  632SOL     OW 2794   4.520   2.756   0.401
  632SOL    HW1 2795   4.618   2.747   0.381
  632SOL    HW2 2796   4.471   2.776   0.316
  633SOL     OW 2797   3.592   4.278   6.750
  633SOL    HW1 2798   3.682   4.265   6.709
  633SOL    HW2 2799   3.585   4.370   6.788
  634SOL     OW 2800   3.312   3.401   2.814
  634SOL    HW1 2801   3.377   3.471   2.842
  634SOL    HW2 2802   3.301   3.404   2.714
  635SOL     OW 2803   4.765   6.734   0.163
  635SOL    HW1 2804   4.763   6.831   0.187
  635SOL    HW2 2805   4.753   6.679   0.245
  636SOL     OW 2806   2.892   6.832   6.075
  636SOL    HW1 2807   2.982   6.871   6.056
  636SOL    HW2 2808   2.835   6.839   5.993
  637SOL     OW 2809   6.792   2.812   2.405
  637SOL    HW1 2810   6.790   2.830   2.503
  637SOL    HW2 2811   6.715   2.858   2.361
  638SOL     OW 2812   5.540   3.652   3.755
  638SOL    HW1 2813   5.624   3.672   3.706
  638SOL    HW2 2814   5.489   3.582   3.705
  639SOL     OW 2815   4.936   4.400   3.080
  639SOL    HW1 2816   4.874   4.328   3.109
  639SOL    HW2 2817   4.910   4.486   3.123
  640SOL     OW 2818   6.680   4.749   3.213
  640SOL    HW1 2819   6.674   4.848   3.204
  640SOL    HW2 2820   6.710   4.709   3.126
  641SOL     OW 2821   0.800   4.650   4.897
  641SOL    HW1 2822   0.767   4.563   4.933
  641SOL    HW2 2823   0.880   4.679   4.949
  642SOL     OW 2824   1.434   3.106   4.419
  642SOL    HW1 2825   1.442   3.027   4.358
  642SOL    HW2 2826   1.468   3.081   4.510
  643SOL     OW 2827   6.166   0.223   6.453
  643SOL    HW1 2828   6.217   0.192   6.534
  643SOL    HW2 2829   6.214   0.193   6.370
  644SOL     OW 2830   1.373   0.501   4.753
  644SOL    HW1 2831   1.314   0.452   4.817
  644SOL    HW2 2832   1.320   0.532   4.675
  645SOL     OW 2833   3.227   5.628   4.334
  645SOL    HW1 2834   3.296   5.576   4.285
  645SOL    HW2 2835   3.246   5.625   4.433
  646SOL     OW 2836   3.877   0.427   4.683
  646SOL    HW1 2837   3.954   0.391   4.629
  646SOL    HW2 2838   3.893   0.409   4.780
  647SOL     OW 2839   5.628   1.624   5.007
  647SOL    HW1 2840   5.544   1.677   4.994
  647SOL    HW2 2841   5.690   1.640   4.931
  648SOL     OW 2842   6.802   4.012   3.606
  648SOL    HW1 2843   6.752   4.045   3.526
  648SOL    HW2 2844   6.800   4.082   3.678
  649SOL     OW 2845   2.138   3.631   0.768
  649SOL    HW1 2846   2.119   3.540   0.733
  649SOL    HW2 2847   2.214   3.627   0.834
  650SOL     OW 2848   6.430   5.250   0.488
  650SOL    HW1 2849   6.360   5.262   0.418
  650SOL    HW2 2850   6.481   5.335   0.501
  651SOL     OW 2851   1.592   0.525   5.763
  651SOL    HW1 2852   1.579   0.620   5.735
  651SOL    HW2 2853   1.504   0.483   5.782
  652SOL     OW 2854   4.488   6.937   2.863
  652SOL    HW1 2855   4.438   6.895   2.787
  652SOL    HW2 2856   4.468   0.010   2.865
  653SOL     OW 2857   0.700   5.917   0.314
  653SOL    HW1 2858   0.634   5.971   0.261
  653SOL    HW2 2859   0.655   5.879   0.395
  654SOL     OW 2860   0.309   6.287   6.345
  654SOL    HW1 2861   0.247   6.359   6.375
  654SOL    HW2 2862   0.357   6.316   6.262
  655SOL     OW 2863   6.996   5.503   1.965
  655SOL    HW1 2864   0.023   5.541   2.042
  655SOL    HW2 2865   6.936   5.573   1.927
  656SOL     OW 2866   1.734   6.497   7.024
  656SOL    HW1 2867   1.771   6.497   6.931
  656SOL    HW2 2868   1.637   6.471   7.021
  657SOL     OW 2869   3.268   4.065   0.962
  657SOL    HW1 2870   3.216   4.089   0.880
  657SOL    HW2 2871   3.360   4.037   0.935
  658SOL     OW 2872   1.374   4.025   5.334
  658SOL    HW1 2873   1.312   4.042   5.257
  658SOL    HW2 2874   1.468   4.046   5.305
  659SOL     OW 2875   2.573   6.524   4.935
  659SOL    HW1 2876   2.560   6.484   4.844
  659SOL    HW2 2877   2.498   6.494   4.995
  660SOL     OW 2878   4.633   4.777   2.925
  660SOL    HW1 2879   4.688   4.704   2.966
  660SOL    HW2 2880   4.648   4.862   2.975
  661SOL     OW 2881   4.830   3.886   4.551
  661SOL    HW1 2882   4.861   3.859   4.460
  661SOL    HW2 2883   4.865   3.821   4.619
  662SOL     OW 2884   4.564   0.785   5.514
  662SOL    HW1 2885   4.649   0.811   5.469
  662SOL    HW2 2886   4.580   0.703   5.569
  663SOL     OW 2887   0.339   4.508   0.321
  663SOL    HW1 2888   0.352   4.413   0.290
  663SOL    HW2 2889   0.286   4.558   0.253
  664SOL     OW 2890   1.524   5.331   6.692
  664SOL    HW1 2891   1.517   5.301   6.597
  664SOL    HW2 2892   1.577   5.264   6.744
  665SOL     OW 2893   4.093   5.224   0.757
  665SOL    HW1 2894   4.108   5.183   0.847
  665SOL    HW2 2895   4.016   5.179   0.712
  666SOL     OW 2896   4.569   2.216   0.855
  666SOL    HW1 2897   4.582   2.261   0.767
  666SOL    HW2 2898   4.474   2.224   0.883
  667SOL     OW 2899   7.022   4.020   3.861
  667SOL    HW1 2900   0.077   4.080   3.856
  667SOL    HW2 2901   6.980   4.029   3.951
  668SOL     OW 2902   5.036   5.752   6.847
  668SOL    HW1 2903   4.981   5.836   6.843
  668SOL    HW2 2904   5.132   5.774   6.832
  669SOL     OW 2905   2.694   6.180   3.062
  669SOL    HW1 2906   2.605   6.220   3.041
  669SOL    HW2 2907   2.723   6.122   2.986
  670SOL     OW 2908   3.148   3.100   1.905
  670SOL    HW1 2909   3.175   3.155   1.826
  670SOL    HW2 2910   3.066   3.138   1.947
  671SOL     OW 2911   2.506   5.997   6.750
  671SOL    HW1 2912   2.547   5.909   6.771
  671SOL    HW2 2913   2.561   6.071   6.790
  672SOL     OW 2914   0.649   4.382   1.946
  672SOL    HW1 2915   0.627   4.407   1.852
  672SOL    HW2 2916   0.740   4.342   1.950
  673SOL     OW 2917   4.952   0.223   1.505
  673SOL    HW1 2918   4.889   0.286   1.551
  673SOL    HW2 2919   4.900   0.167   1.440
  674SOL     OW 2920   6.625   3.122   4.313
  674SOL    HW1 2921   6.547   3.061   4.298
  674SOL    HW2 2922   6.672   3.137   4.226
  675SOL     OW 2923   0.389   1.223   5.232
  675SOL    HW1 2924   0.401   1.177   5.320
  675SOL    HW2 2925   0.371   1.155   5.161
  676SOL     OW 2926   3.018   5.096   3.456
  676SOL    HW1 2927   3.113   5.067   3.443
  676SOL    HW2 2928   2.970   5.092   3.369
  677SOL     OW 2929   5.865   1.272   6.279
  677SOL    HW1 2930   5.870   1.249   6.376
  677SOL    HW2 2931   5.923   1.351   6.261
  678SOL     OW 2932   1.639   1.259   5.357
  678SOL    HW1 2933   1.641   1.349   5.402
  678SOL    HW2 2934   1.728   1.239   5.317
  679SOL     OW 2935   4.637   1.283   4.258
  679SOL    HW1 2936   4.723   1.263   4.212
  679SOL    HW2 2937   4.601   1.199   4.299
  680SOL     OW 2938   5.879   5.248   6.044
  680SOL    HW1 2939   5.883   5.333   6.097
  680SOL    HW2 2940   5.810   5.187   6.083
  681SOL     OW 2941   6.535   0.406   0.877
  681SOL    HW1 2942   6.606   0.473   0.858
  681SOL    HW2 2943   6.492   0.427   0.965
  682SOL     OW 2944   1.695   6.720   6.646
  682SOL    HW1 2945   1.749   6.703   6.728
  682SOL    HW2 2946   1.744   6.783   6.585
  683SOL     OW 2947   3.589   0.904   5.877
  683SOL    HW1 2948   3.496   0.868   5.890
  683SOL    HW2 2949   3.584   0.991   5.828
  684SOL     OW 2950   6.264   1.135   6.336
  684SOL    HW1 2951   6.346   1.191   6.328
  684SOL    HW2 2952   6.200   1.180   6.399
  685SOL     OW 2953   5.232   6.467   5.502
  685SOL    HW1 2954   5.170   6.522   5.447
  685SOL    HW2 2955   5.222   6.492   5.598
  686SOL     OW 2956   5.607   3.374   2.820
  686SOL    HW1 2957   5.553   3.444   2.866
  686SOL    HW2 2958   5.573   3.361   2.727
  687SOL     OW 2959   6.956   2.725   5.236
  687SOL    HW1 2960   6.894   2.652   5.268
  687SOL    HW2 2961   6.949   2.734   5.137
  688SOL     OW 2962   1.522   3.699   0.440
  688SOL    HW1 2963   1.436   3.663   0.405
  688SOL    HW2 2964   1.503   3.775   0.503
  689SOL     OW 2965   0.765   4.133   5.485
  689SOL    HW1 2966   0.816   4.165   5.405
  689SOL    HW2 2967   0.759   4.206   5.552
  690SOL     OW 2968   0.667   3.175   3.549
  690SOL    HW1 2969   0.579   3.171   3.501
  690SOL    HW2 2970   0.738   3.132   3.492
  691SOL     OW 2971   2.331   1.521   6.354
  691SOL    HW1 2972   2.336   1.593   6.284
  691SOL    HW2 2973   2.235   1.499   6.371
  692SOL     OW 2974   3.388   6.376   3.954
  692SOL    HW1 2975   3.296   6.357   3.988
  692SOL    HW2 2976   3.384   6.449   3.886
  693SOL     OW 2977   6.371   1.400   3.135
  693SOL    HW1 2978   6.314   1.342   3.193
  693SOL    HW2 2979   6.467   1.374   3.146
  694SOL     OW 2980   3.094   5.978   2.397
  694SOL    HW1 2981   3.082   6.036   2.316
  694SOL    HW2 2982   3.105   6.036   2.478
  695SOL     OW 2983   4.601   5.124   6.040
  695SOL    HW1 2984   4.516   5.142   6.091
  695SOL    HW2 2985   4.639   5.036   6.069
  696SOL     OW 2986   3.472   5.263   1.570
  696SOL    HW1 2987   3.501   5.353   1.601
  696SOL    HW2 2988   3.378   5.246   1.597
  697SOL     OW 2989   1.466   2.510   4.858
  697SOL    HW1 2990   1.453   2.453   4.940
  697SOL    HW2 2991   1.450   2.606   4.882
  698SOL     OW 2992   5.377   0.372   5.836
  698SOL    HW1 2993   5.449   0.441   5.829
  698SOL    HW2 2994   5.376   0.317   5.753
  699SOL     OW 2995   0.578   3.978   0.227
  699SOL    HW1 2996   0.641   3.929   0.166
  699SOL    HW2 2997   0.631   4.030   0.294
  700SOL     OW 2998   3.245   1.658   4.044
  700SOL    HW1 2999   3.296   1.572   4.040
  700SOL    HW2 3000   3.283   1.717   4.115
  701SOL     OW 3001   0.088   4.284   5.679
  701SOL    HW1 3002   0.013   4.348   5.697
  701SOL    HW2 3003   0.062   4.223   5.604
  702SOL     OW 3004   5.654   5.968   5.670
  702SOL    HW1 3005   5.670   6.030   5.747
  702SOL    HW2 3006   5.740   5.951   5.623
  703SOL     OW 3007   4.177   3.907   6.598
  703SOL    HW1 3008   4.198   3.920   6.695
  703SOL    HW2 3009   4.100   3.967   6.573
  704SOL     OW 3010   1.725   1.511   6.242
  704SOL    HW1 3011   1.779   1.525   6.159
  704SOL    HW2 3012   1.717   1.598   6.291
  705SOL     OW 3013   5.113   0.028   3.633
  705SOL    HW1 3014   5.204   0.014   3.594
  705SOL    HW2 3015   5.046   6.995   3.585
  706SOL     OW 3016   4.245   1.963   3.182
  706SOL    HW1 3017   4.199   2.051   3.167
  706SOL    HW2 3018   4.191   1.890   3.142
  707SOL     OW 3019   4.664   0.472   2.853
  707SOL    HW1 3020   4.611   0.494   2.771
  707SOL    HW2 3021   4.605   0.478   2.933
  708SOL     OW 3022   4.455   0.523   1.692
  708SOL    HW1 3023   4.540   0.482   1.660
  708SOL    HW2 3024   4.471   0.573   1.777
  709SOL     OW 3025   1.462   5.543   0.647
  709SOL    HW1 3026   1.516   5.484   0.588
  709SOL    HW2 3027   1.516   5.567   0.728
  710SOL     OW 3028   4.012   3.276   2.804
  710SOL    HW1 3029   3.937   3.233   2.755
  710SOL    HW2 3030   4.029   3.227   2.889
  711SOL     OW 3031   0.766   1.800   6.198
  711SOL    HW1 3032   0.723   1.889   6.211
  711SOL    HW2 3033   0.865   1.812   6.191
  712SOL     OW 3034   2.373   4.224   0.711
  712SOL    HW1 3035   2.290   4.220   0.767
  712SOL    HW2 3036   2.405   4.132   0.692
  713SOL     OW 3037   3.144   3.488   0.255
  713SOL    HW1 3038   3.145   3.441   0.167
  713SOL    HW2 3039   3.217   3.555   0.258
  714SOL     OW 3040   0.031   5.226   4.878
  714SOL    HW1 3041   6.979   5.253   4.937
  714SOL    HW2 3042   0.012   5.255   4.784
  715SOL     OW 3043   5.282   6.027   0.777
  715SOL    HW1 3044   5.348   5.982   0.837
  715SOL    HW2 3045   5.191   5.989   0.795
  716SOL     OW 3046   0.920   6.740   0.785
  716SOL    HW1 3047   0.919   6.741   0.885
  716SOL    HW2 3048   0.994   6.798   0.751
  717SOL     OW 3049   5.663   5.140   6.216
  717SOL    HW1 3050   5.592   5.095   6.161
  717SOL    HW2 3051   5.623   5.173   6.301
  718SOL     OW 3052   4.754   1.955   5.521
  718SOL    HW1 3053   4.784   1.868   5.560
  718SOL    HW2 3054   4.785   2.030   5.580
  719SOL     OW 3055   6.362   2.508   1.297
  719SOL    HW1 3056   6.391   2.453   1.218
  719SOL    HW2 3057   6.397   2.601   1.288
  720SOL     OW 3058   3.818   1.009   6.049
  720SOL    HW1 3059   3.846   0.922   6.090
  720SOL    HW2 3060   3.746   0.993   5.982
  721SOL     OW 3061   1.579   0.106   4.339
  721SOL    HW1 3062   1.674   0.075   4.334
  721SOL    HW2 3063   1.560   0.142   4.430
  722SOL     OW 3064   3.059   6.943   5.395
  722SOL    HW1 3065   3.111   6.886   5.331
  722SOL    HW2 3066   3.095   0.012   5.393
  723SOL     OW 3067   2.063   3.382   2.749
  723SOL    HW1 3068   2.139   3.430   2.705
  723SOL    HW2 3069   2.078   3.283   2.743
  724SOL     OW 3070   1.544   1.528   4.461
  724SOL    HW1 3071   1.504   1.549   4.550
  724SOL    HW2 3072   1.631   1.577   4.451
  725SOL     OW 3073   2.911   5.248   1.525
  725SOL    HW1 3074   2.890   5.242   1.428
  725SOL    HW2 3075   3.001   5.288   1.538
  726SOL     OW 3076   3.676   4.310   0.902
  726SOL    HW1 3077   3.716   4.231   0.947
  726SOL    HW2 3078   3.742   4.350   0.838
  727SOL     OW 3079   4.796   5.374   5.949
  727SOL    HW1 3080   4.825   5.308   5.880
  727SOL    HW2 3081   4.697   5.377   5.953
  728SOL     OW 3082   0.239   3.433   5.299
  728SOL    HW1 3083   0.211   3.406   5.207
  728SOL    HW2 3084   0.168   3.490   5.341
  729SOL     OW 3085   2.383   1.132   0.355
  729SOL    HW1 3086   2.297   1.107   0.311
  729SOL    HW2 3087   2.459   1.088   0.308
  730SOL     OW 3088   5.808   0.073   3.578
  730SOL    HW1 3089   5.897   0.069   3.624
  730SOL    HW2 3090   5.748   0.136   3.628
  731SOL     OW 3091   6.162   3.465   5.969
  731SOL    HW1 3092   6.245   3.512   6.000
  731SOL    HW2 3093   6.123   3.515   5.891
  732SOL     OW 3094   0.535   3.302   1.128
  732SOL    HW1 3095   0.633   3.322   1.125
  732SOL    HW2 3096   0.491   3.340   1.047
  733SOL     OW 3097   5.774   4.215   5.064
  733SOL    HW1 3098   5.776   4.279   5.141
  733SOL    HW2 3099   5.865   4.208   5.024
  734SOL     OW 3100   6.528   4.654   2.629
  734SOL    HW1 3101   6.442   4.657   2.578
  734SOL    HW2 3102   6.590   4.723   2.593
  735SOL     OW 3103   3.430   3.199   1.138
  735SOL    HW1 3104   3.440   3.218   1.040
  735SOL    HW2 3105   3.452   3.103   1.155
  736SOL     OW 3106   6.435   6.138   2.747
  736SOL    HW1 3107   6.349   6.100   2.714
  736SOL    HW2 3108   6.467   6.209   2.683
  737SOL     OW 3109   4.310   2.217   6.519
  737SOL    HW1 3110   4.288   2.141   6.581
  737SOL    HW2 3111   4.252   2.296   6.542
  738SOL     OW 3112   2.094   4.285   2.485
  738SOL    HW1 3113   2.118   4.282   2.582
  738SOL    HW2 3114   2.134   4.205   2.439
  739SOL     OW 3115   4.253   6.386   5.030
  739SOL    HW1 3116   4.256   6.471   5.082
  739SOL    HW2 3117   4.327   6.384   4.963
  740SOL     OW 3118   4.944   6.877   0.516
  740SOL    HW1 3119   4.918   6.789   0.555
  740SOL    HW2 3120   4.881   6.947   0.550
  741SOL     OW 3121   2.107   6.302   3.318
  741SOL    HW1 3122   2.136   6.256   3.401
  741SOL    HW2 3123   2.110   6.401   3.332
  742SOL     OW 3124   2.301   6.420   1.809
  742SOL    HW1 3125   2.227   6.484   1.790
  742SOL    HW2 3126   2.384   6.449   1.760
  743SOL     OW 3127   1.575   3.921   4.496
  743SOL    HW1 3128   1.639   3.869   4.553
  743SOL    HW2 3129   1.626   3.965   4.421
  744SOL     OW 3130   5.997   0.023   6.297
  744SOL    HW1 3131   6.013   0.009   6.199
  744SOL    HW2 3132   5.971   0.118   6.314
  745SOL     OW 3133   0.824   4.970   4.880
  745SOL    HW1 3134   0.888   4.992   4.954
  745SOL    HW2 3135   0.838   4.875   4.851
  746SOL     OW 3136   0.600   5.385   6.117
  746SOL    HW1 3137   0.579   5.412   6.023
  746SOL    HW2 3138   0.602   5.466   6.175
  747SOL     OW 3139   4.652   5.595   4.786
  747SOL    HW1 3140   4.606   5.634   4.866
  747SOL    HW2 3141   4.659   5.496   4.797
  748SOL     OW 3142   3.496   5.443   2.929
  748SOL    HW1 3143   3.410   5.466   2.974
  748SOL    HW2 3144   3.535   5.526   2.888
  749SOL     OW 3145   6.357   3.639   4.738
  749SOL    HW1 3146   6.291   3.690   4.684
  749SOL    HW2 3147   6.414   3.702   4.791
  750SOL     OW 3148   2.164   3.037   0.647
  750SOL    HW1 3149   2.188   2.952   0.600
  750SOL    HW2 3150   2.248   3.085   0.673
  751SOL     OW 3151   4.099   1.838   6.012
  751SOL    HW1 3152   4.059   1.817   5.923
  751SOL    HW2 3153   4.197   1.851   6.003
  752SOL     OW 3154   4.201   2.458   1.754
  752SOL    HW1 3155   4.109   2.425   1.735
  752SOL    HW2 3156   4.258   2.450   1.672
  753SOL     OW 3157   1.936   3.178   4.316
  753SOL    HW1 3158   1.915   3.183   4.218
  753SOL    HW2 3159   1.851   3.187   4.368
  754SOL     OW 3160   5.303   2.794   6.856
  754SOL    HW1 3161   5.226   2.854   6.833
  754SOL    HW2 3162   5.366   2.791   6.779
  755SOL     OW 3163   1.526   5.578   6.095
  755SOL    HW1 3164   1.468   5.509   6.138
  755SOL    HW2 3165   1.472   5.632   6.031
  756SOL     OW 3166   3.877   0.140   1.177
  756SOL    HW1 3167   3.857   0.168   1.083
  756SOL    HW2 3168   3.944   0.203   1.217
  757SOL     OW 3169   0.173   6.443   3.228
  757SOL    HW1 3170   0.240   6.390   3.280
  757SOL    HW2 3171   0.106   6.381   3.187
  758SOL     OW 3172   4.175   0.700   1.863
  758SOL    HW1 3173   4.195   0.641   1.784
  758SOL    HW2 3174   4.159   0.794   1.832
  759SOL     OW 3175   0.395   0.735   0.566
  759SOL    HW1 3176   0.424   0.743   0.471
  759SOL    HW2 3177   0.295   0.734   0.571
  760SOL     OW 3178   4.181   0.604   6.395
  760SOL    HW1 3179   4.219   0.554   6.473
  760SOL    HW2 3180   4.087   0.632   6.416
  761SOL     OW 3181   5.733   3.832   5.801
  761SOL    HW1 3182   5.733   3.755   5.738
  761SOL    HW2 3183   5.654   3.825   5.862
  762SOL     OW 3184   1.977   6.988   4.783
  762SOL    HW1 3185   1.920   0.005   4.712
  762SOL    HW2 3186   1.956   6.890   4.789
  763SOL     OW 3187   3.794   4.853   6.357
  763SOL    HW1 3188   3.792   4.859   6.456
  763SOL    HW2 3189   3.701   4.855   6.321
  764SOL     OW 3190   4.281   0.506   3.619
  764SOL    HW1 3191   4.272   0.409   3.643
  764SOL    HW2 3192   4.361   0.545   3.664
  765SOL     OW 3193   1.292   6.600   1.588
  765SOL    HW1 3194   1.350   6.519   1.577
  765SOL    HW2 3195   1.255   6.627   1.499
  766SOL     OW 3196   1.026   2.556   0.987
  766SOL    HW1 3197   1.017   2.655   1.002
  766SOL    HW2 3198   1.087   2.517   1.056
  767SOL     OW 3199   6.070   5.633   2.708
  767SOL    HW1 3200   6.133   5.645   2.632
  767SOL    HW2 3201   6.004   5.709   2.709
  768SOL     OW 3202   2.554   6.574   2.179
  768SOL    HW1 3203   2.535   6.586   2.276
  768SOL    HW2 3204   2.646   6.607   2.158
  769SOL     OW 3205   3.294   0.973   4.582
  769SOL    HW1 3206   3.299   1.016   4.673
  769SOL    HW2 3207   3.371   0.910   4.570
  770SOL     OW 3208   1.791   4.555   2.982
  770SOL    HW1 3209   1.867   4.612   2.951
  770SOL    HW2 3210   1.765   4.582   3.075
  771SOL     OW 3211   2.894   5.836   2.683
  771SOL    HW1 3212   2.866   5.797   2.595
  771SOL    HW2 3213   2.852   5.785   2.758
  772SOL     OW 3214   6.671   5.090   0.536
  772SOL    HW1 3215   6.589   5.141   0.512
  772SOL    HW2 3216   6.749   5.123   0.482
  773SOL     OW 3217   6.999   4.135   3.319
  773SOL    HW1 3218   6.927   4.199   3.290
  773SOL    HW2 3219   6.993   4.120   3.417
  774SOL     OW 3220   0.978   1.201   2.575
  774SOL    HW1 3221   0.971   1.198   2.675
  774SOL    HW2 3222   0.941   1.287   2.541
  775SOL     OW 3223   1.082   1.721   3.136
  775SOL    HW1 3224   1.037   1.665   3.066
  775SOL    HW2 3225   1.016   1.785   3.175
  776SOL     OW 3226   6.441   0.959   5.518
  776SOL    HW1 3227   6.472   0.921   5.605
  776SOL    HW2 3228   6.488   0.912   5.443
  777SOL     OW 3229   3.206   5.693   1.191
  777SOL    HW1 3230   3.271   5.625   1.157
  777SOL    HW2 3231   3.234   5.724   1.281
  778SOL     OW 3232   3.454   1.811   2.989
  778SOL    HW1 3233   3.405   1.852   3.066
  778SOL    HW2 3234   3.502   1.729   3.021
  779SOL     OW 3235   0.694   1.963   2.552
  779SOL    HW1 3236   0.791   1.982   2.570
  779SOL    HW2 3237   0.654   2.039   2.501
  780SOL     OW 3238   6.410   3.729   4.078
  780SOL    HW1 3239   6.414   3.775   3.990
  780SOL    HW2 3240   6.462   3.643   4.073
  781SOL     OW 3241   5.327   1.815   6.450
  781SOL    HW1 3242   5.284   1.791   6.537
  781SOL    HW2 3243   5.427   1.810   6.460
  782SOL     OW 3244   0.560   3.782   6.888
  782SOL    HW1 3245   0.606   3.761   6.802
  782SOL    HW2 3246   0.480   3.723   6.898
  783SOL     OW 3247   3.874   4.625   0.880
  783SOL    HW1 3248   3.960   4.575   0.873
  783SOL    HW2 3249   3.830   4.605   0.967
  784SOL     OW 3250   5.381   6.643   6.529
  784SOL    HW1 3251   5.384   6.728   6.583
  784SOL    HW2 3252   5.350   6.569   6.588
  785SOL     OW 3253   6.412   2.634   3.249
  785SOL    HW1 3254   6.356   2.716   3.238
  785SOL    HW2 3255   6.509   2.659   3.245
  786SOL     OW 3256   1.659   1.287   1.098
  786SOL    HW1 3257   1.621   1.256   1.185
  786SOL    HW2 3258   1.757   1.305   1.108
  787SOL     OW 3259   3.132   1.134   6.427
  787SOL    HW1 3260   3.054   1.186   6.461
  787SOL    HW2 3261   3.106   1.040   6.411
  788SOL     OW 3262   3.055   1.889   4.987
  788SOL    HW1 3263   3.031   1.985   5.001
  788SOL    HW2 3264   3.050   1.840   5.074
  789SOL     OW 3265   5.254   3.897   0.763
  789SOL    HW1 3266   5.178   3.835   0.743
  789SOL    HW2 3267   5.334   3.870   0.711
  790SOL     OW 3268   2.670   0.818   3.902
  790SOL    HW1 3269   2.710   0.836   3.812
  790SOL    HW2 3270   2.716   0.875   3.970
  791SOL     OW 3271   3.529   6.436   3.105
  791SOL    HW1 3272   3.475   6.514   3.135
  791SOL    HW2 3273   3.537   6.370   3.179
  792SOL     OW 3274   0.377   0.594   1.728
  792SOL    HW1 3275   0.424   0.675   1.764
  792SOL    HW2 3276   0.278   0.606   1.739
  793SOL     OW 3277   4.474   6.107   2.809
  793SOL    HW1 3278   4.394   6.090   2.750
  793SOL    HW2 3279   4.536   6.171   2.763
  794SOL     OW 3280   2.880   3.310   4.875
  794SOL    HW1 3281   2.792   3.263   4.882
  794SOL    HW2 3282   2.946   3.264   4.935
  795SOL     OW 3283   3.208   5.869   5.268
  795SOL    HW1 3284   3.235   5.906   5.179
  795SOL    HW2 3285   3.246   5.927   5.340
  796SOL     OW 3286   1.198   2.091   6.242
  796SOL    HW1 3287   1.225   2.170   6.187
  796SOL    HW2 3288   1.278   2.050   6.284
  797SOL     OW 3289   4.824   2.297   2.285
  797SOL    HW1 3290   4.741   2.308   2.231
  797SOL    HW2 3291   4.802   2.306   2.382
  798SOL     OW 3292   4.960   6.883   1.492
  798SOL    HW1 3293   4.946   6.922   1.582
  798SOL    HW2 3294   4.932   6.787   1.493
  799SOL     OW 3295   6.023   1.567   4.416
  799SOL    HW1 3296   6.100   1.611   4.462
  799SOL    HW2 3297   6.056   1.524   4.331
  800SOL     OW 3298   5.609   1.027   2.320
  800SOL    HW1 3299   5.663   1.103   2.355
  800SOL    HW2 3300   5.649   0.992   2.236
  801SOL     OW 3301   2.099   3.290   3.710
  801SOL    HW1 3302   2.033   3.254   3.645
  801SOL    HW2 3303   2.119   3.385   3.688
  802SOL     OW 3304   4.412   0.473   0.933
  802SOL    HW1 3305   4.327   0.456   0.981
  802SOL    HW2 3306   4.429   0.399   0.868
  803SOL     OW 3307   0.480   5.430   4.712
  803SOL    HW1 3308   0.390   5.407   4.674
  803SOL    HW2 3309   0.549   5.370   4.673
  804SOL     OW 3310   6.161   6.174   6.770
  804SOL    HW1 3311   6.142   6.187   6.673
  804SOL    HW2 3312   6.123   6.087   6.801
  805SOL     OW 3313   3.285   2.013   5.358
  805SOL    HW1 3314   3.227   2.088   5.389
  805SOL    HW2 3315   3.269   1.933   5.415
  806SOL     OW 3316   4.524   1.018   4.280
  806SOL    HW1 3317   4.521   0.926   4.240
  806SOL    HW2 3318   4.494   1.014   4.375
  807SOL     OW 3319   0.565   1.593   4.329
  807SOL    HW1 3320   0.511   1.672   4.301
  807SOL    HW2 3321   0.514   1.539   4.396
  808SOL     OW 3322   4.566   3.622   6.486
  808SOL    HW1 3323   4.575   3.533   6.441
  808SOL    HW2 3324   4.492   3.619   6.553
  809SOL     OW 3325   0.668   4.666   1.265
  809SOL    HW1 3326   0.655   4.567   1.254
  809SOL    HW2 3327   0.593   4.714   1.221
  810SOL     OW 3328   3.453   2.638   1.187
  810SOL    HW1 3329   3.533   2.579   1.196
  810SOL    HW2 3330   3.397   2.608   1.111
  811SOL     OW 3331   3.986   5.721   4.148
  811SOL    HW1 3332   4.032   5.810   4.152
  811SOL    HW2 3333   3.948   5.699   4.237
  812SOL     OW 3334   0.884   1.320   1.398
  812SOL    HW1 3335   0.980   1.340   1.416
  812SOL    HW2 3336   0.842   1.396   1.347
  813SOL     OW 3337   4.034   5.108   4.492
  813SOL    HW1 3338   4.033   5.165   4.410
  813SOL    HW2 3339   3.981   5.153   4.564
  814SOL     OW 3340   5.667   6.087   3.006
  814SOL    HW1 3341   5.719   6.172   3.018
  814SOL    HW2 3342   5.574   6.109   2.976
  815SOL     OW 3343   6.957   3.045   3.116
  815SOL    HW1 3344   6.942   3.144   3.115
  815SOL    HW2 3345   6.878   3.001   3.159
  816SOL     OW 3346   0.073   6.732   0.593
  816SOL    HW1 3347   0.150   6.766   0.646
  816SOL    HW2 3348   7.013   6.771   0.629
  817SOL     OW 3349   2.504   3.982   1.539
  817SOL    HW1 3350   2.411   3.961   1.509
  817SOL    HW2 3351   2.506   4.075   1.577
  818SOL     OW 3352   6.385   3.162   1.621
  818SOL    HW1 3353   6.445   3.218   1.678
  818SOL    HW2 3354   6.306   3.133   1.675
  819SOL     OW 3355   5.621   3.502   3.208
  819SOL    HW1 3356   5.630   3.516   3.307
  819SOL    HW2 3357   5.601   3.589   3.164
  820SOL     OW 3358   2.607   2.489   6.540
  820SOL    HW1 3359   2.641   2.579   6.512
  820SOL    HW2 3360   2.628   2.474   6.636
  821SOL     OW 3361   2.061   4.552   0.670
  821SOL    HW1 3362   2.144   4.540   0.724
  821SOL    HW2 3363   2.050   4.648   0.645
  822SOL     OW 3364   1.164   4.514   4.736
  822SOL    HW1 3365   1.106   4.594   4.719
  822SOL    HW2 3366   1.193   4.513   4.832
  823SOL     OW 3367   4.772   4.277   6.715
  823SOL    HW1 3368   4.822   4.308   6.796
  823SOL    HW2 3369   4.837   4.246   6.646
  824SOL     OW 3370   5.160   0.985   5.121
  824SOL    HW1 3371   5.231   0.936   5.171
  824SOL    HW2 3372   5.196   1.072   5.087
  825SOL     OW 3373   1.525   3.806   1.251
  825SOL    HW1 3374   1.515   3.723   1.196
  825SOL    HW2 3375   1.533   3.885   1.190
  826SOL     OW 3376   5.537   2.907   6.970
  826SOL    HW1 3377   5.616   2.881   6.914
  826SOL    HW2 3378   5.457   2.855   6.940
  827SOL     OW 3379   3.411   5.934   6.048
  827SOL    HW1 3380   3.374   5.855   6.000
  827SOL    HW2 3381   3.344   5.967   6.115
  828SOL     OW 3382   5.761   6.959   5.882
  828SOL    HW1 3383   5.714   6.895   5.821
  828SOL    HW2 3384   5.845   6.991   5.839
  829SOL     OW 3385   3.224   3.960   4.434
  829SOL    HW1 3386   3.187   3.960   4.527
  829SOL    HW2 3387   3.156   3.922   4.372
  830SOL     OW 3388   4.947   4.828   6.272
  830SOL    HW1 3389   5.045   4.824   6.252
  830SOL    HW2 3390   4.934   4.859   6.366
  831SOL     OW 3391   6.417   1.574   5.227
  831SOL    HW1 3392   6.434   1.673   5.230
  831SOL    HW2 3393   6.319   1.557   5.219
  832SOL     OW 3394   2.525   0.872   1.006
  832SOL    HW1 3395   2.582   0.953   1.023
  832SOL    HW2 3396   2.538   0.807   1.081
  833SOL     OW 3397   0.521   5.089   6.179
  833SOL    HW1 3398   0.554   5.165   6.124
  833SOL    HW2 3399   0.586   5.071   6.253
  834SOL     OW 3400   2.903   3.284   0.998
  834SOL    HW1 3401   2.878   3.380   0.985
  834SOL    HW2 3402   2.906   3.263   1.096
  835SOL     OW 3403   3.217   0.227   4.184
  835SOL    HW1 3404   3.229   0.169   4.265
  835SOL    HW2 3405   3.286   0.300   4.185
  836SOL     OW 3406   3.366   6.896   6.952
  836SOL    HW1 3407   3.380   6.855   6.862
  836SOL    HW2 3408   3.371   6.996   6.945
  837SOL     OW 3409   5.561   6.485   6.910
  837SOL    HW1 3410   5.545   6.425   6.831
  837SOL    HW2 3411   5.584   6.577   6.878
  838SOL     OW 3412   1.275   0.169   4.908
  838SOL    HW1 3413   1.273   0.163   4.808
  838SOL    HW2 3414   1.292   0.264   4.935
  839SOL     OW 3415   2.606   2.297   2.050
  839SOL    HW1 3416   2.584   2.331   1.958
  839SOL    HW2 3417   2.704   2.306   2.066
  840SOL     OW 3418   6.146   6.980   6.051
  840SOL    HW1 3419   6.189   6.893   6.025
  840SOL    HW2 3420   6.082   7.008   5.979
  841SOL     OW 3421   4.951   4.798   0.520
  841SOL    HW1 3422   4.938   4.862   0.596
  841SOL    HW2 3423   4.947   4.848   0.433
  842SOL     OW 3424   4.851   4.749   4.285
  842SOL    HW1 3425   4.907   4.795   4.353
  842SOL    HW2 3426   4.778   4.697   4.330
  843SOL     OW 3427   3.412   1.990   6.383
  843SOL    HW1 3428   3.449   1.923   6.318
  843SOL    HW2 3429   3.313   1.993   6.375
  844SOL     OW 3430   4.683   6.919   1.147
  844SOL    HW1 3431   4.745   6.947   1.074
  844SOL    HW2 3432   4.611   6.860   1.110
  845SOL     OW 3433   6.087   3.621   5.120
  845SOL    HW1 3434   6.086   3.613   5.020
  845SOL    HW2 3435   6.104   3.716   5.146
  846SOL     OW 3436   3.683   1.792   0.042
  846SOL    HW1 3437   3.644   1.853   0.111
  846SOL    HW2 3438   3.720   1.710   0.086
  847SOL     OW 3439   0.182   3.740   0.100
  847SOL    HW1 3440   0.253   3.688   0.053
  847SOL    HW2 3441   0.143   3.685   0.173
  848SOL     OW 3442   6.330   1.366   6.672
  848SOL    HW1 3443   6.300   1.303   6.744
  848SOL    HW2 3444   6.360   1.452   6.714
  849SOL     OW 3445   0.980   4.653   5.634
  849SOL    HW1 3446   0.967   4.601   5.718
  849SOL    HW2 3447   1.042   4.604   5.573
  850SOL     OW 3448   5.167   1.228   3.990
  850SOL    HW1 3449   5.119   1.142   4.005
  850SOL    HW2 3450   5.156   1.257   3.895
  851SOL     OW 3451   0.282   1.229   1.596
  851SOL    HW1 3452   0.231   1.219   1.682
  851SOL    HW2 3453   0.379   1.214   1.613
  852SOL     OW 3454   2.053   2.653   0.614
  852SOL    HW1 3455   2.024   2.562   0.640
  852SOL    HW2 3456   1.998   2.686   0.538
  853SOL     OW 3457   1.759   4.268   2.318
  853SOL    HW1 3458   1.723   4.183   2.357
  853SOL    HW2 3459   1.687   4.316   2.268
  854SOL     OW 3460   4.737   5.762   2.601
  854SOL    HW1 3461   4.792   5.841   2.572
  854SOL    HW2 3462   4.767   5.680   2.552
  855SOL     OW 3463   0.029   0.143   0.698
  855SOL    HW1 3464   0.098   0.207   0.733
  855SOL    HW2 3465   6.965   0.190   0.693
  856SOL     OW 3466   1.742   2.137   5.120
  856SOL    HW1 3467   1.660   2.100   5.164
  856SOL    HW2 3468   1.760   2.229   5.154
  857SOL     OW 3469   5.754   4.951   1.295
  857SOL    HW1 3470   5.715   4.895   1.368
  857SOL    HW2 3471   5.686   4.964   1.223
  858SOL     OW 3472   2.529   4.240   1.252
  858SOL    HW1 3473   2.469   4.229   1.331
  858SOL    HW2 3474   2.564   4.151   1.224
  859SOL     OW 3475   4.993   5.099   6.751
  859SOL    HW1 3476   5.012   5.067   6.844
  859SOL    HW2 3477   5.052   5.176   6.730
  860SOL     OW 3478   4.410   4.459   1.318
  860SOL    HW1 3479   4.320   4.424   1.346
  860SOL    HW2 3480   4.416   4.458   1.218
  861SOL     OW 3481   2.363   0.474   4.777
  861SOL    HW1 3482   2.429   0.544   4.804
  861SOL    HW2 3483   2.363   0.400   4.845
  862SOL     OW 3484   6.701   4.763   5.309
  862SOL    HW1 3485   6.786   4.790   5.355
  862SOL    HW2 3486   6.694   4.663   5.309
  863SOL     OW 3487   1.272   0.899   0.646
  863SOL    HW1 3488   1.259   0.896   0.547
  863SOL    HW2 3489   1.353   0.847   0.671
  864SOL     OW 3490   5.049   4.328   3.869
  864SOL    HW1 3491   5.122   4.362   3.928
  864SOL    HW2 3492   4.977   4.398   3.861
  865SOL     OW 3493   1.711   6.463   5.136
  865SOL    HW1 3494   1.631   6.522   5.144
  865SOL    HW2 3495   1.702   6.404   5.056
  866SOL     OW 3496   1.864   2.898   1.038
  866SOL    HW1 3497   1.800   2.878   1.112
  866SOL    HW2 3498   1.947   2.937   1.075
  867SOL     OW 3499   4.299   2.955   1.160
  867SOL    HW1 3500   4.388   2.911   1.151
  867SOL    HW2 3501   4.228   2.893   1.128
  868SOL     OW 3502   5.612   6.306   1.249
  868SOL    HW1 3503   5.705   6.324   1.282
  868SOL    HW2 3504   5.548   6.369   1.293
  869SOL     OW 3505   7.017   5.470   2.961
  869SOL    HW1 3506   0.006   5.498   2.866
  869SOL    HW2 3507   6.933   5.416   2.968
  870SOL     OW 3508   5.848   3.650   6.981
  870SOL    HW1 3509   5.768   3.591   6.972
  870SOL    HW2 3510   5.819   3.744   6.996
  871SOL     OW 3511   5.877   3.425   1.874
  871SOL    HW1 3512   5.830   3.361   1.934
  871SOL    HW2 3513   5.854   3.405   1.779
  872SOL     OW 3514   6.235   4.297   4.154
  872SOL    HW1 3515   6.255   4.242   4.236
  872SOL    HW2 3516   6.192   4.239   4.085
  873SOL     OW 3517   5.074   6.950   3.901
  873SOL    HW1 3518   5.041   0.006   3.950
  873SOL    HW2 3519   5.083   6.970   3.804
  874SOL     OW 3520   1.507   4.416   5.328
  874SOL    HW1 3521   1.510   4.516   5.333
  874SOL    HW2 3522   1.534   4.377   5.416
  875SOL     OW 3523   4.371   3.676   1.422
  875SOL    HW1 3524   4.390   3.702   1.516
  875SOL    HW2 3525   4.432   3.602   1.394
  876SOL     OW 3526   0.380   5.433   3.342
  876SOL    HW1 3527   0.297   5.444   3.397
  876SOL    HW2 3528   0.413   5.523   3.314
  877SOL     OW 3529   3.635   4.960   6.741
  877SOL    HW1 3530   3.729   4.937   6.717
  877SOL    HW2 3531   3.597   4.889   6.801
  878SOL     OW 3532   4.315   6.325   6.267
  878SOL    HW1 3533   4.303   6.395   6.197
  878SOL    HW2 3534   4.340   6.238   6.224
  879SOL     OW 3535   3.595   2.066   2.326
  879SOL    HW1 3536   3.650   2.116   2.259
  879SOL    HW2 3537   3.498   2.086   2.310
  880SOL     OW 3538   3.218   4.785   6.752
  880SOL    HW1 3539   3.151   4.712   6.745
  880SOL    HW2 3540   3.175   4.873   6.731
  881SOL     OW 3541   4.114   4.480   5.348
  881SOL    HW1 3542   4.168   4.467   5.265
  881SOL    HW2 3543   4.164   4.441   5.426
  882SOL     OW 3544   1.461   1.112   4.011
  882SOL    HW1 3545   1.527   1.132   4.083
  882SOL    HW2 3546   1.369   1.140   4.040
  883SOL     OW 3547   4.966   5.499   4.912
  883SOL    HW1 3548   4.902   5.438   4.865
  883SOL    HW2 3549   4.950   5.494   5.010
  884SOL     OW 3550   0.392   3.680   1.761
  884SOL    HW1 3551   0.350   3.678   1.670
  884SOL    HW2 3552   0.350   3.753   1.815
  885SOL     OW 3553   5.379   5.984   6.657
  885SOL    HW1 3554   5.350   6.058   6.717
  885SOL    HW2 3555   5.477   5.993   6.638
  886SOL     OW 3556   4.290   0.592   0.504
  886SOL    HW1 3557   4.250   0.639   0.583
  886SOL    HW2 3558   4.281   0.650   0.423
  887SOL     OW 3559   4.425   6.756   4.980
  887SOL    HW1 3560   4.365   6.829   5.012
  887SOL    HW2 3561   4.388   6.716   4.896
  888SOL     OW 3562   6.304   6.488   3.650
  888SOL    HW1 3563   6.269   6.552   3.719
  888SOL    HW2 3564   6.264   6.397   3.667
  889SOL     OW 3565   0.528   6.591   6.408
  889SOL    HW1 3566   0.479   6.630   6.330
  889SOL    HW2 3567   0.585   6.662   6.450
  890SOL     OW 3568   2.834   4.796   1.985
  890SOL    HW1 3569   2.846   4.706   1.943
  890SOL    HW2 3570   2.790   4.857   1.919
  891SOL     OW 3571   5.567   3.626   1.430
  891SOL    HW1 3572   5.549   3.592   1.522
  891SOL    HW2 3573   5.501   3.588   1.366
  892SOL     OW 3574   3.662   3.970   0.527
  892SOL    HW1 3575   3.605   3.982   0.445
  892SOL    HW2 3576   3.640   4.042   0.593
  893SOL     OW 3577   2.631   1.229   1.742
  893SOL    HW1 3578   2.713   1.254   1.690
  893SOL    HW2 3579   2.626   1.284   1.826
  894SOL     OW 3580   1.970   3.689   4.205
  894SOL    HW1 3581   1.922   3.606   4.234
  894SOL    HW2 3582   1.994   3.743   4.286
  895SOL     OW 3583   2.122   6.209   4.850
  895SOL    HW1 3584   2.062   6.194   4.928
  895SOL    HW2 3585   2.208   6.160   4.864
  896SOL     OW 3586   5.246   5.900   2.685
  896SOL    HW1 3587   5.223   5.804   2.701
  896SOL    HW2 3588   5.345   5.911   2.687
  897SOL     OW 3589   4.915   1.065   0.333
  897SOL    HW1 3590   4.818   1.078   0.353
  897SOL    HW2 3591   4.963   1.039   0.417
  898SOL     OW 3592   4.449   6.142   3.402
  898SOL    HW1 3593   4.430   6.127   3.499
  898SOL    HW2 3594   4.389   6.085   3.346
  899SOL     OW 3595   0.846   5.048   6.902
  899SOL    HW1 3596   0.887   5.051   6.993
  899SOL    HW2 3597   0.824   4.953   6.879
  900SOL     OW 3598   5.242   5.838   1.465
  900SOL    HW1 3599   5.309   5.768   1.489
  900SOL    HW2 3600   5.267   5.880   1.378
  901SOL     OW 3601   0.020   1.321   4.917
  901SOL    HW1 3602   0.096   1.285   4.864
  901SOL    HW2 3603   0.041   1.316   5.014
  902SOL     OW 3604   0.682   1.371   6.033
  902SOL    HW1 3605   0.709   1.409   6.121
  902SOL    HW2 3606   0.587   1.396   6.013
  903SOL     OW 3607   6.708   3.906   6.779
  903SOL    HW1 3608   6.677   3.820   6.819
  903SOL    HW2 3609   6.792   3.935   6.825
  904SOL     OW 3610   1.819   2.191   4.257
  904SOL    HW1 3611   1.786   2.199   4.351
  904SOL    HW2 3612   1.917   2.214   4.254
  905SOL     OW 3613   4.724   3.003   6.507
  905SOL    HW1 3614   4.810   3.053   6.519
  905SOL    HW2 3615   4.651   3.068   6.482
  906SOL     OW 3616   0.585   4.086   6.092
  906SOL    HW1 3617   0.562   4.014   6.158
  906SOL    HW2 3618   0.509   4.097   6.027
  907SOL     OW 3619   5.767   3.072   3.641
  907SOL    HW1 3620   5.858   3.032   3.642
  907SOL    HW2 3621   5.773   3.171   3.645
  908SOL     OW 3622   1.468   6.712   4.055
  908SOL    HW1 3623   1.406   6.744   3.984
  908SOL    HW2 3624   1.427   6.634   4.102
  909SOL     OW 3625   2.617   1.188   1.199
  909SOL    HW1 3626   2.570   1.121   1.255
  909SOL    HW2 3627   2.697   1.223   1.247
  910SOL     OW 3628   2.405   0.418   0.549
  910SOL    HW1 3629   2.336   0.406   0.620
  910SOL    HW2 3630   2.360   0.441   0.463
  911SOL     OW 3631   6.467   5.510   1.466
  911SOL    HW1 3632   6.433   5.556   1.384
  911SOL    HW2 3633   6.468   5.575   1.543
  912SOL     OW 3634   6.946   0.636   5.165
  912SOL    HW1 3635   6.954   0.629   5.265
  912SOL    HW2 3636   6.850   0.630   5.138
  913SOL     OW 3637   2.438   0.757   3.602
  913SOL    HW1 3638   2.480   0.847   3.591
  913SOL    HW2 3639   2.423   0.739   3.700
  914SOL     OW 3640   2.664   5.737   5.640
  914SOL    HW1 3641   2.654   5.778   5.731
  914SOL    HW2 3642   2.743   5.778   5.594
  915SOL     OW 3643   0.812   3.328   1.195
  915SOL    HW1 3644   0.806   3.388   1.275
  915SOL    HW2 3645   0.852   3.240   1.223
  916SOL     OW 3646   1.493   2.566   2.556
  916SOL    HW1 3647   1.541   2.478   2.558
  916SOL    HW2 3648   1.419   2.564   2.624
  917SOL     OW 3649   4.182   0.526   1.662
  917SOL    HW1 3650   4.144   0.583   1.589
  917SOL    HW2 3651   4.281   0.522   1.653
  918SOL     OW 3652   2.635   6.132   0.110
  918SOL    HW1 3653   2.675   6.103   0.023
  918SOL    HW2 3654   2.616   6.230   0.107
  919SOL     OW 3655   1.345   6.339   1.934
  919SOL    HW1 3656   1.434   6.301   1.905
  919SOL    HW2 3657   1.361   6.417   1.995
  920SOL     OW 3658   1.656   0.171   2.934
  920SOL    HW1 3659   1.649   0.259   2.888
  920SOL    HW2 3660   1.630   0.098   2.870
  921SOL     OW 3661   5.035   4.656   3.970
  921SOL    HW1 3662   5.130   4.652   3.939
  921SOL    HW2 3663   4.975   4.630   3.895
  922SOL     OW 3664   3.380   2.690   6.532
  922SOL    HW1 3665   3.461   2.749   6.533
  922SOL    HW2 3666   3.301   2.743   6.500
  923SOL     OW 3667   2.950   5.685   0.742
  923SOL    HW1 3668   3.002   5.722   0.665
  923SOL    HW2 3669   2.979   5.729   0.827
  924SOL     OW 3670   5.502   3.424   2.334
  924SOL    HW1 3671   5.412   3.398   2.299
  924SOL    HW2 3672   5.538   3.500   2.280
  925SOL     OW 3673   6.768   1.651   5.570
  925SOL    HW1 3674   6.735   1.585   5.502
  925SOL    HW2 3675   6.864   1.672   5.553
  926SOL     OW 3676   6.131   0.811   6.727
  926SOL    HW1 3677   6.130   0.713   6.711
  926SOL    HW2 3678   6.043   0.850   6.699
  927SOL     OW 3679   5.277   4.173   4.194
  927SOL    HW1 3680   5.231   4.124   4.119
  927SOL    HW2 3681   5.372   4.144   4.199
  928SOL     OW 3682   2.129   0.154   0.780
  928SOL    HW1 3683   2.036   0.160   0.742
  928SOL    HW2 3684   2.125   0.169   0.879
  929SOL     OW 3685   6.920   2.023   1.067
  929SOL    HW1 3686   6.952   2.116   1.088
  929SOL    HW2 3687   6.886   2.021   0.973
  930SOL     OW 3688   6.834   5.610   4.595
  930SOL    HW1 3689   6.819   5.512   4.610
  930SOL    HW2 3690   6.871   5.650   4.678
  931SOL     OW 3691   0.194   3.774   3.754
  931SOL    HW1 3692   0.136   3.845   3.793
  931SOL    HW2 3693   0.266   3.750   3.820
  932SOL     OW 3694   2.713   6.746   1.581
  932SOL    HW1 3695   2.645   6.774   1.649
  932SOL    HW2 3696   2.666   6.713   1.499
  933SOL     OW 3697   0.972   5.432   2.099
  933SOL    HW1 3698   0.908   5.431   2.175
  933SOL    HW2 3699   0.932   5.385   2.021
  934SOL     OW 3700   2.375   0.946   4.482
  934SOL    HW1 3701   2.430   0.881   4.430
  934SOL    HW2 3702   2.315   0.897   4.544
  935SOL     OW 3703   5.309   3.477   5.619
  935SOL    HW1 3704   5.256   3.517   5.693
  935SOL    HW2 3705   5.279   3.383   5.603
  936SOL     OW 3706   1.080   0.025   6.582
  936SOL    HW1 3707   0.986   7.016   6.576
  936SOL    HW2 3708   1.116   0.042   6.491
  937SOL     OW 3709   5.157   2.323   5.320
  937SOL    HW1 3710   5.097   2.386   5.272
  937SOL    HW2 3711   5.123   2.229   5.310
  938SOL     OW 3712   0.088   4.878   6.118
  938SOL    HW1 3713   0.073   4.977   6.113
  938SOL    HW2 3714   0.175   4.860   6.164
  939SOL     OW 3715   5.087   1.193   5.619
  939SOL    HW1 3716   5.095   1.268   5.553
  939SOL    HW2 3717   5.116   1.108   5.576
  940SOL     OW 3718   6.453   2.693   2.468
  940SOL    HW1 3719   6.407   2.605   2.485
  940SOL    HW2 3720   6.396   2.767   2.504
  941SOL     OW 3721   6.423   0.601   4.141
  941SOL    HW1 3722   6.397   0.632   4.050
  941SOL    HW2 3723   6.513   0.558   4.137
  942SOL     OW 3724   5.140   0.778   4.795
  942SOL    HW1 3725   5.089   0.862   4.812
  942SOL    HW2 3726   5.211   0.795   4.726
  943SOL     OW 3727   0.675   3.156   3.254
  943SOL    HW1 3728   0.632   3.099   3.184
  943SOL    HW2 3729   0.773   3.161   3.237
  944SOL     OW 3730   6.244   3.026   6.387
  944SOL    HW1 3731   6.177   3.021   6.461
  944SOL    HW2 3732   6.270   2.934   6.359
  945SOL     OW 3733   6.412   4.566   5.148
  945SOL    HW1 3734   6.374   4.640   5.204
  945SOL    HW2 3735   6.424   4.484   5.205
  946SOL     OW 3736   5.764   2.372   6.233
  946SOL    HW1 3737   5.683   2.315   6.224
  946SOL    HW2 3738   5.831   2.326   6.292
  947SOL     OW 3739   2.912   3.437   5.188
  947SOL    HW1 3740   2.901   3.405   5.094
  947SOL    HW2 3741   2.847   3.511   5.205
  948SOL     OW 3742   4.208   1.461   0.718
  948SOL    HW1 3743   4.260   1.407   0.652
  948SOL    HW2 3744   4.201   1.411   0.804
  949SOL     OW 3745   6.848   5.913   6.572
  949SOL    HW1 3746   6.879   5.840   6.632
  949SOL    HW2 3747   6.868   6.001   6.613
  950SOL     OW 3748   4.365   4.950   2.833
  950SOL    HW1 3749   4.281   5.005   2.830
  950SOL    HW2 3750   4.392   4.926   2.739
  951SOL     OW 3751   1.751   0.628   1.898
  951SOL    HW1 3752   1.747   0.723   1.929
  951SOL    HW2 3753   1.784   0.626   1.804
  952SOL     OW 3754   5.729   1.240   1.920
  952SOL    HW1 3755   5.675   1.270   1.999
  952SOL    HW2 3756   5.826   1.251   1.940
  953SOL     OW 3757   4.877   5.537   5.168
  953SOL    HW1 3758   4.918   5.486   5.244
  953SOL    HW2 3759   4.884   5.635   5.186
  954SOL     OW 3760   5.449   6.923   0.616
  954SOL    HW1 3761   5.371   6.976   0.584
  954SOL    HW2 3762   5.471   6.852   0.549
  955SOL     OW 3763   0.981   5.373   3.481
  955SOL    HW1 3764   1.018   5.306   3.545
  955SOL    HW2 3765   0.947   5.452   3.531
  956SOL     OW 3766   0.701   2.156   2.203
  956SOL    HW1 3767   0.679   2.161   2.106
  956SOL    HW2 3768   0.800   2.160   2.216
  957SOL     OW 3769   1.554   4.591   4.427
  957SOL    HW1 3770   1.641   4.546   4.446
  957SOL    HW2 3771   1.572   4.685   4.397
  958SOL     OW 3772   4.714   2.528   0.980
  958SOL    HW1 3773   4.758   2.460   0.922
  958SOL    HW2 3774   4.709   2.494   1.074
  959SOL     OW 3775   2.821   4.743   3.276
  959SOL    HW1 3776   2.752   4.723   3.208
  959SOL    HW2 3777   2.905   4.773   3.231
  960SOL     OW 3778   0.377   5.935   4.181
  960SOL    HW1 3779   0.419   5.859   4.131
  960SOL    HW2 3780   0.449   5.992   4.221
  961SOL     OW 3781   5.021   6.420   3.111
  961SOL    HW1 3782   4.968   6.355   3.057
  961SOL    HW2 3783   5.079   6.474   3.050
  962SOL     OW 3784   1.418   1.191   3.742
  962SOL    HW1 3785   1.437   1.167   3.837
  962SOL    HW2 3786   1.407   1.107   3.688
  963SOL     OW 3787   5.887   1.027   6.733
  963SOL    HW1 3788   5.891   1.090   6.655
  963SOL    HW2 3789   5.933   1.069   6.811
  964SOL     OW 3790   6.371   3.341   0.909
  964SOL    HW1 3791   6.370   3.417   0.973
  964SOL    HW2 3792   6.318   3.365   0.828
  965SOL     OW 3793   5.625   1.860   0.718
  965SOL    HW1 3794   5.545   1.805   0.692
  965SOL    HW2 3795   5.688   1.805   0.772
  966SOL     OW 3796   6.092   1.726   2.261
  966SOL    HW1 3797   6.169   1.770   2.307
  966SOL    HW2 3798   6.107   1.725   2.162
  967SOL     OW 3799   1.620   5.346   0.917
  967SOL    HW1 3800   1.599   5.441   0.891
  967SOL    HW2 3801   1.536   5.301   0.947
  968SOL     OW 3802   4.660   2.646   2.150
  968SOL    HW1 3803   4.648   2.729   2.204
  968SOL    HW2 3804   4.649   2.667   2.053
  969SOL     OW 3805   4.059   5.827   6.064
  969SOL    HW1 3806   4.055   5.863   6.158
  969SOL    HW2 3807   4.135   5.870   6.015
  970SOL     OW 3808   4.753   1.281   5.004
  970SOL    HW1 3809   4.830   1.219   4.991
  970SOL    HW2 3810   4.721   1.314   4.915
  971SOL     OW 3811   0.397   1.523   2.918
  971SOL    HW1 3812   0.427   1.429   2.929
  971SOL    HW2 3813   0.312   1.526   2.866
  972SOL     OW 3814   5.708   3.524   1.142
  972SOL    HW1 3815   5.732   3.600   1.203
  972SOL    HW2 3816   5.703   3.439   1.194
  973SOL     OW 3817   0.339   4.868   6.198
  973SOL    HW1 3818   0.402   4.946   6.195
  973SOL    HW2 3819   0.385   4.789   6.239
  974SOL     OW 3820   4.369   0.641   2.075
  974SOL    HW1 3821   4.448   0.608   2.024
  974SOL    HW2 3822   4.293   0.657   2.012
  975SOL     OW 3823   1.582   5.596   6.790
  975SOL    HW1 3824   1.502   5.624   6.843
  975SOL    HW2 3825   1.563   5.510   6.743
  976SOL     OW 3826   6.251   3.040   2.978
  976SOL    HW1 3827   6.327   3.076   2.923
  976SOL    HW2 3828   6.173   3.020   2.919
  977SOL     OW 3829   2.433   1.434   3.800
  977SOL    HW1 3830   2.451   1.520   3.847
  977SOL    HW2 3831   2.499   1.365   3.831
  978SOL     OW 3832   5.063   3.982   5.251
  978SOL    HW1 3833   5.102   3.995   5.160
  978SOL    HW2 3834   4.993   3.911   5.247
  979SOL     OW 3835   6.646   1.769   2.835
  979SOL    HW1 3836   6.703   1.744   2.913
  979SOL    HW2 3837   6.660   1.865   2.813
  980SOL     OW 3838   4.940   1.845   3.467
  980SOL    HW1 3839   4.981   1.754   3.477
  980SOL    HW2 3840   4.848   1.836   3.428
  981SOL     OW 3841   1.604   1.475   4.980
  981SOL    HW1 3842   1.590   1.573   4.987
  981SOL    HW2 3843   1.613   1.448   4.884
  982SOL     OW 3844   2.335   2.449   3.898
  982SOL    HW1 3845   2.271   2.466   3.973
  982SOL    HW2 3846   2.350   2.533   3.847
  983SOL     OW 3847   6.083   2.582   3.390
  983SOL    HW1 3848   6.035   2.499   3.365
  983SOL    HW2 3849   6.167   2.558   3.440
  984SOL     OW 3850   3.783   0.789   4.518
  984SOL    HW1 3851   3.859   0.736   4.480
  984SOL    HW2 3852   3.817   0.852   4.588
  985SOL     OW 3853   5.229   4.882   6.238
  985SOL    HW1 3854   5.261   4.961   6.290
  985SOL    HW2 3855   5.308   4.833   6.200
  986SOL     OW 3856   5.562   5.537   0.040
  986SOL    HW1 3857   5.539   5.542   6.968
  986SOL    HW2 3858   5.547   5.444   0.073
  987SOL     OW 3859   4.213   6.178   1.188
  987SOL    HW1 3860   4.309   6.169   1.211
  987SOL    HW2 3861   4.202   6.174   1.089
  988SOL     OW 3862   3.890   2.696   1.728
  988SOL    HW1 3863   3.821   2.714   1.658
  988SOL    HW2 3864   3.884   2.601   1.759
  989SOL     OW 3865   0.134   0.881   5.431
  989SOL    HW1 3866   0.059   0.816   5.446
  989SOL    HW2 3867   0.161   0.920   5.519
  990SOL     OW 3868   4.729   0.276   3.103
  990SOL    HW1 3869   4.631   0.268   3.088
  990SOL    HW2 3870   4.766   0.350   3.047
  991SOL     OW 3871   2.096   2.448   5.116
  991SOL    HW1 3872   2.182   2.499   5.122
  991SOL    HW2 3873   2.049   2.474   5.032
  992SOL     OW 3874   0.929   3.878   1.199
  992SOL    HW1 3875   0.983   3.910   1.277
  992SOL    HW2 3876   0.972   3.908   1.114
  993SOL     OW 3877   2.064   5.688   2.522
  993SOL    HW1 3878   2.056   5.648   2.430
  993SOL    HW2 3879   2.003   5.640   2.584
  994SOL     OW 3880   3.619   3.739   2.591
  994SOL    HW1 3881   3.689   3.675   2.623
  994SOL    HW2 3882   3.630   3.753   2.492
  995SOL     OW 3883   2.790   1.903   6.284
  995SOL    HW1 3884   2.849   1.838   6.236
  995SOL    HW2 3885   2.769   1.979   6.222
  996SOL     OW 3886   1.661   3.998   4.038
  996SOL    HW1 3887   1.759   3.989   4.021
  996SOL    HW2 3888   1.631   3.924   4.099
  997SOL     OW 3889   6.717   0.646   1.370
  997SOL    HW1 3890   6.642   0.691   1.320
  997SOL    HW2 3891   6.713   0.548   1.353
  998SOL     OW 3892   4.798   6.500   3.933
  998SOL    HW1 3893   4.878   6.560   3.926
  998SOL    HW2 3894   4.760   6.505   4.025
  999SOL     OW 3895   5.554   4.905   1.099
  999SOL    HW1 3896   5.500   4.846   1.158
  999SOL    HW2 3897   5.509   4.993   1.088
 1000SOL     OW 3898   1.211   1.005   2.413
 1000SOL    HW1 3899   1.266   1.085   2.437
 1000SOL    HW2 3900   1.157   1.024   2.332
 1001SOL     OW 3901   6.124   6.746   0.070
 1001SOL    HW1 3902   6.032   6.748   0.031
 1001SOL    HW2 3903   6.135   6.823   0.133
 1002SOL     OW 3904   6.098   1.886   6.595
 1002SOL    HW1 3905   6.059   1.977   6.581
 1002SOL    HW2 3906   6.195   1.894   6.619
 1003SOL     OW 3907   2.286   6.609   2.135
 1003SOL    HW1 3908   2.290   6.523   2.083
 1003SOL    HW2 3909   2.380   6.640   2.154
 1004SOL     OW 3910   6.789   0.493   1.112
 1004SOL    HW1 3911   6.838   0.453   1.035
 1004SOL    HW2 3912   6.718   0.555   1.077
 1005SOL     OW 3913   0.255   1.255   3.114
 1005SOL    HW1 3914   0.312   1.202   3.052
 1005SOL    HW2 3915   0.312   1.301   3.182
 1006SOL     OW 3916   1.792   5.897   1.732
 1006SOL    HW1 3917   1.826   5.864   1.644
 1006SOL    HW2 3918   1.697   5.867   1.743
 1007SOL     OW 3919   6.207   0.462   4.185
 1007SOL    HW1 3920   6.182   0.409   4.105
 1007SOL    HW2 3921   6.283   0.523   4.162
 1008SOL     OW 3922   1.951   3.134   4.673
 1008SOL    HW1 3923   1.909   3.049   4.705
 1008SOL    HW2 3924   2.028   3.158   4.731
 1009SOL     OW 3925   0.291   6.421   4.019
 1009SOL    HW1 3926   0.331   6.329   4.017
 1009SOL    HW2 3927   0.358   6.488   3.986
 1010SOL     OW 3928   3.578   2.317   6.187
 1010SOL    HW1 3929   3.675   2.304   6.205
 1010SOL    HW2 3930   3.535   2.365   6.264
 1011SOL     OW 3931   3.060   5.175   2.521
 1011SOL    HW1 3932   3.056   5.075   2.515
 1011SOL    HW2 3933   3.038   5.215   2.432
 1012SOL     OW 3934   6.880   6.119   0.333
 1012SOL    HW1 3935   6.924   6.192   0.385
 1012SOL    HW2 3936   6.857   6.152   0.242
 1013SOL     OW 3937   0.275   0.918   6.313
 1013SOL    HW1 3938   0.204   0.984   6.336
 1013SOL    HW2 3939   0.245   0.826   6.339
 1014SOL     OW 3940   5.126   5.305   6.981
 1014SOL    HW1 3941   5.092   5.380   6.924
 1014SOL    HW2 3942   5.221   5.286   6.958
 1015SOL     OW 3943   1.991   6.799   5.209
 1015SOL    HW1 3944   2.008   6.761   5.118
 1015SOL    HW2 3945   1.941   6.885   5.201
 1016SOL     OW 3946   2.567   3.630   0.661
 1016SOL    HW1 3947   2.480   3.659   0.700
 1016SOL    HW2 3948   2.600   3.700   0.598
 1017SOL     OW 3949   4.371   2.603   0.822
 1017SOL    HW1 3950   4.428   2.685   0.828
 1017SOL    HW2 3951   4.375   2.567   0.730
 1018SOL     OW 3952   1.755   3.286   3.673
 1018SOL    HW1 3953   1.738   3.355   3.743
 1018SOL    HW2 3954   1.821   3.321   3.607
 1019SOL     OW 3955   1.621   0.916   0.560
 1019SOL    HW1 3956   1.672   0.876   0.636
 1019SOL    HW2 3957   1.678   0.984   0.513
 1020SOL     OW 3958   1.192   0.038   1.240
 1020SOL    HW1 3959   1.117   0.079   1.293
 1020SOL    HW2 3960   1.263   0.005   1.302
 1021SOL     OW 3961   6.005   0.702   1.110
 1021SOL    HW1 3962   6.004   0.801   1.097
 1021SOL    HW2 3963   6.045   0.658   1.030
 1022SOL     OW 3964   3.753   4.359   6.100
 1022SOL    HW1 3965   3.699   4.293   6.047
 1022SOL    HW2 3966   3.691   4.417   6.152
 1023SOL     OW 3967   6.271   0.200   1.650
 1023SOL    HW1 3968   6.273   0.245   1.561
 1023SOL    HW2 3969   6.191   0.141   1.656
 1024SOL     OW 3970   6.150   3.187   4.012
 1024SOL    HW1 3971   6.170   3.094   3.980
 1024SOL    HW2 3972   6.098   3.182   4.098
 1025SOL     OW 3973   3.474   4.340   0.703
 1025SOL    HW1 3974   3.551   4.300   0.752
 1025SOL    HW2 3975   3.507   4.394   0.626
 1026SOL     OW 3976   1.580   2.082   1.292
 1026SOL    HW1 3977   1.557   2.177   1.271
 1026SOL    HW2 3978   1.601   2.074   1.389
 1027SOL     OW 3979   2.637   6.294   1.137
 1027SOL    HW1 3980   2.542   6.302   1.105
 1027SOL    HW2 3981   2.667   6.199   1.129
 1028SOL     OW 3982   4.135   5.866   0.379
 1028SOL    HW1 3983   4.091   5.776   0.389
 1028SOL    HW2 3984   4.084   5.920   0.311
 1029SOL     OW 3985   1.971   0.306   0.411
 1029SOL    HW1 3986   2.037   0.239   0.378
 1029SOL    HW2 3987   1.936   0.276   0.500
 1030SOL     OW 3988   4.002   2.948   1.777
 1030SOL    HW1 3989   3.978   2.852   1.761
 1030SOL    HW2 3990   4.022   2.991   1.689
 1031SOL     OW 3991   4.927   5.270   0.388
 1031SOL    HW1 3992   4.847   5.211   0.381
 1031SOL    HW2 3993   4.946   5.290   0.484
 1032SOL     OW 3994   1.816   1.918   4.525
 1032SOL    HW1 3995   1.825   2.018   4.528
 1032SOL    HW2 3996   1.862   1.878   4.603
 1033SOL     OW 3997   1.797   6.697   1.424
 1033SOL    HW1 3998   1.791   6.784   1.473
 1033SOL    HW2 3999   1.892   6.666   1.421
 1034SOL     OW 4000   1.317   5.769   4.991
 1034SOL    HW1 4001   1.264   5.816   4.921
 1034SOL    HW2 4002   1.315   5.822   5.076
 1035SOL     OW 4003   2.583   1.733   3.576
 1035SOL    HW1 4004   2.540   1.778   3.654
 1035SOL    HW2 4005   2.680   1.720   3.595
 1036SOL     OW 4006   3.429   0.282   1.202
 1036SOL    HW1 4007   3.385   0.360   1.245
 1036SOL    HW2 4008   3.441   0.209   1.269
 1037SOL     OW 4009   2.047   0.930   1.865
 1037SOL    HW1 4010   2.097   1.016   1.881
 1037SOL    HW2 4011   2.076   0.862   1.931
 1038SOL     OW 4012   1.155   0.649   5.686
 1038SOL    HW1 4013   1.122   0.602   5.768
 1038SOL    HW2 4014   1.123   0.744   5.688
 1039SOL     OW 4015   4.222   3.067   5.785
 1039SOL    HW1 4016   4.174   3.119   5.855
 1039SOL    HW2 4017   4.155   3.022   5.726
 1040SOL     OW 4018   5.153   2.837   2.344
 1040SOL    HW1 4019   5.251   2.847   2.361
 1040SOL    HW2 4020   5.136   2.839   2.246
 1041SOL     OW 4021   6.490   7.024   4.062
 1041SOL    HW1 4022   6.524   6.931   4.076
 1041SOL    HW2 4023   6.514   0.030   3.970
 1042SOL     OW 4024   3.464   4.929   2.157
 1042SOL    HW1 4025   3.516   4.909   2.240
 1042SOL    HW2 4026   3.373   4.960   2.182
 1043SOL     OW 4027   4.488   1.154   5.601
 1043SOL    HW1 4028   4.557   1.222   5.576
 1043SOL    HW2 4029   4.524   1.062   5.581
 1044SOL     OW 4030   4.685   3.943   1.729
 1044SOL    HW1 4031   4.699   3.846   1.750
 1044SOL    HW2 4032   4.590   3.958   1.702
 1045SOL     OW 4033   2.620   6.558   1.868
 1045SOL    HW1 4034   2.607   6.534   1.964
 1045SOL    HW2 4035   2.688   6.498   1.827
 1046SOL     OW 4036   1.914   0.135   0.017
 1046SOL    HW1 4037   1.876   0.167   6.955
 1046SOL    HW2 4038   1.841   0.123   0.084
 1047SOL     OW 4039   1.243   6.102   2.812
 1047SOL    HW1 4040   1.215   6.017   2.858
 1047SOL    HW2 4041   1.302   6.079   2.734
 1048SOL     OW 4042   4.564   5.760   5.477
 1048SOL    HW1 4043   4.500   5.694   5.516
 1048SOL    HW2 4044   4.596   5.726   5.388
 1049SOL     OW 4045   6.747   4.851   4.487
 1049SOL    HW1 4046   6.831   4.863   4.540
 1049SOL    HW2 4047   6.676   4.813   4.546
 1050SOL     OW 4048   3.131   5.410   1.140
 1050SOL    HW1 4049   3.106   5.506   1.149
 1050SOL    HW2 4050   3.219   5.403   1.093
 1051SOL     OW 4051   3.154   5.187   0.485
 1051SOL    HW1 4052   3.133   5.109   0.426
 1051SOL    HW2 4053   3.189   5.262   0.429
 1052SOL     OW 4054   4.225   6.997   3.778
 1052SOL    HW1 4055   4.258   6.984   3.871
 1052SOL    HW2 4056   4.247   6.916   3.723
 1053SOL     OW 4057   5.342   5.629   3.003
 1053SOL    HW1 4058   5.393   5.545   3.023
 1053SOL    HW2 4059   5.399   5.708   3.027
 1054SOL     OW 4060   3.302   4.807   5.703
 1054SOL    HW1 4061   3.356   4.739   5.753
 1054SOL    HW2 4062   3.237   4.760   5.643
 1055SOL     OW 4063   5.770   0.042   4.313
 1055SOL    HW1 4064   5.857   0.091   4.312
 1055SOL    HW2 4065   5.783   6.975   4.350
 1056SOL     OW 4066   1.914   6.046   5.737
 1056SOL    HW1 4067   1.890   5.950   5.721
 1056SOL    HW2 4068   1.950   6.086   5.653
 1057SOL     OW 4069   3.085   3.458   2.519
 1057SOL    HW1 4070   3.074   3.388   2.448
 1057SOL    HW2 4071   3.024   3.535   2.499
 1058SOL     OW 4072   5.137   1.495   2.154
 1058SOL    HW1 4073   5.085   1.409   2.152
 1058SOL    HW2 4074   5.141   1.534   2.062
 1059SOL     OW 4075   2.508   0.707   1.240
 1059SOL    HW1 4076   2.484   0.636   1.175
 1059SOL    HW2 4077   2.571   0.669   1.309
 1060SOL     OW 4078   0.391   2.874   4.585
 1060SOL    HW1 4079   0.295   2.861   4.610
 1060SOL    HW2 4080   0.398   2.946   4.516
 1061SOL     OW 4081   4.767   3.763   1.414
 1061SOL    HW1 4082   4.758   3.842   1.475
 1061SOL    HW2 4083   4.743   3.679   1.463
 1062SOL     OW 4084   6.417   5.059   6.346
 1062SOL    HW1 4085   6.345   5.088   6.409
 1062SOL    HW2 4086   6.380   5.057   6.253
 1063SOL     OW 4087   1.063   4.315   1.399
 1063SOL    HW1 4088   1.136   4.381   1.381
 1063SOL    HW2 4089   1.061   4.294   1.497
 1064SOL     OW 4090   0.894   4.262   1.898
 1064SOL    HW1 4091   0.869   4.186   1.837
 1064SOL    HW2 4092   0.987   4.248   1.933
 1065SOL     OW 4093   4.747   0.442   4.344
 1065SOL    HW1 4094   4.805   0.466   4.421
 1065SOL    HW2 4095   4.800   0.390   4.277
 1066SOL     OW 4096   5.445   1.087   3.967
 1066SOL    HW1 4097   5.485   1.076   4.058
 1066SOL    HW2 4098   5.365   1.147   3.973
 1067SOL     OW 4099   1.463   2.817   0.551
 1067SOL    HW1 4100   1.518   2.870   0.616
 1067SOL    HW2 4101   1.502   2.726   0.542
 1068SOL     OW 4102   5.629   4.287   1.966
 1068SOL    HW1 4103   5.670   4.231   1.893
 1068SOL    HW2 4104   5.536   4.313   1.940
 1069SOL     OW 4105   4.721   4.977   1.232
 1069SOL    HW1 4106   4.674   5.027   1.305
 1069SOL    HW2 4107   4.741   4.884   1.264
 1070SOL     OW 4108   1.339   1.203   0.323
 1070SOL    HW1 4109   1.434   1.230   0.311
 1070SOL    HW2 4110   1.320   1.190   0.420
 1071SOL     OW 4111   3.788   0.221   3.050
 1071SOL    HW1 4112   3.887   0.220   3.036
 1071SOL    HW2 4113   3.758   0.130   3.077
 1072SOL     OW 4114   1.552   5.899   1.512
 1072SOL    HW1 4115   1.553   5.885   1.413
 1072SOL    HW2 4116   1.457   5.904   1.544
 1073SOL     OW 4117   3.564   6.075   2.691
 1073SOL    HW1 4118   3.638   6.121   2.642
 1073SOL    HW2 4119   3.476   6.102   2.650
 1074SOL     OW 4120   1.969   5.227   1.582
 1074SOL    HW1 4121   1.954   5.318   1.622
 1074SOL    HW2 4122   1.880   5.184   1.564
 1075SOL     OW 4123   4.757   6.017   3.363
 1075SOL    HW1 4124   4.701   6.097   3.339
 1075SOL    HW2 4125   4.726   5.980   3.450
 1076SOL     OW 4126   0.688   4.396   4.984
 1076SOL    HW1 4127   0.618   4.332   5.015
 1076SOL    HW2 4128   0.756   4.347   4.930
 1077SOL     OW 4129   6.295   6.747   0.390
 1077SOL    HW1 4130   6.358   6.777   0.461
 1077SOL    HW2 4131   6.346   6.698   0.319
 1078SOL     OW 4132   2.022   0.805   2.465
 1078SOL    HW1 4133   1.950   0.808   2.535
 1078SOL    HW2 4134   2.065   0.715   2.465
 1079SOL     OW 4135   2.185   5.494   2.879
 1079SOL    HW1 4136   2.199   5.566   2.812
 1079SOL    HW2 4137   2.148   5.413   2.833
 1080SOL     OW 4138   2.056   4.329   3.572
 1080SOL    HW1 4139   2.031   4.379   3.489
 1080SOL    HW2 4140   2.146   4.360   3.603
 1081SOL     OW 4141   0.057   0.321   5.151
 1081SOL    HW1 4142   0.050   0.417   5.124
 1081SOL    HW2 4143   0.057   0.315   5.251
 1082SOL     OW 4144   2.322   0.249   5.769
 1082SOL    HW1 4145   2.255   0.298   5.714
 1082SOL    HW2 4146   2.292   0.155   5.783
 1083SOL     OW 4147   3.824   3.810   1.234
 1083SOL    HW1 4148   3.810   3.837   1.329
 1083SOL    HW2 4149   3.737   3.780   1.194
 1084SOL     OW 4150   6.435   5.977   1.108
 1084SOL    HW1 4151   6.410   5.901   1.168
 1084SOL    HW2 4152   6.515   6.024   1.146
 1085SOL     OW 4153   2.160   4.699   3.502
 1085SOL    HW1 4154   2.227   4.672   3.571
 1085SOL    HW2 4155   2.186   4.788   3.463
 1086SOL     OW 4156   6.881   5.671   3.133
 1086SOL    HW1 4157   6.904   5.607   3.059
 1086SOL    HW2 4158   6.956   5.674   3.199
 1087SOL     OW 4159   5.361   2.446   5.693
 1087SOL    HW1 4160   5.390   2.523   5.749
 1087SOL    HW2 4161   5.310   2.479   5.613
 1088SOL     OW 4162   6.062   4.742   3.482
 1088SOL    HW1 4163   6.130   4.812   3.504
 1088SOL    HW2 4164   5.970   4.778   3.499
 1089SOL     OW 4165   1.176   6.957   4.686
 1089SOL    HW1 4166   1.167   6.938   4.784
 1089SOL    HW2 4167   1.086   6.977   4.647
 1090SOL     OW 4168   2.739   1.468   3.724
 1090SOL    HW1 4169   2.752   1.540   3.655
 1090SOL    HW2 4170   2.689   1.392   3.684
 1091SOL     OW 4171   1.804   2.752   4.521
 1091SOL    HW1 4172   1.896   2.719   4.503
 1091SOL    HW2 4173   1.804   2.807   4.604
 1092SOL     OW 4174   2.615   3.743   1.251
 1092SOL    HW1 4175   2.686   3.704   1.310
 1092SOL    HW2 4176   2.624   3.843   1.251
 1093SOL     OW 4177   2.079   2.185   2.901
 1093SOL    HW1 4178   2.060   2.205   2.805
 1093SOL    HW2 4179   2.116   2.267   2.945
 1094SOL     OW 4180   0.904   6.893   2.603
 1094SOL    HW1 4181   0.995   6.908   2.642
 1094SOL    HW2 4182   0.862   6.814   2.648
 1095SOL     OW 4183   6.653   2.049   5.827
 1095SOL    HW1 4184   6.693   2.138   5.808
 1095SOL    HW2 4185   6.564   2.042   5.782
 1096SOL     OW 4186   3.643   4.906   1.716
 1096SOL    HW1 4187   3.638   4.850   1.798
 1096SOL    HW2 4188   3.689   4.856   1.643
 1097SOL     OW 4189   0.805   4.731   4.388
 1097SOL    HW1 4190   0.727   4.781   4.425
 1097SOL    HW2 4191   0.794   4.633   4.405
 1098SOL     OW 4192   5.574   2.737   0.550
 1098SOL    HW1 4193   5.534   2.649   0.526
 1098SOL    HW2 4194   5.576   2.747   0.649
 1099SOL     OW 4195   4.275   1.006   4.718
 1099SOL    HW1 4196   4.188   1.054   4.710
 1099SOL    HW2 4197   4.334   1.030   4.641
 1100SOL     OW 4198   1.985   1.914   6.502
 1100SOL    HW1 4199   2.065   1.931   6.445
 1100SOL    HW2 4200   2.011   1.860   6.582
 1101SOL     OW 4201   5.523   2.769   0.818
 1101SOL    HW1 4202   5.432   2.735   0.844
 1101SOL    HW2 4203   5.528   2.867   0.836
 1102SOL     OW 4204   2.207   4.897   2.900
 1102SOL    HW1 4205   2.206   4.990   2.938
 1102SOL    HW2 4206   2.114   4.871   2.873
 1103SOL     OW 4207   3.007   1.103   1.219
 1103SOL    HW1 4208   3.042   1.069   1.132
 1103SOL    HW2 4209   2.981   1.025   1.277
 1104SOL     OW 4210   1.715   3.557   6.649
 1104SOL    HW1 4211   1.744   3.652   6.652
 1104SOL    HW2 4212   1.684   3.534   6.557
 1105SOL     OW 4213   4.876   3.641   5.762
 1105SOL    HW1 4214   4.841   3.600   5.846
 1105SOL    HW2 4215   4.799   3.669   5.705
 1106SOL     OW 4216   1.112   1.738   0.445
 1106SOL    HW1 4217   1.046   1.727   0.519
 1106SOL    HW2 4218   1.095   1.668   0.375
 1107SOL     OW 4219   0.654   0.488   6.731
 1107SOL    HW1 4220   0.687   0.493   6.636
 1107SOL    HW2 4221   0.731   0.467   6.791
 1108SOL     OW 4222   2.837   0.384   6.160
 1108SOL    HW1 4223   2.906   0.442   6.203
 1108SOL    HW2 4224   2.820   0.305   6.219
 1109SOL     OW 4225   4.389   5.524   4.708
 1109SOL    HW1 4226   4.399   5.460   4.785
 1109SOL    HW2 4227   4.473   5.577   4.698
 1110SOL     OW 4228   2.855   1.923   2.308
 1110SOL    HW1 4229   2.784   1.977   2.353
 1110SOL    HW2 4230   2.861   1.949   2.211
 1111SOL     OW 4231   5.749   6.069   0.202
 1111SOL    HW1 4232   5.700   6.013   0.269
 1111SOL    HW2 4233   5.847   6.065   0.222
 1112SOL     OW 4234   6.142   0.812   3.194
 1112SOL    HW1 4235   6.068   0.746   3.194
 1112SOL    HW2 4236   6.229   0.765   3.177
 1113SOL     OW 4237   6.114   3.241   2.537
 1113SOL    HW1 4238   6.091   3.306   2.610
 1113SOL    HW2 4239   6.036   3.231   2.476
 1114SOL     OW 4240   4.452   0.675   6.316
 1114SOL    HW1 4241   4.508   0.594   6.303
 1114SOL    HW2 4242   4.362   0.649   6.351
 1115SOL     OW 4243   4.070   3.431   6.804
 1115SOL    HW1 4244   4.087   3.524   6.835
 1115SOL    HW2 4245   3.983   3.427   6.754
 1116SOL     OW 4246   5.660   5.539   4.440
 1116SOL    HW1 4247   5.678   5.456   4.388
 1116SOL    HW2 4248   5.595   5.597   4.390
 1117SOL     OW 4249   2.532   2.488   1.182
 1117SOL    HW1 4250   2.585   2.447   1.108
 1117SOL    HW2 4251   2.463   2.423   1.215
 1118SOL     OW 4252   1.887   4.984   1.998
 1118SOL    HW1 4253   1.912   4.978   1.901
 1118SOL    HW2 4254   1.969   4.973   2.054
 1119SOL     OW 4255   3.848   4.236   1.141
 1119SOL    HW1 4256   3.934   4.283   1.119
 1119SOL    HW2 4257   3.820   4.259   1.234
 1120SOL     OW 4258   5.526   6.016   5.439
 1120SOL    HW1 4259   5.602   6.054   5.385
 1120SOL    HW2 4260   5.559   5.990   5.530
 1121SOL     OW 4261   5.068   4.200   2.458
 1121SOL    HW1 4262   4.974   4.220   2.428
 1121SOL    HW2 4263   5.104   4.280   2.507
 1122SOL     OW 4264   5.278   3.237   6.297
 1122SOL    HW1 4265   5.321   3.148   6.306
 1122SOL    HW2 4266   5.282   3.285   6.384
 1123SOL     OW 4267   4.736   1.546   2.421
 1123SOL    HW1 4268   4.765   1.500   2.337
 1123SOL    HW2 4269   4.808   1.609   2.451
 1124SOL     OW 4270   6.630   4.094   5.055
 1124SOL    HW1 4271   6.722   4.073   5.088
 1124SOL    HW2 4272   6.569   4.019   5.078
 1125SOL     OW 4273   2.051   1.454   4.726
 1125SOL    HW1 4274   2.079   1.550   4.739
 1125SOL    HW2 4275   2.132   1.398   4.711
 1126SOL     OW 4276   5.507   6.997   0.238
 1126SOL    HW1 4277   5.439   6.978   0.309
 1126SOL    HW2 4278   5.543   0.065   0.249
 1127SOL     OW 4279   4.229   5.372   5.542
 1127SOL    HW1 4280   4.250   5.305   5.614
 1127SOL    HW2 4281   4.217   5.324   5.455
 1128SOL     OW 4282   4.676   2.476   5.250
 1128SOL    HW1 4283   4.628   2.555   5.212
 1128SOL    HW2 4284   4.691   2.490   5.347
 1129SOL     OW 4285   3.982   6.950   0.489
 1129SOL    HW1 4286   3.941   6.958   0.399
 1129SOL    HW2 4287   4.028   6.861   0.498
 1130SOL     OW 4288   2.011   3.637   1.011
 1130SOL    HW1 4289   1.912   3.622   1.017
 1130SOL    HW2 4290   2.042   3.611   0.920
 1131SOL     OW 4291   0.734   6.335   6.091
 1131SOL    HW1 4292   0.680   6.371   6.015
 1131SOL    HW2 4293   0.829   6.362   6.081
 1132SOL     OW 4294   4.627   0.479   6.696
 1132SOL    HW1 4295   4.674   0.400   6.734
 1132SOL    HW2 4296   4.692   0.554   6.683
 1133SOL     OW 4297   6.553   1.763   0.682
 1133SOL    HW1 4298   6.537   1.765   0.583
 1133SOL    HW2 4299   6.586   1.853   0.711
 1134SOL     OW 4300   5.402   1.707   0.666
 1134SOL    HW1 4301   5.412   1.635   0.735
 1134SOL    HW2 4302   5.308   1.740   0.666
 1135SOL     OW 4303   2.901   1.476   2.782
 1135SOL    HW1 4304   2.972   1.535   2.743
 1135SOL    HW2 4305   2.835   1.452   2.711
 1136SOL     OW 4306   3.350   5.031   5.157
 1136SOL    HW1 4307   3.428   5.031   5.220
 1136SOL    HW2 4308   3.283   5.099   5.185
 1137SOL     OW 4309   0.517   3.004   0.098
 1137SOL    HW1 4310   0.505   2.925   0.037
 1137SOL    HW2 4311   0.432   3.056   0.103
 1138SOL     OW 4312   1.030   1.916   6.125
 1138SOL    HW1 4313   1.079   1.865   6.055
 1138SOL    HW2 4314   1.093   1.978   6.172
 1139SOL     OW 4315   2.270   6.300   2.037
 1139SOL    HW1 4316   2.328   6.221   2.061
 1139SOL    HW2 4317   2.279   6.319   1.939
 1140SOL     OW 4318   4.058   1.903   2.191
 1140SOL    HW1 4319   4.074   1.814   2.234
 1140SOL    HW2 4320   4.138   1.928   2.136
 1141SOL     OW 4321   6.477   5.699   6.253
 1141SOL    HW1 4322   6.408   5.723   6.321
 1141SOL    HW2 4323   6.558   5.755   6.266
 1142SOL     OW 4324   4.524   0.388   4.454
 1142SOL    HW1 4325   4.543   0.293   4.479
 1142SOL    HW2 4326   4.598   0.422   4.396
 1143SOL     OW 4327   2.978   2.211   2.467
 1143SOL    HW1 4328   2.910   2.282   2.447
 1143SOL    HW2 4329   3.025   2.185   2.382
 1144SOL     OW 4330   6.953   4.895   4.637
 1144SOL    HW1 4331   6.945   4.869   4.734
 1144SOL    HW2 4332   0.022   4.880   4.607
 1145SOL     OW 4333   0.192   4.517   3.348
 1145SOL    HW1 4334   0.236   4.449   3.289
 1145SOL    HW2 4335   0.097   4.528   3.319
 1146SOL     OW 4336   5.144   0.684   0.918
 1146SOL    HW1 4337   5.182   0.594   0.897
 1146SOL    HW2 4338   5.136   0.695   1.017
 1147SOL     OW 4339   0.840   4.820   0.585
 1147SOL    HW1 4340   0.857   4.723   0.567
 1147SOL    HW2 4341   0.909   4.854   0.649
 1148SOL     OW 4342   3.078   6.499   0.429
 1148SOL    HW1 4343   3.089   6.493   0.528
 1148SOL    HW2 4344   3.167   6.508   0.385
 1149SOL     OW 4345   5.501   3.741   3.050
 1149SOL    HW1 4346   5.516   3.743   3.149
 1149SOL    HW2 4347   5.404   3.725   3.032
 1150SOL     OW 4348   1.476   3.916   0.973
 1150SOL    HW1 4349   1.558   3.962   0.939
 1150SOL    HW2 4350   1.416   3.983   1.018
 1151SOL     OW 4351   5.116   5.976   6.576
 1151SOL    HW1 4352   5.210   5.946   6.593
 1151SOL    HW2 4353   5.068   5.986   6.663
 1152SOL     OW 4354   0.779   6.328   5.572
 1152SOL    HW1 4355   0.792   6.411   5.627
 1152SOL    HW2 4356   0.839   6.256   5.605
 1153SOL     OW 4357   2.165   6.975   2.002
 1153SOL    HW1 4358   2.206   6.992   2.092
 1153SOL    HW2 4359   2.065   6.980   2.009
 1154SOL     OW 4360   0.196   3.396   2.154
 1154SOL    HW1 4361   0.239   3.343   2.227
 1154SOL    HW2 4362   0.254   3.396   2.073
 1155SOL     OW 4363   3.499   5.239   6.437
 1155SOL    HW1 4364   3.461   5.201   6.353
 1155SOL    HW2 4365   3.560   5.315   6.414
 1156SOL     OW 4366   2.191   0.545   4.437
 1156SOL    HW1 4367   2.287   0.558   4.460
 1156SOL    HW2 4368   2.153   0.469   4.490
 1157SOL     OW 4369   6.070   2.015   4.537
 1157SOL    HW1 4370   6.100   2.105   4.506
 1157SOL    HW2 4371   6.028   1.965   4.461
 1158SOL     OW 4372   6.425   5.424   5.922
 1158SOL    HW1 4373   6.406   5.516   5.957
 1158SOL    HW2 4374   6.377   5.357   5.979
 1159SOL     OW 4375   4.967   0.381   2.999
 1159SOL    HW1 4376   4.961   0.481   2.997
 1159SOL    HW2 4377   5.028   0.353   3.073
 1160SOL     OW 4378   3.784   3.907   1.484
 1160SOL    HW1 4379   3.816   3.836   1.546
 1160SOL    HW2 4380   3.684   3.913   1.488
 1161SOL     OW 4381   4.857   0.030   5.432
 1161SOL    HW1 4382   4.946   0.057   5.394
 1161SOL    HW2 4383   4.817   0.109   5.480
 1162SOL     OW 4384   3.815   3.015   0.811
 1162SOL    HW1 4385   3.843   3.111   0.806
 1162SOL    HW2 4386   3.867   2.962   0.744
 1163SOL     OW 4387   5.739   2.872   2.252
 1163SOL    HW1 4388   5.818   2.930   2.271
 1163SOL    HW2 4389   5.727   2.863   2.153
 1164SOL     OW 4390   5.500   2.739   4.004
 1164SOL    HW1 4391   5.434   2.813   4.018
 1164SOL    HW2 4392   5.578   2.773   3.952
 1165SOL     OW 4393   2.074   4.623   3.854
 1165SOL    HW1 4394   2.062   4.720   3.833
 1165SOL    HW2 4395   2.157   4.589   3.809
 1166SOL     OW 4396   3.973   0.884   6.781
 1166SOL    HW1 4397   3.944   0.793   6.812
 1166SOL    HW2 4398   4.050   0.915   6.837
 1167SOL     OW 4399   2.850   0.448   6.558
 1167SOL    HW1 4400   2.850   0.365   6.502
 1167SOL    HW2 4401   2.810   0.427   6.647
 1168SOL     OW 4402   6.219   6.617   2.315
 1168SOL    HW1 4403   6.246   6.528   2.352
 1168SOL    HW2 4404   6.145   6.604   2.249
 1169SOL     OW 4405   6.724   3.050   0.344
 1169SOL    HW1 4406   6.737   3.067   0.442
 1169SOL    HW2 4407   6.769   3.122   0.291
 1170SOL     OW 4408   4.537   0.841   2.182
 1170SOL    HW1 4409   4.464   0.777   2.159
 1170SOL    HW2 4410   4.606   0.795   2.237
 1171SOL     OW 4411   2.328   5.375   0.574
 1171SOL    HW1 4412   2.359   5.387   0.479
 1171SOL    HW2 4413   2.311   5.278   0.590
 1172SOL     OW 4414   3.482   4.146   2.977
 1172SOL    HW1 4415   3.451   4.105   3.063
 1172SOL    HW2 4416   3.412   4.132   2.907
 1173SOL     OW 4417   3.133   6.986   6.031
 1173SOL    HW1 4418   3.196   6.971   5.955
 1173SOL    HW2 4419   3.142   0.056   6.064
 1174SOL     OW 4420   3.032   5.418   0.724
 1174SOL    HW1 4421   2.992   5.509   0.723
 1174SOL    HW2 4422   3.010   5.370   0.639
 1175SOL     OW 4423   5.162   3.455   6.987
 1175SOL    HW1 4424   5.176   3.367   6.944
 1175SOL    HW2 4425   5.071   3.491   6.962
 1176SOL     OW 4426   5.646   4.698   0.557
 1176SOL    HW1 4427   5.690   4.644   0.630
 1176SOL    HW2 4428   5.674   4.662   0.468
 1177SOL     OW 4429   0.117   1.497   5.403
 1177SOL    HW1 4430   0.045   1.441   5.364
 1177SOL    HW2 4431   0.079   1.584   5.434
 1178SOL     OW 4432   4.007   3.227   1.545
 1178SOL    HW1 4433   4.063   3.157   1.501
 1178SOL    HW2 4434   3.964   3.284   1.476
 1179SOL     OW 4435   2.934   5.135   0.624
 1179SOL    HW1 4436   3.034   5.142   0.622
 1179SOL    HW2 4437   2.901   5.097   0.537
 1180SOL     OW 4438   2.798   0.465   3.436
 1180SOL    HW1 4439   2.870   0.523   3.475
 1180SOL    HW2 4440   2.718   0.521   3.417
 1181SOL     OW 4441   0.482   2.900   4.844
 1181SOL    HW1 4442   0.428   2.860   4.770
 1181SOL    HW2 4443   0.506   2.994   4.820
 1182SOL     OW 4444   2.024   4.881   3.242
 1182SOL    HW1 4445   1.933   4.896   3.202
 1182SOL    HW2 4446   2.047   4.783   3.236
 1183SOL     OW 4447   3.929   5.488   2.660
 1183SOL    HW1 4448   3.894   5.558   2.723
 1183SOL    HW2 4449   3.860   5.417   2.647
 1184SOL     OW 4450   3.590   2.019   4.936
 1184SOL    HW1 4451   3.536   2.072   5.001
 1184SOL    HW2 4452   3.620   1.934   4.979
 1185SOL     OW 4453   2.108   0.074   0.517
 1185SOL    HW1 4454   2.155   0.084   0.604
 1185SOL    HW2 4455   2.028   0.014   0.529
 1186SOL     OW 4456   6.262   6.670   6.214
 1186SOL    HW1 4457   6.341   6.617   6.246
 1186SOL    HW2 4458   6.263   6.760   6.259
 1187SOL     OW 4459   5.870   5.857   4.944
 1187SOL    HW1 4460   5.920   5.920   4.885
 1187SOL    HW2 4461   5.901   5.868   5.038
 1188SOL     OW 4462   3.258   6.838   6.228
 1188SOL    HW1 4463   3.248   6.867   6.323
 1188SOL    HW2 4464   3.217   6.905   6.167
 1189SOL     OW 4465   5.344   0.981   1.779
 1189SOL    HW1 4466   5.251   0.984   1.815
 1189SOL    HW2 4467   5.343   1.006   1.682
 1190SOL     OW 4468   4.561   4.834   4.690
 1190SOL    HW1 4469   4.484   4.825   4.627
 1190SOL    HW2 4470   4.539   4.791   4.777
 1191SOL     OW 4471   3.830   5.571   5.307
 1191SOL    HW1 4472   3.929   5.559   5.298
 1191SOL    HW2 4473   3.810   5.666   5.329
 1192SOL     OW 4474   5.586   5.006   3.227
 1192SOL    HW1 4475   5.624   5.083   3.280
 1192SOL    HW2 4476   5.487   5.001   3.242
 1193SOL     OW 4477   6.845   0.628   4.165
 1193SOL    HW1 4478   6.810   0.636   4.071
 1193SOL    HW2 4479   6.893   0.541   4.174
 1194SOL     OW 4480   0.275   1.709   1.162
 1194SOL    HW1 4481   0.251   1.614   1.148
 1194SOL    HW2 4482   0.206   1.768   1.120
 1195SOL     OW 4483   5.800   2.314   0.609
 1195SOL    HW1 4484   5.805   2.407   0.573
 1195SOL    HW2 4485   5.789   2.317   0.709
 1196SOL     OW 4486   0.077   4.723   1.953
 1196SOL    HW1 4487   0.113   4.698   2.043
 1196SOL    HW2 4488   7.006   4.750   1.962
 1197SOL     OW 4489   3.538   5.703   5.776
 1197SOL    HW1 4490   3.628   5.666   5.798
 1197SOL    HW2 4491   3.522   5.696   5.678
 1198SOL     OW 4492   2.246   2.743   2.209
 1198SOL    HW1 4493   2.207   2.657   2.177
 1198SOL    HW2 4494   2.281   2.795   2.131
 1199SOL     OW 4495   3.884   2.963   2.931
 1199SOL    HW1 4496   3.858   3.004   2.844
 1199SOL    HW2 4497   3.805   2.960   2.992
 1200SOL     OW 4498   4.108   3.590   5.068
 1200SOL    HW1 4499   4.058   3.677   5.061
 1200SOL    HW2 4500   4.112   3.547   4.978
 1201SOL     OW 4501   0.344   1.083   4.162
 1201SOL    HW1 4502   0.365   1.179   4.181
 1201SOL    HW2 4503   0.317   1.072   4.067
 1202SOL     OW 4504   6.235   0.579   5.654
 1202SOL    HW1 4505   6.258   0.589   5.751
 1202SOL    HW2 4506   6.137   0.562   5.645
 1203SOL     OW 4507   5.797   6.863   1.091
 1203SOL    HW1 4508   5.895   6.876   1.104
 1203SOL    HW2 4509   5.781   6.787   1.028
 1204SOL     OW 4510   4.006   1.233   0.079
 1204SOL    HW1 4511   3.972   1.224   7.010
 1204SOL    HW2 4512   4.052   1.321   0.089
 1205SOL     OW 4513   4.303   3.449   6.315
 1205SOL    HW1 4514   4.240   3.374   6.336
 1205SOL    HW2 4515   4.262   3.535   6.346
 1206SOL     OW 4516   1.318   2.077   4.968
 1206SOL    HW1 4517   1.272   2.088   4.880
 1206SOL    HW2 4518   1.413   2.050   4.953
 1207SOL     OW 4519   0.286   6.808   0.757
 1207SOL    HW1 4520   0.344   6.853   0.689
 1207SOL    HW2 4521   0.287   6.861   0.842
 1208SOL     OW 4522   3.563   4.108   2.511
 1208SOL    HW1 4523   3.481   4.101   2.568
 1208SOL    HW2 4524   3.538   4.086   2.416
 1209SOL     OW 4525   5.707   6.929   4.590
 1209SOL    HW1 4526   5.753   6.887   4.511
 1209SOL    HW2 4527   5.747   7.019   4.608
 1210SOL     OW 4528   4.524   6.671   3.482
 1210SOL    HW1 4529   4.598   6.609   3.505
 1210SOL    HW2 4530   4.477   6.639   3.400
 1211SOL     OW 4531   1.712   3.755   3.076
 1211SOL    HW1 4532   1.615   3.774   3.061
 1211SOL    HW2 4533   1.721   3.670   3.128
 1212SOL     OW 4534   0.016   2.079   5.755
 1212SOL    HW1 4535   0.025   2.007   5.824
 1212SOL    HW2 4536   0.084   2.151   5.773
 1213SOL     OW 4537   5.836   3.487   5.060
 1213SOL    HW1 4538   5.922   3.534   5.080
 1213SOL    HW2 4539   5.766   3.514   5.127
 1214SOL     OW 4540   1.203   3.355   4.921
 1214SOL    HW1 4541   1.269   3.400   4.982
 1214SOL    HW2 4542   1.146   3.293   4.974
 1215SOL     OW 4543   2.090   4.808   2.384
 1215SOL    HW1 4544   2.100   4.859   2.299
 1215SOL    HW2 4545   2.058   4.715   2.364
 1216SOL     OW 4546   0.443   0.058   1.227
 1216SOL    HW1 4547   0.509   0.067   1.301
 1216SOL    HW2 4548   0.372   0.128   1.237
 1217SOL     OW 4549   2.247   6.186   0.780
 1217SOL    HW1 4550   2.187   6.110   0.757
 1217SOL    HW2 4551   2.286   6.172   0.871
 1218SOL     OW 4552   0.410   3.412   4.937
 1218SOL    HW1 4553   0.351   3.363   5.001
 1218SOL    HW2 4554   0.503   3.417   4.974
 1219SOL     OW 4555   4.458   4.708   1.452
 1219SOL    HW1 4556   4.556   4.727   1.455
 1219SOL    HW2 4557   4.441   4.629   1.394
 1220SOL     OW 4558   5.230   3.671   3.035
 1220SOL    HW1 4559   5.200   3.649   2.943
 1220SOL    HW2 4560   5.216   3.593   3.095
 1221SOL     OW 4561   5.820   4.073   6.510
 1221SOL    HW1 4562   5.889   4.001   6.512
 1221SOL    HW2 4563   5.734   4.036   6.476
 1222SOL     OW 4564   6.951   0.449   0.538
 1222SOL    HW1 4565   6.887   0.484   0.607
 1222SOL    HW2 4566   6.899   0.406   0.464
 1223SOL     OW 4567   5.170   1.051   0.621
 1223SOL    HW1 4568   5.127   0.986   0.684
 1223SOL    HW2 4569   5.209   1.001   0.544
 1224SOL     OW 4570   3.428   5.818   0.145
 1224SOL    HW1 4571   3.502   5.752   0.128
 1224SOL    HW2 4572   3.419   5.834   0.243
 1225SOL     OW 4573   4.470   2.540   1.132
 1225SOL    HW1 4574   4.456   2.572   1.038
 1225SOL    HW2 4575   4.381   2.521   1.174
 1226SOL     OW 4576   5.052   6.356   0.690
 1226SOL    HW1 4577   5.032   6.453   0.700
 1226SOL    HW2 4578   4.992   6.303   0.750
 1227SOL     OW 4579   6.125   5.287   5.874
 1227SOL    HW1 4580   6.088   5.257   5.962
 1227SOL    HW2 4581   6.194   5.222   5.843
 1228SOL     OW 4582   3.653   3.286   0.605
 1228SOL    HW1 4583   3.664   3.231   0.522
 1228SOL    HW2 4584   3.635   3.381   0.580
 1229SOL     OW 4585   1.720   6.559   1.627
 1229SOL    HW1 4586   1.731   6.621   1.549
 1229SOL    HW2 4587   1.738   6.608   1.712
 1230SOL     OW 4588   5.490   5.815   3.091
 1230SOL    HW1 4589   5.582   5.819   3.131
 1230SOL    HW2 4590   5.488   5.869   3.006
 1231SOL     OW 4591   1.363   2.540   6.051
 1231SOL    HW1 4592   1.337   2.444   6.040
 1231SOL    HW2 4593   1.388   2.556   6.147
 1232SOL     OW 4594   4.662   0.945   5.043
 1232SOL    HW1 4595   4.736   1.010   5.021
 1232SOL    HW2 4596   4.699   0.869   5.096
 1233SOL     OW 4597   1.331   5.451   3.177
 1233SOL    HW1 4598   1.401   5.522   3.174
 1233SOL    HW2 4599   1.363   5.370   3.127
 1234SOL     OW 4600   0.042   2.319   6.352
 1234SOL    HW1 4601   7.015   2.403   6.336
 1234SOL    HW2 4602   0.044   2.265   6.268
 1235SOL     OW 4603   6.454   4.593   0.038
 1235SOL    HW1 4604   6.477   4.526   6.992
 1235SOL    HW2 4605   6.370   4.642   0.011
 1236SOL     OW 4606   3.810   2.257   0.444
 1236SOL    HW1 4607   3.754   2.336   0.469
 1236SOL    HW2 4608   3.906   2.284   0.437
 1237SOL     OW 4609   1.615   6.299   4.898
 1237SOL    HW1 4610   1.541   6.352   4.856
 1237SOL    HW2 4611   1.686   6.282   4.829
 1238SOL     OW 4612   0.497   6.754   3.373
 1238SOL    HW1 4613   0.589   6.755   3.413
 1238SOL    HW2 4614   0.455   6.665   3.387
 1239SOL     OW 4615   6.491   5.586   4.505
 1239SOL    HW1 4616   6.529   5.493   4.498
 1239SOL    HW2 4617   6.481   5.624   4.414
 1240SOL     OW 4618   6.028   5.074   2.269
 1240SOL    HW1 4619   6.104   5.043   2.212
 1240SOL    HW2 4620   6.059   5.148   2.329
 1241SOL     OW 4621   0.112   4.248   4.815
 1241SOL    HW1 4622   0.072   4.185   4.748
 1241SOL    HW2 4623   0.069   4.338   4.807
 1242SOL     OW 4624   2.438   3.419   0.536
 1242SOL    HW1 4625   2.364   3.447   0.475
 1242SOL    HW2 4626   2.502   3.496   0.548
 1243SOL     OW 4627   0.593   1.589   4.702
 1243SOL    HW1 4628   0.636   1.666   4.654
 1243SOL    HW2 4629   0.511   1.622   4.750
 1244SOL     OW 4630   5.149   6.810   5.471
 1244SOL    HW1 4631   5.215   6.871   5.426
 1244SOL    HW2 4632   5.095   6.762   5.403
 1245SOL     OW 4633   5.037   5.749   1.007
 1245SOL    HW1 4634   5.077   5.722   0.919
 1245SOL    HW2 4635   4.973   5.678   1.037
 1246SOL     OW 4636   3.620   1.019   2.133
 1246SOL    HW1 4637   3.619   0.958   2.212
 1246SOL    HW2 4638   3.622   0.965   2.049
 1247SOL     OW 4639   6.076   0.049   4.741
 1247SOL    HW1 4640   6.121   0.126   4.786
 1247SOL    HW2 4641   5.990   0.080   4.699
 1248SOL     OW 4642   1.158   6.285   3.991
 1248SOL    HW1 4643   1.143   6.312   4.086
 1248SOL    HW2 4644   1.136   6.362   3.931
 1249SOL     OW 4645   0.110   4.555   1.742
 1249SOL    HW1 4646   0.144   4.607   1.663
 1249SOL    HW2 4647   0.107   4.614   1.823
 1250SOL     OW 4648   6.377   3.024   4.332
 1250SOL    HW1 4649   6.316   2.959   4.286
 1250SOL    HW2 4650   6.348   3.034   4.427
 1251SOL     OW 4651   2.383   0.747   2.656
 1251SOL    HW1 4652   2.338   0.789   2.735
 1251SOL    HW2 4653   2.397   0.650   2.674
 1252SOL     OW 4654   3.203   5.335   6.454
 1252SOL    HW1 4655   3.294   5.303   6.480
 1252SOL    HW2 4656   3.172   5.285   6.373
 1253SOL     OW 4657   2.604   0.647   1.533
 1253SOL    HW1 4658   2.636   0.629   1.626
 1253SOL    HW2 4659   2.511   0.685   1.536
 1254SOL     OW 4660   6.011   2.532   3.028
 1254SOL    HW1 4661   5.992   2.449   2.975
 1254SOL    HW2 4662   6.073   2.511   3.103
 1255SOL     OW 4663   5.756   2.699   5.575
 1255SOL    HW1 4664   5.739   2.601   5.569
 1255SOL    HW2 4665   5.695   2.740   5.643
 1256SOL     OW 4666   0.395   6.104   3.187
 1256SOL    HW1 4667   0.424   6.163   3.111
 1256SOL    HW2 4668   0.395   6.156   3.272
 1257SOL     OW 4669   0.406   4.678   4.234
 1257SOL    HW1 4670   0.346   4.606   4.270
 1257SOL    HW2 4671   0.497   4.641   4.219
 1258SOL     OW 4672   2.250   5.820   3.046
 1258SOL    HW1 4673   2.181   5.794   2.979
 1258SOL    HW2 4674   2.317   5.747   3.055
 1259SOL     OW 4675   3.217   6.400   5.302
 1259SOL    HW1 4676   3.263   6.453   5.231
 1259SOL    HW2 4677   3.119   6.395   5.281
 1260SOL     OW 4678   3.398   1.141   1.261
 1260SOL    HW1 4679   3.398   1.090   1.175
 1260SOL    HW2 4680   3.434   1.233   1.244
 1261SOL     OW 4681   6.920   4.053   6.949
 1261SOL    HW1 4682   6.860   4.129   6.926
 1261SOL    HW2 4683   7.010   4.088   6.975
 1262SOL     OW 4684   4.470   4.962   1.527
 1262SOL    HW1 4685   4.438   4.868   1.519
 1262SOL    HW2 4686   4.463   4.993   1.622
 1263SOL     OW 4687   6.732   1.568   0.817
 1263SOL    HW1 4688   6.695   1.550   0.908
 1263SOL    HW2 4689   6.667   1.623   0.764
 1264SOL     OW 4690   1.043   3.862   2.379
 1264SOL    HW1 4691   1.080   3.815   2.459
 1264SOL    HW2 4692   0.953   3.825   2.356
 1265SOL     OW 4693   6.728   4.580   3.012
 1265SOL    HW1 4694   6.779   4.495   3.020
 1265SOL    HW2 4695   6.632   4.560   2.994
 1266SOL     OW 4696   2.218   0.829   3.967
 1266SOL    HW1 4697   2.231   0.924   3.994
 1266SOL    HW2 4698   2.161   0.824   3.886
 1267SOL     OW 4699   5.830   5.693   1.336
 1267SOL    HW1 4700   5.774   5.744   1.401
 1267SOL    HW2 4701   5.892   5.755   1.288
 1268SOL     OW 4702   4.685   2.330   6.682
 1268SOL    HW1 4703   4.664   2.364   6.590
 1268SOL    HW2 4704   4.784   2.333   6.697
 1269SOL     OW 4705   5.740   6.140   5.310
 1269SOL    HW1 4706   5.833   6.114   5.283
 1269SOL    HW2 4707   5.735   6.238   5.325
 1270SOL     OW 4708   2.067   3.882   4.452
 1270SOL    HW1 4709   2.141   3.897   4.517
 1270SOL    HW2 4710   2.075   3.947   4.376
 1271SOL     OW 4711   3.518   1.873   3.565
 1271SOL    HW1 4712   3.503   1.886   3.663
 1271SOL    HW2 4713   3.524   1.776   3.544
 1272SOL     OW 4714   6.941   6.067   1.437
 1272SOL    HW1 4715   6.945   6.166   1.453
 1272SOL    HW2 4716   0.007   6.034   1.409
 1273SOL     OW 4717   1.662   4.207   6.799
 1273SOL    HW1 4718   1.734   4.275   6.816
 1273SOL    HW2 4719   1.615   4.229   6.714
 1274SOL     OW 4720   6.584   3.290   1.772
 1274SOL    HW1 4721   6.677   3.282   1.806
 1274SOL    HW2 4722   6.585   3.330   1.680
 1275SOL     OW 4723   3.900   0.305   3.516
 1275SOL    HW1 4724   3.876   0.392   3.472
 1275SOL    HW2 4725   3.987   0.273   3.481
 1276SOL     OW 4726   6.954   0.538   3.513
 1276SOL    HW1 4727   7.017   0.550   3.436
 1276SOL    HW2 4728   6.920   0.628   3.543
 1277SOL     OW 4729   0.153   0.203   4.672
 1277SOL    HW1 4730   0.243   0.161   4.660
 1277SOL    HW2 4731   0.090   0.137   4.713
 1278SOL     OW 4732   1.478   1.081   5.478
 1278SOL    HW1 4733   1.521   1.159   5.431
 1278SOL    HW2 4734   1.528   0.997   5.456
 1279SOL     OW 4735   2.274   6.860   0.454
 1279SOL    HW1 4736   2.239   6.943   0.411
 1279SOL    HW2 4737   2.358   6.832   0.407
 1280SOL     OW 4738   2.608   6.218   3.635
 1280SOL    HW1 4739   2.581   6.224   3.539
 1280SOL    HW2 4740   2.647   6.305   3.664
 1281SOL     OW 4741   0.652   5.704   2.972
 1281SOL    HW1 4742   0.695   5.634   3.030
 1281SOL    HW2 4743   0.721   5.767   2.939
 1282SOL     OW 4744   0.418   1.031   0.373
 1282SOL    HW1 4745   0.383   1.086   0.297
 1282SOL    HW2 4746   0.428   0.936   0.344
 1283SOL     OW 4747   5.397   2.448   5.045
 1283SOL    HW1 4748   5.421   2.389   5.122
 1283SOL    HW2 4749   5.329   2.402   4.988
 1284SOL     OW 4750   3.857   3.652   1.595
 1284SOL    HW1 4751   3.831   3.556   1.608
 1284SOL    HW2 4752   3.951   3.658   1.563
 1285SOL     OW 4753   5.610   3.585   6.268
 1285SOL    HW1 4754   5.696   3.632   6.286
 1285SOL    HW2 4755   5.539   3.618   6.330
 1286SOL     OW 4756   5.111   4.456   2.567
 1286SOL    HW1 4757   5.069   4.442   2.656
 1286SOL    HW2 4758   5.119   4.554   2.549
 1287SOL     OW 4759   4.930   3.831   6.239
 1287SOL    HW1 4760   5.019   3.800   6.206
 1287SOL    HW2 4761   4.862   3.818   6.166
 1288SOL     OW 4762   6.355   3.594   1.045
 1288SOL    HW1 4763   6.274   3.633   1.090
 1288SOL    HW2 4764   6.438   3.627   1.090
 1289SOL     OW 4765   0.457   6.001   1.894
 1289SOL    HW1 4766   0.519   5.948   1.952
 1289SOL    HW2 4767   0.366   5.959   1.896
 1290SOL     OW 4768   1.032   0.674   0.215
 1290SOL    HW1 4769   1.045   0.663   0.116
 1290SOL    HW2 4770   0.934   0.681   0.235
 1291SOL     OW 4771   0.634   3.768   5.832
 1291SOL    HW1 4772   0.562   3.776   5.900
 1291SOL    HW2 4773   0.614   3.693   5.769
 1292SOL     OW 4774   6.349   5.329   2.420
 1292SOL    HW1 4775   6.421   5.347   2.488
 1292SOL    HW2 4776   6.392   5.299   2.334
 1293SOL     OW 4777   1.942   1.302   6.533
 1293SOL    HW1 4778   2.023   1.245   6.548
 1293SOL    HW2 4779   1.888   1.265   6.458
 1294SOL     OW 4780   1.002   3.545   0.909
 1294SOL    HW1 4781   0.945   3.624   0.932
 1294SOL    HW2 4782   0.991   3.474   0.978
 1295SOL     OW 4783   6.538   3.695   2.529
 1295SOL    HW1 4784   6.466   3.711   2.462
 1295SOL    HW2 4785   6.509   3.729   2.618
 1296SOL     OW 4786   4.205   0.310   5.366
 1296SOL    HW1 4787   4.273   0.379   5.343
 1296SOL    HW2 4788   4.233   0.221   5.329
 1297SOL     OW 4789   6.017   0.426   6.125
 1297SOL    HW1 4790   6.061   0.507   6.165
 1297SOL    HW2 4791   6.070   0.395   6.046
 1298SOL     OW 4792   6.344   3.634   3.351
 1298SOL    HW1 4793   6.312   3.579   3.273
 1298SOL    HW2 4794   6.444   3.630   3.355
 1299SOL     OW 4795   0.701   3.730   2.805
 1299SOL    HW1 4796   0.718   3.644   2.757
 1299SOL    HW2 4797   0.736   3.806   2.752
 1300SOL     OW 4798   3.442   4.148   2.078
 1300SOL    HW1 4799   3.447   4.229   2.137
 1300SOL    HW2 4800   3.351   4.107   2.085
 1301SOL     OW 4801   0.589   6.154   2.395
 1301SOL    HW1 4802   0.614   6.119   2.485
 1301SOL    HW2 4803   0.671   6.176   2.343
 1302SOL     OW 4804   2.994   0.188   4.932
 1302SOL    HW1 4805   2.894   0.181   4.939
 1302SOL    HW2 4806   3.033   0.205   5.022
 1303SOL     OW 4807   4.695   1.920   0.606
 1303SOL    HW1 4808   4.729   1.971   0.686
 1303SOL    HW2 4809   4.600   1.946   0.588
 1304SOL     OW 4810   1.404   1.370   6.634
 1304SOL    HW1 4811   1.456   1.376   6.549
 1304SOL    HW2 4812   1.355   1.283   6.637
 1305SOL     OW 4813   5.644   4.909   6.684
 1305SOL    HW1 4814   5.571   4.911   6.615
 1305SOL    HW2 4815   5.706   4.986   6.669
 1306SOL     OW 4816   0.863   4.425   5.360
 1306SOL    HW1 4817   0.945   4.460   5.405
 1306SOL    HW2 4818   0.838   4.484   5.284
 1307SOL     OW 4819   1.737   2.468   4.769
 1307SOL    HW1 4820   1.732   2.446   4.672
 1307SOL    HW2 4821   1.645   2.474   4.807
 1308SOL     OW 4822   4.298   5.365   4.500
 1308SOL    HW1 4823   4.312   5.278   4.548
 1308SOL    HW2 4824   4.322   5.441   4.560
 1309SOL     OW 4825   5.714   3.057   5.554
 1309SOL    HW1 4826   5.814   3.059   5.555
 1309SOL    HW2 4827   5.679   3.143   5.517
 1310SOL     OW 4828   6.747   3.826   5.192
 1310SOL    HW1 4829   6.781   3.909   5.146
 1310SOL    HW2 4830   6.814   3.796   5.260
 1311SOL     OW 4831   6.546   6.765   4.193
 1311SOL    HW1 4832   6.618   6.713   4.239
 1311SOL    HW2 4833   6.475   6.701   4.161
 1312SOL     OW 4834   1.033   0.391   6.611
 1312SOL    HW1 4835   0.956   0.350   6.561
 1312SOL    HW2 4836   1.067   0.325   6.678
 1313SOL     OW 4837   1.428   4.883   5.209
 1313SOL    HW1 4838   1.491   4.944   5.160
 1313SOL    HW2 4839   1.337   4.924   5.211
 1314SOL     OW 4840   2.606   1.928   5.786
 1314SOL    HW1 4841   2.610   1.944   5.687
 1314SOL    HW2 4842   2.595   1.830   5.804
 1315SOL     OW 4843   0.776   0.739   0.204
 1315SOL    HW1 4844   0.772   0.732   0.104
 1315SOL    HW2 4845   0.766   0.835   0.231
 1316SOL     OW 4846   2.142   6.889   3.815
 1316SOL    HW1 4847   2.093   6.969   3.782
 1316SOL    HW2 4848   2.104   6.860   3.903
 1317SOL     OW 4849   0.772   3.854   4.490
 1317SOL    HW1 4850   0.758   3.835   4.392
 1317SOL    HW2 4851   0.728   3.783   4.544
 1318SOL     OW 4852   6.704   0.542   0.705
 1318SOL    HW1 4853   6.724   0.615   0.770
 1318SOL    HW2 4854   6.632   0.572   0.642
 1319SOL     OW 4855   6.238   1.294   6.918
 1319SOL    HW1 4856   6.217   1.197   6.906
 1319SOL    HW2 4857   6.201   1.326   7.005
 1320SOL     OW 4858   6.184   3.792   0.567
 1320SOL    HW1 4859   6.275   3.769   0.602
 1320SOL    HW2 4860   6.157   3.725   0.497
 1321SOL     OW 4861   4.337   2.495   6.141
 1321SOL    HW1 4862   4.392   2.439   6.202
 1321SOL    HW2 4863   4.240   2.482   6.162
 1322SOL     OW 4864   4.864   0.901   3.276
 1322SOL    HW1 4865   4.818   0.966   3.337
 1322SOL    HW2 4866   4.861   0.810   3.317
 1323SOL     OW 4867   5.373   1.597   5.426
 1323SOL    HW1 4868   5.351   1.677   5.370
 1323SOL    HW2 4869   5.435   1.537   5.375
 1324SOL     OW 4870   1.091   2.955   1.689
 1324SOL    HW1 4871   1.114   2.953   1.592
 1324SOL    HW2 4872   1.169   2.924   1.743
 1325SOL     OW 4873   2.025   0.185   2.149
 1325SOL    HW1 4874   2.042   0.249   2.074
 1325SOL    HW2 4875   2.110   0.136   2.171
 1326SOL     OW 4876   5.372   3.001   4.876
 1326SOL    HW1 4877   5.469   3.008   4.898
 1326SOL    HW2 4878   5.317   3.028   4.955
 1327SOL     OW 4879   3.058   4.830   3.159
 1327SOL    HW1 4880   3.017   4.921   3.154
 1327SOL    HW2 4881   3.158   4.839   3.154
 1328SOL     OW 4882   1.185   2.883   1.156
 1328SOL    HW1 4883   1.171   2.803   1.214
 1328SOL    HW2 4884   1.138   2.870   1.069
 1329SOL     OW 4885   6.922   2.183   0.351
 1329SOL    HW1 4886   6.860   2.106   0.365
 1329SOL    HW2 4887   6.896   2.258   0.412
 1330SOL     OW 4888   6.373   1.084   1.437
 1330SOL    HW1 4889   6.362   1.067   1.339
 1330SOL    HW2 4890   6.468   1.066   1.464
 1331SOL     OW 4891   4.565   2.182   2.909
 1331SOL    HW1 4892   4.649   2.226   2.939
 1331SOL    HW2 4893   4.548   2.101   2.964
 1332SOL     OW 4894   3.909   7.003   0.172
 1332SOL    HW1 4895   3.940   6.914   0.139
 1332SOL    HW2 4896   3.975   0.049   0.147
 1333SOL     OW 4897   3.827   3.276   5.953
 1333SOL    HW1 4898   3.866   3.263   5.861
 1333SOL    HW2 4899   3.867   3.208   6.015
 1334SOL     OW 4900   0.174   2.515   4.927
 1334SOL    HW1 4901   0.121   2.503   4.843
 1334SOL    HW2 4902   0.227   2.600   4.921
 1335SOL     OW 4903   2.911   6.760   2.999
 1335SOL    HW1 4904   2.885   6.815   3.078
 1335SOL    HW2 4905   2.927   6.820   2.921
 1336SOL     OW 4906   1.491   1.419   6.377
 1336SOL    HW1 4907   1.565   1.475   6.342
 1336SOL    HW2 4908   1.465   1.351   6.308
 1337SOL     OW 4909   0.948   1.660   4.896
 1337SOL    HW1 4910   0.963   1.598   4.820
 1337SOL    HW2 4911   0.881   1.730   4.870
 1338SOL     OW 4912   4.487   2.845   5.778
 1338SOL    HW1 4913   4.581   2.863   5.808
 1338SOL    HW2 4914   4.426   2.843   5.857
 1339SOL     OW 4915   0.481   6.883   0.331
 1339SOL    HW1 4916   0.528   6.823   0.267
 1339SOL    HW2 4917   0.439   6.959   0.280
 1340SOL     OW 4918   0.897   1.326   2.027
 1340SOL    HW1 4919   0.862   1.236   2.056
 1340SOL    HW2 4920   0.825   1.394   2.038
 1341SOL     OW 4921   4.039   0.320   5.877
 1341SOL    HW1 4922   4.075   0.351   5.965
 1341SOL    HW2 4923   4.074   0.228   5.858
 1342SOL     OW 4924   1.547   4.644   5.976
 1342SOL    HW1 4925   1.458   4.673   5.940
 1342SOL    HW2 4926   1.545   4.546   5.993
 1343SOL     OW 4927   3.801   6.169   2.544
 1343SOL    HW1 4928   3.846   6.253   2.575
 1343SOL    HW2 4929   3.792   6.170   2.445
 1344SOL     OW 4930   6.758   4.165   3.862
 1344SOL    HW1 4931   6.850   4.202   3.874
 1344SOL    HW2 4932   6.759   4.066   3.880
 1345SOL     OW 4933   1.268   1.763   3.662
 1345SOL    HW1 4934   1.229   1.787   3.751
 1345SOL    HW2 4935   1.240   1.831   3.593
 1346SOL     OW 4936   1.532   0.033   3.164
 1346SOL    HW1 4937   1.584   0.107   3.120
 1346SOL    HW2 4938   1.525   0.051   3.262
 1347SOL     OW 4939   6.382   6.587   4.040
 1347SOL    HW1 4940   6.315   6.626   3.976
 1347SOL    HW2 4941   6.389   6.489   4.025
 1348SOL     OW 4942   5.977   5.889   3.292
 1348SOL    HW1 4943   5.949   5.793   3.286
 1348SOL    HW2 4944   6.072   5.894   3.322
 1349SOL     OW 4945   4.741   2.764   6.113
 1349SOL    HW1 4946   4.826   2.736   6.157
 1349SOL    HW2 4947   4.725   2.862   6.129
 1350SOL     OW 4948   3.922   4.666   0.116
 1350SOL    HW1 4949   3.899   4.579   0.073
 1350SOL    HW2 4950   3.850   4.733   0.097
 1351SOL     OW 4951   0.304   2.118   2.978
 1351SOL    HW1 4952   0.383   2.075   2.933
 1351SOL    HW2 4953   0.334   2.195   3.034
 1352SOL     OW 4954   0.725   0.754   3.192
 1352SOL    HW1 4955   0.632   0.791   3.195
 1352SOL    HW2 4956   0.737   0.701   3.108
 1353SOL     OW 4957   6.379   4.131   6.058
 1353SOL    HW1 4958   6.344   4.149   5.967
 1353SOL    HW2 4959   6.351   4.039   6.087
 1354SOL     OW 4960   0.187   2.153   0.402
 1354SOL    HW1 4961   0.210   2.213   0.325
 1354SOL    HW2 4962   0.095   2.173   0.434
 1355SOL     OW 4963   5.951   2.887   5.650
 1355SOL    HW1 4964   5.999   2.860   5.733
 1355SOL    HW2 4965   5.894   2.811   5.618
 1356SOL     OW 4966   3.149   3.654   3.943
 1356SOL    HW1 4967   3.129   3.606   4.029
 1356SOL    HW2 4968   3.063   3.687   3.903
 1357SOL     OW 4969   1.691   4.078   5.565
 1357SOL    HW1 4970   1.733   4.001   5.612
 1357SOL    HW2 4971   1.682   4.057   5.468
 1358SOL     OW 4972   3.648   1.487   5.894
 1358SOL    HW1 4973   3.645   1.461   5.990
 1358SOL    HW2 4974   3.700   1.419   5.843
 1359SOL     OW 4975   6.803   5.006   1.333
 1359SOL    HW1 4976   6.746   5.031   1.411
 1359SOL    HW2 4977   6.765   5.046   1.250
 1360SOL     OW 4978   3.982   3.775   2.424
 1360SOL    HW1 4979   4.028   3.745   2.508
 1360SOL    HW2 4980   3.932   3.860   2.443
 1361SOL     OW 4981   6.896   6.786   5.971
 1361SOL    HW1 4982   6.802   6.788   6.004
 1361SOL    HW2 4983   6.905   6.718   5.899
 1362SOL     OW 4984   3.056   3.879   4.188
 1362SOL    HW1 4985   2.959   3.880   4.213
 1362SOL    HW2 4986   3.089   3.785   4.184
 1363SOL     OW 4987   6.368   6.083   3.597
 1363SOL    HW1 4988   6.464   6.108   3.609
 1363SOL    HW2 4989   6.363   5.989   3.563
 1364SOL     OW 4990   0.453   2.567   0.253
 1364SOL    HW1 4991   0.532   2.569   0.191
 1364SOL    HW2 4992   0.483   2.590   0.345
 1365SOL     OW 4993   0.605   3.576   5.661
 1365SOL    HW1 4994   0.524   3.551   5.610
 1365SOL    HW2 4995   0.673   3.503   5.654
 1366SOL     OW 4996   0.118   4.379   0.981
 1366SOL    HW1 4997   0.088   4.287   1.007
 1366SOL    HW2 4998   0.194   4.373   0.917
 1367SOL     OW 4999   1.085   5.802   2.522
 1367SOL    HW1 5000   1.142   5.767   2.597
 1367SOL    HW2 5001   0.996   5.830   2.559
 1368SOL     OW 5002   0.068   0.781   4.140
 1368SOL    HW1 5003   7.020   0.718   4.167
 1368SOL    HW2 5004   0.053   0.869   4.185
 1369SOL     OW 5005   2.416   6.838   2.385
 1369SOL    HW1 5006   2.409   6.738   2.380
 1369SOL    HW2 5007   2.512   6.863   2.394
 1370SOL     OW 5008   5.471   2.240   4.100
 1370SOL    HW1 5009   5.407   2.165   4.113
 1370SOL    HW2 5010   5.463   2.275   4.007
 1371SOL     OW 5011   4.646   1.760   4.971
 1371SOL    HW1 5012   4.627   1.855   4.946
 1371SOL    HW2 5013   4.683   1.758   5.064
 1372SOL     OW 5014   0.738   2.323   0.715
 1372SOL    HW1 5015   0.642   2.320   0.741
 1372SOL    HW2 5016   0.795   2.322   0.797
 1373SOL     OW 5017   4.505   2.346   6.898
 1373SOL    HW1 5018   4.568   2.391   6.835
 1373SOL    HW2 5019   4.556   2.290   6.963
 1374SOL     OW 5020   5.081   3.676   0.348
 1374SOL    HW1 5021   5.134   3.600   0.310
 1374SOL    HW2 5022   5.016   3.641   0.416
 1375SOL     OW 5023   0.310   0.094   6.782
 1375SOL    HW1 5024   0.256   0.024   6.830
 1375SOL    HW2 5025   0.250   0.169   6.753
 1376SOL     OW 5026   3.751   4.890   5.626
 1376SOL    HW1 5027   3.722   4.878   5.531
 1376SOL    HW2 5028   3.737   4.985   5.653
 1377SOL     OW 5029   1.189   3.531   3.687
 1377SOL    HW1 5030   1.162   3.522   3.783
 1377SOL    HW2 5031   1.116   3.575   3.635
 1378SOL     OW 5032   5.635   2.423   5.582
 1378SOL    HW1 5033   5.668   2.330   5.564
 1378SOL    HW2 5034   5.540   2.420   5.612
 1379SOL     OW 5035   4.155   5.643   3.339
 1379SOL    HW1 5036   4.081   5.641   3.272
 1379SOL    HW2 5037   4.176   5.550   3.367
 1380SOL     OW 5038   0.184   6.024   3.516
 1380SOL    HW1 5039   0.218   6.107   3.559
 1380SOL    HW2 5040   0.193   5.947   3.579
 1381SOL     OW 5041   5.488   1.782   6.894
 1381SOL    HW1 5042   5.466   1.755   6.988
 1381SOL    HW2 5043   5.524   1.875   6.894
 1382SOL     OW 5044   5.091   3.372   1.219
 1382SOL    HW1 5045   5.095   3.299   1.286
 1382SOL    HW2 5046   5.018   3.353   1.152
 1383SOL     OW 5047   0.891   0.185   1.615
 1383SOL    HW1 5048   0.976   0.176   1.667
 1383SOL    HW2 5049   0.821   0.227   1.673
 1384SOL     OW 5050   4.722   6.807   2.203
 1384SOL    HW1 5051   4.808   6.760   2.184
 1384SOL    HW2 5052   4.719   6.832   2.300
 1385SOL     OW 5053   2.855   4.847   4.073
 1385SOL    HW1 5054   2.885   4.845   3.977
 1385SOL    HW2 5055   2.860   4.940   4.107
 1386SOL     OW 5056   3.138   0.621   3.784
 1386SOL    HW1 5057   3.079   0.622   3.865
 1386SOL    HW2 5058   3.195   0.704   3.783
 1387SOL     OW 5059   3.921   5.639   3.082
 1387SOL    HW1 5060   3.877   5.654   2.994
 1387SOL    HW2 5061   4.003   5.583   3.069
 1388SOL     OW 5062   6.623   0.265   1.950
 1388SOL    HW1 5063   6.618   0.167   1.970
 1388SOL    HW2 5064   6.586   0.316   2.027
 1389SOL     OW 5065   6.339   0.900   4.100
 1389SOL    HW1 5066   6.368   0.814   4.142
 1389SOL    HW2 5067   6.239   0.904   4.097
 1390SOL     OW 5068   0.036   3.807   6.872
 1390SOL    HW1 5069   0.097   3.794   6.951
 1390SOL    HW2 5070   6.999   3.884   6.890
 1391SOL     OW 5071   6.466   6.431   4.854
 1391SOL    HW1 5072   6.463   6.349   4.910
 1391SOL    HW2 5073   6.514   6.503   4.903
 1392SOL     OW 5074   5.711   6.111   5.890
 1392SOL    HW1 5075   5.778   6.184   5.907
 1392SOL    HW2 5076   5.663   6.090   5.975
 1393SOL     OW 5077   6.459   4.917   5.023
 1393SOL    HW1 5078   6.372   4.888   4.984
 1393SOL    HW2 5079   6.449   4.928   5.122
 1394SOL     OW 5080   3.843   4.889   5.898
 1394SOL    HW1 5081   3.818   4.874   5.802
 1394SOL    HW2 5082   3.784   4.961   5.936
 1395SOL     OW 5083   2.517   4.419   5.420
 1395SOL    HW1 5084   2.566   4.360   5.484
 1395SOL    HW2 5085   2.583   4.467   5.361
 1396SOL     OW 5086   1.177   1.205   5.113
 1396SOL    HW1 5087   1.093   1.258   5.122
 1396SOL    HW2 5088   1.246   1.259   5.064
 1397SOL     OW 5089   0.245   0.107   3.665
 1397SOL    HW1 5090   0.158   0.066   3.637
 1397SOL    HW2 5091   0.321   0.049   3.634
 1398SOL     OW 5092   3.117   0.547   6.669
 1398SOL    HW1 5093   3.036   0.528   6.614
 1398SOL    HW2 5094   3.100   0.624   6.730
 1399SOL     OW 5095   3.788   5.592   0.371
 1399SOL    HW1 5096   3.784   5.496   0.343
 1399SOL    HW2 5097   3.880   5.628   0.355
 1400SOL     OW 5098   0.456   1.867   3.268
 1400SOL    HW1 5099   0.367   1.826   3.286
 1400SOL    HW2 5100   0.522   1.835   3.336
 1401SOL     OW 5101   6.260   1.064   4.882
 1401SOL    HW1 5102   6.255   1.048   4.980
 1401SOL    HW2 5103   6.326   1.136   4.863
 1402SOL     OW 5104   6.579   3.473   6.474
 1402SOL    HW1 5105   6.534   3.429   6.552
 1402SOL    HW2 5106   6.512   3.490   6.402
 1403SOL     OW 5107   2.661   2.541   1.577
 1403SOL    HW1 5108   2.689   2.574   1.487
 1403SOL    HW2 5109   2.627   2.617   1.631
 1404SOL     OW 5110   6.338   6.805   0.909
 1404SOL    HW1 5111   6.334   6.721   0.963
 1404SOL    HW2 5112   6.272   6.799   0.834
 1405SOL     OW 5113   2.628   3.505   1.104
 1405SOL    HW1 5114   2.544   3.458   1.133
 1405SOL    HW2 5115   2.619   3.603   1.123
 1406SOL     OW 5116   0.480   5.530   0.686
 1406SOL    HW1 5117   0.402   5.512   0.627
 1406SOL    HW2 5118   0.448   5.558   0.777
 1407SOL     OW 5119   0.122   2.745   2.269
 1407SOL    HW1 5120   0.060   2.692   2.326
 1407SOL    HW2 5121   0.214   2.706   2.275
 1408SOL     OW 5122   5.644   1.081   6.173
 1408SOL    HW1 5123   5.641   1.179   6.192
 1408SOL    HW2 5124   5.730   1.043   6.209
 1409SOL     OW 5125   6.948   0.101   5.055
 1409SOL    HW1 5126   6.947   0.090   4.956
 1409SOL    HW2 5127   6.999   0.184   5.078
 1410SOL     OW 5128   1.275   3.658   6.321
 1410SOL    HW1 5129   1.201   3.630   6.383
 1410SOL    HW2 5130   1.288   3.757   6.327
 1411SOL     OW 5131   3.665   6.825   1.138
 1411SOL    HW1 5132   3.754   6.806   1.096
 1411SOL    HW2 5133   3.595   6.833   1.068
 1412SOL     OW 5134   0.864   2.310   0.952
 1412SOL    HW1 5135   0.935   2.246   0.979
 1412SOL    HW2 5136   0.886   2.401   0.987
 1413SOL     OW 5137   1.408   2.090   5.536
 1413SOL    HW1 5138   1.466   2.072   5.616
 1413SOL    HW2 5139   1.312   2.073   5.560
 1414SOL     OW 5140   2.923   1.586   1.726
 1414SOL    HW1 5141   2.858   1.661   1.737
 1414SOL    HW2 5142   2.985   1.607   1.650
 1415SOL     OW 5143   2.265   1.517   4.140
 1415SOL    HW1 5144   2.206   1.530   4.219
 1415SOL    HW2 5145   2.350   1.569   4.154
 1416SOL     OW 5146   5.276   5.261   4.456
 1416SOL    HW1 5147   5.250   5.215   4.540
 1416SOL    HW2 5148   5.348   5.209   4.410
 1417SOL     OW 5149   2.933   2.104   0.429
 1417SOL    HW1 5150   3.000   2.165   0.387
 1417SOL    HW2 5151   2.851   2.101   0.372
 1418SOL     OW 5152   3.299   3.953   2.849
 1418SOL    HW1 5153   3.280   3.872   2.793
 1418SOL    HW2 5154   3.288   4.035   2.793
 1419SOL     OW 5155   2.788   5.995   4.577
 1419SOL    HW1 5156   2.758   6.044   4.658
 1419SOL    HW2 5157   2.716   5.996   4.508
 1420SOL     OW 5158   2.489   6.774   1.754
 1420SOL    HW1 5159   2.539   6.702   1.801
 1420SOL    HW2 5160   2.458   6.842   1.820
 1421SOL     OW 5161   2.328   4.972   3.771
 1421SOL    HW1 5162   2.295   5.057   3.810
 1421SOL    HW2 5163   2.380   4.991   3.687
 1422SOL     OW 5164   1.259   4.025   0.614
 1422SOL    HW1 5165   1.261   4.093   0.541
 1422SOL    HW2 5166   1.349   4.021   0.658
 1423SOL     OW 5167   5.224   6.601   3.261
 1423SOL    HW1 5168   5.309   6.605   3.313
 1423SOL    HW2 5169   5.170   6.523   3.293
 1424SOL     OW 5170   6.317   5.100   6.076
 1424SOL    HW1 5171   6.236   5.044   6.062
 1424SOL    HW2 5172   6.369   5.104   5.990
 1425SOL     OW 5173   1.791   5.451   5.189
 1425SOL    HW1 5174   1.803   5.359   5.150
 1425SOL    HW2 5175   1.700   5.486   5.164
 1426SOL     OW 5176   1.724   4.108   6.164
 1426SOL    HW1 5177   1.740   4.140   6.071
 1426SOL    HW2 5178   1.808   4.117   6.218
 1427SOL     OW 5179   0.323   0.076   3.341
 1427SOL    HW1 5180   0.287   0.037   3.425
 1427SOL    HW2 5181   0.285   0.168   3.329
 1428SOL     OW 5182   6.814   3.360   0.235
 1428SOL    HW1 5183   6.746   3.352   0.162
 1428SOL    HW2 5184   6.773   3.335   0.322
 1429SOL     OW 5185   4.326   1.774   6.602
 1429SOL    HW1 5186   4.424   1.760   6.588
 1429SOL    HW2 5187   4.282   1.686   6.623
 1430SOL     OW 5188   1.432   4.870   3.650
 1430SOL    HW1 5189   1.510   4.819   3.686
 1430SOL    HW2 5190   1.354   4.809   3.637
 1431SOL     OW 5191   2.749   1.904   0.727
 1431SOL    HW1 5192   2.836   1.871   0.691
 1431SOL    HW2 5193   2.682   1.909   0.652
 1432SOL     OW 5194   2.233   1.743   2.444
 1432SOL    HW1 5195   2.302   1.792   2.391
 1432SOL    HW2 5196   2.236   1.646   2.422
 1433SOL     OW 5197   4.430   0.954   5.204
 1433SOL    HW1 5198   4.517   0.937   5.157
 1433SOL    HW2 5199   4.430   0.906   5.292
 1434SOL     OW 5200   0.426   0.022   5.940
 1434SOL    HW1 5201   0.499   0.024   6.008
 1434SOL    HW2 5202   0.400   6.952   5.922
 1435SOL     OW 5203   6.328   0.029   2.842
 1435SOL    HW1 5204   6.346   6.957   2.821
 1435SOL    HW2 5205   6.337   0.044   2.940
 1436SOL     OW 5206   4.987   4.175   6.559
 1436SOL    HW1 5207   4.938   4.094   6.529
 1436SOL    HW2 5208   5.080   4.150   6.586
 1437SOL     OW 5209   2.828   2.120   4.182
 1437SOL    HW1 5210   2.767   2.052   4.141
 1437SOL    HW2 5211   2.842   2.195   4.117
 1438SOL     OW 5212   2.446   6.198   1.383
 1438SOL    HW1 5213   2.530   6.151   1.356
 1438SOL    HW2 5214   2.367   6.142   1.358
 1439SOL     OW 5215   6.426   5.980   1.424
 1439SOL    HW1 5216   6.513   6.005   1.382
 1439SOL    HW2 5217   6.428   6.003   1.521
 1440SOL     OW 5218   3.259   2.976   7.001
 1440SOL    HW1 5219   3.239   3.022   0.063
 1440SOL    HW2 5220   3.228   2.881   7.005
 1441SOL     OW 5221   6.770   0.614   3.877
 1441SOL    HW1 5222   6.830   0.534   3.873
 1441SOL    HW2 5223   6.699   0.607   3.807
 1442SOL     OW 5224   0.612   5.498   6.816
 1442SOL    HW1 5225   0.612   5.464   6.910
 1442SOL    HW2 5226   0.601   5.422   6.752
 1443SOL     OW 5227   0.477   3.157   4.403
 1443SOL    HW1 5228   0.482   3.193   4.496
 1443SOL    HW2 5229   0.558   3.101   4.385
 1444SOL     OW 5230   4.843   5.438   0.660
 1444SOL    HW1 5231   4.756   5.478   0.688
 1444SOL    HW2 5232   4.859   5.354   0.711
 1445SOL     OW 5233   1.412   2.802   3.175
 1445SOL    HW1 5234   1.486   2.847   3.125
 1445SOL    HW2 5235   1.343   2.869   3.201
 1446SOL     OW 5236   5.984   1.632   0.270
 1446SOL    HW1 5237   5.981   1.613   0.368
 1446SOL    HW2 5238   6.038   1.715   0.254
 1447SOL     OW 5239   5.957   6.302   4.223
 1447SOL    HW1 5240   6.013   6.270   4.300
 1447SOL    HW2 5241   5.863   6.272   4.235
 1448SOL     OW 5242   7.000   2.353   5.277
 1448SOL    HW1 5243   6.979   2.375   5.182
 1448SOL    HW2 5244   0.021   2.431   5.320
 1449SOL     OW 5245   1.249   2.648   6.410
 1449SOL    HW1 5246   1.211   2.722   6.355
 1449SOL    HW2 5247   1.324   2.683   6.466
 1450SOL     OW 5248   0.714   2.344   1.183
 1450SOL    HW1 5249   0.716   2.249   1.214
 1450SOL    HW2 5250   0.749   2.349   1.089
 1451SOL     OW 5251   0.719   6.879   2.369
 1451SOL    HW1 5252   0.781   6.920   2.435
 1451SOL    HW2 5253   0.659   6.814   2.415
 1452SOL     OW 5254   4.375   1.754   5.105
 1452SOL    HW1 5255   4.384   1.829   5.039
 1452SOL    HW2 5256   4.303   1.692   5.074
 1453SOL     OW 5257   0.178   3.961   5.939
 1453SOL    HW1 5258   0.251   4.028   5.927
 1453SOL    HW2 5259   0.107   3.999   5.999
 1454SOL     OW 5260   0.613   2.762   2.132
 1454SOL    HW1 5261   0.693   2.750   2.190
 1454SOL    HW2 5262   0.635   2.826   2.058
 1455SOL     OW 5263   1.451   0.331   1.401
 1455SOL    HW1 5264   1.404   0.334   1.489
 1455SOL    HW2 5265   1.492   0.240   1.388
 1456SOL     OW 5266   7.002   6.625   5.780
 1456SOL    HW1 5267   0.061   6.587   5.740
 1456SOL    HW2 5268   6.932   6.632   5.709
 1457SOL     OW 5269   0.449   6.795   1.395
 1457SOL    HW1 5270   0.452   6.696   1.410
 1457SOL    HW2 5271   0.354   6.825   1.391
 1458SOL     OW 5272   5.736   5.316   4.298
 1458SOL    HW1 5273   5.692   5.236   4.257
 1458SOL    HW2 5274   5.813   5.344   4.241
 1459SOL     OW 5275   3.920   6.381   5.959
 1459SOL    HW1 5276   3.940   6.432   6.043
 1459SOL    HW2 5277   3.830   6.408   5.924
 1460SOL     OW 5278   0.262   0.111   5.457
 1460SOL    HW1 5279   0.201   0.032   5.466
 1460SOL    HW2 5280   0.306   0.129   5.545
 1461SOL     OW 5281   6.270   4.076   2.893
 1461SOL    HW1 5282   6.324   4.070   2.810
 1461SOL    HW2 5283   6.310   4.019   2.964
 1462SOL     OW 5284   1.508   0.733   0.137
 1462SOL    HW1 5285   1.499   0.704   0.233
 1462SOL    HW2 5286   1.572   0.810   0.131
 1463SOL     OW 5287   0.270   5.169   6.256
 1463SOL    HW1 5288   0.360   5.138   6.226
 1463SOL    HW2 5289   0.200   5.130   6.196
 1464SOL     OW 5290   7.016   5.948   2.083
 1464SOL    HW1 5291   0.061   6.010   2.118
 1464SOL    HW2 5292   7.017   5.864   2.137
 1465SOL     OW 5293   1.921   0.492   3.726
 1465SOL    HW1 5294   1.824   0.494   3.750
 1465SOL    HW2 5295   1.969   0.567   3.772
 1466SOL     OW 5296   2.459   2.269   2.281
 1466SOL    HW1 5297   2.505   2.210   2.348
 1466SOL    HW2 5298   2.507   2.265   2.194
 1467SOL     OW 5299   1.718   1.437   3.190
 1467SOL    HW1 5300   1.748   1.445   3.095
 1467SOL    HW2 5301   1.647   1.366   3.197
 1468SOL     OW 5302   2.889   6.000   2.968
 1468SOL    HW1 5303   2.846   5.929   2.912
 1468SOL    HW2 5304   2.952   6.053   2.911
 1469SOL     OW 5305   0.368   0.631   2.161
 1469SOL    HW1 5306   0.442   0.688   2.123
 1469SOL    HW2 5307   0.322   0.583   2.087
 1470SOL     OW 5308   0.931   2.048   2.659
 1470SOL    HW1 5309   1.021   2.004   2.665
 1470SOL    HW2 5310   0.887   2.045   2.749
 1471SOL     OW 5311   0.828   0.172   0.649
 1471SOL    HW1 5312   0.904   0.130   0.599
 1471SOL    HW2 5313   0.815   0.266   0.617
 1472SOL     OW 5314   2.460   5.487   5.392
 1472SOL    HW1 5315   2.464   5.546   5.312
 1472SOL    HW2 5316   2.375   5.504   5.442
 1473SOL     OW 5317   4.024   5.267   4.998
 1473SOL    HW1 5318   3.988   5.180   4.965
 1473SOL    HW2 5319   3.960   5.306   5.064
 1474SOL     OW 5320   5.783   5.135   2.136
 1474SOL    HW1 5321   5.788   5.117   2.037
 1474SOL    HW2 5322   5.864   5.097   2.180
 1475SOL     OW 5323   5.500   0.803   1.520
 1475SOL    HW1 5324   5.492   0.710   1.486
 1475SOL    HW2 5325   5.579   0.810   1.581
 1476SOL     OW 5326   3.241   0.831   0.906
 1476SOL    HW1 5327   3.201   0.760   0.963
 1476SOL    HW2 5328   3.270   0.792   0.819
 1477SOL     OW 5329   3.239   6.637   6.016
 1477SOL    HW1 5330   3.322   6.621   5.962
 1477SOL    HW2 5331   3.253   6.714   6.078
 1478SOL     OW 5332   6.242   5.491   5.345
 1478SOL    HW1 5333   6.332   5.499   5.388
 1478SOL    HW2 5334   6.252   5.501   5.246
 1479SOL     OW 5335   1.839   2.528   1.063
 1479SOL    HW1 5336   1.868   2.605   1.006
 1479SOL    HW2 5337   1.775   2.560   1.132
 1480SOL     OW 5338   3.463   0.712   4.879
 1480SOL    HW1 5339   3.562   0.706   4.862
 1480SOL    HW2 5340   3.447   0.745   4.972
 1481SOL     OW 5341   6.281   3.080   6.812
 1481SOL    HW1 5342   6.332   3.144   6.753
 1481SOL    HW2 5343   6.334   2.996   6.823
 1482SOL     OW 5344   4.905   1.430   1.771
 1482SOL    HW1 5345   4.910   1.528   1.788
 1482SOL    HW2 5346   4.995   1.389   1.783
 1483SOL     OW 5347   4.877   1.951   6.179
 1483SOL    HW1 5348   4.821   1.936   6.097
 1483SOL    HW2 5349   4.913   1.863   6.211
 1484SOL     OW 5350   4.999   4.915   4.049
 1484SOL    HW1 5351   5.072   4.909   4.117
 1484SOL    HW2 5352   4.977   4.823   4.016
 1485SOL     OW 5353   3.783   1.086   4.174
 1485SOL    HW1 5354   3.783   1.057   4.270
 1485SOL    HW2 5355   3.760   1.183   4.169
 1486SOL     OW 5356   5.881   0.741   2.707
 1486SOL    HW1 5357   5.977   0.729   2.679
 1486SOL    HW2 5358   5.829   0.779   2.630
 1487SOL     OW 5359   0.441   2.337   6.803
 1487SOL    HW1 5360   0.404   2.387   6.881
 1487SOL    HW2 5361   0.540   2.335   6.808
 1488SOL     OW 5362   5.700   0.315   3.725
 1488SOL    HW1 5363   5.616   0.361   3.754
 1488SOL    HW2 5364   5.773   0.382   3.717
 1489SOL     OW 5365   4.156   4.538   6.011
 1489SOL    HW1 5366   4.234   4.601   6.009
 1489SOL    HW2 5367   4.114   4.541   6.102
 1490SOL     OW 5368   1.060   3.509   1.410
 1490SOL    HW1 5369   1.122   3.432   1.425
 1490SOL    HW2 5370   0.976   3.496   1.463
 1491SOL     OW 5371   5.810   4.804   2.537
 1491SOL    HW1 5372   5.788   4.764   2.625
 1491SOL    HW2 5373   5.896   4.767   2.503
 1492SOL     OW 5374   6.359   0.631   2.453
 1492SOL    HW1 5375   6.286   0.663   2.514
 1492SOL    HW2 5376   6.400   0.548   2.491
 1493SOL     OW 5377   3.704   6.551   6.128
 1493SOL    HW1 5378   3.787   6.596   6.096
 1493SOL    HW2 5379   3.624   6.592   6.084
 1494SOL     OW 5380   5.219   2.088   6.477
 1494SOL    HW1 5381   5.137   2.081   6.533
 1494SOL    HW2 5382   5.261   1.998   6.468
 1495SOL     OW 5383   0.448   3.443   5.472
 1495SOL    HW1 5384   0.497   3.368   5.427
 1495SOL    HW2 5385   0.359   3.455   5.428
 1496SOL     OW 5386   0.384   1.680   1.408
 1496SOL    HW1 5387   0.461   1.627   1.444
 1496SOL    HW2 5388   0.376   1.664   1.309
 1497SOL     OW 5389   5.239   3.262   2.629
 1497SOL    HW1 5390   5.271   3.182   2.679
 1497SOL    HW2 5391   5.154   3.240   2.581
 1498SOL     OW 5392   2.972   4.663   6.783
 1498SOL    HW1 5393   2.966   4.605   6.864
 1498SOL    HW2 5394   2.908   4.631   6.713
 1499SOL     OW 5395   0.935   2.380   5.290
 1499SOL    HW1 5396   0.887   2.369   5.377
 1499SOL    HW2 5397   0.967   2.290   5.259
 1500SOL     OW 5398   6.832   6.975   0.415
 1500SOL    HW1 5399   6.914   6.936   0.373
 1500SOL    HW2 5400   6.784   0.008   0.348
 1501SOL     OW 5401   4.956   2.287   6.634
 1501SOL    HW1 5402   4.963   2.193   6.600
 1501SOL    HW2 5403   5.029   2.303   6.700
 1502SOL     OW 5404   4.397   0.455   6.876
 1502SOL    HW1 5405   4.462   0.525   6.846
 1502SOL    HW2 5406   4.387   0.386   6.803
 1503SOL     OW 5407   1.156   2.588   1.926
 1503SOL    HW1 5408   1.141   2.588   2.025
 1503SOL    HW2 5409   1.165   2.494   1.893
 1504SOL     OW 5410   0.481   0.159   4.272
 1504SOL    HW1 5411   0.568   0.126   4.236
 1504SOL    HW2 5412   0.440   0.090   4.332
 1505SOL     OW 5413   4.850   0.161   4.681
 1505SOL    HW1 5414   4.861   0.078   4.626
 1505SOL    HW2 5415   4.939   0.202   4.698
 1506SOL     OW 5416   0.904   6.376   0.045
 1506SOL    HW1 5417   0.864   6.402   0.133
 1506SOL    HW2 5418   0.832   6.340   7.010
 1507SOL     OW 5419   0.334   1.719   6.037
 1507SOL    HW1 5420   0.330   1.741   6.135
 1507SOL    HW2 5421   0.386   1.635   6.024
 1508SOL     OW 5422   6.707   1.620   1.413
 1508SOL    HW1 5423   6.686   1.539   1.467
 1508SOL    HW2 5424   6.796   1.608   1.368
 1509SOL     OW 5425   3.862   1.601   4.763
 1509SOL    HW1 5426   3.847   1.616   4.861
 1509SOL    HW2 5427   3.860   1.689   4.715
 1510SOL     OW 5428   4.791   1.223   4.663
 1510SOL    HW1 5429   4.723   1.171   4.713
 1510SOL    HW2 5430   4.746   1.290   4.604
 1511SOL     OW 5431   4.057   3.430   3.708
 1511SOL    HW1 5432   4.024   3.384   3.790
 1511SOL    HW2 5433   4.151   3.402   3.689
 1512SOL     OW 5434   6.987   5.387   0.596
 1512SOL    HW1 5435   6.977   5.288   0.598
 1512SOL    HW2 5436   6.933   5.428   0.669
 1513SOL     OW 5437   3.934   0.382   4.935
 1513SOL    HW1 5438   3.902   0.378   5.030
 1513SOL    HW2 5439   4.033   0.369   4.933
 1514SOL     OW 5440   3.624   2.400   5.559
 1514SOL    HW1 5441   3.646   2.350   5.643
 1514SOL    HW2 5442   3.631   2.337   5.481
 1515SOL     OW 5443   5.584   2.097   2.332
 1515SOL    HW1 5444   5.486   2.104   2.311
 1515SOL    HW2 5445   5.620   2.188   2.352
 1516SOL     OW 5446   6.655   5.881   6.388
 1516SOL    HW1 5447   6.702   5.936   6.318
 1516SOL    HW2 5448   6.711   5.878   6.470
 1517SOL     OW 5449   4.270   6.253   2.935
 1517SOL    HW1 5450   4.356   6.214   2.903
 1517SOL    HW2 5451   4.229   6.191   3.002
 1518SOL     OW 5452   0.111   2.692   0.694
 1518SOL    HW1 5453   0.141   2.783   0.721
 1518SOL    HW2 5454   0.189   2.640   0.659
 1519SOL     OW 5455   6.949   5.052   1.843
 1519SOL    HW1 5456   6.900   5.128   1.800
 1519SOL    HW2 5457   7.003   5.087   1.920
 1520SOL     OW 5458   0.595   4.443   1.697
 1520SOL    HW1 5459   0.527   4.502   1.652
 1520SOL    HW2 5460   0.591   4.351   1.657
 1521SOL     OW 5461   2.012   4.385   6.343
 1521SOL    HW1 5462   1.960   4.306   6.311
 1521SOL    HW2 5463   1.965   4.426   6.421
 1522SOL     OW 5464   5.636   5.993   5.058
 1522SOL    HW1 5465   5.683   6.031   5.137
 1522SOL    HW2 5466   5.697   5.928   5.011
 1523SOL     OW 5467   4.454   5.872   6.978
 1523SOL    HW1 5468   4.521   5.907   0.017
 1523SOL    HW2 5469   4.378   5.937   6.969
 1524SOL     OW 5470   2.305   1.728   2.804
 1524SOL    HW1 5471   2.339   1.783   2.880
 1524SOL    HW2 5472   2.366   1.739   2.725
 1525SOL     OW 5473   6.633   3.563   0.635
 1525SOL    HW1 5474   6.579   3.497   0.583
 1525SOL    HW2 5475   6.676   3.627   0.572
 1526SOL     OW 5476   6.841   1.248   6.765
 1526SOL    HW1 5477   6.834   1.255   6.864
 1526SOL    HW2 5478   6.764   1.196   6.729
 1527SOL     OW 5479   4.351   1.260   4.890
 1527SOL    HW1 5480   4.387   1.352   4.904
 1527SOL    HW2 5481   4.292   1.234   4.967
 1528SOL     OW 5482   3.962   4.935   2.542
 1528SOL    HW1 5483   3.974   4.874   2.620
 1528SOL    HW2 5484   3.990   4.889   2.458
 1529SOL     OW 5485   4.377   0.150   0.390
 1529SOL    HW1 5486   4.337   0.108   0.309
 1529SOL    HW2 5487   4.311   0.212   0.432
 1530SOL     OW 5488   4.050   2.180   2.344
 1530SOL    HW1 5489   4.131   2.228   2.311
 1530SOL    HW2 5490   4.055   2.084   2.317
 1531SOL     OW 5491   4.438   6.912   5.952
 1531SOL    HW1 5492   4.373   6.887   6.023
 1531SOL    HW2 5493   4.449   7.012   5.951
 1532SOL     OW 5494   3.186   3.315   6.591
 1532SOL    HW1 5495   3.168   3.273   6.680
 1532SOL    HW2 5496   3.248   3.256   6.538
 1533SOL     OW 5497   5.963   4.699   6.527
 1533SOL    HW1 5498   6.005   4.772   6.581
 1533SOL    HW2 5499   5.880   4.668   6.572
 1534SOL     OW 5500   2.955   5.138   6.863
 1534SOL    HW1 5501   2.910   5.227   6.861
 1534SOL    HW2 5502   2.886   5.066   6.872
 1535SOL     OW 5503   5.230   6.428   4.562
 1535SOL    HW1 5504   5.233   6.381   4.474
 1535SOL    HW2 5505   5.209   6.362   4.634
 1536SOL     OW 5506   3.706   3.981   5.827
 1536SOL    HW1 5507   3.726   4.019   5.736
 1536SOL    HW2 5508   3.773   3.909   5.848
 1537SOL     OW 5509   4.482   6.189   3.812
 1537SOL    HW1 5510   4.443   6.276   3.781
 1537SOL    HW2 5511   4.572   6.205   3.851
 1538SOL     OW 5512   3.032   6.530   6.931
 1538SOL    HW1 5513   3.013   6.484   6.845
 1538SOL    HW2 5514   3.101   6.479   6.982
 1539SOL     OW 5515   4.871   4.122   1.791
 1539SOL    HW1 5516   4.797   4.065   1.756
 1539SOL    HW2 5517   4.924   4.070   1.858
 1540SOL     OW 5518   1.058   5.664   5.541
 1540SOL    HW1 5519   1.021   5.643   5.451
 1540SOL    HW2 5520   0.983   5.668   5.608
 1541SOL     OW 5521   3.305   2.884   4.229
 1541SOL    HW1 5522   3.301   2.978   4.194
 1541SOL    HW2 5523   3.353   2.826   4.163
 1542SOL     OW 5524   6.659   0.140   2.466
 1542SOL    HW1 5525   6.746   0.180   2.497
 1542SOL    HW2 5526   6.657   0.043   2.492
 1543SOL     OW 5527   3.118   5.185   5.424
 1543SOL    HW1 5528   3.057   5.223   5.493
 1543SOL    HW2 5529   3.155   5.260   5.368
 1544SOL     OW 5530   3.082   3.166   2.440
 1544SOL    HW1 5531   3.063   3.148   2.344
 1544SOL    HW2 5532   3.149   3.100   2.474
 1545SOL     OW 5533   5.096   0.699   3.280
 1545SOL    HW1 5534   5.101   0.599   3.278
 1545SOL    HW2 5535   5.065   0.733   3.192
 1546SOL     OW 5536   3.979   0.005   6.046
 1546SOL    HW1 5537   4.033   6.952   6.015
 1546SOL    HW2 5538   4.041   0.080   6.071
 1547SOL     OW 5539   1.989   3.996   2.742
 1547SOL    HW1 5540   1.929   3.927   2.702
 1547SOL    HW2 5541   1.946   4.034   2.824
 1548SOL     OW 5542   5.884   3.429   5.439
 1548SOL    HW1 5543   5.950   3.390   5.503
 1548SOL    HW2 5544   5.836   3.355   5.391
 1549SOL     OW 5545   4.286   1.376   2.186
 1549SOL    HW1 5546   4.340   1.458   2.203
 1549SOL    HW2 5547   4.190   1.393   2.210
 1550SOL     OW 5548   2.924   3.660   0.295
 1550SOL    HW1 5549   3.000   3.597   0.281
 1550SOL    HW2 5550   2.897   3.700   0.207
 1551SOL     OW 5551   2.522   4.301   6.172
 1551SOL    HW1 5552   2.517   4.293   6.072
 1551SOL    HW2 5553   2.452   4.242   6.213
 1552SOL     OW 5554   1.212   6.136   0.677
 1552SOL    HW1 5555   1.214   6.105   0.582
 1552SOL    HW2 5556   1.223   6.235   0.681
 1553SOL     OW 5557   0.407   2.081   5.995
 1553SOL    HW1 5558   0.455   1.993   6.004
 1553SOL    HW2 5559   0.444   2.145   6.062
 1554SOL     OW 5560   3.984   2.115   2.974
 1554SOL    HW1 5561   4.004   2.166   2.890
 1554SOL    HW2 5562   4.013   2.020   2.963
 1555SOL     OW 5563   4.882   2.316   0.008
 1555SOL    HW1 5564   4.784   2.330   0.019
 1555SOL    HW2 5565   4.921   2.286   0.095
 1556SOL     OW 5566   3.180   1.603   0.444
 1556SOL    HW1 5567   3.096   1.583   0.395
 1556SOL    HW2 5568   3.236   1.666   0.390
 1557SOL     OW 5569   2.506   1.895   5.526
 1557SOL    HW1 5570   2.450   1.970   5.562
 1557SOL    HW2 5571   2.453   1.810   5.531
 1558SOL     OW 5572   5.353   0.528   4.683
 1558SOL    HW1 5573   5.401   0.516   4.769
 1558SOL    HW2 5574   5.350   0.625   4.659
 1559SOL     OW 5575   1.002   2.563   6.925
 1559SOL    HW1 5576   1.045   2.495   6.866
 1559SOL    HW2 5577   1.057   2.646   6.925
 1560SOL     OW 5578   0.459   1.220   5.720
 1560SOL    HW1 5579   0.500   1.305   5.689
 1560SOL    HW2 5580   0.378   1.240   5.776
 1561SOL     OW 5581   6.584   6.744   3.833
 1561SOL    HW1 5582   6.555   6.672   3.896
 1561SOL    HW2 5583   6.678   6.771   3.854
 1562SOL     OW 5584   4.142   5.871   2.859
 1562SOL    HW1 5585   4.193   5.900   2.940
 1562SOL    HW2 5586   4.200   5.813   2.801
 1563SOL     OW 5587   2.096   0.124   5.433
 1563SOL    HW1 5588   2.193   0.129   5.410
 1563SOL    HW2 5589   2.059   0.216   5.444
 1564SOL     OW 5590   1.438   2.694   3.454
 1564SOL    HW1 5591   1.390   2.608   3.471
 1564SOL    HW2 5592   1.425   2.721   3.358
 1565SOL     OW 5593   4.329   4.623   4.248
 1565SOL    HW1 5594   4.369   4.583   4.166
 1565SOL    HW2 5595   4.351   4.565   4.327
 1566SOL     OW 5596   6.184   4.969   2.961
 1566SOL    HW1 5597   6.205   4.893   2.899
 1566SOL    HW2 5598   6.086   4.973   2.978
 1567SOL     OW 5599   6.296   6.083   0.678
 1567SOL    HW1 5600   6.285   5.992   0.720
 1567SOL    HW2 5601   6.232   6.147   0.720
 1568SOL     OW 5602   1.481   6.661   0.115
 1568SOL    HW1 5603   1.464   6.584   0.054
 1568SOL    HW2 5604   1.417   6.656   0.192
 1569SOL     OW 5605   4.319   6.388   3.409
 1569SOL    HW1 5606   4.376   6.307   3.420
 1569SOL    HW2 5607   4.353   6.443   3.333
 1570SOL     OW 5608   1.949   0.443   0.906
 1570SOL    HW1 5609   1.951   0.359   0.961
 1570SOL    HW2 5610   2.006   0.513   0.951
 1571SOL     OW 5611   5.195   2.522   1.368
 1571SOL    HW1 5612   5.118   2.502   1.307
 1571SOL    HW2 5613   5.253   2.592   1.327
 1572SOL     OW 5614   0.844   6.791   1.048
 1572SOL    HW1 5615   0.789   6.875   1.044
 1572SOL    HW2 5616   0.783   6.712   1.048
 1573SOL     OW 5617   5.353   3.057   2.078
 1573SOL    HW1 5618   5.450   3.042   2.100
 1573SOL    HW2 5619   5.345   3.141   2.024
 1574SOL     OW 5620   6.275   1.380   1.664
 1574SOL    HW1 5621   6.215   1.416   1.735
 1574SOL    HW2 5622   6.291   1.282   1.681
 1575SOL     OW 5623   4.083   1.232   0.356
 1575SOL    HW1 5624   4.069   1.199   0.262
 1575SOL    HW2 5625   4.172   1.202   0.388
 1576SOL     OW 5626   1.332   6.872   3.670
 1576SOL    HW1 5627   1.280   6.869   3.584
 1576SOL    HW2 5628   1.429   6.884   3.649
 1577SOL     OW 5629   3.063   1.336   4.449
 1577SOL    HW1 5630   3.079   1.279   4.369
 1577SOL    HW2 5631   3.005   1.414   4.423
 1578SOL     OW 5632   6.423   3.042   6.079
 1578SOL    HW1 5633   6.346   3.063   6.140
 1578SOL    HW2 5634   6.489   3.117   6.081
 1579SOL     OW 5635   0.167   1.577   2.777
 1579SOL    HW1 5636   0.085   1.520   2.777
 1579SOL    HW2 5637   0.159   1.647   2.848
 1580SOL     OW 5638   2.940   3.911   5.142
 1580SOL    HW1 5639   2.903   4.004   5.143
 1580SOL    HW2 5640   3.040   3.915   5.145
 1581SOL     OW 5641   0.112   3.786   5.113
 1581SOL    HW1 5642   0.138   3.746   5.025
 1581SOL    HW2 5643   0.192   3.828   5.155
 1582SOL     OW 5644   0.921   6.992   4.586
 1582SOL    HW1 5645   0.900   6.895   4.573
 1582SOL    HW2 5646   0.861   0.023   4.528
 1583SOL     OW 5647   1.166   4.668   3.444
 1583SOL    HW1 5648   1.171   4.652   3.543
 1583SOL    HW2 5649   1.255   4.650   3.403
 1584SOL     OW 5650   1.483   6.600   5.143
 1584SOL    HW1 5651   1.502   6.684   5.194
 1584SOL    HW2 5652   1.391   6.604   5.105
 1585SOL     OW 5653   5.945   1.966   3.271
 1585SOL    HW1 5654   5.877   1.935   3.337
 1585SOL    HW2 5655   6.001   1.888   3.241
 1586SOL     OW 5656   3.736   5.204   1.586
 1586SOL    HW1 5657   3.640   5.228   1.574
 1586SOL    HW2 5658   3.744   5.115   1.630
 1587SOL     OW 5659   2.670   6.175   6.554
 1587SOL    HW1 5660   2.701   6.270   6.560
 1587SOL    HW2 5661   2.748   6.114   6.568
 1588SOL     OW 5662   5.024   1.532   3.276
 1588SOL    HW1 5663   4.992   1.558   3.367
 1588SOL    HW2 5664   5.119   1.562   3.263
 1589SOL     OW 5665   5.927   3.982   1.623
 1589SOL    HW1 5666   5.884   4.008   1.710
 1589SOL    HW2 5667   5.892   4.042   1.551
 1590SOL     OW 5668   2.619   5.754   6.832
 1590SOL    HW1 5669   2.652   5.722   6.921
 1590SOL    HW2 5670   2.681   5.722   6.760
 1591SOL     OW 5671   0.138   5.332   2.566
 1591SOL    HW1 5672   0.143   5.241   2.608
 1591SOL    HW2 5673   0.067   5.385   2.611
 1592SOL     OW 5674   2.495   4.365   0.894
 1592SOL    HW1 5675   2.584   4.326   0.920
 1592SOL    HW2 5676   2.455   4.311   0.821
 1593SOL     OW 5677   0.843   6.315   4.331
 1593SOL    HW1 5678   0.761   6.365   4.357
 1593SOL    HW2 5679   0.820   6.250   4.258
 1594SOL     OW 5680   6.712   6.038   2.759
 1594SOL    HW1 5681   6.614   6.050   2.742
 1594SOL    HW2 5682   6.750   6.121   2.798
 1595SOL     OW 5683   1.354   5.138   6.855
 1595SOL    HW1 5684   1.444   5.125   6.814
 1595SOL    HW2 5685   1.356   5.215   6.919
 1596SOL     OW 5686   0.550   2.657   4.525
 1596SOL    HW1 5687   0.480   2.723   4.552
 1596SOL    HW2 5688   0.625   2.659   4.590
 1597SOL     OW 5689   1.962   6.499   6.802
 1597SOL    HW1 5690   1.932   6.413   6.761
 1597SOL    HW2 5691   2.062   6.499   6.811
 1598SOL     OW 5692   0.774   3.424   6.597
 1598SOL    HW1 5693   0.777   3.333   6.556
 1598SOL    HW2 5694   0.775   3.416   6.697
 1599SOL     OW 5695   4.338   4.184   5.940
 1599SOL    HW1 5696   4.380   4.109   5.991
 1599SOL    HW2 5697   4.258   4.150   5.891
 1600SOL     OW 5698   4.990   1.541   5.073
 1600SOL    HW1 5699   5.044   1.522   4.992
 1600SOL    HW2 5700   4.908   1.483   5.073
 1601SOL     OW 5701   0.183   4.875   4.473
 1601SOL    HW1 5702   0.205   4.971   4.452
 1601SOL    HW2 5703   0.094   4.853   4.434
 1602SOL     OW 5704   2.189   5.315   4.058
 1602SOL    HW1 5705   2.137   5.392   4.096
 1602SOL    HW2 5706   2.285   5.323   4.086
 1603SOL     OW 5707   6.458   6.016   2.998
 1603SOL    HW1 5708   6.385   5.952   3.022
 1603SOL    HW2 5709   6.437   6.058   2.910
 1604SOL     OW 5710   6.412   4.285   0.309
 1604SOL    HW1 5711   6.351   4.211   0.337
 1604SOL    HW2 5712   6.492   4.247   0.261
 1605SOL     OW 5713   6.236   6.192   2.031
 1605SOL    HW1 5714   6.166   6.262   2.025
 1605SOL    HW2 5715   6.306   6.220   2.096
 1606SOL     OW 5716   3.366   0.502   5.264
 1606SOL    HW1 5717   3.449   0.472   5.311
 1606SOL    HW2 5718   3.358   0.454   5.177
 1607SOL     OW 5719   3.653   2.493   0.484
 1607SOL    HW1 5720   3.704   2.580   0.488
 1607SOL    HW2 5721   3.619   2.479   0.391
 1608SOL     OW 5722   0.875   0.110   4.346
 1608SOL    HW1 5723   0.971   0.129   4.327
 1608SOL    HW2 5724   0.828   0.195   4.370
 1609SOL     OW 5725   4.693   0.314   0.662
 1609SOL    HW1 5726   4.789   0.325   0.686
 1609SOL    HW2 5727   4.653   0.404   0.644
 1610SOL     OW 5728   5.384   4.462   5.814
 1610SOL    HW1 5729   5.385   4.387   5.880
 1610SOL    HW2 5730   5.378   4.425   5.721
 1611SOL     OW 5731   3.125   3.784   1.956
 1611SOL    HW1 5732   3.101   3.710   2.019
 1611SOL    HW2 5733   3.055   3.791   1.885
 1612SOL     OW 5734   2.471   1.091   4.906
 1612SOL    HW1 5735   2.562   1.104   4.868
 1612SOL    HW2 5736   2.461   0.997   4.939
 1613SOL     OW 5737   1.913   5.501   1.663
 1613SOL    HW1 5738   1.852   5.564   1.616
 1613SOL    HW2 5739   1.867   5.465   1.744
 1614SOL     OW 5740   6.129   3.598   0.351
 1614SOL    HW1 5741   6.127   3.628   0.256
 1614SOL    HW2 5742   6.191   3.521   0.361
 1615SOL     OW 5743   6.605   5.382   0.932
 1615SOL    HW1 5744   6.536   5.324   0.888
 1615SOL    HW2 5745   6.596   5.373   1.031
 1616SOL     OW 5746   3.352   1.610   4.532
 1616SOL    HW1 5747   3.355   1.665   4.616
 1616SOL    HW2 5748   3.294   1.656   4.465
 1617SOL     OW 5749   5.735   0.669   1.676
 1617SOL    HW1 5750   5.828   0.666   1.713
 1617SOL    HW2 5751   5.690   0.581   1.691
 1618SOL     OW 5752   1.317   3.854   1.633
 1618SOL    HW1 5753   1.369   3.907   1.567
 1618SOL    HW2 5754   1.222   3.847   1.603
 1619SOL     OW 5755   0.998   2.483   2.949
 1619SOL    HW1 5756   0.959   2.545   3.017
 1619SOL    HW2 5757   1.060   2.419   2.994
 1620SOL     OW 5758   2.622   5.395   1.282
 1620SOL    HW1 5759   2.636   5.296   1.294
 1620SOL    HW2 5760   2.690   5.430   1.217
 1621SOL     OW 5761   0.573   1.411   0.482
 1621SOL    HW1 5762   0.574   1.316   0.512
 1621SOL    HW2 5763   0.655   1.431   0.429
 1622SOL     OW 5764   0.468   2.375   4.913
 1622SOL    HW1 5765   0.490   2.471   4.895
 1622SOL    HW2 5766   0.382   2.351   4.869
 1623SOL     OW 5767   2.254   3.065   5.544
 1623SOL    HW1 5768   2.335   3.111   5.508
 1623SOL    HW2 5769   2.177   3.079   5.482
 1624SOL     OW 5770   2.813   1.357   5.230
 1624SOL    HW1 5771   2.803   1.415   5.149
 1624SOL    HW2 5772   2.892   1.297   5.218
 1625SOL     OW 5773   1.296   5.229   1.527
 1625SOL    HW1 5774   1.272   5.324   1.505
 1625SOL    HW2 5775   1.238   5.196   1.600
 1626SOL     OW 5776   3.462   2.415   6.429
 1626SOL    HW1 5777   3.425   2.394   6.520
 1626SOL    HW2 5778   3.414   2.495   6.392
 1627SOL     OW 5779   6.490   2.678   3.703
 1627SOL    HW1 5780   6.453   2.620   3.775
 1627SOL    HW2 5781   6.580   2.712   3.731
 1628SOL     OW 5782   4.400   5.106   0.196
 1628SOL    HW1 5783   4.476   5.160   0.230
 1628SOL    HW2 5784   4.355   5.154   0.121
 1629SOL     OW 5785   2.796   1.303   4.170
 1629SOL    HW1 5786   2.712   1.296   4.224
 1629SOL    HW2 5787   2.795   1.388   4.118
 1630SOL     OW 5788   1.427   6.222   6.051
 1630SOL    HW1 5789   1.515   6.269   6.058
 1630SOL    HW2 5790   1.440   6.125   6.070
 1631SOL     OW 5791   0.160   1.411   6.296
 1631SOL    HW1 5792   0.093   1.462   6.243
 1631SOL    HW2 5793   0.248   1.411   6.249
 1632SOL     OW 5794   0.006   1.635   0.370
 1632SOL    HW1 5795   0.020   1.600   0.277
 1632SOL    HW2 5796   0.087   1.688   0.397
 1633SOL     OW 5797   4.670   2.279   3.959
 1633SOL    HW1 5798   4.694   2.365   4.004
 1633SOL    HW2 5799   4.597   2.234   4.011
 1634SOL     OW 5800   3.822   4.556   6.510
 1634SOL    HW1 5801   3.916   4.584   6.492
 1634SOL    HW2 5802   3.761   4.596   6.441
 1635SOL     OW 5803   6.766   5.474   5.739
 1635SOL    HW1 5804   6.748   5.441   5.646
 1635SOL    HW2 5805   6.811   5.401   5.792
 1636SOL     OW 5806   3.085   4.133   1.419
 1636SOL    HW1 5807   3.133   4.163   1.336
 1636SOL    HW2 5808   3.110   4.193   1.495
 1637SOL     OW 5809   0.115   0.348   2.902
 1637SOL    HW1 5810   0.180   0.309   2.967
 1637SOL    HW2 5811   0.060   0.275   2.862
 1638SOL     OW 5812   0.410   3.776   3.946
 1638SOL    HW1 5813   0.477   3.706   3.971
 1638SOL    HW2 5814   0.386   3.829   4.028
 1639SOL     OW 5815   4.095   0.156   2.937
 1639SOL    HW1 5816   4.042   0.112   2.864
 1639SOL    HW2 5817   4.126   0.086   3.001
 1640SOL     OW 5818   5.929   1.325   1.033
 1640SOL    HW1 5819   6.014   1.305   1.081
 1640SOL    HW2 5820   5.883   1.402   1.077
 1641SOL     OW 5821   5.484   2.667   4.259
 1641SOL    HW1 5822   5.498   2.570   4.279
 1641SOL    HW2 5823   5.502   2.684   4.162
 1642SOL     OW 5824   5.895   3.338   6.663
 1642SOL    HW1 5825   5.933   3.330   6.571
 1642SOL    HW2 5826   5.795   3.350   6.656
 1643SOL     OW 5827   2.920   5.120   4.152
 1643SOL    HW1 5828   3.012   5.085   4.136
 1643SOL    HW2 5829   2.925   5.207   4.203
 1644SOL     OW 5830   0.491   3.035   1.169
 1644SOL    HW1 5831   0.503   3.134   1.164
 1644SOL    HW2 5832   0.511   2.994   1.080
 1645SOL     OW 5833   2.378   6.083   5.818
 1645SOL    HW1 5834   2.377   5.989   5.852
 1645SOL    HW2 5835   2.462   6.129   5.848
 1646SOL     OW 5836   2.260   6.479   0.766
 1646SOL    HW1 5837   2.322   6.508   0.838
 1646SOL    HW2 5838   2.277   6.383   0.744
 1647SOL     OW 5839   6.175   2.622   4.623
 1647SOL    HW1 5840   6.198   2.548   4.560
 1647SOL    HW2 5841   6.080   2.613   4.653
 1648SOL     OW 5842   6.000   5.965   0.850
 1648SOL    HW1 5843   5.965   6.042   0.902
 1648SOL    HW2 5844   5.974   5.974   0.754
 1649SOL     OW 5845   4.370   6.826   4.238
 1649SOL    HW1 5846   4.381   6.801   4.142
 1649SOL    HW2 5847   4.404   6.751   4.296
 1650SOL     OW 5848   1.624   6.946   4.916
 1650SOL    HW1 5849   1.582   6.887   4.847
 1650SOL    HW2 5850   1.705   6.901   4.952
 1651SOL     OW 5851   0.470   0.879   2.034
 1651SOL    HW1 5852   0.478   0.973   2.001
 1651SOL    HW2 5853   0.379   0.864   2.072
 1652SOL     OW 5854   1.857   3.389   1.689
 1652SOL    HW1 5855   1.909   3.454   1.633
 1652SOL    HW2 5856   1.860   3.418   1.785
 1653SOL     OW 5857   0.659   0.012   1.019
 1653SOL    HW1 5858   0.607   0.057   0.946
 1653SOL    HW2 5859   0.613   0.025   1.106
 1654SOL     OW 5860   6.487   3.151   2.011
 1654SOL    HW1 5861   6.501   3.206   2.093
 1654SOL    HW2 5862   6.492   3.209   1.930
 1655SOL     OW 5863   6.086   2.518   4.909
 1655SOL    HW1 5864   5.995   2.553   4.887
 1655SOL    HW2 5865   6.132   2.488   4.825
 1656SOL     OW 5866   2.289   4.618   2.681
 1656SOL    HW1 5867   2.324   4.534   2.638
 1656SOL    HW2 5868   2.299   4.694   2.616
 1657SOL     OW 5869   6.681   0.783   4.316
 1657SOL    HW1 5870   6.663   0.863   4.258
 1657SOL    HW2 5871   6.741   0.720   4.268
 1658SOL     OW 5872   0.945   6.943   2.058
 1658SOL    HW1 5873   0.915   6.847   2.060
 1658SOL    HW2 5874   0.872   7.000   2.022
 1659SOL     OW 5875   3.979   1.270   5.434
 1659SOL    HW1 5876   3.898   1.221   5.402
 1659SOL    HW2 5877   3.956   1.324   5.515
 1660SOL     OW 5878   0.965   4.975   4.077
 1660SOL    HW1 5879   0.967   5.062   4.028
 1660SOL    HW2 5880   1.051   4.963   4.127
 1661SOL     OW 5881   3.182   1.495   2.128
 1661SOL    HW1 5882   3.228   1.579   2.099
 1661SOL    HW2 5883   3.113   1.517   2.197
 1662SOL     OW 5884   6.729   1.200   3.839
 1662SOL    HW1 5885   6.633   1.196   3.864
 1662SOL    HW2 5886   6.785   1.175   3.919
 1663SOL     OW 5887   3.048   0.899   2.758
 1663SOL    HW1 5888   3.048   0.906   2.658
 1663SOL    HW2 5889   3.113   0.829   2.787
 1664SOL     OW 5890   2.345   6.999   3.689
 1664SOL    HW1 5891   2.388   0.059   3.721
 1664SOL    HW2 5892   2.284   6.964   3.760
 1665SOL     OW 5893   0.375   0.961   2.595
 1665SOL    HW1 5894   0.280   0.992   2.604
 1665SOL    HW2 5895   0.382   0.897   2.518
 1666SOL     OW 5896   5.309   3.168   0.623
 1666SOL    HW1 5897   5.345   3.216   0.703
 1666SOL    HW2 5898   5.245   3.227   0.574
 1667SOL     OW 5899   6.197   0.080   1.224
 1667SOL    HW1 5900   6.291   0.049   1.211
 1667SOL    HW2 5901   6.166   0.127   1.141
 1668SOL     OW 5902   5.045   5.745   5.568
 1668SOL    HW1 5903   5.114   5.790   5.625
 1668SOL    HW2 5904   5.047   5.785   5.476
 1669SOL     OW 5905   6.624   6.257   6.587
 1669SOL    HW1 5906   6.682   6.214   6.519
 1669SOL    HW2 5907   6.607   6.352   6.561
 1670SOL     OW 5908   0.169   5.137   6.519
 1670SOL    HW1 5909   0.072   5.118   6.501
 1670SOL    HW2 5910   0.211   5.175   6.437
 1671SOL     OW 5911   4.326   3.097   0.758
 1671SOL    HW1 5912   4.354   3.117   0.852
 1671SOL    HW2 5913   4.407   3.077   0.703
 1672SOL     OW 5914   1.969   3.766   1.856
 1672SOL    HW1 5915   1.892   3.829   1.846
 1672SOL    HW2 5916   1.972   3.732   1.950
 1673SOL     OW 5917   6.715   2.208   4.581
 1673SOL    HW1 5918   6.636   2.269   4.586
 1673SOL    HW2 5919   6.683   2.114   4.571
 1674SOL     OW 5920   0.630   4.051   2.302
 1674SOL    HW1 5921   0.703   4.119   2.296
 1674SOL    HW2 5922   0.610   4.016   2.210
 1675SOL     OW 5923   4.256   0.158   5.832
 1675SOL    HW1 5924   4.236   0.061   5.836
 1675SOL    HW2 5925   4.350   0.174   5.862
 1676SOL     OW 5926   2.788   1.503   2.338
 1676SOL    HW1 5927   2.750   1.497   2.431
 1676SOL    HW2 5928   2.880   1.541   2.342
 1677SOL     OW 5929   4.102   3.138   5.332
 1677SOL    HW1 5930   4.039   3.089   5.271
 1677SOL    HW2 5931   4.107   3.234   5.305
 1678SOL     OW 5932   4.845   4.565   4.865
 1678SOL    HW1 5933   4.765   4.505   4.869
 1678SOL    HW2 5934   4.912   4.536   4.933
 1679SOL     OW 5935   2.202   3.204   5.165
 1679SOL    HW1 5936   2.105   3.189   5.147
 1679SOL    HW2 5937   2.255   3.125   5.131
 1680SOL     OW 5938   0.643   2.256   4.311
 1680SOL    HW1 5939   0.620   2.278   4.406
 1680SOL    HW2 5940   0.740   2.274   4.296
 1681SOL     OW 5941   6.204   6.087   1.139
 1681SOL    HW1 5942   6.178   6.079   1.235
 1681SOL    HW2 5943   6.296   6.049   1.126
 1682SOL     OW 5944   0.128   2.004   4.837
 1682SOL    HW1 5945   0.188   2.081   4.817
 1682SOL    HW2 5946   0.138   1.934   4.765
 1683SOL     OW 5947   3.909   5.692   1.136
 1683SOL    HW1 5948   3.940   5.741   1.218
 1683SOL    HW2 5949   3.972   5.617   1.117
 1684SOL     OW 5950   0.871   5.887   2.856
 1684SOL    HW1 5951   0.964   5.899   2.890
 1684SOL    HW2 5952   0.869   5.901   2.757
 1685SOL     OW 5953   2.688   1.048   6.256
 1685SOL    HW1 5954   2.658   1.048   6.352
 1685SOL    HW2 5955   2.622   1.098   6.200
 1686SOL     OW 5956   1.997   4.960   4.949
 1686SOL    HW1 5957   2.066   5.031   4.935
 1686SOL    HW2 5958   2.026   4.900   5.025
 1687SOL     OW 5959   2.546   3.027   1.461
 1687SOL    HW1 5960   2.551   3.081   1.377
 1687SOL    HW2 5961   2.622   2.961   1.462
 1688SOL     OW 5962   1.436   2.672   3.934
 1688SOL    HW1 5963   1.474   2.764   3.921
 1688SOL    HW2 5964   1.347   2.679   3.979
 1689SOL     OW 5965   4.734   0.736   2.395
 1689SOL    HW1 5966   4.822   0.781   2.409
 1689SOL    HW2 5967   4.749   0.643   2.361
 1690SOL     OW 5968   1.333   3.350   3.422
 1690SOL    HW1 5969   1.402   3.296   3.470
 1690SOL    HW2 5970   1.335   3.444   3.458
 1691SOL     OW 5971   5.332   4.052   3.427
 1691SOL    HW1 5972   5.382   4.084   3.508
 1691SOL    HW2 5973   5.322   3.953   3.431
 1692SOL     OW 5974   6.066   0.607   1.341
 1692SOL    HW1 5975   6.034   0.652   1.258
 1692SOL    HW2 5976   6.146   0.656   1.378
 1693SOL     OW 5977   0.316   1.883   2.567
 1693SOL    HW1 5978   0.345   1.856   2.475
 1693SOL    HW2 5979   0.378   1.843   2.634
 1694SOL     OW 5980   5.189   0.458   3.554
 1694SOL    HW1 5981   5.216   0.430   3.462
 1694SOL    HW2 5982   5.143   0.547   3.549
 1695SOL     OW 5983   2.629   1.508   5.828
 1695SOL    HW1 5984   2.676   1.471   5.909
 1695SOL    HW2 5985   2.696   1.547   5.766
 1696SOL     OW 5986   4.972   4.469   0.771
 1696SOL    HW1 5987   5.020   4.510   0.693
 1696SOL    HW2 5988   4.874   4.471   0.754
 1697SOL     OW 5989   5.470   5.945   2.226
 1697SOL    HW1 5990   5.423   5.858   2.209
 1697SOL    HW2 5991   5.464   5.967   2.323
 1698SOL     OW 5992   4.980   0.907   0.800
 1698SOL    HW1 5993   4.910   0.938   0.864
 1698SOL    HW2 5994   5.028   0.828   0.838
 1699SOL     OW 5995   2.858   1.562   1.209
 1699SOL    HW1 5996   2.955   1.585   1.209
 1699SOL    HW2 5997   2.814   1.604   1.130
 1700SOL     OW 5998   6.272   2.294   3.459
 1700SOL    HW1 5999   6.325   2.216   3.426
 1700SOL    HW2 6000   6.329   2.376   3.456
 1701SOL     OW 6001   5.481   3.541   5.820
 1701SOL    HW1 6002   5.466   3.475   5.893
 1701SOL    HW2 6003   5.444   3.506   5.734
 1702SOL     OW 6004   6.867   3.043   0.912
 1702SOL    HW1 6005   6.961   3.009   0.905
 1702SOL    HW2 6006   6.804   2.970   0.886
 1703SOL     OW 6007   4.100   3.518   2.968
 1703SOL    HW1 6008   4.046   3.448   2.923
 1703SOL    HW2 6009   4.155   3.476   3.041
 1704SOL     OW 6010   0.672   1.114   2.133
 1704SOL    HW1 6011   0.708   1.021   2.128
 1704SOL    HW2 6012   0.621   1.125   2.218
 1705SOL     OW 6013   3.662   2.177   1.540
 1705SOL    HW1 6014   3.623   2.261   1.578
 1705SOL    HW2 6015   3.705   2.125   1.613
 1706SOL     OW 6016   4.795   0.753   1.651
 1706SOL    HW1 6017   4.876   0.700   1.628
 1706SOL    HW2 6018   4.717   0.720   1.598
 1707SOL     OW 6019   4.509   2.137   2.644
 1707SOL    HW1 6020   4.512   2.183   2.733
 1707SOL    HW2 6021   4.517   2.039   2.657
 1708SOL     OW 6022   4.630   5.129   2.303
 1708SOL    HW1 6023   4.687   5.107   2.383
 1708SOL    HW2 6024   4.661   5.076   2.225
 1709SOL     OW 6025   2.590   5.936   1.854
 1709SOL    HW1 6026   2.685   5.909   1.842
 1709SOL    HW2 6027   2.560   5.989   1.775
 1710SOL     OW 6028   5.783   4.659   3.638
 1710SOL    HW1 6029   5.690   4.631   3.662
 1710SOL    HW2 6030   5.780   4.713   3.553
 1711SOL     OW 6031   1.432   4.500   4.680
 1711SOL    HW1 6032   1.451   4.568   4.610
 1711SOL    HW2 6033   1.333   4.482   4.685
 1712SOL     OW 6034   0.990   2.821   6.536
 1712SOL    HW1 6035   0.937   2.853   6.457
 1712SOL    HW2 6036   0.991   2.721   6.537
 1713SOL     OW 6037   3.662   2.471   1.236
 1713SOL    HW1 6038   3.673   2.411   1.156
 1713SOL    HW2 6039   3.688   2.422   1.319
 1714SOL     OW 6040   4.854   1.562   5.843
 1714SOL    HW1 6041   4.844   1.470   5.803
 1714SOL    HW2 6042   4.807   1.565   5.931
 1715SOL     OW 6043   6.848   3.743   2.490
 1715SOL    HW1 6044   6.761   3.696   2.478
 1715SOL    HW2 6045   6.920   3.694   2.441
 1716SOL     OW 6046   4.677   6.787   2.594
 1716SOL    HW1 6047   4.746   6.845   2.637
 1716SOL    HW2 6048   4.586   6.812   2.627
 1717SOL     OW 6049   1.962   6.812   6.198
 1717SOL    HW1 6050   2.012   6.770   6.273
 1717SOL    HW2 6051   1.946   6.909   6.218
 1718SOL     OW 6052   2.261   2.084   2.248
 1718SOL    HW1 6053   2.166   2.110   2.233
 1718SOL    HW2 6054   2.311   2.161   2.286
 1719SOL     OW 6055   2.287   4.386   1.154
 1719SOL    HW1 6056   2.376   4.342   1.165
 1719SOL    HW2 6057   2.280   4.464   1.215
 1720SOL     OW 6058   0.095   1.476   1.108
 1720SOL    HW1 6059   0.053   1.468   1.018
 1720SOL    HW2 6060   0.126   1.386   1.138
 1721SOL     OW 6061   1.184   6.641   3.200
 1721SOL    HW1 6062   1.214   6.691   3.119
 1721SOL    HW2 6063   1.199   6.543   3.186
 1722SOL     OW 6064   4.785   2.079   3.822
 1722SOL    HW1 6065   4.728   2.005   3.860
 1722SOL    HW2 6066   4.784   2.157   3.885
 1723SOL     OW 6067   6.845   2.609   2.700
 1723SOL    HW1 6068   6.791   2.562   2.631
 1723SOL    HW2 6069   6.855   2.705   2.675
 1724SOL     OW 6070   6.225   1.906   0.920
 1724SOL    HW1 6071   6.176   1.867   0.842
 1724SOL    HW2 6072   6.246   1.834   0.986
 1725SOL     OW 6073   2.647   4.772   0.012
 1725SOL    HW1 6074   2.691   4.805   6.953
 1725SOL    HW2 6075   2.711   4.778   0.088
 1726SOL     OW 6076   5.671   4.358   5.639
 1726SOL    HW1 6077   5.616   4.353   5.722
 1726SOL    HW2 6078   5.618   4.323   5.562
 1727SOL     OW 6079   3.565   3.177   4.797
 1727SOL    HW1 6080   3.586   3.094   4.746
 1727SOL    HW2 6081   3.576   3.257   4.737
 1728SOL     OW 6082   5.897   5.553   4.575
 1728SOL    HW1 6083   5.811   5.548   4.524
 1728SOL    HW2 6084   5.877   5.576   4.671
 1729SOL     OW 6085   2.144   3.854   3.659
 1729SOL    HW1 6086   2.128   3.791   3.582
 1729SOL    HW2 6087   2.214   3.920   3.633
 1730SOL     OW 6088   6.237   7.005   5.182
 1730SOL    HW1 6089   6.192   6.967   5.262
 1730SOL    HW2 6090   6.308   6.942   5.150
 1731SOL     OW 6091   0.227   4.979   1.931
 1731SOL    HW1 6092   0.240   5.022   2.020
 1731SOL    HW2 6093   0.181   4.891   1.943
 1732SOL     OW 6094   2.358   4.460   5.642
 1732SOL    HW1 6095   2.325   4.367   5.661
 1732SOL    HW2 6096   2.396   4.463   5.550
 1733SOL     OW 6097   1.011   3.614   2.528
 1733SOL    HW1 6098   1.019   3.639   2.624
 1733SOL    HW2 6099   0.921   3.572   2.513
 1734SOL     OW 6100   4.846   3.256   1.812
 1734SOL    HW1 6101   4.929   3.220   1.770
 1734SOL    HW2 6102   4.794   3.181   1.854
 1735SOL     OW 6103   6.017   5.926   1.335
 1735SOL    HW1 6104   6.029   6.024   1.350
 1735SOL    HW2 6105   6.102   5.886   1.301
 1736SOL     OW 6106   4.226   2.425   1.243
 1736SOL    HW1 6107   4.191   2.355   1.305
 1736SOL    HW2 6108   4.150   2.478   1.206
 1737SOL     OW 6109   2.983   1.009   4.354
 1737SOL    HW1 6110   2.911   1.016   4.422
 1737SOL    HW2 6111   3.066   0.973   4.397
 1738SOL     OW 6112   2.112   1.631   3.944
 1738SOL    HW1 6113   2.188   1.576   3.978
 1738SOL    HW2 6114   2.109   1.627   3.844
 1739SOL     OW 6115   5.598   2.010   5.515
 1739SOL    HW1 6116   5.510   2.010   5.563
 1739SOL    HW2 6117   5.671   2.034   5.578
 1740SOL     OW 6118   0.449   1.310   6.446
 1740SOL    HW1 6119   0.446   1.248   6.368
 1740SOL    HW2 6120   0.362   1.358   6.454
 1741SOL     OW 6121   2.099   0.614   4.101
 1741SOL    HW1 6122   2.003   0.626   4.076
 1741SOL    HW2 6123   2.150   0.695   4.074
 1742SOL     OW 6124   4.701   6.361   6.112
 1742SOL    HW1 6125   4.725   6.281   6.166
 1742SOL    HW2 6126   4.625   6.340   6.051
 1743SOL     OW 6127   1.918   1.992   2.531
 1743SOL    HW1 6128   2.010   2.018   2.561
 1743SOL    HW2 6129   1.919   1.898   2.497
 1744SOL     OW 6130   0.404   0.492   1.394
 1744SOL    HW1 6131   0.320   0.453   1.357
 1744SOL    HW2 6132   0.437   0.435   1.469
 1745SOL     OW 6133   6.549   0.529   3.692
 1745SOL    HW1 6134   6.452   0.509   3.677
 1745SOL    HW2 6135   6.593   0.448   3.731
 1746SOL     OW 6136   2.430   5.058   5.750
 1746SOL    HW1 6137   2.354   5.109   5.709
 1746SOL    HW2 6138   2.442   5.085   5.845
 1747SOL     OW 6139   5.614   1.078   3.093
 1747SOL    HW1 6140   5.582   1.095   3.000
 1747SOL    HW2 6141   5.667   1.157   3.125
 1748SOL     OW 6142   0.711   1.051   3.946
 1748SOL    HW1 6143   0.718   1.145   3.981
 1748SOL    HW2 6144   0.616   1.028   3.929
 1749SOL     OW 6145   2.747   6.986   5.355
 1749SOL    HW1 6146   2.736   6.890   5.379
 1749SOL    HW2 6147   2.836   7.018   5.386
 1750SOL     OW 6148   6.368   0.114   3.103
 1750SOL    HW1 6149   6.400   0.020   3.114
 1750SOL    HW2 6150   6.301   0.135   3.175
 1751SOL     OW 6151   4.097   5.825   4.618
 1751SOL    HW1 6152   4.024   5.880   4.656
 1751SOL    HW2 6153   4.113   5.745   4.676
 1752SOL     OW 6154   0.028   2.330   2.396
 1752SOL    HW1 6155   7.015   2.279   2.473
 1752SOL    HW2 6156   0.116   2.371   2.423
 1753SOL     OW 6157   6.901   2.623   0.814
 1753SOL    HW1 6158   6.989   2.644   0.771
 1753SOL    HW2 6159   6.884   2.524   0.808
 1754SOL     OW 6160   3.311   3.528   1.471
 1754SOL    HW1 6161   3.301   3.473   1.554
 1754SOL    HW2 6162   3.277   3.621   1.488
 1755SOL     OW 6163   5.905   5.854   2.751
 1755SOL    HW1 6164   5.820   5.801   2.751
 1755SOL    HW2 6165   5.892   5.937   2.696
 1756SOL     OW 6166   4.225   4.242   6.186
 1756SOL    HW1 6167   4.145   4.192   6.153
 1756SOL    HW2 6168   4.296   4.242   6.116
 1757SOL     OW 6169   2.494   5.204   4.912
 1757SOL    HW1 6170   2.444   5.283   4.946
 1757SOL    HW2 6171   2.485   5.128   4.977
 1758SOL     OW 6172   2.890   0.334   3.906
 1758SOL    HW1 6173   2.987   0.338   3.883
 1758SOL    HW2 6174   2.879   0.328   4.005
 1759SOL     OW 6175   1.187   5.109   5.821
 1759SOL    HW1 6176   1.218   5.155   5.738
 1759SOL    HW2 6177   1.161   5.015   5.800
 1760SOL     OW 6178   5.817   1.991   1.555
 1760SOL    HW1 6179   5.913   2.019   1.543
 1760SOL    HW2 6180   5.758   2.072   1.551
 1761SOL     OW 6181   0.102   0.661   0.644
 1761SOL    HW1 6182   0.058   0.590   0.590
 1761SOL    HW2 6183   0.033   0.722   0.682
 1762SOL     OW 6184   6.798   1.785   4.774
 1762SOL    HW1 6185   6.892   1.751   4.782
 1762SOL    HW2 6186   6.750   1.736   4.702
 1763SOL     OW 6187   1.530   3.605   3.978
 1763SOL    HW1 6188   1.586   3.523   3.965
 1763SOL    HW2 6189   1.523   3.625   4.076
 1764SOL     OW 6190   2.208   3.855   2.351
 1764SOL    HW1 6191   2.243   3.946   2.376
 1764SOL    HW2 6192   2.251   3.824   2.267
 1765SOL     OW 6193   3.739   2.054   6.789
 1765SOL    HW1 6194   3.825   2.077   6.742
 1765SOL    HW2 6195   3.670   2.030   6.721
 1766SOL     OW 6196   4.927   3.544   3.606
 1766SOL    HW1 6197   5.003   3.565   3.544
 1766SOL    HW2 6198   4.870   3.626   3.618
 1767SOL     OW 6199   6.418   3.900   3.082
 1767SOL    HW1 6200   6.343   3.833   3.073
 1767SOL    HW2 6201   6.419   3.936   3.175
 1768SOL     OW 6202   3.796   1.255   4.785
 1768SOL    HW1 6203   3.835   1.311   4.858
 1768SOL    HW2 6204   3.726   1.309   4.736
 1769SOL     OW 6205   4.463   2.518   4.957
 1769SOL    HW1 6206   4.376   2.491   4.997
 1769SOL    HW2 6207   4.460   2.504   4.858
 1770SOL     OW 6208   0.277   5.326   4.583
 1770SOL    HW1 6209   0.259   5.242   4.635
 1770SOL    HW2 6210   0.207   5.337   4.513
 1771SOL     OW 6211   2.385   5.228   6.920
 1771SOL    HW1 6212   2.359   5.188   7.008
 1771SOL    HW2 6213   2.321   5.301   6.897
 1772SOL     OW 6214   3.098   6.435   3.602
 1772SOL    HW1 6215   3.194   6.443   3.577
 1772SOL    HW2 6216   3.041   6.446   3.520
 1773SOL     OW 6217   2.658   4.701   6.039
 1773SOL    HW1 6218   2.658   4.793   6.079
 1773SOL    HW2 6219   2.603   4.701   5.955
 1774SOL     OW 6220   4.445   6.929   1.871
 1774SOL    HW1 6221   4.457   6.970   1.780
 1774SOL    HW2 6222   4.427   6.831   1.861
 1775SOL     OW 6223   0.966   4.601   4.062
 1775SOL    HW1 6224   0.990   4.510   4.028
 1775SOL    HW2 6225   0.868   4.604   4.084
 1776SOL     OW 6226   3.389   1.115   4.805
 1776SOL    HW1 6227   3.454   1.048   4.840
 1776SOL    HW2 6228   3.437   1.199   4.780
 1777SOL     OW 6229   3.476   5.311   5.691
 1777SOL    HW1 6230   3.408   5.237   5.689
 1777SOL    HW2 6231   3.511   5.321   5.785
 1778SOL     OW 6232   4.730   2.622   5.867
 1778SOL    HW1 6233   4.721   2.677   5.950
 1778SOL    HW2 6234   4.815   2.647   5.820
 1779SOL     OW 6235   4.574   1.084   4.831
 1779SOL    HW1 6236   4.494   1.145   4.827
 1779SOL    HW2 6237   4.565   1.022   4.909
 1780SOL     OW 6238   2.646   3.300   5.981
 1780SOL    HW1 6239   2.563   3.271   5.932
 1780SOL    HW2 6240   2.683   3.382   5.937
 1781SOL     OW 6241   4.336   5.755   4.046
 1781SOL    HW1 6242   4.383   5.733   4.132
 1781SOL    HW2 6243   4.333   5.674   3.988
 1782SOL     OW 6244   2.696   2.335   2.930
 1782SOL    HW1 6245   2.780   2.328   2.876
 1782SOL    HW2 6246   2.719   2.335   3.028
 1783SOL     OW 6247   1.252   3.953   6.367
 1783SOL    HW1 6248   1.198   4.005   6.433
 1783SOL    HW2 6249   1.276   4.012   6.290
 1784SOL     OW 6250   3.452   1.504   5.129
 1784SOL    HW1 6251   3.383   1.555   5.077
 1784SOL    HW2 6252   3.406   1.438   5.189
 1785SOL     OW 6253   6.016   5.561   3.563
 1785SOL    HW1 6254   5.946   5.610   3.511
 1785SOL    HW2 6255   6.025   5.603   3.654
 1786SOL     OW 6256   1.620   2.541   1.310
 1786SOL    HW1 6257   1.616   2.554   1.409
 1786SOL    HW2 6258   1.602   2.628   1.264
 1787SOL     OW 6259   2.447   1.213   4.524
 1787SOL    HW1 6260   2.434   1.114   4.517
 1787SOL    HW2 6261   2.404   1.246   4.609
 1788SOL     OW 6262   3.493   3.132   7.007
 1788SOL    HW1 6263   3.420   3.076   6.970
 1788SOL    HW2 6264   3.462   3.177   0.066
 1789SOL     OW 6265   6.133   1.576   2.497
 1789SOL    HW1 6266   6.136   1.489   2.447
 1789SOL    HW2 6267   6.069   1.638   2.452
 1790SOL     OW 6268   4.379   6.326   4.122
 1790SOL    HW1 6269   4.281   6.328   4.142
 1790SOL    HW2 6270   4.407   6.232   4.103
 1791SOL     OW 6271   7.003   1.501   3.801
 1791SOL    HW1 6272   0.046   1.430   3.824
 1791SOL    HW2 6273   6.991   1.561   3.879
 1792SOL     OW 6274   0.213   2.163   3.846
 1792SOL    HW1 6275   0.235   2.172   3.943
 1792SOL    HW2 6276   0.283   2.210   3.791
 1793SOL     OW 6277   0.009   6.987   3.644
 1793SOL    HW1 6278   6.962   6.972   3.576
 1793SOL    HW2 6279   6.991   7.002   3.734
 1794SOL     OW 6280   5.906   6.204   6.276
 1794SOL    HW1 6281   5.891   6.296   6.240
 1794SOL    HW2 6282   5.820   6.152   6.271
 1795SOL     OW 6283   7.020   3.017   2.313
 1795SOL    HW1 6284   0.039   3.065   2.389
 1795SOL    HW2 6285   0.003   2.918   2.328
 1796SOL     OW 6286   2.545   0.785   4.350
 1796SOL    HW1 6287   2.644   0.790   4.341
 1796SOL    HW2 6288   2.505   0.765   4.260
 1797SOL     OW 6289   1.190   0.792   6.447
 1797SOL    HW1 6290   1.282   0.798   6.409
 1797SOL    HW2 6291   1.190   0.732   6.527
 1798SOL     OW 6292   4.853   2.107   4.472
 1798SOL    HW1 6293   4.951   2.096   4.484
 1798SOL    HW2 6294   4.823   2.059   4.390
 1799SOL     OW 6295   6.348   1.563   6.381
 1799SOL    HW1 6296   6.422   1.570   6.448
 1799SOL    HW2 6297   6.286   1.489   6.407
 1800SOL     OW 6298   4.136   5.120   2.858
 1800SOL    HW1 6299   4.174   5.097   2.947
 1800SOL    HW2 6300   4.164   5.213   2.833
 1801SOL     OW 6301   0.675   0.825   2.310
 1801SOL    HW1 6302   0.581   0.836   2.340
 1801SOL    HW2 6303   0.731   0.900   2.346
 1802SOL     OW 6304   5.609   5.236   2.400
 1802SOL    HW1 6305   5.612   5.276   2.308
 1802SOL    HW2 6306   5.615   5.137   2.393
 1803SOL     OW 6307   0.133   6.161   7.007
 1803SOL    HW1 6308   0.143   6.161   0.082
 1803SOL    HW2 6309   0.196   6.094   6.967
 1804SOL     OW 6310   2.028   4.315   6.007
 1804SOL    HW1 6311   1.988   4.273   5.925
 1804SOL    HW2 6312   2.116   4.356   5.984
 1805SOL     OW 6313   6.536   3.698   5.784
 1805SOL    HW1 6314   6.500   3.790   5.768
 1805SOL    HW2 6315   6.590   3.697   5.868
 1806SOL     OW 6316   0.988   1.186   0.605
 1806SOL    HW1 6317   0.914   1.123   0.628
 1806SOL    HW2 6318   1.041   1.207   0.687
 1807SOL     OW 6319   4.962   2.268   5.989
 1807SOL    HW1 6320   5.014   2.237   6.069
 1807SOL    HW2 6321   5.025   2.283   5.912
 1808SOL     OW 6322   0.084   3.455   5.788
 1808SOL    HW1 6323   0.162   3.405   5.749
 1808SOL    HW2 6324   0.056   3.412   5.874
 1809SOL     OW 6325   2.123   3.558   4.638
 1809SOL    HW1 6326   2.122   3.471   4.590
 1809SOL    HW2 6327   2.118   3.633   4.572
 1810SOL     OW 6328   2.682   0.780   4.651
 1810SOL    HW1 6329   2.743   0.701   4.647
 1810SOL    HW2 6330   2.596   0.753   4.695
 1811SOL     OW 6331   4.567   4.598   3.691
 1811SOL    HW1 6332   4.578   4.505   3.725
 1811SOL    HW2 6333   4.528   4.595   3.598
 1812SOL     OW 6334   4.336   6.412   5.874
 1812SOL    HW1 6335   4.272   6.344   5.840
 1812SOL    HW2 6336   4.406   6.429   5.805
 1813SOL     OW 6337   5.343   5.117   0.373
 1813SOL    HW1 6338   5.285   5.064   0.311
 1813SOL    HW2 6339   5.397   5.055   0.430
 1814SOL     OW 6340   6.937   1.047   0.208
 1814SOL    HW1 6341   6.851   0.998   0.195
 1814SOL    HW2 6342   7.013   0.986   0.188
 1815SOL     OW 6343   5.998   2.645   1.827
 1815SOL    HW1 6344   5.943   2.670   1.747
 1815SOL    HW2 6345   6.085   2.695   1.824
 1816SOL     OW 6346   2.496   4.058   0.935
 1816SOL    HW1 6347   2.459   4.095   0.849
 1816SOL    HW2 6348   2.595   4.046   0.927
 1817SOL     OW 6349   3.170   6.896   3.372
 1817SOL    HW1 6350   3.217   6.885   3.460
 1817SOL    HW2 6351   3.229   6.944   3.308
 1818SOL     OW 6352   2.185   6.663   2.703
 1818SOL    HW1 6353   2.180   6.680   2.605
 1818SOL    HW2 6354   2.152   6.571   2.723
 1819SOL     OW 6355   0.250   5.437   1.528
 1819SOL    HW1 6356   0.212   5.436   1.621
 1819SOL    HW2 6357   0.202   5.370   1.472
 1820SOL     OW 6358   5.018   0.760   2.686
 1820SOL    HW1 6359   5.084   0.817   2.638
 1820SOL    HW2 6360   5.048   0.665   2.684
 1821SOL     OW 6361   2.381   0.884   1.848
 1821SOL    HW1 6362   2.377   0.961   1.785
 1821SOL    HW2 6363   2.425   0.806   1.803
 1822SOL     OW 6364   2.190   2.758   1.225
 1822SOL    HW1 6365   2.281   2.725   1.201
 1822SOL    HW2 6366   2.161   2.827   1.159
 1823SOL     OW 6367   2.734   5.790   3.334
 1823SOL    HW1 6368   2.788   5.768   3.415
 1823SOL    HW2 6369   2.687   5.877   3.348
 1824SOL     OW 6370   3.768   3.390   1.612
 1824SOL    HW1 6371   3.821   3.310   1.640
 1824SOL    HW2 6372   3.732   3.375   1.519
 1825SOL     OW 6373   1.230   1.925   4.184
 1825SOL    HW1 6374   1.313   1.871   4.197
 1825SOL    HW2 6375   1.254   2.016   4.152
 1826SOL     OW 6376   3.156   0.231   0.826
 1826SOL    HW1 6377   3.172   0.231   0.924
 1826SOL    HW2 6378   3.065   0.193   0.807
 1827SOL     OW 6379   0.391   6.249   1.537
 1827SOL    HW1 6380   0.458   6.317   1.567
 1827SOL    HW2 6381   0.305   6.264   1.585
 1828SOL     OW 6382   1.134   2.452   0.733
 1828SOL    HW1 6383   1.097   2.468   0.825
 1828SOL    HW2 6384   1.188   2.531   0.705
 1829SOL     OW 6385   3.018   0.606   3.524
 1829SOL    HW1 6386   3.108   0.592   3.481
 1829SOL    HW2 6387   3.031   0.634   3.619
 1830SOL     OW 6388   5.851   6.373   3.784
 1830SOL    HW1 6389   5.905   6.386   3.700
 1830SOL    HW2 6390   5.890   6.297   3.837
 1831SOL     OW 6391   6.076   0.381   2.263
 1831SOL    HW1 6392   6.018   0.403   2.342
 1831SOL    HW2 6393   6.110   0.288   2.273
 1832SOL     OW 6394   5.080   1.709   1.013
 1832SOL    HW1 6395   5.081   1.798   1.059
 1832SOL    HW2 6396   4.991   1.694   0.971
 1833SOL     OW 6397   5.258   0.364   6.726
 1833SOL    HW1 6398   5.262   0.424   6.646
 1833SOL    HW2 6399   5.347   0.321   6.741
 1834SOL     OW 6400   2.654   4.333   0.609
 1834SOL    HW1 6401   2.697   4.271   0.674
 1834SOL    HW2 6402   2.715   4.348   0.531
 1835SOL     OW 6403   0.247   3.867   2.240
 1835SOL    HW1 6404   0.287   3.777   2.260
 1835SOL    HW2 6405   0.312   3.939   2.264
 1836SOL     OW 6406   5.134   2.704   0.954
 1836SOL    HW1 6407   5.087   2.692   0.867
 1836SOL    HW2 6408   5.159   2.800   0.966
 1837SOL     OW 6409   1.342   1.139   4.591
 1837SOL    HW1 6410   1.297   1.219   4.552
 1837SOL    HW2 6411   1.423   1.168   4.642
 1838SOL     OW 6412   0.020   1.336   4.214
 1838SOL    HW1 6413   0.077   1.327   4.295
 1838SOL    HW2 6414   0.077   1.327   4.132
 1839SOL     OW 6415   5.432   2.701   5.430
 1839SOL    HW1 6416   5.345   2.655   5.449
 1839SOL    HW2 6417   5.497   2.634   5.393
 1840SOL     OW 6418   3.371   6.228   1.474
 1840SOL    HW1 6419   3.400   6.226   1.570
 1840SOL    HW2 6420   3.314   6.309   1.459
 1841SOL     OW 6421   2.391   1.078   3.631
 1841SOL    HW1 6422   2.319   1.016   3.599
 1841SOL    HW2 6423   2.350   1.166   3.657
 1842SOL     OW 6424   1.822   5.723   0.346
 1842SOL    HW1 6425   1.742   5.743   0.402
 1842SOL    HW2 6426   1.816   5.775   0.261
 1843SOL     OW 6427   6.496   2.286   3.823
 1843SOL    HW1 6428   6.487   2.195   3.782
 1843SOL    HW2 6429   6.591   2.301   3.850
 1844SOL     OW 6430   3.432   0.260   5.513
 1844SOL    HW1 6431   3.400   0.349   5.544
 1844SOL    HW2 6432   3.515   0.271   5.459
 1845SOL     OW 6433   2.526   0.257   5.075
 1845SOL    HW1 6434   2.539   0.198   5.154
 1845SOL    HW2 6435   2.487   0.344   5.104
 1846SOL     OW 6436   4.325   2.215   0.989
 1846SOL    HW1 6437   4.305   2.118   1.005
 1846SOL    HW2 6438   4.312   2.266   1.074
 1847SOL     OW 6439   1.656   1.141   6.541
 1847SOL    HW1 6440   1.683   1.178   6.452
 1847SOL    HW2 6441   1.557   1.148   6.551
 1848SOL     OW 6442   1.167   6.843   3.017
 1848SOL    HW1 6443   1.130   6.926   3.058
 1848SOL    HW2 6444   1.092   6.788   2.981
 1849SOL     OW 6445   3.758   2.651   0.721
 1849SOL    HW1 6446   3.840   2.689   0.679
 1849SOL    HW2 6447   3.784   2.572   0.778
 1850SOL     OW 6448   0.979   2.280   2.108
 1850SOL    HW1 6449   1.056   2.273   2.171
 1850SOL    HW2 6450   0.918   2.353   2.138
 1851SOL     OW 6451   6.959   2.674   1.071
 1851SOL    HW1 6452   0.029   2.645   1.055
 1851SOL    HW2 6453   6.905   2.655   0.989
 1852SOL     OW 6454   6.612   4.074   1.775
 1852SOL    HW1 6455   6.696   4.119   1.806
 1852SOL    HW2 6456   6.614   3.978   1.801
 1853SOL     OW 6457   0.027   2.597   2.922
 1853SOL    HW1 6458   6.969   2.558   2.881
 1853SOL    HW2 6459   0.010   2.691   2.949
 1854SOL     OW 6460   2.673   6.063   3.313
 1854SOL    HW1 6461   2.684   6.099   3.220
 1854SOL    HW2 6462   2.745   6.100   3.371
 1855SOL     OW 6463   5.234   3.052   5.890
 1855SOL    HW1 6464   5.257   2.986   5.818
 1855SOL    HW2 6465   5.245   3.010   5.979
 1856SOL     OW 6466   5.984   3.463   5.743
 1856SOL    HW1 6467   5.885   3.452   5.744
 1856SOL    HW2 6468   6.028   3.374   5.758
 1857SOL     OW 6469   4.112   1.472   5.358
 1857SOL    HW1 6470   4.115   1.493   5.260
 1857SOL    HW2 6471   4.062   1.387   5.373
 1858SOL     OW 6472   6.345   3.879   3.854
 1858SOL    HW1 6473   6.337   3.894   3.755
 1858SOL    HW2 6474   6.286   3.944   3.902
 1859SOL     OW 6475   4.797   1.894   2.883
 1859SOL    HW1 6476   4.872   1.852   2.831
 1859SOL    HW2 6477   4.718   1.906   2.824
 1860SOL     OW 6478   6.388   0.429   5.187
 1860SOL    HW1 6479   6.291   0.440   5.210
 1860SOL    HW2 6480   6.406   0.334   5.163
 1861SOL     OW 6481   5.908   0.264   2.060
 1861SOL    HW1 6482   5.824   0.274   2.007
 1861SOL    HW2 6483   5.889   0.276   2.157
 1862SOL     OW 6484   2.332   6.977   6.275
 1862SOL    HW1 6485   2.248   7.010   6.319
 1862SOL    HW2 6486   2.395   0.029   6.263
 1863SOL     OW 6487   1.682   2.113   2.399
 1863SOL    HW1 6488   1.643   2.054   2.469
 1863SOL    HW2 6489   1.734   2.059   2.334
 1864SOL     OW 6490   1.269   6.674   5.563
 1864SOL    HW1 6491   1.221   6.587   5.573
 1864SOL    HW2 6492   1.324   6.691   5.644
 1865SOL     OW 6493   3.458   6.678   6.322
 1865SOL    HW1 6494   3.539   6.734   6.338
 1865SOL    HW2 6495   3.383   6.736   6.290
 1866SOL     OW 6496   4.157   5.344   3.325
 1866SOL    HW1 6497   4.115   5.322   3.412
 1866SOL    HW2 6498   4.255   5.323   3.329
 1867SOL     OW 6499   0.492   4.286   0.238
 1867SOL    HW1 6500   0.584   4.293   0.275
 1867SOL    HW2 6501   0.469   4.189   0.225
 1868SOL     OW 6502   4.697   4.003   6.726
 1868SOL    HW1 6503   4.690   4.097   6.693
 1868SOL    HW2 6504   4.781   3.992   6.779
 1869SOL     OW 6505   6.193   2.974   5.526
 1869SOL    HW1 6506   6.206   2.972   5.626
 1869SOL    HW2 6507   6.102   2.941   5.503
 1870SOL     OW 6508   1.643   3.064   5.569
 1870SOL    HW1 6509   1.622   2.982   5.516
 1870SOL    HW2 6510   1.742   3.076   5.574
 1871SOL     OW 6511   0.155   0.546   0.318
 1871SOL    HW1 6512   0.115   0.491   0.392
 1871SOL    HW2 6513   0.217   0.490   0.264
 1872SOL     OW 6514   3.976   1.454   6.064
 1872SOL    HW1 6515   4.066   1.479   6.028
 1872SOL    HW2 6516   3.941   1.529   6.120
 1873SOL     OW 6517   5.344   1.286   5.741
 1873SOL    HW1 6518   5.251   1.298   5.777
 1873SOL    HW2 6519   5.345   1.209   5.676
 1874SOL     OW 6520   3.273   1.647   0.714
 1874SOL    HW1 6521   3.306   1.564   0.671
 1874SOL    HW2 6522   3.196   1.683   0.661
 1875SOL     OW 6523   6.926   0.812   7.016
 1875SOL    HW1 6524   6.837   0.818   6.970
 1875SOL    HW2 6525   6.999   0.825   6.949
 1876SOL     OW 6526   3.729   6.401   6.355
 1876SOL    HW1 6527   3.722   6.455   6.271
 1876SOL    HW2 6528   3.825   6.396   6.383
 1877SOL     OW 6529   0.312   0.360   2.368
 1877SOL    HW1 6530   0.374   0.437   2.354
 1877SOL    HW2 6531   0.360   0.274   2.351
 1878SOL     OW 6532   6.666   2.486   3.499
 1878SOL    HW1 6533   6.761   2.473   3.529
 1878SOL    HW2 6534   6.611   2.513   3.578
 1879SOL     OW 6535   1.289   4.773   3.920
 1879SOL    HW1 6536   1.251   4.777   4.013
 1879SOL    HW2 6537   1.389   4.778   3.925
 1880SOL     OW 6538   6.554   1.308   4.225
 1880SOL    HW1 6539   6.514   1.300   4.316
 1880SOL    HW2 6540   6.600   1.396   4.215
 1881SOL     OW 6541   5.953   2.398   2.693
 1881SOL    HW1 6542   5.872   2.341   2.698
 1881SOL    HW2 6543   6.026   2.357   2.748
 1882SOL     OW 6544   0.477   3.463   6.290
 1882SOL    HW1 6545   0.382   3.443   6.267
 1882SOL    HW2 6546   0.480   3.540   6.354
 1883SOL     OW 6547   0.957   2.245   3.960
 1883SOL    HW1 6548   0.935   2.221   4.054
 1883SOL    HW2 6549   0.968   2.344   3.952
 1884SOL     OW 6550   6.508   3.246   0.642
 1884SOL    HW1 6551   6.555   3.175   0.694
 1884SOL    HW2 6552   6.416   3.259   0.678
 1885SOL     OW 6553   1.518   2.502   6.295
 1885SOL    HW1 6554   1.456   2.466   6.364
 1885SOL    HW2 6555   1.604   2.450   6.297
 1886SOL     OW 6556   2.460   1.019   1.431
 1886SOL    HW1 6557   2.438   1.072   1.512
 1886SOL    HW2 6558   2.439   0.923   1.447
 1887SOL     OW 6559   0.857   5.256   5.141
 1887SOL    HW1 6560   0.906   5.297   5.064
 1887SOL    HW2 6561   0.820   5.329   5.199
 1888SOL     OW 6562   2.510   2.177   6.917
 1888SOL    HW1 6563   2.454   2.132   6.847
 1888SOL    HW2 6564   2.598   2.202   6.877
 1889SOL     OW 6565   0.426   2.823   6.025
 1889SOL    HW1 6566   0.427   2.744   5.964
 1889SOL    HW2 6567   0.496   2.888   5.996
 1890SOL     OW 6568   1.664   6.553   4.691
 1890SOL    HW1 6569   1.584   6.497   4.713
 1890SOL    HW2 6570   1.736   6.494   4.654
 1891SOL     OW 6571   5.389   2.120   1.996
 1891SOL    HW1 6572   5.341   2.040   2.032
 1891SOL    HW2 6573   5.335   2.202   2.011
 1892SOL     OW 6574   2.446   1.027   2.546
 1892SOL    HW1 6575   2.444   0.940   2.596
 1892SOL    HW2 6576   2.353   1.050   2.516
 1893SOL     OW 6577   3.667   3.195   6.818
 1893SOL    HW1 6578   3.747   3.135   6.807
 1893SOL    HW2 6579   3.608   3.160   6.890
 1894SOL     OW 6580   3.662   4.134   3.944
 1894SOL    HW1 6581   3.688   4.149   4.039
 1894SOL    HW2 6582   3.581   4.189   3.923
 1895SOL     OW 6583   5.024   0.643   1.526
 1895SOL    HW1 6584   5.003   0.741   1.524
 1895SOL    HW2 6585   5.052   0.614   1.434
 1896SOL     OW 6586   5.573   0.107   1.452
 1896SOL    HW1 6587   5.616   0.034   1.398
 1896SOL    HW2 6588   5.474   0.102   1.444
 1897SOL     OW 6589   1.659   5.218   1.651
 1897SOL    HW1 6590   1.601   5.137   1.643
 1897SOL    HW2 6591   1.625   5.277   1.723
 1898SOL     OW 6592   2.232   5.593   3.235
 1898SOL    HW1 6593   2.215   5.528   3.160
 1898SOL    HW2 6594   2.145   5.622   3.274
 1899SOL     OW 6595   1.197   0.738   2.263
 1899SOL    HW1 6596   1.197   0.821   2.207
 1899SOL    HW2 6597   1.240   0.757   2.351
 1900SOL     OW 6598   1.307   0.400   6.511
 1900SOL    HW1 6599   1.212   0.370   6.514
 1900SOL    HW2 6600   1.328   0.453   6.593
 1901SOL     OW 6601   1.782   1.858   1.252
 1901SOL    HW1 6602   1.843   1.936   1.265
 1901SOL    HW2 6603   1.687   1.891   1.250
 1902SOL     OW 6604   1.937   1.855   5.089
 1902SOL    HW1 6605   2.025   1.816   5.061
 1902SOL    HW2 6606   1.864   1.815   5.035
 1903SOL     OW 6607   6.851   3.381   2.497
 1903SOL    HW1 6608   6.809   3.296   2.466
 1903SOL    HW2 6609   6.900   3.423   2.421
 1904SOL     OW 6610   5.304   5.533   3.564
 1904SOL    HW1 6611   5.241   5.497   3.633
 1904SOL    HW2 6612   5.265   5.616   3.523
 1905SOL     OW 6613   1.070   0.146   3.557
 1905SOL    HW1 6614   1.119   0.130   3.471
 1905SOL    HW2 6615   1.130   0.123   3.634
 1906SOL     OW 6616   2.379   0.211   4.863
 1906SOL    HW1 6617   2.440   0.219   4.942
 1906SOL    HW2 6618   2.408   0.136   4.805
 1907SOL     OW 6619   3.666   1.153   1.534
 1907SOL    HW1 6620   3.634   1.176   1.626
 1907SOL    HW2 6621   3.662   1.234   1.476
 1908SOL     OW 6622   3.865   6.561   5.251
 1908SOL    HW1 6623   3.897   6.515   5.334
 1908SOL    HW2 6624   3.933   6.628   5.222
 1909SOL     OW 6625   7.005   3.808   2.717
 1909SOL    HW1 6626   0.063   3.852   2.682
 1909SOL    HW2 6627   6.963   3.754   2.645
 1910SOL     OW 6628   0.329   4.275   6.959
 1910SOL    HW1 6629   0.414   4.223   6.955
 1910SOL    HW2 6630   0.333   4.352   6.896
 1911SOL     OW 6631   6.746   3.724   4.935
 1911SOL    HW1 6632   6.668   3.769   4.892
 1911SOL    HW2 6633   6.746   3.745   5.033
 1912SOL     OW 6634   3.800   5.785   0.838
 1912SOL    HW1 6635   3.819   5.750   0.930
 1912SOL    HW2 6636   3.711   5.831   0.837
 1913SOL     OW 6637   2.554   6.770   4.826
 1913SOL    HW1 6638   2.575   6.743   4.732
 1913SOL    HW2 6639   2.589   6.702   4.890
 1914SOL     OW 6640   3.703   2.935   5.999
 1914SOL    HW1 6641   3.695   2.998   5.921
 1914SOL    HW2 6642   3.690   2.841   5.968
 1915SOL     OW 6643   3.344   2.076   5.103
 1915SOL    HW1 6644   3.258   2.117   5.075
 1915SOL    HW2 6645   3.341   2.056   5.201
 1916SOL     OW 6646   4.247   5.835   1.333
 1916SOL    HW1 6647   4.213   5.744   1.358
 1916SOL    HW2 6648   4.252   5.892   1.415
 1917SOL     OW 6649   2.509   3.130   6.444
 1917SOL    HW1 6650   2.514   3.201   6.375
 1917SOL    HW2 6651   2.413   3.114   6.469
 1918SOL     OW 6652   1.120   1.002   5.276
 1918SOL    HW1 6653   1.139   1.060   5.196
 1918SOL    HW2 6654   1.158   1.045   5.358
 1919SOL     OW 6655   2.077   0.773   1.613
 1919SOL    HW1 6656   2.034   0.692   1.653
 1919SOL    HW2 6657   2.080   0.846   1.681
 1920SOL     OW 6658   0.193   3.896   2.595
 1920SOL    HW1 6659   0.279   3.933   2.628
 1920SOL    HW2 6660   0.158   3.953   2.521
 1921SOL     OW 6661   1.511   3.804   6.130
 1921SOL    HW1 6662   1.422   3.817   6.086
 1921SOL    HW2 6663   1.520   3.869   6.206
 1922SOL     OW 6664   2.251   3.556   1.002
 1922SOL    HW1 6665   2.297   3.467   1.008
 1922SOL    HW2 6666   2.158   3.548   1.039
 1923SOL     OW 6667   4.124   0.709   5.381
 1923SOL    HW1 6668   4.072   0.700   5.295
 1923SOL    HW2 6669   4.110   0.801   5.418
 1924SOL     OW 6670   5.136   6.652   0.081
 1924SOL    HW1 6671   5.139   6.662   0.180
 1924SOL    HW2 6672   5.221   6.609   0.049
 1925SOL     OW 6673   1.993   5.020   1.215
 1925SOL    HW1 6674   1.898   5.002   1.189
 1925SOL    HW2 6675   2.040   5.066   1.140
 1926SOL     OW 6676   2.497   6.879   3.050
 1926SOL    HW1 6677   2.488   6.809   2.978
 1926SOL    HW2 6678   2.406   6.905   3.082
 1927SOL     OW 6679   2.697   4.679   0.439
 1927SOL    HW1 6680   2.611   4.631   0.456
 1927SOL    HW2 6681   2.742   4.698   0.526
 1928SOL     OW 6682   6.522   4.289   5.276
 1928SOL    HW1 6683   6.534   4.206   5.330
 1928SOL    HW2 6684   6.550   4.271   5.181
 1929SOL     OW 6685   2.099   7.010   1.320
 1929SOL    HW1 6686   2.196   6.986   1.313
 1929SOL    HW2 6687   2.089   0.084   1.315
 1930SOL     OW 6688   4.120   3.653   6.459
 1930SOL    HW1 6689   4.050   3.718   6.430
 1930SOL    HW2 6690   4.190   3.701   6.511
 1931SOL     OW 6691   1.579   2.676   1.564
 1931SOL    HW1 6692   1.648   2.746   1.580
 1931SOL    HW2 6693   1.490   2.719   1.549
 1932SOL     OW 6694   4.840   2.457   2.911
 1932SOL    HW1 6695   4.804   2.540   2.954
 1932SOL    HW2 6696   4.766   2.409   2.865
 1933SOL     OW 6697   1.573   3.263   0.487
 1933SOL    HW1 6698   1.589   3.306   0.576
 1933SOL    HW2 6699   1.597   3.166   0.493
 1934SOL     OW 6700   6.614   0.306   5.394
 1934SOL    HW1 6701   6.554   0.326   5.472
 1934SOL    HW2 6702   6.579   0.352   5.313
 1935SOL     OW 6703   4.660   5.921   3.608
 1935SOL    HW1 6704   4.608   5.845   3.647
 1935SOL    HW2 6705   4.618   6.008   3.636
 1936SOL     OW 6706   5.483   4.301   3.901
 1936SOL    HW1 6707   5.460   4.359   3.823
 1936SOL    HW2 6708   5.556   4.344   3.954
 1937SOL     OW 6709   4.392   6.024   0.578
 1937SOL    HW1 6710   4.406   5.933   0.540
 1937SOL    HW2 6711   4.481   6.065   0.599
 1938SOL     OW 6712   1.282   1.817   2.020
 1938SOL    HW1 6713   1.278   1.917   2.014
 1938SOL    HW2 6714   1.285   1.778   1.928
 1939SOL     OW 6715   7.000   6.661   4.419
 1939SOL    HW1 6716   6.901   6.649   4.422
 1939SOL    HW2 6717   0.014   6.604   4.346
 1940SOL     OW 6718   5.735   5.668   0.775
 1940SOL    HW1 6719   5.773   5.755   0.806
 1940SOL    HW2 6720   5.645   5.654   0.816
 1941SOL     OW 6721   1.401   2.885   4.289
 1941SOL    HW1 6722   1.320   2.867   4.232
 1941SOL    HW2 6723   1.481   2.841   4.248
 1942SOL     OW 6724   5.553   2.712   1.566
 1942SOL    HW1 6725   5.488   2.641   1.594
 1942SOL    HW2 6726   5.503   2.796   1.545
 1943SOL     OW 6727   1.870   6.854   3.032
 1943SOL    HW1 6728   1.789   6.801   3.009
 1943SOL    HW2 6729   1.913   6.815   3.114
 1944SOL     OW 6730   6.116   3.633   0.078
 1944SOL    HW1 6731   6.182   3.675   0.015
 1944SOL    HW2 6732   6.023   3.654   0.048
 1945SOL     OW 6733   4.043   5.571   0.000
 1945SOL    HW1 6734   4.066   5.637   6.953
 1945SOL    HW2 6735   4.103   5.491   7.017
 1946SOL     OW 6736   5.945   6.600   0.998
 1946SOL    HW1 6737   5.945   6.586   1.097
 1946SOL    HW2 6738   5.916   6.517   0.952
 1947SOL     OW 6739   5.769   6.569   4.533
 1947SOL    HW1 6740   5.722   6.507   4.470
 1947SOL    HW2 6741   5.702   6.614   4.592
 1948SOL     OW 6742   6.773   4.820   2.860
 1948SOL    HW1 6743   6.702   4.886   2.882
 1948SOL    HW2 6744   6.746   4.729   2.891
 1949SOL     OW 6745   3.655   3.489   6.408
 1949SOL    HW1 6746   3.656   3.521   6.314
 1949SOL    HW2 6747   3.677   3.564   6.470
 1950SOL     OW 6748   3.855   2.886   1.321
 1950SOL    HW1 6749   3.790   2.896   1.396
 1950SOL    HW2 6750   3.807   2.888   1.234
 1951SOL     OW 6751   6.600   4.883   6.810
 1951SOL    HW1 6752   6.565   4.793   6.783
 1951SOL    HW2 6753   6.633   4.879   6.904
 1952SOL     OW 6754   4.897   4.478   1.399
 1952SOL    HW1 6755   4.811   4.440   1.364
 1952SOL    HW2 6756   4.938   4.413   1.463
 1953SOL     OW 6757   6.075   1.568   5.531
 1953SOL    HW1 6758   6.015   1.641   5.563
 1953SOL    HW2 6759   6.139   1.605   5.464
 1954SOL     OW 6760   6.521   0.214   1.477
 1954SOL    HW1 6761   6.564   0.298   1.509
 1954SOL    HW2 6762   6.437   0.236   1.428
 1955SOL     OW 6763   0.272   0.190   3.051
 1955SOL    HW1 6764   0.355   0.227   3.093
 1955SOL    HW2 6765   0.241   0.110   3.103
 1956SOL     OW 6766   5.100   6.672   1.671
 1956SOL    HW1 6767   5.094   6.591   1.613
 1956SOL    HW2 6768   5.168   6.735   1.634
 1957SOL     OW 6769   5.213   4.423   4.070
 1957SOL    HW1 6770   5.265   4.355   4.122
 1957SOL    HW2 6771   5.270   4.458   3.996
 1958SOL     OW 6772   4.625   1.672   1.657
 1958SOL    HW1 6773   4.671   1.619   1.728
 1958SOL    HW2 6774   4.575   1.747   1.699
 1959SOL     OW 6775   1.260   0.102   3.710
 1959SOL    HW1 6776   1.316   0.020   3.701
 1959SOL    HW2 6777   1.274   0.142   3.801
 1960SOL     OW 6778   0.389   4.016   2.423
 1960SOL    HW1 6779   0.395   4.038   2.520
 1960SOL    HW2 6780   0.481   4.000   2.387
 1961SOL     OW 6781   6.750   4.186   4.481
 1961SOL    HW1 6782   6.790   4.113   4.537
 1961SOL    HW2 6783   6.813   4.210   4.408
 1962SOL     OW 6784   1.589   6.400   2.458
 1962SOL    HW1 6785   1.641   6.400   2.544
 1962SOL    HW2 6786   1.635   6.340   2.392
 1963SOL     OW 6787   0.777   1.467   1.770
 1963SOL    HW1 6788   0.870   1.479   1.737
 1963SOL    HW2 6789   0.747   1.551   1.816
 1964SOL     OW 6790   4.308   4.625   1.688
 1964SOL    HW1 6791   4.313   4.677   1.603
 1964SOL    HW2 6792   4.298   4.527   1.667
 1965SOL     OW 6793   1.710   3.206   4.475
 1965SOL    HW1 6794   1.726   3.221   4.572
 1965SOL    HW2 6795   1.621   3.163   4.462
 1966SOL     OW 6796   0.452   6.047   1.325
 1966SOL    HW1 6797   0.420   6.119   1.387
 1966SOL    HW2 6798   0.551   6.042   1.328
 1967SOL     OW 6799   5.738   2.924   3.890
 1967SOL    HW1 6800   5.810   2.951   3.954
 1967SOL    HW2 6801   5.732   2.991   3.817
 1968SOL     OW 6802   2.226   0.402   5.557
 1968SOL    HW1 6803   2.265   0.485   5.597
 1968SOL    HW2 6804   2.189   0.424   5.466
 1969SOL     OW 6805   2.862   1.361   1.014
 1969SOL    HW1 6806   2.905   1.419   0.944
 1969SOL    HW2 6807   2.860   1.410   1.101
 1970SOL     OW 6808   1.837   0.002   5.927
 1970SOL    HW1 6809   1.877   0.037   5.842
 1970SOL    HW2 6810   1.859   6.929   5.937
 1971SOL     OW 6811   0.108   0.847   5.156
 1971SOL    HW1 6812   0.054   0.763   5.167
 1971SOL    HW2 6813   0.130   0.884   5.246
 1972SOL     OW 6814   5.564   2.209   1.125
 1972SOL    HW1 6815   5.529   2.261   1.203
 1972SOL    HW2 6816   5.520   2.119   1.122
 1973SOL     OW 6817   2.672   3.785   0.911
 1973SOL    HW1 6818   2.578   3.762   0.885
 1973SOL    HW2 6819   2.713   3.844   0.841
 1974SOL     OW 6820   5.089   0.294   4.723
 1974SOL    HW1 6821   5.075   0.390   4.745
 1974SOL    HW2 6822   5.152   0.286   4.645
 1975SOL     OW 6823   2.103   2.156   4.006
 1975SOL    HW1 6824   2.134   2.124   3.916
 1975SOL    HW2 6825   2.155   2.110   4.077
 1976SOL     OW 6826   6.251   6.355   0.389
 1976SOL    HW1 6827   6.171   6.296   0.397
 1976SOL    HW2 6828   6.267   6.401   0.477
 1977SOL     OW 6829   1.848   3.465   5.493
 1977SOL    HW1 6830   1.853   3.442   5.590
 1977SOL    HW2 6831   1.938   3.450   5.451
 1978SOL     OW 6832   2.000   6.103   3.185
 1978SOL    HW1 6833   2.043   6.114   3.096
 1978SOL    HW2 6834   2.032   6.177   3.246
 1979SOL     OW 6835   5.285   4.944   6.873
 1979SOL    HW1 6836   5.374   4.911   6.905
 1979SOL    HW2 6837   5.281   4.935   6.773
 1980SOL     OW 6838   4.123   6.687   3.943
 1980SOL    HW1 6839   4.088   6.700   4.036
 1980SOL    HW2 6840   4.051   6.708   3.877
 1981SOL     OW 6841   5.896   3.534   2.282
 1981SOL    HW1 6842   5.871   3.471   2.356
 1981SOL    HW2 6843   5.974   3.498   2.232
 1982SOL     OW 6844   6.735   4.502   3.665
 1982SOL    HW1 6845   6.749   4.590   3.712
 1982SOL    HW2 6846   6.639   4.494   3.639
 1983SOL     OW 6847   1.872   6.982   1.706
 1983SOL    HW1 6848   1.877   0.057   1.712
 1983SOL    HW2 6849   1.964   6.943   1.718
 1984SOL     OW 6850   4.737   2.555   4.919
 1984SOL    HW1 6851   4.714   2.562   4.821
 1984SOL    HW2 6852   4.661   2.514   4.968
 1985SOL     OW 6853   0.091   6.157   2.801
 1985SOL    HW1 6854   0.114   6.163   2.704
 1985SOL    HW2 6855   0.175   6.144   2.854
 1986SOL     OW 6856   3.189   1.459   6.485
 1986SOL    HW1 6857   3.110   1.401   6.465
 1986SOL    HW2 6858   3.158   1.544   6.527
 1987SOL     OW 6859   2.140   1.981   3.087
 1987SOL    HW1 6860   2.116   2.057   3.026
 1987SOL    HW2 6861   2.165   2.017   3.177
 1988SOL     OW 6862   6.917   3.520   0.885
 1988SOL    HW1 6863   6.826   3.486   0.905
 1988SOL    HW2 6864   6.983   3.444   0.892
 1989SOL     OW 6865   1.903   5.473   5.440
 1989SOL    HW1 6866   1.849   5.467   5.524
 1989SOL    HW2 6867   1.876   5.399   5.378
 1990SOL     OW 6868   4.049   5.724   0.749
 1990SOL    HW1 6869   3.960   5.732   0.794
 1990SOL    HW2 6870   4.084   5.631   0.761
 1991SOL     OW 6871   2.519   6.061   0.390
 1991SOL    HW1 6872   2.535   5.964   0.374
 1991SOL    HW2 6873   2.487   6.104   0.305
 1992SOL     OW 6874   0.120   0.832   0.389
 1992SOL    HW1 6875   0.145   0.741   0.421
 1992SOL    HW2 6876   0.139   0.839   0.291
 1993SOL     OW 6877   3.683   1.772   5.868
 1993SOL    HW1 6878   3.673   1.812   5.959
 1993SOL    HW2 6879   3.691   1.673   5.876
 1994SOL     OW 6880   6.596   2.318   0.722
 1994SOL    HW1 6881   6.677   2.323   0.780
 1994SOL    HW2 6882   6.579   2.408   0.681
 1995SOL     OW 6883   5.448   2.996   3.656
 1995SOL    HW1 6884   5.527   3.041   3.615
 1995SOL    HW2 6885   5.441   2.903   3.620
 1996SOL     OW 6886   2.540   1.932   0.917
 1996SOL    HW1 6887   2.613   1.951   0.850
 1996SOL    HW2 6888   2.574   1.951   1.009
 1997SOL     OW 6889   3.988   1.825   4.352
 1997SOL    HW1 6890   4.034   1.737   4.366
 1997SOL    HW2 6891   4.008   1.859   4.260
 1998SOL     OW 6892   1.287   3.568   0.363
 1998SOL    HW1 6893   1.260   3.489   0.308
 1998SOL    HW2 6894   1.253   3.557   0.456
 1999SOL     OW 6895   1.462   6.958   6.172
 1999SOL    HW1 6896   1.502   0.025   6.178
 1999SOL    HW2 6897   1.515   6.895   6.228
 2000SOL     OW 6898   3.702   2.666   5.647
 2000SOL    HW1 6899   3.670   2.734   5.581
 2000SOL    HW2 6900   3.650   2.581   5.635
 2001SOL     OW 6901   2.100   1.167   1.361
 2001SOL    HW1 6902   2.153   1.243   1.399
 2001SOL    HW2 6903   2.151   1.123   1.287
 2002SOL     OW 6904   0.125   4.599   0.505
 2002SOL    HW1 6905   0.147   4.656   0.584
 2002SOL    HW2 6906   0.206   4.592   0.446
 2003SOL     OW 6907   6.949   5.062   2.493
 2003SOL    HW1 6908   0.008   5.050   2.545
 2003SOL    HW2 6909   6.963   5.033   2.399
 2004SOL     OW 6910   5.340   0.815   4.256
 2004SOL    HW1 6911   5.245   0.793   4.277
 2004SOL    HW2 6912   5.400   0.763   4.316
 2005SOL     OW 6913   6.823   4.699   0.705
 2005SOL    HW1 6914   6.808   4.662   0.797
 2005SOL    HW2 6915   6.899   4.763   0.707
 2006SOL     OW 6916   5.477   0.277   3.429
 2006SOL    HW1 6917   5.526   0.359   3.460
 2006SOL    HW2 6918   5.507   0.254   3.337
 2007SOL     OW 6919   5.004   4.732   1.049
 2007SOL    HW1 6920   5.086   4.749   0.994
 2007SOL    HW2 6921   5.027   4.676   1.128
 2008SOL     OW 6922   1.933   4.131   3.723
 2008SOL    HW1 6923   1.990   4.051   3.742
 2008SOL    HW2 6924   1.986   4.200   3.676
 2009SOL     OW 6925   4.884   6.928   2.703
 2009SOL    HW1 6926   4.922   6.987   2.631
 2009SOL    HW2 6927   4.873   6.981   2.787
 2010SOL     OW 6928   2.537   1.747   1.574
 2010SOL    HW1 6929   2.525   1.845   1.557
 2010SOL    HW2 6930   2.581   1.705   1.495
 2011SOL     OW 6931   0.853   0.571   4.861
 2011SOL    HW1 6932   0.772   0.541   4.810
 2011SOL    HW2 6933   0.823   0.615   4.946
 2012SOL     OW 6934   1.597   3.926   2.843
 2012SOL    HW1 6935   1.566   4.020   2.854
 2012SOL    HW2 6936   1.619   3.909   2.747
 2013SOL     OW 6937   5.812   3.270   4.144
 2013SOL    HW1 6938   5.827   3.175   4.171
 2013SOL    HW2 6939   5.821   3.329   4.224
 2014SOL     OW 6940   2.891   6.914   3.215
 2014SOL    HW1 6941   2.805   6.880   3.253
 2014SOL    HW2 6942   2.962   6.906   3.285
 2015SOL     OW 6943   2.300   6.981   0.989
 2015SOL    HW1 6944   2.274   6.985   0.893
 2015SOL    HW2 6945   2.225   6.943   1.043
 2016SOL     OW 6946   1.712   5.644   5.864
 2016SOL    HW1 6947   1.701   5.639   5.963
 2016SOL    HW2 6948   1.669   5.727   5.830
 2017SOL     OW 6949   4.158   0.322   3.203
 2017SOL    HW1 6950   4.160   0.269   3.118
 2017SOL    HW2 6951   4.070   0.367   3.212
 2018SOL     OW 6952   6.240   2.961   3.894
 2018SOL    HW1 6953   6.291   2.982   3.810
 2018SOL    HW2 6954   6.239   2.862   3.908
 2019SOL     OW 6955   5.620   3.939   6.399
 2019SOL    HW1 6956   5.633   3.840   6.411
 2019SOL    HW2 6957   5.523   3.961   6.411
 2020SOL     OW 6958   1.923   0.049   6.252
 2020SOL    HW1 6959   2.002   0.058   6.190
 2020SOL    HW2 6960   1.894   0.140   6.281
 2021SOL     OW 6961   6.632   6.629   4.933
 2021SOL    HW1 6962   6.670   6.617   4.841
 2021SOL    HW2 6963   6.568   6.705   4.932
 2022SOL     OW 6964   1.390   4.590   4.185
 2022SOL    HW1 6965   1.467   4.584   4.122
 2022SOL    HW2 6966   1.424   4.605   4.278
 2023SOL     OW 6967   0.716   0.836   6.639
 2023SOL    HW1 6968   0.719   0.744   6.602
 2023SOL    HW2 6969   0.805   0.860   6.679
 2024SOL     OW 6970   0.237   5.529   3.739
 2024SOL    HW1 6971   0.222   5.430   3.736
 2024SOL    HW2 6972   0.252   5.558   3.834
 2025SOL     OW 6973   4.220   0.836   3.880
 2025SOL    HW1 6974   4.151   0.764   3.888
 2025SOL    HW2 6975   4.197   0.911   3.941
 2026SOL     OW 6976   6.674   2.513   6.273
 2026SOL    HW1 6977   6.663   2.481   6.367
 2026SOL    HW2 6978   6.768   2.544   6.259
 2027SOL     OW 6979   1.347   0.318   1.648
 2027SOL    HW1 6980   1.357   0.218   1.654
 2027SOL    HW2 6981   1.359   0.357   1.739
 2028SOL     OW 6982   3.508   5.451   4.672
 2028SOL    HW1 6983   3.588   5.416   4.623
 2028SOL    HW2 6984   3.484   5.388   4.746
 2029SOL     OW 6985   6.511   2.051   0.216
 2029SOL    HW1 6986   6.446   2.007   0.154
 2029SOL    HW2 6987   6.490   2.149   0.223
 2030SOL     OW 6988   3.046   0.219   3.370
 2030SOL    HW1 6989   3.056   0.181   3.278
 2030SOL    HW2 6990   2.959   0.268   3.376
 2031SOL     OW 6991   6.690   5.974   2.043
 2031SOL    HW1 6992   6.787   5.993   2.059
 2031SOL    HW2 6993   6.675   5.955   1.947
 2032SOL     OW 6994   3.798   1.427   1.540
 2032SOL    HW1 6995   3.742   1.357   1.583
 2032SOL    HW2 6996   3.774   1.517   1.576
 2033SOL     OW 6997   2.489   1.470   0.654
 2033SOL    HW1 6998   2.514   1.483   0.558
 2033SOL    HW2 6999   2.403   1.517   0.672
 2034SOL     OW 7000   2.676   5.296   5.783
 2034SOL    HW1 7001   2.733   5.375   5.760
 2034SOL    HW2 7002   2.615   5.276   5.707
 2035SOL     OW 7003   6.485   6.450   3.454
 2035SOL    HW1 7004   6.569   6.491   3.487
 2035SOL    HW2 7005   6.413   6.462   3.522
 2036SOL     OW 7006   1.252   3.219   2.796
 2036SOL    HW1 7007   1.286   3.179   2.881
 2036SOL    HW2 7008   1.323   3.275   2.755
 2037SOL     OW 7009   6.432   2.548   6.130
 2037SOL    HW1 7010   6.414   2.541   6.032
 2037SOL    HW2 7011   6.526   2.520   6.148
 2038SOL     OW 7012   2.297   1.543   0.346
 2038SOL    HW1 7013   2.289   1.557   0.444
 2038SOL    HW2 7014   2.208   1.556   0.302
 2039SOL     OW 7015   6.984   6.151   3.494
 2039SOL    HW1 7016   6.920   6.154   3.417
 2039SOL    HW2 7017   0.036   6.091   3.471
 2040SOL     OW 7018   1.936   2.285   0.012
 2040SOL    HW1 7019   1.852   2.330   0.041
 2040SOL    HW2 7020   1.965   2.220   0.083
 2041SOL     OW 7021   1.009   6.888   4.913
 2041SOL    HW1 7022   1.100   6.866   4.948
 2041SOL    HW2 7023   0.985   6.982   4.939
 2042SOL     OW 7024   5.487   6.900   6.204
 2042SOL    HW1 7025   5.506   6.802   6.213
 2042SOL    HW2 7026   5.550   6.940   6.138
 2043SOL     OW 7027   6.247   2.718   2.843
 2043SOL    HW1 7028   6.184   2.669   2.903
 2043SOL    HW2 7029   6.204   2.803   2.812
 2044SOL     OW 7030   6.394   0.435   1.122
 2044SOL    HW1 7031   6.311   0.393   1.159
 2044SOL    HW2 7032   6.418   0.515   1.177
 2045SOL     OW 7033   1.046   4.753   4.686
 2045SOL    HW1 7034   1.080   4.815   4.756
 2045SOL    HW2 7035   1.053   4.797   4.596
 2046SOL     OW 7036   6.276   1.940   5.089
 2046SOL    HW1 7037   6.346   1.884   5.045
 2046SOL    HW2 7038   6.199   1.881   5.116
 2047SOL     OW 7039   6.860   2.431   0.496
 2047SOL    HW1 7040   6.772   2.461   0.534
 2047SOL    HW2 7041   6.911   2.511   0.465
 2048SOL     OW 7042   0.307   0.160   5.196
 2048SOL    HW1 7043   0.237   0.231   5.187
 2048SOL    HW2 7044   0.310   0.129   5.291
 2049SOL     OW 7045   5.787   1.717   4.442
 2049SOL    HW1 7046   5.879   1.679   4.451
 2049SOL    HW2 7047   5.720   1.651   4.476
 2050SOL     OW 7048   6.901   2.624   4.171
 2050SOL    HW1 7049   6.878   2.529   4.150
 2050SOL    HW2 7050   6.997   2.631   4.197
 2051SOL     OW 7051   1.792   6.234   6.818
 2051SOL    HW1 7052   1.843   6.163   6.770
 2051SOL    HW2 7053   1.712   6.193   6.863
 2052SOL     OW 7054   1.450   2.951   1.151
 2052SOL    HW1 7055   1.475   2.996   1.065
 2052SOL    HW2 7056   1.356   2.916   1.144
 2053SOL     OW 7057   0.534   5.404   4.980
 2053SOL    HW1 7058   0.497   5.408   4.887
 2053SOL    HW2 7059   0.603   5.332   4.986
 2054SOL     OW 7060   2.956   3.734   3.366
 2054SOL    HW1 7061   2.931   3.708   3.273
 2054SOL    HW2 7062   3.010   3.818   3.364
 2055SOL     OW 7063   6.219   2.701   5.069
 2055SOL    HW1 7064   6.172   2.636   5.009
 2055SOL    HW2 7065   6.243   2.782   5.016
 2056SOL     OW 7066   4.068   5.121   1.991
 2056SOL    HW1 7067   4.049   5.191   2.060
 2056SOL    HW2 7068   3.993   5.054   1.990
 2057SOL     OW 7069   5.058   3.749   5.560
 2057SOL    HW1 7070   5.053   3.766   5.658
 2057SOL    HW2 7071   4.969   3.769   5.518
 2058SOL     OW 7072   0.213   6.414   2.490
 2058SOL    HW1 7073   0.260   6.401   2.577
 2058SOL    HW2 7074   0.275   6.389   2.415
 2059SOL     OW 7075   2.210   6.384   0.104
 2059SOL    HW1 7076   2.140   6.314   0.122
 2059SOL    HW2 7077   2.177   6.473   0.137
 2060SOL     OW 7078   0.609   3.605   1.599
 2060SOL    HW1 7079   0.536   3.614   1.667
 2060SOL    HW2 7080   0.614   3.688   1.544
 2061SOL     OW 7081   1.679   2.373   2.683
 2061SOL    HW1 7082   1.738   2.452   2.699
 2061SOL    HW2 7083   1.729   2.289   2.704
 2062SOL     OW 7084   0.218   6.315   5.680
 2062SOL    HW1 7085   0.237   6.262   5.597
 2062SOL    HW2 7086   0.217   6.413   5.657
 2063SOL     OW 7087   1.320   5.964   5.201
 2063SOL    HW1 7088   1.379   6.040   5.173
 2063SOL    HW2 7089   1.232   5.999   5.231
 2064SOL     OW 7090   0.263   2.260   4.763
 2064SOL    HW1 7091   0.265   2.296   4.670
 2064SOL    HW2 7092   0.210   2.321   4.821
 2065SOL     OW 7093   5.830   3.201   6.289
 2065SOL    HW1 7094   5.930   3.206   6.278
 2065SOL    HW2 7095   5.786   3.242   6.209
 2066SOL     OW 7096   6.719   4.053   5.559
 2066SOL    HW1 7097   6.672   4.013   5.481
 2066SOL    HW2 7098   6.804   4.004   5.576
 2067SOL     OW 7099   6.847   5.382   1.238
 2067SOL    HW1 7100   6.809   5.312   1.176
 2067SOL    HW2 7101   6.806   5.372   1.328
 2068SOL     OW 7102   4.176   0.161   4.292
 2068SOL    HW1 7103   4.207   0.140   4.199
 2068SOL    HW2 7104   4.123   0.084   4.328
 2069SOL     OW 7105   0.096   2.223   4.097
 2069SOL    HW1 7106   0.028   2.151   4.112
 2069SOL    HW2 7107   0.113   2.271   4.183
 2070SOL     OW 7108   1.199   1.977   1.369
 2070SOL    HW1 7109   1.113   2.021   1.346
 2070SOL    HW2 7110   1.221   1.908   1.300
 2071SOL     OW 7111   6.494   0.819   5.737
 2071SOL    HW1 7112   6.398   0.804   5.760
 2071SOL    HW2 7113   6.538   0.873   5.808
 2072SOL     OW 7114   4.659   5.111   4.413
 2072SOL    HW1 7115   4.659   5.020   4.372
 2072SOL    HW2 7116   4.655   5.103   4.512
 2073SOL     OW 7117   3.394   6.131   5.198
 2073SOL    HW1 7118   3.338   6.214   5.200
 2073SOL    HW2 7119   3.373   6.079   5.116
 2074SOL     OW 7120   1.885   2.706   6.938
 2074SOL    HW1 7121   1.945   2.626   6.936
 2074SOL    HW2 7122   1.790   2.677   6.934
 2075SOL     OW 7123   6.672   2.517   2.541
 2075SOL    HW1 7124   6.624   2.430   2.528
 2075SOL    HW2 7125   6.627   2.588   2.486
 2076SOL     OW 7126   5.753   6.727   6.052
 2076SOL    HW1 7127   5.757   6.802   5.986
 2076SOL    HW2 7128   5.842   6.716   6.097
 2077SOL     OW 7129   6.497   2.136   1.845
 2077SOL    HW1 7130   6.578   2.083   1.823
 2077SOL    HW2 7131   6.520   2.208   1.910
 2078SOL     OW 7132   1.940   5.085   6.707
 2078SOL    HW1 7133   2.002   5.141   6.652
 2078SOL    HW2 7134   1.960   5.098   6.804
 2079SOL     OW 7135   6.856   0.896   3.131
 2079SOL    HW1 7136   6.869   0.818   3.070
 2079SOL    HW2 7137   6.775   0.880   3.188
 2080SOL     OW 7138   3.108   1.178   4.875
 2080SOL    HW1 7139   3.062   1.093   4.849
 2080SOL    HW2 7140   3.202   1.178   4.841
 2081SOL     OW 7141   0.989   6.427   4.525
 2081SOL    HW1 7142   0.945   6.389   4.444
 2081SOL    HW2 7143   0.950   6.518   4.544
 2082SOL     OW 7144   0.870   6.410   3.208
 2082SOL    HW1 7145   0.949   6.387   3.152
 2082SOL    HW2 7146   0.873   6.507   3.232
 2083SOL     OW 7147   1.570   5.991   4.947
 2083SOL    HW1 7148   1.620   5.905   4.960
 2083SOL    HW2 7149   1.544   6.029   5.035
 2084SOL     OW 7150   0.712   2.910   1.921
 2084SOL    HW1 7151   0.675   2.941   1.833
 2084SOL    HW2 7152   0.803   2.872   1.907
 2085SOL     OW 7153   4.838   6.485   0.879
 2085SOL    HW1 7154   4.870   6.396   0.910
 2085SOL    HW2 7155   4.880   6.557   0.935
 2086SOL     OW 7156   3.708   6.081   0.304
 2086SOL    HW1 7157   3.723   6.015   0.377
 2086SOL    HW2 7158   3.615   6.071   0.268
 2087SOL     OW 7159   4.420   2.546   0.548
 2087SOL    HW1 7160   4.325   2.537   0.515
 2087SOL    HW2 7161   4.474   2.596   0.480
 2088SOL     OW 7162   1.672   5.622   6.391
 2088SOL    HW1 7163   1.613   5.546   6.365
 2088SOL    HW2 7164   1.710   5.664   6.308
 2089SOL     OW 7165   4.397   2.455   5.283
 2089SOL    HW1 7166   4.316   2.425   5.233
 2089SOL    HW2 7167   4.473   2.465   5.220
 2090SOL     OW 7168   4.850   3.189   5.237
 2090SOL    HW1 7169   4.870   3.265   5.175
 2090SOL    HW2 7170   4.752   3.183   5.253
 2091SOL     OW 7171   6.780   6.035   0.691
 2091SOL    HW1 7172   6.752   5.956   0.636
 2091SOL    HW2 7173   6.710   6.106   0.687
 2092SOL     OW 7174   5.616   3.808   0.827
 2092SOL    HW1 7175   5.642   3.737   0.761
 2092SOL    HW2 7176   5.569   3.767   0.904
 2093SOL     OW 7177   3.493   1.964   2.035
 2093SOL    HW1 7178   3.566   2.032   2.040
 2093SOL    HW2 7179   3.445   1.960   2.123
 2094SOL     OW 7180   5.337   2.041   1.170
 2094SOL    HW1 7181   5.403   2.033   1.244
 2094SOL    HW2 7182   5.301   2.134   1.166
 2095SOL     OW 7183   6.213   6.709   3.806
 2095SOL    HW1 7184   6.124   6.745   3.776
 2095SOL    HW2 7185   6.284   6.777   3.790
 2096SOL     OW 7186   4.488   5.258   3.382
 2096SOL    HW1 7187   4.532   5.222   3.464
 2096SOL    HW2 7188   4.555   5.305   3.325
 2097SOL     OW 7189   2.864   3.240   0.193
 2097SOL    HW1 7190   2.874   3.277   0.285
 2097SOL    HW2 7191   2.767   3.222   0.174
 2098SOL     OW 7192   3.810   6.267   2.924
 2098SOL    HW1 7193   3.874   6.284   2.849
 2098SOL    HW2 7194   3.800   6.169   2.939
 2099SOL     OW 7195   4.664   1.219   6.274
 2099SOL    HW1 7196   4.592   1.161   6.312
 2099SOL    HW2 7197   4.646   1.315   6.298
 2100SOL     OW 7198   4.499   1.549   6.968
 2100SOL    HW1 7199   4.513   1.603   0.027
 2100SOL    HW2 7200   4.563   1.580   6.898
 2101SOL     OW 7201   6.838   6.221   0.990
 2101SOL    HW1 7202   6.828   6.247   0.894
 2101SOL    HW2 7203   6.906   6.279   1.034
 2102SOL     OW 7204   4.704   3.648   1.716
 2102SOL    HW1 7205   4.687   3.555   1.682
 2102SOL    HW2 7206   4.802   3.665   1.720
 2103SOL     OW 7207   4.219   3.935   0.464
 2103SOL    HW1 7208   4.144   3.869   0.474
 2103SOL    HW2 7209   4.278   3.932   0.544
 2104SOL     OW 7210   1.445   4.632   1.819
 2104SOL    HW1 7211   1.425   4.538   1.848
 2104SOL    HW2 7212   1.428   4.695   1.895
 2105SOL     OW 7213   3.989   5.015   6.868
 2105SOL    HW1 7214   4.041   4.970   6.940
 2105SOL    HW2 7215   3.950   5.100   6.903
 2106SOL     OW 7216   5.289   3.593   1.018
 2106SOL    HW1 7217   5.197   3.628   1.032
 2106SOL    HW2 7218   5.355   3.667   1.031
 2107SOL     OW 7219   6.101   2.426   5.708
 2107SOL    HW1 7220   6.102   2.516   5.664
 2107SOL    HW2 7221   6.056   2.360   5.648
 2108SOL     OW 7222   5.798   5.604   4.869
 2108SOL    HW1 7223   5.706   5.566   4.873
 2108SOL    HW2 7224   5.795   5.701   4.895
 2109SOL     OW 7225   2.825   5.965   2.293
 2109SOL    HW1 7226   2.876   5.908   2.358
 2109SOL    HW2 7227   2.801   6.051   2.337
 2110SOL     OW 7228   3.805   0.711   6.064
 2110SOL    HW1 7229   3.723   0.737   6.114
 2110SOL    HW2 7230   3.782   0.643   5.994
 2111SOL     OW 7231   1.857   2.781   5.210
 2111SOL    HW1 7232   1.780   2.766   5.148
 2111SOL    HW2 7233   1.939   2.801   5.156
 2112SOL     OW 7234   5.242   1.813   6.739
 2112SOL    HW1 7235   5.218   1.893   6.793
 2112SOL    HW2 7236   5.335   1.783   6.762
 2113SOL     OW 7237   2.118   0.114   4.986
 2113SOL    HW1 7238   2.055   0.078   4.917
 2113SOL    HW2 7239   2.191   0.048   5.003
 2114SOL     OW 7240   2.170   2.895   6.968
 2114SOL    HW1 7241   2.130   2.922   0.031
 2114SOL    HW2 7242   2.126   2.812   6.934
 2115SOL     OW 7243   1.111   4.502   1.913
 2115SOL    HW1 7244   1.031   4.498   1.972
 2115SOL    HW2 7245   1.115   4.591   1.868
 2116SOL     OW 7246   1.375   3.053   1.420
 2116SOL    HW1 7247   1.422   3.014   1.340
 2116SOL    HW2 7248   1.311   2.986   1.457
 2117SOL     OW 7249   5.062   3.610   1.373
 2117SOL    HW1 7250   5.046   3.518   1.336
 2117SOL    HW2 7251   4.991   3.631   1.440
 2118SOL     OW 7252   6.521   3.773   2.778
 2118SOL    HW1 7253   6.587   3.728   2.838
 2118SOL    HW2 7254   6.428   3.759   2.813
 2119SOL     OW 7255   2.166   0.939   0.982
 2119SOL    HW1 7256   2.216   0.967   1.064
 2119SOL    HW2 7257   2.174   1.010   0.912
 2120SOL     OW 7258   6.958   2.598   2.419
 2120SOL    HW1 7259   6.902   2.519   2.446
 2120SOL    HW2 7260   6.899   2.675   2.397
 2121SOL     OW 7261   2.043   2.859   6.687
 2121SOL    HW1 7262   1.972   2.815   6.633
 2121SOL    HW2 7263   2.112   2.791   6.712
 2122SOL     OW 7264   6.287   6.431   5.786
 2122SOL    HW1 7265   6.356   6.479   5.840
 2122SOL    HW2 7266   6.297   6.456   5.689
 2123SOL     OW 7267   6.100   6.086   2.306
 2123SOL    HW1 7268   6.076   6.010   2.365
 2123SOL    HW2 7269   6.105   6.054   2.211
 2124SOL     OW 7270   3.159   1.763   6.795
 2124SOL    HW1 7271   3.176   1.669   6.766
 2124SOL    HW2 7272   3.060   1.781   6.793
 2125SOL     OW 7273   0.960   5.737   2.139
 2125SOL    HW1 7274   0.894   5.664   2.154
 2125SOL    HW2 7275   0.983   5.743   2.042
 2126SOL     OW 7276   4.067   2.528   6.176
 2126SOL    HW1 7277   4.025   2.496   6.091
 2126SOL    HW2 7278   4.019   2.486   6.254
 2127SOL     OW 7279   0.526   1.888   5.251
 2127SOL    HW1 7280   0.571   1.800   5.263
 2127SOL    HW2 7281   0.459   1.902   5.325
 2128SOL     OW 7282   6.129   2.663   1.041
 2128SOL    HW1 7283   6.053   2.727   1.026
 2128SOL    HW2 7284   6.093   2.574   1.068
 2129SOL     OW 7285   4.971   4.395   4.142
 2129SOL    HW1 7286   5.069   4.386   4.123
 2129SOL    HW2 7287   4.949   4.492   4.157
 2130SOL     OW 7288   2.192   1.555   1.252
 2130SOL    HW1 7289   2.242   1.592   1.330
 2130SOL    HW2 7290   2.194   1.620   1.176
 2131SOL     OW 7291   4.887   1.643   0.820
 2131SOL    HW1 7292   4.813   1.696   0.780
 2131SOL    HW2 7293   4.919   1.575   0.754
 2132SOL     OW 7294   3.334   1.522   6.737
 2132SOL    HW1 7295   3.307   1.428   6.719
 2132SOL    HW2 7296   3.350   1.535   6.835
 2133SOL     OW 7297   3.389   2.189   0.813
 2133SOL    HW1 7298   3.422   2.274   0.770
 2133SOL    HW2 7299   3.367   2.123   0.742
 2134SOL     OW 7300   1.127   1.075   4.729
 2134SOL    HW1 7301   1.069   1.155   4.745
 2134SOL    HW2 7302   1.204   1.102   4.670
 2135SOL     OW 7303   0.126   1.599   4.461
 2135SOL    HW1 7304   0.187   1.525   4.490
 2135SOL    HW2 7305   0.102   1.586   4.365
 2136SOL     OW 7306   1.209   3.590   4.527
 2136SOL    HW1 7307   1.194   3.516   4.592
 2136SOL    HW2 7308   1.121   3.631   4.503
 2137SOL     OW 7309   0.630   6.602   4.602
 2137SOL    HW1 7310   0.558   6.671   4.606
 2137SOL    HW2 7311   0.672   6.592   4.692
 2138SOL     OW 7312   5.973   2.972   1.698
 2138SOL    HW1 7313   5.904   2.903   1.674
 2138SOL    HW2 7314   6.030   2.990   1.619
 2139SOL     OW 7315   4.135   1.359   3.447
 2139SOL    HW1 7316   4.062   1.326   3.508
 2139SOL    HW2 7317   4.209   1.292   3.446
 2140SOL     OW 7318   3.107   6.589   3.071
 2140SOL    HW1 7319   3.055   6.672   3.049
 2140SOL    HW2 7320   3.080   6.516   3.008
 2141SOL     OW 7321   6.638   2.925   1.927
 2141SOL    HW1 7322   6.580   3.001   1.958
 2141SOL    HW2 7323   6.582   2.859   1.876
 2142SOL     OW 7324   1.469   2.246   3.243
 2142SOL    HW1 7325   1.542   2.213   3.303
 2142SOL    HW2 7326   1.471   2.196   3.157
 2143SOL     OW 7327   3.298   5.378   0.771
 2143SOL    HW1 7328   3.335   5.440   0.840
 2143SOL    HW2 7329   3.198   5.385   0.770
 2144SOL     OW 7330   2.030   0.463   3.004
 2144SOL    HW1 7331   1.965   0.539   3.003
 2144SOL    HW2 7332   1.999   0.391   2.942
 2145SOL     OW 7333   3.702   5.368   4.486
 2145SOL    HW1 7334   3.691   5.318   4.400
 2145SOL    HW2 7335   3.787   5.340   4.531
 2146SOL     OW 7336   3.259   3.710   2.722
 2146SOL    HW1 7337   3.229   3.642   2.789
 2146SOL    HW2 7338   3.332   3.671   2.666
 2147SOL     OW 7339   6.712   1.495   0.252
 2147SOL    HW1 7340   6.780   1.467   0.320
 2147SOL    HW2 7341   6.729   1.590   0.225
 2148SOL     OW 7342   5.215   3.066   4.353
 2148SOL    HW1 7343   5.258   2.976   4.362
 2148SOL    HW2 7344   5.201   3.106   4.444
 2149SOL     OW 7345   4.316   0.272   1.427
 2149SOL    HW1 7346   4.289   0.184   1.389
 2149SOL    HW2 7347   4.415   0.272   1.443
 2150SOL     OW 7348   3.078   2.156   2.190
 2150SOL    HW1 7349   3.012   2.228   2.169
 2150SOL    HW2 7350   3.113   2.118   2.105
 2151SOL     OW 7351   2.733   2.153   4.461
 2151SOL    HW1 7352   2.768   2.134   4.369
 2151SOL    HW2 7353   2.635   2.167   4.457
 2152SOL     OW 7354   4.433   6.121   2.278
 2152SOL    HW1 7355   4.345   6.072   2.275
 2152SOL    HW2 7356   4.499   6.067   2.330
 2153SOL     OW 7357   3.997   0.739   3.244
 2153SOL    HW1 7358   4.063   0.702   3.310
 2153SOL    HW2 7359   4.006   0.839   3.241
 2154SOL     OW 7360   3.138   6.262   4.852
 2154SOL    HW1 7361   3.232   6.232   4.837
 2154SOL    HW2 7362   3.086   6.251   4.767
 2155SOL     OW 7363   1.707   5.141   0.356
 2155SOL    HW1 7364   1.782   5.103   0.411
 2155SOL    HW2 7365   1.628   5.080   0.361
 2156SOL     OW 7366   2.972   0.683   1.818
 2156SOL    HW1 7367   2.966   0.779   1.845
 2156SOL    HW2 7368   3.010   0.677   1.725
 2157SOL     OW 7369   6.725   1.034   3.450
 2157SOL    HW1 7370   6.637   0.989   3.466
 2157SOL    HW2 7371   6.719   1.129   3.482
 2158SOL     OW 7372   3.701   6.602   0.464
 2158SOL    HW1 7373   3.714   6.679   0.401
 2158SOL    HW2 7374   3.788   6.557   0.481
 2159SOL     OW 7375   1.592   5.879   5.781
 2159SOL    HW1 7376   1.644   5.955   5.819
 2159SOL    HW2 7377   1.514   5.859   5.841
 2160SOL     OW 7378   4.424   3.679   1.686
 2160SOL    HW1 7379   4.377   3.680   1.775
 2160SOL    HW2 7380   4.521   3.661   1.700
 2161SOL     OW 7381   4.919   3.267   3.534
 2161SOL    HW1 7382   4.979   3.223   3.601
 2161SOL    HW2 7383   4.924   3.366   3.545
 2162SOL     OW 7384   2.466   0.427   0.185
 2162SOL    HW1 7385   2.419   0.345   0.220
 2162SOL    HW2 7386   2.410   0.468   0.113
 2163SOL     OW 7387   0.096   5.542   6.822
 2163SOL    HW1 7388   0.123   5.452   6.788
 2163SOL    HW2 7389   0.170   5.607   6.809
 2164SOL     OW 7390   1.713   1.509   6.893
 2164SOL    HW1 7391   1.614   1.521   6.896
 2164SOL    HW2 7392   1.737   1.416   6.921
 2165SOL     OW 7393   1.456   1.317   3.121
 2165SOL    HW1 7394   1.442   1.390   3.054
 2165SOL    HW2 7395   1.407   1.339   3.206
 2166SOL     OW 7396   2.012   2.312   5.712
 2166SOL    HW1 7397   1.943   2.332   5.781
 2166SOL    HW2 7398   1.968   2.282   5.628
 2167SOL     OW 7399   2.744   0.447   2.382
 2167SOL    HW1 7400   2.828   0.472   2.334
 2167SOL    HW2 7401   2.740   0.496   2.470
 2168SOL     OW 7402   6.495   2.359   4.611
 2168SOL    HW1 7403   6.423   2.361   4.543
 2168SOL    HW2 7404   6.470   2.297   4.685
 2169SOL     OW 7405   5.600   1.795   6.467
 2169SOL    HW1 7406   5.673   1.852   6.429
 2169SOL    HW2 7407   5.607   1.702   6.430
 2170SOL     OW 7408   5.945   4.767   4.915
 2170SOL    HW1 7409   5.901   4.850   4.949
 2170SOL    HW2 7410   5.901   4.738   4.830
 2171SOL     OW 7411   6.561   2.870   0.562
 2171SOL    HW1 7412   6.586   2.880   0.466
 2171SOL    HW2 7413   6.462   2.886   0.573
 2172SOL     OW 7414   3.327   1.415   0.585
 2172SOL    HW1 7415   3.391   1.371   0.521
 2172SOL    HW2 7416   3.260   1.467   0.533
 2173SOL     OW 7417   3.745   0.285   5.567
 2173SOL    HW1 7418   3.741   0.225   5.487
 2173SOL    HW2 7419   3.841   0.304   5.589
 2174SOL     OW 7420   6.307   5.101   5.795
 2174SOL    HW1 7421   6.327   5.009   5.759
 2174SOL    HW2 7422   6.372   5.167   5.755
 2175SOL     OW 7423   2.980   2.155   2.725
 2175SOL    HW1 7424   2.988   2.056   2.720
 2175SOL    HW2 7425   2.984   2.194   2.633
 2176SOL     OW 7426   0.843   2.134   1.522
 2176SOL    HW1 7427   0.829   2.227   1.556
 2176SOL    HW2 7428   0.776   2.073   1.564
 2177SOL     OW 7429   6.526   0.475   2.157
 2177SOL    HW1 7430   6.608   0.525   2.185
 2177SOL    HW2 7431   6.445   0.521   2.193
 2178SOL     OW 7432   0.742   4.234   0.384
 2178SOL    HW1 7433   0.783   4.150   0.419
 2178SOL    HW2 7434   0.811   4.306   0.379
 2179SOL     OW 7435   2.290   5.724   4.235
 2179SOL    HW1 7436   2.304   5.648   4.298
 2179SOL    HW2 7437   2.221   5.698   4.167
 2180SOL     OW 7438   2.916   3.262   1.916
 2180SOL    HW1 7439   2.865   3.194   1.862
 2180SOL    HW2 7440   2.884   3.354   1.892
 2181SOL     OW 7441   4.281   4.156   5.600
 2181SOL    HW1 7442   4.259   4.253   5.607
 2181SOL    HW2 7443   4.295   4.132   5.503
 2182SOL     OW 7444   6.715   3.152   6.499
 2182SOL    HW1 7445   6.641   3.177   6.561
 2182SOL    HW2 7446   6.698   3.061   6.461
 2183SOL     OW 7447   3.367   3.137   0.839
 2183SOL    HW1 7448   3.282   3.093   0.811
 2183SOL    HW2 7449   3.445   3.092   0.795
 2184SOL     OW 7450   3.453   7.010   5.585
 2184SOL    HW1 7451   3.458   0.085   5.586
 2184SOL    HW2 7452   3.525   6.974   5.526
 2185SOL     OW 7453   2.296   1.633   1.496
 2185SOL    HW1 7454   2.221   1.696   1.516
 2185SOL    HW2 7455   2.381   1.672   1.530
 2186SOL     OW 7456   6.937   4.427   2.353
 2186SOL    HW1 7457   6.972   4.431   2.260
 2186SOL    HW2 7458   6.852   4.373   2.355
 2187SOL     OW 7459   0.751   1.025   1.681
 2187SOL    HW1 7460   0.744   1.090   1.757
 2187SOL    HW2 7461   0.752   0.932   1.718
 2188SOL     OW 7462   4.934   5.799   3.634
 2188SOL    HW1 7463   4.960   5.804   3.730
 2188SOL    HW2 7464   4.963   5.882   3.587
 2189SOL     OW 7465   1.501   0.196   6.614
 2189SOL    HW1 7466   1.402   0.207   6.619
 2189SOL    HW2 7467   1.539   0.266   6.552
 2190SOL     OW 7468   6.137   2.768   1.351
 2190SOL    HW1 7469   6.098   2.688   1.397
 2190SOL    HW2 7470   6.170   2.742   1.260
 2191SOL     OW 7471   3.647   1.988   6.031
 2191SOL    HW1 7472   3.715   2.037   6.085
 2191SOL    HW2 7473   3.564   2.043   6.024
 2192SOL     OW 7474   4.312   6.660   4.741
 2192SOL    HW1 7475   4.213   6.650   4.752
 2192SOL    HW2 7476   4.331   6.725   4.667
 2193SOL     OW 7477   6.671   5.200   6.292
 2193SOL    HW1 7478   6.641   5.292   6.315
 2193SOL    HW2 7479   6.601   5.134   6.320
 2194SOL     OW 7480   2.533   5.806   0.331
 2194SOL    HW1 7481   2.567   5.713   0.311
 2194SOL    HW2 7482   2.465   5.831   0.262
 2195SOL     OW 7483   6.990   6.581   1.856
 2195SOL    HW1 7484   7.019   6.672   1.886
 2195SOL    HW2 7485   6.937   6.537   1.928
 2196SOL     OW 7486   2.309   0.664   5.915
 2196SOL    HW1 7487   2.372   0.587   5.927
 2196SOL    HW2 7488   2.275   0.666   5.821
 2197SOL     OW 7489   5.037   4.314   1.623
 2197SOL    HW1 7490   5.112   4.249   1.636
 2197SOL    HW2 7491   4.965   4.296   1.689
 2198SOL     OW 7492   0.056   2.798   6.940
 2198SOL    HW1 7493   0.080   2.813   6.844
 2198SOL    HW2 7494   0.030   2.703   6.953
 2199SOL     OW 7495   5.118   0.028   0.979
 2199SOL    HW1 7496   5.117   0.001   1.075
 2199SOL    HW2 7497   5.065   6.987   0.924
 2200SOL     OW 7498   3.975   0.574   4.372
 2200SOL    HW1 7499   3.986   0.492   4.428
 2200SOL    HW2 7500   3.900   0.561   4.307
 2201SOL     OW 7501   5.928   3.861   2.174
 2201SOL    HW1 7502   5.947   3.955   2.144
 2201SOL    HW2 7503   5.873   3.815   2.105
 2202SOL     OW 7504   3.460   5.066   4.705
 2202SOL    HW1 7505   3.407   5.047   4.623
 2202SOL    HW2 7506   3.551   5.027   4.696
 2203SOL     OW 7507   3.476   1.995   2.550
 2203SOL    HW1 7508   3.519   2.009   2.461
 2203SOL    HW2 7509   3.542   2.012   2.623
 2204SOL     OW 7510   4.001   1.307   6.292
 2204SOL    HW1 7511   4.002   1.352   6.203
 2204SOL    HW2 7512   3.915   1.259   6.304
 2205SOL     OW 7513   1.092   0.667   6.964
 2205SOL    HW1 7514   1.073   0.658   6.867
 2205SOL    HW2 7515   1.187   0.698   6.976
 2206SOL     OW 7516   3.174   4.320   5.804
 2206SOL    HW1 7517   3.149   4.224   5.792
 2206SOL    HW2 7518   3.188   4.363   5.715
 2207SOL     OW 7519   1.449   4.386   6.058
 2207SOL    HW1 7520   1.376   4.454   6.066
 2207SOL    HW2 7521   1.481   4.383   5.963
 2208SOL     OW 7522   1.547   4.826   2.162
 2208SOL    HW1 7523   1.536   4.910   2.215
 2208SOL    HW2 7524   1.611   4.843   2.087
 2209SOL     OW 7525   1.393   5.782   5.942
 2209SOL    HW1 7526   1.397   5.835   6.027
 2209SOL    HW2 7527   1.299   5.754   5.924
 2210SOL     OW 7528   0.924   5.333   2.948
 2210SOL    HW1 7529   0.890   5.241   2.969
 2210SOL    HW2 7530   1.019   5.341   2.980
 2211SOL     OW 7531   5.533   1.436   5.607
 2211SOL    HW1 7532   5.467   1.370   5.645
 2211SOL    HW2 7533   5.484   1.509   5.560
 2212SOL     OW 7534   0.501   6.081   0.097
 2212SOL    HW1 7535   0.442   6.050   0.021
 2212SOL    HW2 7536   0.468   6.169   0.130
 2213SOL     OW 7537   4.639   2.623   4.674
 2213SOL    HW1 7538   4.638   2.572   4.589
 2213SOL    HW2 7539   4.546   2.637   4.706
 2214SOL     OW 7540   4.336   0.881   4.955
 2214SOL    HW1 7541   4.339   0.940   4.874
 2214SOL    HW2 7542   4.359   0.935   5.036
 2215SOL     OW 7543   6.854   1.217   5.778
 2215SOL    HW1 7544   6.799   1.226   5.695
 2215SOL    HW2 7545   6.879   1.307   5.812
 2216SOL     OW 7546   1.575   0.248   6.937
 2216SOL    HW1 7547   1.590   0.150   6.938
 2216SOL    HW2 7548   1.641   0.292   6.877
 2217SOL     OW 7549   3.801   0.150   0.896
 2217SOL    HW1 7550   3.706   0.159   0.926
 2217SOL    HW2 7551   3.817   0.058   0.861
 2218SOL     OW 7552   0.941   6.710   0.358
 2218SOL    HW1 7553   0.976   6.780   0.296
 2218SOL    HW2 7554   0.855   6.742   0.399
 2219SOL     OW 7555   1.428   3.749   2.992
 2219SOL    HW1 7556   1.352   3.802   3.029
 2219SOL    HW2 7557   1.473   3.802   2.920
 2220SOL     OW 7558   0.415   1.334   4.191
 2220SOL    HW1 7559   0.391   1.377   4.104
 2220SOL    HW2 7560   0.498   1.376   4.227
 2221SOL     OW 7561   6.878   2.004   0.805
 2221SOL    HW1 7562   6.942   1.965   0.739
 2221SOL    HW2 7563   6.806   1.937   0.825
 2222SOL     OW 7564   4.323   0.877   1.046
 2222SOL    HW1 7565   4.343   0.973   1.065
 2222SOL    HW2 7566   4.371   0.820   1.113
 2223SOL     OW 7567   5.920   5.187   3.724
 2223SOL    HW1 7568   6.002   5.232   3.688
 2223SOL    HW2 7569   5.927   5.089   3.708
 2224SOL     OW 7570   1.482   4.242   1.166
 2224SOL    HW1 7571   1.438   4.189   1.093
 2224SOL    HW2 7572   1.538   4.181   1.221
 2225SOL     OW 7573   6.245   4.645   2.548
 2225SOL    HW1 7574   6.246   4.546   2.556
 2225SOL    HW2 7575   6.206   4.670   2.459
 2226SOL     OW 7576   3.597   3.470   1.047
 2226SOL    HW1 7577   3.586   3.424   1.135
 2226SOL    HW2 7578   3.520   3.532   1.032
 2227SOL     OW 7579   6.054   3.924   6.382
 2227SOL    HW1 7580   6.107   3.841   6.403
 2227SOL    HW2 7581   6.074   3.994   6.450
 2228SOL     OW 7582   3.238   5.404   0.328
 2228SOL    HW1 7583   3.256   5.479   0.392
 2228SOL    HW2 7584   3.321   5.384   0.276
 2229SOL     OW 7585   4.372   1.837   3.944
 2229SOL    HW1 7586   4.392   1.752   3.993
 2229SOL    HW2 7587   4.327   1.816   3.857
 2230SOL     OW 7588   1.141   5.786   3.824
 2230SOL    HW1 7589   1.065   5.727   3.798
 2230SOL    HW2 7590   1.225   5.733   3.827
 2231SOL     OW 7591   1.521   1.793   2.323
 2231SOL    HW1 7592   1.564   1.748   2.245
 2231SOL    HW2 7593   1.421   1.781   2.317
 2232SOL     OW 7594   0.546   3.387   4.231
 2232SOL    HW1 7595   0.643   3.381   4.207
 2232SOL    HW2 7596   0.524   3.318   4.299
 2233SOL     OW 7597   3.564   5.216   6.703
 2233SOL    HW1 7598   3.513   5.224   6.617
 2233SOL    HW2 7599   3.590   5.120   6.717
 2234SOL     OW 7600   4.052   2.605   0.655
 2234SOL    HW1 7601   4.111   2.671   0.700
 2234SOL    HW2 7602   4.075   2.513   0.686
 2235SOL     OW 7603   1.068   0.444   0.388
 2235SOL    HW1 7604   1.158   0.433   0.346
 2235SOL    HW2 7605   1.002   0.472   0.319
 2236SOL     OW 7606   0.956   4.596   0.837
 2236SOL    HW1 7607   0.926   4.691   0.843
 2236SOL    HW2 7608   0.971   4.559   0.929
 2237SOL     OW 7609   6.560   3.636   4.493
 2237SOL    HW1 7610   6.621   3.567   4.532
 2237SOL    HW2 7611   6.470   3.630   4.538
 2238SOL     OW 7612   0.134   5.547   2.208
 2238SOL    HW1 7613   0.233   5.538   2.200
 2238SOL    HW2 7614   0.095   5.459   2.234
 2239SOL     OW 7615   3.904   5.100   4.180
 2239SOL    HW1 7616   3.946   5.182   4.220
 2239SOL    HW2 7617   3.936   5.089   4.086
 2240SOL     OW 7618   6.353   5.004   3.165
 2240SOL    HW1 7619   6.296   5.047   3.235
 2240SOL    HW2 7620   6.295   4.975   3.088
 2241SOL     OW 7621   6.962   6.092   2.385
 2241SOL    HW1 7622   6.971   6.062   2.479
 2241SOL    HW2 7623   0.027   6.119   2.349
 2242SOL     OW 7624   5.448   1.367   3.321
 2242SOL    HW1 7625   5.420   1.352   3.226
 2242SOL    HW2 7626   5.542   1.401   3.323
 2243SOL     OW 7627   2.431   6.429   5.141
 2243SOL    HW1 7628   2.419   6.523   5.173
 2243SOL    HW2 7629   2.493   6.380   5.202
 2244SOL     OW 7630   4.053   0.988   3.219
 2244SOL    HW1 7631   4.034   0.977   3.121
 2244SOL    HW2 7632   4.011   1.073   3.251
 2245SOL     OW 7633   0.389   2.041   2.078
 2245SOL    HW1 7634   0.307   2.064   2.025
 2245SOL    HW2 7635   0.466   2.094   2.045
 2246SOL     OW 7636   1.803   2.755   5.514
 2246SOL    HW1 7637   1.864   2.768   5.436
 2246SOL    HW2 7638   1.712   2.791   5.490
 2247SOL     OW 7639   2.604   2.160   5.918
 2247SOL    HW1 7640   2.516   2.198   5.890
 2247SOL    HW2 7641   2.612   2.066   5.886
 2248SOL     OW 7642   5.181   4.345   5.378
 2248SOL    HW1 7643   5.256   4.283   5.354
 2248SOL    HW2 7644   5.218   4.432   5.411
 2249SOL     OW 7645   6.058   6.345   2.826
 2249SOL    HW1 7646   6.059   6.245   2.820
 2249SOL    HW2 7647   6.139   6.382   2.780
 2250SOL     OW 7648   5.341   4.094   1.360
 2250SOL    HW1 7649   5.406   4.057   1.293
 2250SOL    HW2 7650   5.248   4.074   1.331
 2251SOL     OW 7651   5.857   1.528   0.554
 2251SOL    HW1 7652   5.887   1.459   0.620
 2251SOL    HW2 7653   5.888   1.618   0.583
 2252SOL     OW 7654   6.464   2.993   5.443
 2252SOL    HW1 7655   6.517   2.942   5.511
 2252SOL    HW2 7656   6.369   2.961   5.443
 2253SOL     OW 7657   1.361   2.983   6.314
 2253SOL    HW1 7658   1.459   2.985   6.331
 2253SOL    HW2 7659   1.314   3.040   6.382
 2254SOL     OW 7660   2.124   3.129   6.192
 2254SOL    HW1 7661   2.158   3.079   6.272
 2254SOL    HW2 7662   2.196   3.190   6.158
 2255SOL     OW 7663   6.120   2.522   1.487
 2255SOL    HW1 7664   6.066   2.461   1.429
 2255SOL    HW2 7665   6.217   2.507   1.469
 2256SOL     OW 7666   3.708   5.349   2.032
 2256SOL    HW1 7667   3.739   5.266   1.986
 2256SOL    HW2 7668   3.788   5.406   2.055
 2257SOL     OW 7669   1.010   3.018   4.388
 2257SOL    HW1 7670   1.025   3.032   4.486
 2257SOL    HW2 7671   1.081   3.066   4.336
 2258SOL     OW 7672   1.602   5.438   4.387
 2258SOL    HW1 7673   1.608   5.386   4.302
 2258SOL    HW2 7674   1.508   5.468   4.401
 2259SOL     OW 7675   5.348   3.953   6.398
 2259SOL    HW1 7676   5.294   3.895   6.460
 2259SOL    HW2 7677   5.291   3.983   6.322
 2260SOL     OW 7678   4.302   4.733   3.030
 2260SOL    HW1 7679   4.375   4.800   3.019
 2260SOL    HW2 7680   4.301   4.671   2.952
 2261SOL     OW 7681   5.587   6.417   0.809
 2261SOL    HW1 7682   5.615   6.512   0.795
 2261SOL    HW2 7683   5.664   6.356   0.794
 2262SOL     OW 7684   5.573   2.230   3.353
 2262SOL    HW1 7685   5.601   2.221   3.258
 2262SOL    HW2 7686   5.556   2.139   3.392
 2263SOL     OW 7687   2.151   6.259   6.376
 2263SOL    HW1 7688   2.108   6.185   6.324
 2263SOL    HW2 7689   2.250   6.254   6.366
 2264SOL     OW 7690   2.900   3.651   2.412
 2264SOL    HW1 7691   2.843   3.639   2.331
 2264SOL    HW2 7692   2.953   3.735   2.403
 2265SOL     OW 7693   0.343   1.195   3.587
 2265SOL    HW1 7694   0.336   1.208   3.488
 2265SOL    HW2 7695   0.258   1.223   3.631
 2266SOL     OW 7696   7.018   1.141   1.011
 2266SOL    HW1 7697   0.003   1.121   1.108
 2266SOL    HW2 7698   6.927   1.178   0.994
 2267SOL     OW 7699   5.807   2.576   4.945
 2267SOL    HW1 7700   5.753   2.493   4.957
 2267SOL    HW2 7701   5.749   2.656   4.959
 2268SOL     OW 7702   6.372   5.755   0.360
 2268SOL    HW1 7703   6.433   5.679   0.381
 2268SOL    HW2 7704   6.420   5.841   0.375
 2269SOL     OW 7705   6.034   5.548   5.046
 2269SOL    HW1 7706   5.967   5.603   4.997
 2269SOL    HW2 7707   6.079   5.486   4.982
 2270SOL     OW 7708   3.547   3.816   1.125
 2270SOL    HW1 7709   3.489   3.735   1.123
 2270SOL    HW2 7710   3.525   3.875   1.047
 2271SOL     OW 7711   6.210   4.401   1.402
 2271SOL    HW1 7712   6.253   4.332   1.344
 2271SOL    HW2 7713   6.166   4.470   1.345
 2272SOL     OW 7714   5.959   2.257   4.761
 2272SOL    HW1 7715   5.923   2.326   4.824
 2272SOL    HW2 7716   6.040   2.214   4.802
 2273SOL     OW 7717   1.671   1.675   3.477
 2273SOL    HW1 7718   1.712   1.624   3.552
 2273SOL    HW2 7719   1.739   1.692   3.406
 2274SOL     OW 7720   1.508   3.672   4.850
 2274SOL    HW1 7721   1.533   3.756   4.898
 2274SOL    HW2 7722   1.411   3.675   4.825
 2275SOL     OW 7723   4.596   6.505   4.625
 2275SOL    HW1 7724   4.606   6.425   4.566
 2275SOL    HW2 7725   4.562   6.582   4.571
 2276SOL     OW 7726   3.470   5.603   0.851
 2276SOL    HW1 7727   3.438   5.698   0.850
 2276SOL    HW2 7728   3.529   5.587   0.773
 2277SOL     OW 7729   3.299   3.370   4.823
 2277SOL    HW1 7730   3.315   3.397   4.918
 2277SOL    HW2 7731   3.353   3.289   4.802
 2278SOL     OW 7732   4.759   6.544   2.906
 2278SOL    HW1 7733   4.792   6.453   2.932
 2278SOL    HW2 7734   4.695   6.536   2.829
 2279SOL     OW 7735   5.619   4.546   4.069
 2279SOL    HW1 7736   5.719   4.544   4.069
 2279SOL    HW2 7737   5.587   4.610   4.139
 2280SOL     OW 7738   6.539   6.607   5.363
 2280SOL    HW1 7739   6.636   6.582   5.361
 2280SOL    HW2 7740   6.525   6.692   5.313
 2281SOL     OW 7741   3.386   1.534   1.568
 2281SOL    HW1 7742   3.368   1.459   1.631
 2281SOL    HW2 7743   3.483   1.560   1.575
 2282SOL     OW 7744   5.610   6.131   4.659
 2282SOL    HW1 7745   5.564   6.120   4.570
 2282SOL    HW2 7746   5.544   6.116   4.732
 2283SOL     OW 7747   6.595   3.364   2.747
 2283SOL    HW1 7748   6.559   3.399   2.660
 2283SOL    HW2 7749   6.689   3.398   2.759
 2284SOL     OW 7750   2.642   2.128   1.625
 2284SOL    HW1 7751   2.708   2.080   1.566
 2284SOL    HW2 7752   2.688   2.206   1.669
 2285SOL     OW 7753   1.086   3.805   0.620
 2285SOL    HW1 7754   1.168   3.750   0.638
 2285SOL    HW2 7755   1.111   3.902   0.616
 2286SOL     OW 7756   6.776   5.742   5.030
 2286SOL    HW1 7757   6.772   5.840   5.014
 2286SOL    HW2 7758   6.872   5.714   5.040
 2287SOL     OW 7759   2.138   3.189   1.499
 2287SOL    HW1 7760   2.228   3.233   1.496
 2287SOL    HW2 7761   2.110   3.176   1.594
 2288SOL     OW 7762   0.989   5.609   3.625
 2288SOL    HW1 7763   1.013   5.643   3.535
 2288SOL    HW2 7764   0.899   5.644   3.652
 2289SOL     OW 7765   5.581   2.467   1.955
 2289SOL    HW1 7766   5.656   2.479   2.019
 2289SOL    HW2 7767   5.496   2.449   2.005
 2290SOL     OW 7768   3.137   3.016   2.756
 2290SOL    HW1 7769   3.159   2.958   2.677
 2290SOL    HW2 7770   3.220   3.063   2.787
 2291SOL     OW 7771   1.937   2.060   1.292
 2291SOL    HW1 7772   1.943   2.122   1.370
 2291SOL    HW2 7773   1.919   2.112   1.209
 2292SOL     OW 7774   5.298   3.460   3.718
 2292SOL    HW1 7775   5.282   3.524   3.793
 2292SOL    HW2 7776   5.316   3.369   3.754
 2293SOL     OW 7777   5.535   1.059   0.477
 2293SOL    HW1 7778   5.540   1.032   0.573
 2293SOL    HW2 7779   5.626   1.052   0.436
 2294SOL     OW 7780   3.212   1.705   5.895
 2294SOL    HW1 7781   3.289   1.652   5.857
 2294SOL    HW2 7782   3.248   1.785   5.942
 2295SOL     OW 7783   6.728   1.201   1.781
 2295SOL    HW1 7784   6.797   1.253   1.730
 2295SOL    HW2 7785   6.741   1.217   1.879
 2296SOL     OW 7786   2.861   4.866   3.510
 2296SOL    HW1 7787   2.869   4.815   3.424
 2296SOL    HW2 7788   2.933   4.936   3.513
 2297SOL     OW 7789   4.977   4.493   5.619
 2297SOL    HW1 7790   4.888   4.518   5.657
 2297SOL    HW2 7791   4.964   4.457   5.527
 2298SOL     OW 7792   3.837   3.824   3.351
 2298SOL    HW1 7793   3.815   3.824   3.253
 2298SOL    HW2 7794   3.934   3.803   3.364
 2299SOL     OW 7795   4.912   3.737   4.765
 2299SOL    HW1 7796   4.947   3.645   4.776
 2299SOL    HW2 7797   4.817   3.740   4.794
 2300SOL     OW 7798   3.605   6.801   3.276
 2300SOL    HW1 7799   3.679   6.828   3.337
 2300SOL    HW2 7800   3.554   6.725   3.317
 2301SOL     OW 7801   3.389   2.905   4.523
 2301SOL    HW1 7802   3.341   2.885   4.438
 2301SOL    HW2 7803   3.482   2.868   4.519
 2302SOL     OW 7804   4.233   0.328   0.547
 2302SOL    HW1 7805   4.138   0.315   0.574
 2302SOL    HW2 7806   4.250   0.426   0.532
 2303SOL     OW 7807   2.407   2.945   0.963
 2303SOL    HW1 7808   2.470   3.021   0.950
 2303SOL    HW2 7809   2.441   2.886   1.037
 2304SOL     OW 7810   6.276   6.004   3.927
 2304SOL    HW1 7811   6.246   6.072   3.860
 2304SOL    HW2 7812   6.376   6.002   3.930
 2305SOL     OW 7813   1.629   0.809   4.047
 2305SOL    HW1 7814   1.653   0.877   4.115
 2305SOL    HW2 7815   1.534   0.823   4.018
 2306SOL     OW 7816   1.572   5.060   2.584
 2306SOL    HW1 7817   1.557   4.973   2.632
 2306SOL    HW2 7818   1.485   5.109   2.577
 2307SOL     OW 7819   1.053   2.733   5.538
 2307SOL    HW1 7820   1.087   2.826   5.520
 2307SOL    HW2 7821   1.007   2.699   5.456
 2308SOL     OW 7822   2.413   5.077   0.956
 2308SOL    HW1 7823   2.444   5.111   0.867
 2308SOL    HW2 7824   2.403   5.154   1.019
 2309SOL     OW 7825   1.787   0.425   4.082
 2309SOL    HW1 7826   1.712   0.487   4.107
 2309SOL    HW2 7827   1.836   0.462   4.004
 2310SOL     OW 7828   5.249   6.602   2.264
 2310SOL    HW1 7829   5.275   6.691   2.300
 2310SOL    HW2 7830   5.160   6.576   2.302
 2311SOL     OW 7831   2.288   6.181   6.927
 2311SOL    HW1 7832   2.385   6.183   6.901
 2311SOL    HW2 7833   2.271   6.252   6.996
 2312SOL     OW 7834   3.677   5.779   3.598
 2312SOL    HW1 7835   3.627   5.701   3.637
 2312SOL    HW2 7836   3.611   5.849   3.569
 2313SOL     OW 7837   5.095   5.277   2.467
 2313SOL    HW1 7838   5.066   5.326   2.549
 2313SOL    HW2 7839   5.117   5.182   2.490
 2314SOL     OW 7840   3.641   6.106   3.100
 2314SOL    HW1 7841   3.671   6.199   3.121
 2314SOL    HW2 7842   3.626   6.055   3.185
 2315SOL     OW 7843   4.830   3.548   6.288
 2315SOL    HW1 7844   4.743   3.540   6.337
 2315SOL    HW2 7845   4.862   3.643   6.291
 2316SOL     OW 7846   4.948   2.428   3.423
 2316SOL    HW1 7847   4.901   2.362   3.481
 2316SOL    HW2 7848   4.947   2.518   3.467
 2317SOL     OW 7849   1.047   4.920   2.785
 2317SOL    HW1 7850   0.950   4.929   2.764
 2317SOL    HW2 7851   1.083   4.836   2.743
 2318SOL     OW 7852   0.894   2.319   3.399
 2318SOL    HW1 7853   0.867   2.299   3.493
 2318SOL    HW2 7854   0.813   2.336   3.344
 2319SOL     OW 7855   2.179   4.232   4.928
 2319SOL    HW1 7856   2.232   4.152   4.957
 2319SOL    HW2 7857   2.144   4.280   5.008
 2320SOL     OW 7858   0.089   2.368   4.364
 2320SOL    HW1 7859   0.013   2.428   4.390
 2320SOL    HW2 7860   0.075   2.277   4.404
 2321SOL     OW 7861   3.377   0.459   4.947
 2321SOL    HW1 7862   3.467   0.416   4.947
 2321SOL    HW2 7863   3.384   0.553   4.914
 2322SOL     OW 7864   1.707   2.097   5.656
 2322SOL    HW1 7865   1.745   2.161   5.589
 2322SOL    HW2 7866   1.678   2.013   5.608
 2323SOL     OW 7867   3.642   5.927   3.314
 2323SOL    HW1 7868   3.657   5.828   3.317
 2323SOL    HW2 7869   3.634   5.962   3.407
 2324SOL     OW 7870   0.787   6.175   2.241
 2324SOL    HW1 7871   0.851   6.102   2.267
 2324SOL    HW2 7872   0.782   6.181   2.141
 2325SOL     OW 7873   1.046   3.901   1.616
 2325SOL    HW1 7874   0.991   3.956   1.679
 2325SOL    HW2 7875   1.040   3.939   1.524
 2326SOL     OW 7876   1.881   4.138   6.413
 2326SOL    HW1 7877   1.805   4.159   6.474
 2326SOL    HW2 7878   1.927   4.055   6.445
 2327SOL     OW 7879   4.940   2.743   4.405
 2327SOL    HW1 7880   4.971   2.721   4.313
 2327SOL    HW2 7881   5.017   2.740   4.469
 2328SOL     OW 7882   4.935   1.266   3.383
 2328SOL    HW1 7883   4.969   1.277   3.477
 2328SOL    HW2 7884   4.969   1.342   3.327
 2329SOL     OW 7885   1.180   5.113   4.225
 2329SOL    HW1 7886   1.139   5.105   4.316
 2329SOL    HW2 7887   1.123   5.173   4.169
 2330SOL     OW 7888   0.192   5.302   1.258
 2330SOL    HW1 7889   0.166   5.207   1.277
 2330SOL    HW2 7890   0.115   5.362   1.280
 2331SOL     OW 7891   6.720   4.501   5.352
 2331SOL    HW1 7892   6.656   4.462   5.418
 2331SOL    HW2 7893   6.694   4.473   5.260
 2332SOL     OW 7894   5.101   2.847   5.653
 2332SOL    HW1 7895   5.181   2.898   5.622
 2332SOL    HW2 7896   5.073   2.783   5.581
 2333SOL     OW 7897   0.821   5.015   2.694
 2333SOL    HW1 7898   0.790   4.957   2.619
 2333SOL    HW2 7899   0.758   5.092   2.705
 2334SOL     OW 7900   3.258   6.379   0.077
 2334SOL    HW1 7901   3.334   6.318   0.054
 2334SOL    HW2 7902   3.289   6.449   0.141
 2335SOL     OW 7903   6.220   0.811   3.459
 2335SOL    HW1 7904   6.131   0.820   3.504
 2335SOL    HW2 7905   6.211   0.834   3.362
 2336SOL     OW 7906   4.706   1.029   5.411
 2336SOL    HW1 7907   4.739   0.970   5.337
 2336SOL    HW2 7908   4.724   0.985   5.499
 2337SOL     OW 7909   5.396   0.715   3.369
 2337SOL    HW1 7910   5.306   0.722   3.326
 2337SOL    HW2 7911   5.464   0.760   3.310
 2338SOL     OW 7912   0.288   6.744   0.062
 2338SOL    HW1 7913   0.252   6.735   0.154
 2338SOL    HW2 7914   0.334   6.833   0.052
 2339SOL     OW 7915   3.315   3.329   5.748
 2339SOL    HW1 7916   3.382   3.264   5.785
 2339SOL    HW2 7917   3.234   3.330   5.806
 2340SOL     OW 7918   3.698   6.210   4.982
 2340SOL    HW1 7919   3.721   6.219   4.885
 2340SOL    HW2 7920   3.671   6.116   5.001
 2341SOL     OW 7921   5.350   4.815   0.255
 2341SOL    HW1 7922   5.319   4.722   0.275
 2341SOL    HW2 7923   5.278   4.866   0.208
 2342SOL     OW 7924   0.412   6.425   6.112
 2342SOL    HW1 7925   0.481   6.422   6.040
 2342SOL    HW2 7926   0.403   6.518   6.146
 2343SOL     OW 7927   1.216   6.297   1.019
 2343SOL    HW1 7928   1.238   6.371   0.955
 2343SOL    HW2 7929   1.125   6.311   1.057
 2344SOL     OW 7930   2.786   1.754   2.647
 2344SOL    HW1 7931   2.815   1.671   2.694
 2344SOL    HW2 7932   2.866   1.797   2.604
 2345SOL     OW 7933   1.284   0.153   4.629
 2345SOL    HW1 7934   1.247   0.067   4.663
 2345SOL    HW2 7935   1.260   0.163   4.532
 2346SOL     OW 7936   4.519   3.111   5.341
 2346SOL    HW1 7937   4.494   3.070   5.428
 2346SOL    HW2 7938   4.464   3.193   5.325
 2347SOL     OW 7939   1.635   4.018   2.378
 2347SOL    HW1 7940   1.683   3.964   2.446
 2347SOL    HW2 7941   1.541   3.985   2.368
 2348SOL     OW 7942   2.099   6.570   3.381
 2348SOL    HW1 7943   2.194   6.577   3.350
 2348SOL    HW2 7944   2.091   6.609   3.473
 2349SOL     OW 7945   0.210   6.381   5.946
 2349SOL    HW1 7946   0.244   6.368   5.853
 2349SOL    HW2 7947   0.287   6.396   6.008
 2350SOL     OW 7948   3.137   0.604   5.342
 2350SOL    HW1 7949   3.122   0.604   5.440
 2350SOL    HW2 7950   3.223   0.556   5.321
 2351SOL     OW 7951   2.929   5.325   3.866
 2351SOL    HW1 7952   2.985   5.310   3.784
 2351SOL    HW2 7953   2.986   5.365   3.938
 2352SOL     OW 7954   6.518   4.184   3.724
 2352SOL    HW1 7955   6.597   4.162   3.781
 2352SOL    HW2 7956   6.548   4.211   3.633
 2353SOL     OW 7957   2.675   3.953   5.536
 2353SOL    HW1 7958   2.645   3.868   5.493
 2353SOL    HW2 7959   2.647   4.031   5.479
 2354SOL     OW 7960   3.354   2.683   0.235
 2354SOL    HW1 7961   3.416   2.739   0.181
 2354SOL    HW2 7962   3.350   2.719   0.329
 2355SOL     OW 7963   0.584   0.072   0.749
 2355SOL    HW1 7964   0.528   0.021   0.684
 2355SOL    HW2 7965   0.671   0.097   0.705
 2356SOL     OW 7966   2.423   4.882   2.185
 2356SOL    HW1 7967   2.463   4.796   2.152
 2356SOL    HW2 7968   2.494   4.951   2.195
 2357SOL     OW 7969   5.078   5.082   3.649
 2357SOL    HW1 7970   5.159   5.062   3.704
 2357SOL    HW2 7971   5.039   4.997   3.613
 2358SOL     OW 7972   2.719   6.978   3.838
 2358SOL    HW1 7973   2.715   0.030   3.775
 2358SOL    HW2 7974   2.760   7.008   3.924
 2359SOL     OW 7975   2.873   1.600   6.251
 2359SOL    HW1 7976   2.851   1.512   6.209
 2359SOL    HW2 7977   2.912   1.661   6.182
 2360SOL     OW 7978   3.907   4.401   7.019
 2360SOL    HW1 7979   3.946   4.430   6.932
 2360SOL    HW2 7980   3.807   4.403   7.012
 2361SOL     OW 7981   3.035   0.073   3.069
 2361SOL    HW1 7982   2.991   0.020   3.142
 2361SOL    HW2 7983   2.997   0.046   2.981
 2362SOL     OW 7984   4.536   6.078   4.896
 2362SOL    HW1 7985   4.611   6.104   4.835
 2362SOL    HW2 7986   4.459   6.046   4.841
 2363SOL     OW 7987   4.491   1.877   5.616
 2363SOL    HW1 7988   4.437   1.955   5.647
 2363SOL    HW2 7989   4.568   1.909   5.562
 2364SOL     OW 7990   5.165   1.615   1.917
 2364SOL    HW1 7991   5.082   1.642   1.869
 2364SOL    HW2 7992   5.239   1.601   1.850
 2365SOL     OW 7993   5.617   4.056   4.493
 2365SOL    HW1 7994   5.580   4.118   4.562
 2365SOL    HW2 7995   5.607   4.097   4.402
 2366SOL     OW 7996   1.640   4.004   5.248
 2366SOL    HW1 7997   1.579   3.958   5.183
 2366SOL    HW2 7998   1.731   3.964   5.243
 2367SOL     OW 7999   1.053   3.353   5.603
 2367SOL    HW1 8000   1.113   3.395   5.535
 2367SOL    HW2 8001   1.107   3.323   5.681
 2368SOL     OW 8002   4.413   1.605   4.480
 2368SOL    HW1 8003   4.464   1.689   4.464
 2368SOL    HW2 8004   4.405   1.590   4.579
 2369SOL     OW 8005   3.609   1.870   3.272
 2369SOL    HW1 8006   3.584   1.952   3.220
 2369SOL    HW2 8007   3.533   1.843   3.331
 2370SOL     OW 8008   4.842   2.837   0.268
 2370SOL    HW1 8009   4.931   2.809   0.302
 2370SOL    HW2 8010   4.840   2.936   0.255
 2371SOL     OW 8011   0.862   0.142   2.585
 2371SOL    HW1 8012   0.795   0.180   2.649
 2371SOL    HW2 8013   0.853   0.042   2.582
 2372SOL     OW 8014   6.579   0.835   6.015
 2372SOL    HW1 8015   6.555   0.903   6.085
 2372SOL    HW2 8016   6.678   0.821   6.015
 2373SOL     OW 8017   6.154   0.630   6.218
 2373SOL    HW1 8018   6.066   0.677   6.217
 2373SOL    HW2 8019   6.225   0.691   6.253
 2374SOL     OW 8020   5.881   5.632   3.279
 2374SOL    HW1 8021   5.965   5.579   3.270
 2374SOL    HW2 8022   5.802   5.570   3.280
 2375SOL     OW 8023   0.696   0.386   3.765
 2375SOL    HW1 8024   0.710   0.290   3.790
 2375SOL    HW2 8025   0.638   0.391   3.683
 2376SOL     OW 8026   6.804   2.264   3.356
 2376SOL    HW1 8027   6.724   2.307   3.399
 2376SOL    HW2 8028   6.812   2.295   3.262
 2377SOL     OW 8029   3.311   4.262   6.268
 2377SOL    HW1 8030   3.364   4.296   6.345
 2377SOL    HW2 8031   3.214   4.256   6.294
 2378SOL     OW 8032   5.748   2.084   0.118
 2378SOL    HW1 8033   5.713   2.115   0.030
 2378SOL    HW2 8034   5.683   2.022   0.160
 2379SOL     OW 8035   6.526   4.531   0.348
 2379SOL    HW1 8036   6.478   4.573   0.271
 2379SOL    HW2 8037   6.478   4.447   0.375
 2380SOL     OW 8038   5.956   2.036   5.095
 2380SOL    HW1 8039   6.004   1.951   5.119
 2380SOL    HW2 8040   5.865   2.036   5.137
 2381SOL     OW 8041   2.485   5.038   4.675
 2381SOL    HW1 8042   2.550   5.010   4.603
 2381SOL    HW2 8043   2.529   5.029   4.764
 2382SOL     OW 8044   1.369   5.953   2.627
 2382SOL    HW1 8045   1.391   5.876   2.567
 2382SOL    HW2 8046   1.429   5.952   2.707
 2383SOL     OW 8047   5.070   5.478   5.678
 2383SOL    HW1 8048   5.057   5.485   5.776
 2383SOL    HW2 8049   5.082   5.569   5.638
 2384SOL     OW 8050   0.539   1.941   1.389
 2384SOL    HW1 8051   0.570   1.966   1.480
 2384SOL    HW2 8052   0.466   1.873   1.395
 2385SOL     OW 8053   0.948   2.182   0.098
 2385SOL    HW1 8054   0.876   2.141   0.043
 2385SOL    HW2 8055   0.962   2.129   0.181
 2386SOL     OW 8056   3.171   5.139   4.944
 2386SOL    HW1 8057   3.181   5.040   4.955
 2386SOL    HW2 8058   3.094   5.171   4.999
 2387SOL     OW 8059   0.042   3.251   3.876
 2387SOL    HW1 8060   6.996   3.206   3.820
 2387SOL    HW2 8061   0.022   3.348   3.882
 2388SOL     OW 8062   0.409   1.468   5.880
 2388SOL    HW1 8063   0.337   1.516   5.830
 2388SOL    HW2 8064   0.494   1.472   5.828
 2389SOL     OW 8065   5.337   4.545   4.400
 2389SOL    HW1 8066   5.313   4.459   4.444
 2389SOL    HW2 8067   5.256   4.586   4.359
 2390SOL     OW 8068   3.917   3.414   5.214
 2390SOL    HW1 8069   3.890   3.461   5.129
 2390SOL    HW2 8070   3.963   3.479   5.275
 2391SOL     OW 8071   3.104   3.409   6.202
 2391SOL    HW1 8072   3.128   3.312   6.201
 2391SOL    HW2 8073   3.171   3.460   6.256
 2392SOL     OW 8074   3.579   4.434   6.307
 2392SOL    HW1 8075   3.507   4.481   6.256
 2392SOL    HW2 8076   3.540   4.397   6.392
 2393SOL     OW 8077   3.734   6.064   1.601
 2393SOL    HW1 8078   3.663   6.060   1.531
 2393SOL    HW2 8079   3.818   6.100   1.562
 2394SOL     OW 8080   0.393   4.006   3.766
 2394SOL    HW1 8081   0.337   4.049   3.836
 2394SOL    HW2 8082   0.400   3.908   3.785
 2395SOL     OW 8083   0.011   2.956   0.415
 2395SOL    HW1 8084   0.083   2.904   0.371
 2395SOL    HW2 8085   7.007   3.031   0.356
 2396SOL     OW 8086   5.524   0.772   0.121
 2396SOL    HW1 8087   5.480   0.744   0.036
 2396SOL    HW2 8088   5.467   0.840   0.168
 2397SOL     OW 8089   0.280   4.504   6.271
 2397SOL    HW1 8090   0.342   4.567   6.223
 2397SOL    HW2 8091   0.209   4.473   6.207
 2398SOL     OW 8092   2.934   5.685   4.435
 2398SOL    HW1 8093   2.966   5.606   4.488
 2398SOL    HW2 8094   3.003   5.757   4.437
 2399SOL     OW 8095   3.780   2.140   4.060
 2399SOL    HW1 8096   3.726   2.056   4.056
 2399SOL    HW2 8097   3.802   2.170   3.967
 2400SOL     OW 8098   1.696   3.493   0.328
 2400SOL    HW1 8099   1.645   3.575   0.355
 2400SOL    HW2 8100   1.649   3.411   0.361
 2401SOL     OW 8101   3.463   0.297   3.895
 2401SOL    HW1 8102   3.367   0.327   3.894
 2401SOL    HW2 8103   3.502   0.310   3.804
 2402SOL     OW 8104   0.429   2.143   3.220
 2402SOL    HW1 8105   0.346   2.199   3.225
 2402SOL    HW2 8106   0.406   2.048   3.242
 2403SOL     OW 8107   3.811   3.625   0.974
 2403SOL    HW1 8108   3.878   3.578   1.030
 2403SOL    HW2 8109   3.724   3.575   0.977
 2404SOL     OW 8110   5.834   1.702   1.596
 2404SOL    HW1 8111   5.796   1.795   1.598
 2404SOL    HW2 8112   5.781   1.643   1.657
 2405SOL     OW 8113   3.317   5.080   5.624
 2405SOL    HW1 8114   3.230   5.103   5.580
 2405SOL    HW2 8115   3.315   4.986   5.656
 2406SOL     OW 8116   2.222   0.050   4.027
 2406SOL    HW1 8117   2.242   6.984   3.990
 2406SOL    HW2 8118   2.255   0.056   4.121
 2407SOL     OW 8119   4.356   2.327   2.944
 2407SOL    HW1 8120   4.383   2.385   2.867
 2407SOL    HW2 8121   4.432   2.268   2.970
 2408SOL     OW 8122   2.789   5.413   2.475
 2408SOL    HW1 8123   2.729   5.368   2.541
 2408SOL    HW2 8124   2.734   5.448   2.399
 2409SOL     OW 8125   2.600   3.137   0.952
 2409SOL    HW1 8126   2.680   3.082   0.927
 2409SOL    HW2 8127   2.604   3.226   0.905
 2410SOL     OW 8128   6.575   3.238   6.269
 2410SOL    HW1 8129   6.613   3.173   6.335
 2410SOL    HW2 8130   6.557   3.325   6.314
 2411SOL     OW 8131   2.706   3.967   5.915
 2411SOL    HW1 8132   2.667   3.962   5.823
 2411SOL    HW2 8133   2.699   3.877   5.959
 2412SOL     OW 8134   2.452   2.974   0.121
 2412SOL    HW1 8135   2.539   3.019   0.137
 2412SOL    HW2 8136   2.382   3.043   0.100
 2413SOL     OW 8137   6.279   3.680   6.711
 2413SOL    HW1 8138   6.318   3.773   6.718
 2413SOL    HW2 8139   6.183   3.682   6.740
 2414SOL     OW 8140   5.652   2.310   3.792
 2414SOL    HW1 8141   5.671   2.351   3.703
 2414SOL    HW2 8142   5.589   2.369   3.843
 2415SOL     OW 8143   2.600   6.939   0.990
 2415SOL    HW1 8144   2.651   6.938   0.905
 2415SOL    HW2 8145   2.527   7.006   0.985
 2416SOL     OW 8146   1.175   3.229   3.637
 2416SOL    HW1 8147   1.150   3.319   3.674
 2416SOL    HW2 8148   1.210   3.240   3.544
 2417SOL     OW 8149   4.580   1.962   6.409
 2417SOL    HW1 8150   4.624   2.046   6.377
 2417SOL    HW2 8151   4.551   1.974   6.505
 2418SOL     OW 8152   3.780   3.759   5.479
 2418SOL    HW1 8153   3.719   3.795   5.409
 2418SOL    HW2 8154   3.748   3.668   5.507
 2419SOL     OW 8155   2.169   0.066   4.611
 2419SOL    HW1 8156   2.094   0.089   4.549
 2419SOL    HW2 8157   2.133   0.022   4.693
 2420SOL     OW 8158   3.300   5.602   1.892
 2420SOL    HW1 8159   3.392   5.578   1.922
 2420SOL    HW2 8160   3.269   5.683   1.942
 2421SOL     OW 8161   4.579   6.607   3.817
 2421SOL    HW1 8162   4.527   6.541   3.763
 2421SOL    HW2 8163   4.675   6.580   3.818
 2422SOL     OW 8164   3.579   6.897   0.846
 2422SOL    HW1 8165   3.574   6.804   0.809
 2422SOL    HW2 8166   3.665   6.939   0.819
 2423SOL     OW 8167   1.776   5.398   1.148
 2423SOL    HW1 8168   1.703   5.351   1.198
 2423SOL    HW2 8169   1.763   5.384   1.050
 2424SOL     OW 8170   6.154   6.493   6.817
 2424SOL    HW1 8171   6.222   6.459   6.752
 2424SOL    HW2 8172   6.198   6.512   6.905
 2425SOL     OW 8173   4.621   6.009   5.618
 2425SOL    HW1 8174   4.588   6.011   5.713
 2425SOL    HW2 8175   4.602   5.919   5.578
 2426SOL     OW 8176   1.000   5.295   4.921
 2426SOL    HW1 8177   0.980   5.370   4.858
 2426SOL    HW2 8178   1.045   5.221   4.871
 2427SOL     OW 8179   5.115   6.273   6.529
 2427SOL    HW1 8180   5.047   6.331   6.573
 2427SOL    HW2 8181   5.091   6.177   6.543
 2428SOL     OW 8182   0.062   0.575   2.548
 2428SOL    HW1 8183   7.010   0.512   2.537
 2428SOL    HW2 8184   0.060   0.644   2.475
 2429SOL     OW 8185   5.691   4.367   2.572
 2429SOL    HW1 8186   5.632   4.286   2.574
 2429SOL    HW2 8187   5.681   4.418   2.658
 2430SOL     OW 8188   5.742   1.925   0.468
 2430SOL    HW1 8189   5.709   1.886   0.554
 2430SOL    HW2 8190   5.720   2.022   0.464
 2431SOL     OW 8191   5.553   1.711   1.352
 2431SOL    HW1 8192   5.529   1.717   1.449
 2431SOL    HW2 8193   5.559   1.616   1.324
 2432SOL     OW 8194   3.274   6.594   1.296
 2432SOL    HW1 8195   3.237   6.520   1.352
 2432SOL    HW2 8196   3.362   6.623   1.332
 2433SOL     OW 8197   0.799   6.496   0.260
 2433SOL    HW1 8198   0.728   6.542   0.207
 2433SOL    HW2 8199   0.859   6.565   0.301
 2434SOL     OW 8200   4.924   1.733   2.493
 2434SOL    HW1 8201   4.941   1.730   2.591
 2434SOL    HW2 8202   4.935   1.827   2.460
 2435SOL     OW 8203   5.759   5.817   0.354
 2435SOL    HW1 8204   5.691   5.772   0.412
 2435SOL    HW2 8205   5.824   5.866   0.412
 2436SOL     OW 8206   1.990   0.889   1.399
 2436SOL    HW1 8207   2.044   0.973   1.394
 2436SOL    HW2 8208   2.005   0.844   1.487
 2437SOL     OW 8209   5.198   6.226   1.392
 2437SOL    HW1 8210   5.224   6.323   1.382
 2437SOL    HW2 8211   5.220   6.178   1.307
 2438SOL     OW 8212   4.365   1.580   4.739
 2438SOL    HW1 8213   4.372   1.680   4.744
 2438SOL    HW2 8214   4.419   1.540   4.814
 2439SOL     OW 8215   0.263   4.881   6.922
 2439SOL    HW1 8216   0.356   4.853   6.945
 2439SOL    HW2 8217   0.245   4.972   6.959
 2440SOL     OW 8218   4.547   6.469   5.697
 2440SOL    HW1 8219   4.498   6.547   5.659
 2440SOL    HW2 8220   4.641   6.495   5.717
 2441SOL     OW 8221   6.129   1.371   0.178
 2441SOL    HW1 8222   6.041   1.341   0.143
 2441SOL    HW2 8223   6.126   1.469   0.200
 2442SOL     OW 8224   5.743   4.807   3.111
 2442SOL    HW1 8225   5.813   4.861   3.064
 2442SOL    HW2 8226   5.670   4.867   3.143
 2443SOL     OW 8227   2.953   1.040   6.775
 2443SOL    HW1 8228   2.908   1.000   6.855
 2443SOL    HW2 8229   2.885   1.065   6.707
 2444SOL     OW 8230   4.142   4.785   0.051
 2444SOL    HW1 8231   4.053   4.750   0.080
 2444SOL    HW2 8232   4.201   4.796   0.130
 2445SOL     OW 8233   6.087   1.505   1.817
 2445SOL    HW1 8234   5.987   1.510   1.824
 2445SOL    HW2 8235   6.117   1.562   1.740
 2446SOL     OW 8236   1.124   2.884   3.367
 2446SOL    HW1 8237   1.142   2.968   3.316
 2446SOL    HW2 8238   1.067   2.823   3.312
 2447SOL     OW 8239   2.301   0.391   0.881
 2447SOL    HW1 8240   2.325   0.300   0.846
 2447SOL    HW2 8241   2.248   0.441   0.812
 2448SOL     OW 8242   5.917   1.974   4.311
 2448SOL    HW1 8243   5.821   1.967   4.283
 2448SOL    HW2 8244   5.966   2.032   4.246
 2449SOL     OW 8245   1.698   3.276   1.491
 2449SOL    HW1 8246   1.771   3.317   1.546
 2449SOL    HW2 8247   1.613   3.274   1.545
 2450SOL     OW 8248   2.780   5.390   6.429
 2450SOL    HW1 8249   2.719   5.454   6.475
 2450SOL    HW2 8250   2.821   5.434   6.349
 2451SOL     OW 8251   1.016   0.396   3.236
 2451SOL    HW1 8252   0.936   0.421   3.182
 2451SOL    HW2 8253   1.002   0.421   3.331
 2452SOL     OW 8254   2.867   2.273   3.735
 2452SOL    HW1 8255   2.833   2.187   3.695
 2452SOL    HW2 8256   2.965   2.265   3.751
 2453SOL     OW 8257   0.076   3.314   0.895
 2453SOL    HW1 8258   0.140   3.289   0.822
 2453SOL    HW2 8259   0.081   3.245   0.968
 2454SOL     OW 8260   2.592   6.411   0.158
 2454SOL    HW1 8261   2.535   6.428   0.238
 2454SOL    HW2 8262   2.689   6.414   0.185
 2455SOL     OW 8263   4.648   1.031   0.700
 2455SOL    HW1 8264   4.645   1.038   0.600
 2455SOL    HW2 8265   4.687   0.943   0.726
 2456SOL     OW 8266   0.416   2.657   6.679
 2456SOL    HW1 8267   0.384   2.564   6.694
 2456SOL    HW2 8268   0.469   2.688   6.758
 2457SOL     OW 8269   6.321   1.360   5.620
 2457SOL    HW1 8270   6.345   1.401   5.708
 2457SOL    HW2 8271   6.232   1.314   5.627
 2458SOL     OW 8272   1.299   6.516   3.650
 2458SOL    HW1 8273   1.364   6.441   3.653
 2458SOL    HW2 8274   1.348   6.602   3.639
 2459SOL     OW 8275   2.838   6.493   5.722
 2459SOL    HW1 8276   2.806   6.565   5.784
 2459SOL    HW2 8277   2.830   6.404   5.768
 2460SOL     OW 8278   1.327   1.184   0.625
 2460SOL    HW1 8279   1.304   1.087   0.617
 2460SOL    HW2 8280   1.424   1.193   0.647
 2461SOL     OW 8281   4.794   0.734   4.140
 2461SOL    HW1 8282   4.743   0.661   4.186
 2461SOL    HW2 8283   4.756   0.823   4.166
 2462SOL     OW 8284   2.338   5.008   6.730
 2462SOL    HW1 8285   2.347   5.066   6.811
 2462SOL    HW2 8286   2.377   5.056   6.651
 2463SOL     OW 8287   6.100   1.910   0.216
 2463SOL    HW1 8288   6.017   1.965   0.225
 2463SOL    HW2 8289   6.165   1.958   0.156
 2464SOL     OW 8290   1.750   3.360   2.856
 2464SOL    HW1 8291   1.782   3.452   2.834
 2464SOL    HW2 8292   1.811   3.319   2.925
 2465SOL     OW 8293   0.193   6.723   6.691
 2465SOL    HW1 8294   0.279   6.672   6.686
 2465SOL    HW2 8295   0.185   6.766   6.781
 2466SOL     OW 8296   1.769   1.459   2.920
 2466SOL    HW1 8297   1.843   1.446   2.854
 2466SOL    HW2 8298   1.708   1.532   2.889
 2467SOL     OW 8299   5.117   2.058   5.246
 2467SOL    HW1 8300   5.166   2.028   5.164
 2467SOL    HW2 8301   5.106   1.981   5.308
 2468SOL     OW 8302   4.283   0.161   1.111
 2468SOL    HW1 8303   4.248   0.236   1.166
 2468SOL    HW2 8304   4.353   0.196   1.048
 2469SOL     OW 8305   3.889   3.315   4.754
 2469SOL    HW1 8306   3.795   3.346   4.735
 2469SOL    HW2 8307   3.891   3.270   4.843
 2470SOL     OW 8308   4.029   4.955   5.602
 2470SOL    HW1 8309   3.939   4.913   5.609
 2470SOL    HW2 8310   4.067   4.938   5.511
 2471SOL     OW 8311   3.072   5.804   0.259
 2471SOL    HW1 8312   3.002   5.861   0.218
 2471SOL    HW2 8313   3.120   5.753   0.187
 2472SOL     OW 8314   4.775   2.225   3.104
 2472SOL    HW1 8315   4.789   2.324   3.116
 2472SOL    HW2 8316   4.859   2.177   3.131
 2473SOL     OW 8317   1.226   3.659   4.837
 2473SOL    HW1 8318   1.178   3.721   4.899
 2473SOL    HW2 8319   1.172   3.576   4.825
 2474SOL     OW 8320   0.093   6.042   0.963
 2474SOL    HW1 8321   0.024   6.033   1.035
 2474SOL    HW2 8322   0.107   5.953   0.920
 2475SOL     OW 8323   4.566   0.677   2.625
 2475SOL    HW1 8324   4.596   0.643   2.536
 2475SOL    HW2 8325   4.491   0.621   2.658
 2476SOL     OW 8326   6.019   1.022   2.385
 2476SOL    HW1 8327   5.947   1.065   2.332
 2476SOL    HW2 8328   6.103   1.018   2.331
 2477SOL     OW 8329   4.224   1.146   2.852
 2477SOL    HW1 8330   4.290   1.112   2.919
 2477SOL    HW2 8331   4.135   1.104   2.867
 2478SOL     OW 8332   6.457   1.993   1.364
 2478SOL    HW1 8333   6.554   1.990   1.340
 2478SOL    HW2 8334   6.437   2.079   1.412
 2479SOL     OW 8335   1.158   2.949   2.472
 2479SOL    HW1 8336   1.179   3.040   2.437
 2479SOL    HW2 8337   1.209   2.880   2.420
 2480SOL     OW 8338   4.632   4.049   0.787
 2480SOL    HW1 8339   4.597   4.117   0.852
 2480SOL    HW2 8340   4.717   4.009   0.822
 2481SOL     OW 8341   4.003   6.526   0.744
 2481SOL    HW1 8342   3.974   6.591   0.814
 2481SOL    HW2 8343   3.953   6.440   0.754
 2482SOL     OW 8344   5.134   3.586   5.828
 2482SOL    HW1 8345   5.141   3.671   5.879
 2482SOL    HW2 8346   5.046   3.584   5.779
 2483SOL     OW 8347   1.852   1.543   0.901
 2483SOL    HW1 8348   1.815   1.489   0.977
 2483SOL    HW2 8349   1.837   1.640   0.918
 2484SOL     OW 8350   3.817   0.205   6.899
 2484SOL    HW1 8351   3.799   0.295   6.859
 2484SOL    HW2 8352   3.856   0.217   6.990
 2485SOL     OW 8353   5.307   3.513   1.379
 2485SOL    HW1 8354   5.211   3.542   1.384
 2485SOL    HW2 8355   5.311   3.419   1.345
 2486SOL     OW 8356   1.628   5.001   5.082
 2486SOL    HW1 8357   1.627   4.930   5.012
 2486SOL    HW2 8358   1.674   5.082   5.047
 2487SOL     OW 8359   4.189   6.382   0.317
 2487SOL    HW1 8360   4.100   6.422   0.294
 2487SOL    HW2 8361   4.179   6.321   0.396
 2488SOL     OW 8362   1.609   4.207   1.973
 2488SOL    HW1 8363   1.513   4.230   1.958
 2488SOL    HW2 8364   1.656   4.286   2.013
 2489SOL     OW 8365   0.785   6.896   3.948
 2489SOL    HW1 8366   0.880   6.918   3.927
 2489SOL    HW2 8367   0.758   6.814   3.898
 2490SOL     OW 8368   6.736   5.415   1.483
 2490SOL    HW1 8369   6.740   5.342   1.551
 2490SOL    HW2 8370   6.641   5.444   1.471
 2491SOL     OW 8371   3.132   4.759   0.110
 2491SOL    HW1 8372   3.130   4.850   0.070
 2491SOL    HW2 8373   3.135   4.690   0.038
 2492SOL     OW 8374   4.789   3.771   0.754
 2492SOL    HW1 8375   4.697   3.764   0.792
 2492SOL    HW2 8376   4.783   3.775   0.654
 2493SOL     OW 8377   5.642   0.224   1.984
 2493SOL    HW1 8378   5.590   0.258   2.062
 2493SOL    HW2 8379   5.593   0.148   1.941
 2494SOL     OW 8380   5.463   4.720   2.776
 2494SOL    HW1 8381   5.411   4.649   2.729
 2494SOL    HW2 8382   5.560   4.699   2.773
 2495SOL     OW 8383   5.185   6.517   4.045
 2495SOL    HW1 8384   5.231   6.554   3.964
 2495SOL    HW2 8385   5.113   6.580   4.075
 2496SOL     OW 8386   0.265   2.414   6.040
 2496SOL    HW1 8387   0.355   2.455   6.031
 2496SOL    HW2 8388   0.212   2.466   6.107
 2497SOL     OW 8389   0.211   0.375   0.699
 2497SOL    HW1 8390   0.299   0.353   0.657
 2497SOL    HW2 8391   0.186   0.469   0.676
 2498SOL     OW 8392   2.829   2.345   4.656
 2498SOL    HW1 8393   2.797   2.279   4.588
 2498SOL    HW2 8394   2.908   2.307   4.704
 2499SOL     OW 8395   6.126   2.496   2.143
 2499SOL    HW1 8396   6.079   2.584   2.141
 2499SOL    HW2 8397   6.088   2.440   2.218
 2500SOL     OW 8398   4.411   4.252   6.423
 2500SOL    HW1 8399   4.421   4.177   6.488
 2500SOL    HW2 8400   4.351   4.223   6.348
 2501SOL     OW 8401   5.153   5.543   0.421
 2501SOL    HW1 8402   5.176   5.465   0.479
 2501SOL    HW2 8403   5.069   5.525   0.371
 2502SOL     OW 8404   0.987   0.419   3.498
 2502SOL    HW1 8405   0.926   0.456   3.568
 2502SOL    HW2 8406   0.992   0.320   3.508
 2503SOL     OW 8407   2.128   6.398   4.627
 2503SOL    HW1 8408   2.031   6.380   4.610
 2503SOL    HW2 8409   2.152   6.366   4.719
 2504SOL     OW 8410   3.446   5.525   5.015
 2504SOL    HW1 8411   3.464   5.435   4.975
 2504SOL    HW2 8412   3.372   5.570   4.965
 2505SOL     OW 8413   0.514   6.787   3.085
 2505SOL    HW1 8414   0.603   6.830   3.070
 2505SOL    HW2 8415   0.496   6.782   3.183
 2506SOL     OW 8416   6.067   3.738   5.776
 2506SOL    HW1 8417   6.023   3.652   5.754
 2506SOL    HW2 8418   6.059   3.800   5.697
 2507SOL     OW 8419   6.782   3.756   0.478
 2507SOL    HW1 8420   6.848   3.719   0.543
 2507SOL    HW2 8421   6.753   3.847   0.507
 2508SOL     OW 8422   2.885   1.690   3.584
 2508SOL    HW1 8423   2.919   1.753   3.655
 2508SOL    HW2 8424   2.958   1.673   3.518
 2509SOL     OW 8425   6.938   3.791   0.901
 2509SOL    HW1 8426   6.951   3.692   0.899
 2509SOL    HW2 8427   6.931   3.826   0.808
 2510SOL     OW 8428   2.971   5.191   1.186
 2510SOL    HW1 8429   2.919   5.184   1.101
 2510SOL    HW2 8430   3.051   5.249   1.172
 2511SOL     OW 8431   3.752   1.876   4.468
 2511SOL    HW1 8432   3.750   1.976   4.467
 2511SOL    HW2 8433   3.836   1.844   4.423
 2512SOL     OW 8434   4.923   3.429   5.551
 2512SOL    HW1 8435   4.902   3.471   5.640
 2512SOL    HW2 8436   4.955   3.336   5.565
 2513SOL     OW 8437   1.979   4.410   5.066
 2513SOL    HW1 8438   1.935   4.402   5.156
 2513SOL    HW2 8439   1.911   4.434   4.997
 2514SOL     OW 8440   6.685   3.464   5.098
 2514SOL    HW1 8441   6.775   3.459   5.140
 2514SOL    HW2 8442   6.687   3.528   5.021
 2515SOL     OW 8443   1.330   0.302   1.158
 2515SOL    HW1 8444   1.364   0.315   1.251
 2515SOL    HW2 8445   1.258   0.232   1.158
 2516SOL     OW 8446   5.896   2.080   2.405
 2516SOL    HW1 8447   5.799   2.074   2.429
 2516SOL    HW2 8448   5.944   1.998   2.437
 2517SOL     OW 8449   1.254   6.343   5.861
 2517SOL    HW1 8450   1.283   6.302   5.947
 2517SOL    HW2 8451   1.285   6.438   5.858
 2518SOL     OW 8452   1.638   4.673   6.821
 2518SOL    HW1 8453   1.582   4.599   6.784
 2518SOL    HW2 8454   1.590   4.715   6.898
 2519SOL     OW 8455   3.950   6.358   2.179
 2519SOL    HW1 8456   3.971   6.383   2.273
 2519SOL    HW2 8457   4.011   6.406   2.117
 2520SOL     OW 8458   2.921   1.499   0.387
 2520SOL    HW1 8459   2.861   1.456   0.454
 2520SOL    HW2 8460   2.868   1.564   0.333
 2521SOL     OW 8461   2.075   1.047   5.353
 2521SOL    HW1 8462   1.988   1.012   5.319
 2521SOL    HW2 8463   2.060   1.130   5.406
 2522SOL     OW 8464   0.799   2.764   5.000
 2522SOL    HW1 8465   0.771   2.744   4.906
 2522SOL    HW2 8466   0.752   2.846   5.032
 2523SOL     OW 8467   0.272   3.401   1.645
 2523SOL    HW1 8468   0.282   3.355   1.733
 2523SOL    HW2 8469   0.348   3.377   1.586
 2524SOL     OW 8470   0.855   6.281   5.200
 2524SOL    HW1 8471   0.797   6.344   5.251
 2524SOL    HW2 8472   0.828   6.187   5.219
 2525SOL     OW 8473   1.070   2.510   5.688
 2525SOL    HW1 8474   1.161   2.480   5.715
 2525SOL    HW2 8475   1.078   2.592   5.630
 2526SOL     OW 8476   1.389   4.761   6.455
 2526SOL    HW1 8477   1.393   4.664   6.476
 2526SOL    HW2 8478   1.294   4.792   6.459
 2527SOL     OW 8479   5.322   5.643   4.872
 2527SOL    HW1 8480   5.320   5.600   4.782
 2527SOL    HW2 8481   5.233   5.683   4.892
 2528SOL     OW 8482   5.946   4.869   0.261
 2528SOL    HW1 8483   5.913   4.914   0.178
 2528SOL    HW2 8484   5.867   4.842   0.316
 2529SOL     OW 8485   6.970   6.146   6.747
 2529SOL    HW1 8486   6.879   6.159   6.784
 2529SOL    HW2 8487   0.013   6.151   6.821
 2530SOL     OW 8488   2.632   6.306   5.352
 2530SOL    HW1 8489   2.709   6.304   5.288
 2530SOL    HW2 8490   2.662   6.272   5.442
 2531SOL     OW 8491   5.806   6.051   4.255
 2531SOL    HW1 8492   5.824   6.058   4.353
 2531SOL    HW2 8493   5.732   5.985   4.240
 2532SOL     OW 8494   0.366   5.901   0.735
 2532SOL    HW1 8495   0.421   5.870   0.813
 2532SOL    HW2 8496   0.359   6.001   0.737
 2533SOL     OW 8497   3.187   6.697   4.419
 2533SOL    HW1 8498   3.229   6.680   4.330
 2533SOL    HW2 8499   3.246   6.659   4.491
 2534SOL     OW 8500   3.789   0.545   2.796
 2534SOL    HW1 8501   3.736   0.619   2.755
 2534SOL    HW2 8502   3.851   0.583   2.865
 2535SOL     OW 8503   3.451   2.279   5.301
 2535SOL    HW1 8504   3.365   2.318   5.334
 2535SOL    HW2 8505   3.454   2.284   5.201
 2536SOL     OW 8506   1.498   1.656   4.706
 2536SOL    HW1 8507   1.540   1.747   4.694
 2536SOL    HW2 8508   1.400   1.666   4.717
 2537SOL     OW 8509   3.573   0.117   6.415
 2537SOL    HW1 8510   3.608   0.110   6.322
 2537SOL    HW2 8511   3.628   0.058   6.475
 2538SOL     OW 8512   0.942   4.539   3.304
 2538SOL    HW1 8513   1.018   4.569   3.361
 2538SOL    HW2 8514   0.905   4.453   3.339
 2539SOL     OW 8515   5.965   1.093   4.930
 2539SOL    HW1 8516   6.063   1.075   4.923
 2539SOL    HW2 8517   5.920   1.066   4.845
 2540SOL     OW 8518   4.049   1.817   3.003
 2540SOL    HW1 8519   4.096   1.761   3.071
 2540SOL    HW2 8520   3.950   1.810   3.017
 2541SOL     OW 8521   2.581   0.195   5.396
 2541SOL    HW1 8522   2.631   0.281   5.403
 2541SOL    HW2 8523   2.646   0.118   5.395
 2542SOL     OW 8524   3.523   1.132   5.721
 2542SOL    HW1 8525   3.450   1.190   5.757
 2542SOL    HW2 8526   3.565   1.176   5.641
 2543SOL     OW 8527   1.759   0.955   3.677
 2543SOL    HW1 8528   1.797   1.023   3.741
 2543SOL    HW2 8529   1.737   0.999   3.590
 2544SOL     OW 8530   0.627   6.569   1.615
 2544SOL    HW1 8531   0.549   6.561   1.552
 2544SOL    HW2 8532   0.662   6.478   1.637
 2545SOL     OW 8533   1.297   0.021   1.657
 2545SOL    HW1 8534   1.202   7.023   1.681
 2545SOL    HW2 8535   1.317   7.010   1.565
 2546SOL     OW 8536   0.384   1.152   1.922
 2546SOL    HW1 8537   0.298   1.202   1.911
 2546SOL    HW2 8538   0.454   1.195   1.866
 2547SOL     OW 8539   6.110   5.472   0.497
 2547SOL    HW1 8540   6.113   5.455   0.595
 2547SOL    HW2 8541   6.018   5.503   0.471
 2548SOL     OW 8542   1.164   6.557   6.269
 2548SOL    HW1 8543   1.178   6.459   6.283
 2548SOL    HW2 8544   1.146   6.601   6.357
 2549SOL     OW 8545   2.154   0.477   0.655
 2549SOL    HW1 8546   2.072   0.421   0.653
 2549SOL    HW2 8547   2.158   0.532   0.572
 2550SOL     OW 8548   6.817   0.613   6.807
 2550SOL    HW1 8549   6.899   0.650   6.764
 2550SOL    HW2 8550   6.841   0.569   6.893
 2551SOL     OW 8551   3.036   5.285   0.199
 2551SOL    HW1 8552   3.078   5.197   0.178
 2551SOL    HW2 8553   3.101   5.343   0.247
 2552SOL     OW 8554   1.861   5.196   5.331
 2552SOL    HW1 8555   1.810   5.148   5.402
 2552SOL    HW2 8556   1.813   5.188   5.244
 2553SOL     OW 8557   5.298   3.198   5.487
 2553SOL    HW1 8558   5.341   3.118   5.530
 2553SOL    HW2 8559   5.200   3.197   5.505
 2554SOL     OW 8560   1.406   6.984   0.443
 2554SOL    HW1 8561   1.403   6.884   0.452
 2554SOL    HW2 8562   1.415   7.024   0.534
 2555SOL     OW 8563   5.921   6.792   5.605
 2555SOL    HW1 8564   5.880   6.832   5.523
 2555SOL    HW2 8565   5.857   6.727   5.646
 2556SOL     OW 8566   4.594   5.542   0.725
 2556SOL    HW1 8567   4.542   5.572   0.645
 2556SOL    HW2 8568   4.533   5.498   0.790
 2557SOL     OW 8569   2.820   4.051   7.015
 2557SOL    HW1 8570   2.722   4.053   0.010
 2557SOL    HW2 8571   2.835   4.010   6.925
 2558SOL     OW 8572   5.143   1.781   4.456
 2558SOL    HW1 8573   5.130   1.853   4.524
 2558SOL    HW2 8574   5.110   1.694   4.493
 2559SOL     OW 8575   6.777   3.526   3.954
 2559SOL    HW1 8576   6.876   3.537   3.945
 2559SOL    HW2 8577   6.732   3.556   3.869
 2560SOL     OW 8578   5.816   3.381   4.410
 2560SOL    HW1 8579   5.739   3.423   4.458
 2560SOL    HW2 8580   5.855   3.308   4.466
 2561SOL     OW 8581   3.340   6.278   5.528
 2561SOL    HW1 8582   3.287   6.314   5.451
 2561SOL    HW2 8583   3.314   6.325   5.612
 2562SOL     OW 8584   1.957   5.354   2.176
 2562SOL    HW1 8585   2.037   5.298   2.154
 2562SOL    HW2 8586   1.987   5.438   2.221
 2563SOL     OW 8587   3.787   2.728   0.389
 2563SOL    HW1 8588   3.723   2.727   0.312
 2563SOL    HW2 8589   3.881   2.727   0.355
 2564SOL     OW 8590   2.045   6.349   6.013
 2564SOL    HW1 8591   2.071   6.263   5.970
 2564SOL    HW2 8592   1.956   6.378   5.979
 2565SOL     OW 8593   0.884   0.482   6.874
 2565SOL    HW1 8594   0.897   0.506   6.970
 2565SOL    HW2 8595   0.963   0.429   6.842
 2566SOL     OW 8596   2.862   6.809   1.047
 2566SOL    HW1 8597   2.767   6.839   1.046
 2566SOL    HW2 8598   2.866   6.709   1.049
 2567SOL     OW 8599   0.968   1.063   1.032
 2567SOL    HW1 8600   0.993   1.134   0.966
 2567SOL    HW2 8601   0.876   1.081   1.067
 2568SOL     OW 8602   4.375   6.634   0.115
 2568SOL    HW1 8603   4.397   6.559   0.177
 2568SOL    HW2 8604   4.454   6.652   0.055
 2569SOL     OW 8605   3.211   1.403   1.797
 2569SOL    HW1 8606   3.172   1.494   1.809
 2569SOL    HW2 8607   3.271   1.381   1.874
 2570SOL     OW 8608   5.414   0.125   6.280
 2570SOL    HW1 8609   5.434   0.033   6.246
 2570SOL    HW2 8610   5.358   0.173   6.212
 2571SOL     OW 8611   2.515   4.654   5.811
 2571SOL    HW1 8612   2.522   4.736   5.754
 2571SOL    HW2 8613   2.453   4.589   5.768
 2572SOL     OW 8614   2.814   4.763   0.207
 2572SOL    HW1 8615   2.867   4.848   0.202
 2572SOL    HW2 8616   2.803   4.735   0.303
 2573SOL     OW 8617   6.986   2.459   1.716
 2573SOL    HW1 8618   6.932   2.540   1.692
 2573SOL    HW2 8619   6.926   2.389   1.754
 2574SOL     OW 8620   6.081   4.019   0.203
 2574SOL    HW1 8621   6.159   3.982   0.153
 2574SOL    HW2 8622   6.113   4.067   0.285
 2575SOL     OW 8623   5.167   5.282   1.014
 2575SOL    HW1 8624   5.079   5.273   1.062
 2575SOL    HW2 8625   5.223   5.351   1.061
 2576SOL     OW 8626   4.223   6.583   4.434
 2576SOL    HW1 8627   4.146   6.614   4.489
 2576SOL    HW2 8628   4.190   6.522   4.362
 2577SOL     OW 8629   4.377   6.676   1.842
 2577SOL    HW1 8630   4.367   6.606   1.771
 2577SOL    HW2 8631   4.286   6.707   1.870
 2578SOL     OW 8632   4.913   1.555   5.362
 2578SOL    HW1 8633   4.845   1.482   5.358
 2578SOL    HW2 8634   4.934   1.586   5.270
 2579SOL     OW 8635   1.398   6.261   3.655
 2579SOL    HW1 8636   1.333   6.186   3.648
 2579SOL    HW2 8637   1.478   6.232   3.707
 2580SOL     OW 8638   2.805   3.772   6.219
 2580SOL    HW1 8639   2.791   3.712   6.141
 2580SOL    HW2 8640   2.742   3.850   6.213
 2581SOL     OW 8641   0.922   5.112   1.236
 2581SOL    HW1 8642   0.898   5.187   1.297
 2581SOL    HW2 8643   1.021   5.105   1.229
 2582SOL     OW 8644   0.367   4.435   2.023
 2582SOL    HW1 8645   0.361   4.349   2.073
 2582SOL    HW2 8646   0.457   4.443   1.980
 2583SOL     OW 8647   0.937   1.563   0.277
 2583SOL    HW1 8648   0.864   1.495   0.276
 2583SOL    HW2 8649   0.897   1.655   0.284
 2584SOL     OW 8650   4.130   5.095   6.426
 2584SOL    HW1 8651   4.117   5.027   6.498
 2584SOL    HW2 8652   4.154   5.049   6.341
 2585SOL     OW 8653   4.127   2.953   6.824
 2585SOL    HW1 8654   4.220   2.985   6.808
 2585SOL    HW2 8655   4.066   3.032   6.829
 2586SOL     OW 8656   3.732   1.376   3.060
 2586SOL    HW1 8657   3.672   1.456   3.064
 2586SOL    HW2 8658   3.796   1.386   2.984
 2587SOL     OW 8659   0.360   0.534   3.097
 2587SOL    HW1 8660   0.419   0.457   3.119
 2587SOL    HW2 8661   0.389   0.577   3.012
 2588SOL     OW 8662   5.043   1.033   6.557
 2588SOL    HW1 8663   5.079   1.117   6.517
 2588SOL    HW2 8664   4.947   1.022   6.531
 2589SOL     OW 8665   1.014   6.376   6.075
 2589SOL    HW1 8666   1.077   6.384   6.151
 2589SOL    HW2 8667   1.036   6.444   6.005
 2590SOL     OW 8668   3.322   5.576   0.549
 2590SOL    HW1 8669   3.419   5.598   0.563
 2590SOL    HW2 8670   3.287   5.529   0.631
 2591SOL     OW 8671   6.981   4.599   3.226
 2591SOL    HW1 8672   6.889   4.593   3.265
 2591SOL    HW2 8673   6.997   4.691   3.192
 2592SOL     OW 8674   3.208   5.711   7.017
 2592SOL    HW1 8675   3.296   5.750   0.018
 2592SOL    HW2 8676   3.219   5.616   6.988
 2593SOL     OW 8677   3.596   5.598   0.606
 2593SOL    HW1 8678   3.631   5.638   0.521
 2593SOL    HW2 8679   3.626   5.503   0.613
 2594SOL     OW 8680   2.218   4.926   6.465
 2594SOL    HW1 8681   2.137   4.869   6.472
 2594SOL    HW2 8682   2.247   4.954   6.557
 2595SOL     OW 8683   6.871   0.839   3.579
 2595SOL    HW1 8684   6.885   0.863   3.675
 2595SOL    HW2 8685   6.846   0.922   3.528
 2596SOL     OW 8686   3.211   2.060   1.970
 2596SOL    HW1 8687   3.279   2.044   2.040
 2596SOL    HW2 8688   3.256   2.075   1.882
 2597SOL     OW 8689   0.481   4.937   5.682
 2597SOL    HW1 8690   0.413   4.934   5.609
 2597SOL    HW2 8691   0.531   4.850   5.686
 2598SOL     OW 8692   6.409   1.072   3.171
 2598SOL    HW1 8693   6.472   1.148   3.181
 2598SOL    HW2 8694   6.317   1.100   3.197
 2599SOL     OW 8695   1.565   6.169   1.004
 2599SOL    HW1 8696   1.533   6.208   1.091
 2599SOL    HW2 8697   1.496   6.105   0.970
 2600SOL     OW 8698   5.639   2.991   4.927
 2600SOL    HW1 8699   5.702   3.062   4.894
 2600SOL    HW2 8700   5.634   2.917   4.860
 2601SOL     OW 8701   1.871   1.392   2.100
 2601SOL    HW1 8702   1.921   1.410   2.015
 2601SOL    HW2 8703   1.804   1.319   2.085
 2602SOL     OW 8704   1.356   4.789   4.872
 2602SOL    HW1 8705   1.327   4.693   4.862
 2602SOL    HW2 8706   1.450   4.791   4.907
 2603SOL     OW 8707   3.262   0.864   3.864
 2603SOL    HW1 8708   3.308   0.950   3.842
 2603SOL    HW2 8709   3.198   0.879   3.939
 2604SOL     OW 8710   4.930   2.030   2.458
 2604SOL    HW1 8711   4.873   2.075   2.389
 2604SOL    HW2 8712   4.938   2.089   2.538
 2605SOL     OW 8713   1.946   3.348   3.467
 2605SOL    HW1 8714   1.928   3.255   3.434
 2605SOL    HW2 8715   1.965   3.408   3.390
 2606SOL     OW 8716   5.420   5.024   1.400
 2606SOL    HW1 8717   5.459   5.116   1.401
 2606SOL    HW2 8718   5.322   5.030   1.381
 2607SOL     OW 8719   1.017   1.508   2.208
 2607SOL    HW1 8720   1.074   1.462   2.275
 2607SOL    HW2 8721   1.022   1.459   2.120
 2608SOL     OW 8722   4.441   4.696   0.458
 2608SOL    HW1 8723   4.419   4.755   0.380
 2608SOL    HW2 8724   4.396   4.607   0.447
 2609SOL     OW 8725   6.202   0.809   1.977
 2609SOL    HW1 8726   6.300   0.823   1.960
 2609SOL    HW2 8727   6.188   0.785   2.074
 2610SOL     OW 8728   0.559   4.207   4.555
 2610SOL    HW1 8729   0.533   4.303   4.566
 2610SOL    HW2 8730   0.657   4.201   4.539
 2611SOL     OW 8731   4.197   6.134   0.919
 2611SOL    HW1 8732   4.232   6.054   0.870
 2611SOL    HW2 8733   4.199   6.214   0.859
 2612SOL     OW 8734   6.533   0.046   4.605
 2612SOL    HW1 8735   6.578   7.012   4.539
 2612SOL    HW2 8736   6.601   0.084   4.668
 2613SOL     OW 8737   2.038   5.735   6.034
 2613SOL    HW1 8738   2.017   5.833   6.043
 2613SOL    HW2 8739   2.057   5.697   6.124
 2614SOL     OW 8740   6.472   1.863   0.418
 2614SOL    HW1 8741   6.544   1.923   0.382
 2614SOL    HW2 8742   6.401   1.918   0.462
 2615SOL     OW 8743   1.015   2.713   2.556
 2615SOL    HW1 8744   1.071   2.789   2.523
 2615SOL    HW2 8745   1.069   2.655   2.616
 2616SOL     OW 8746   2.725   2.942   5.844
 2616SOL    HW1 8747   2.629   2.914   5.841
 2616SOL    HW2 8748   2.770   2.917   5.759
 2617SOL     OW 8749   4.432   0.252   0.728
 2617SOL    HW1 8750   4.366   0.272   0.655
 2617SOL    HW2 8751   4.524   0.276   0.698
 2618SOL     OW 8752   6.697   0.276   3.740
 2618SOL    HW1 8753   6.774   0.278   3.803
 2618SOL    HW2 8754   6.730   0.259   3.647
 2619SOL     OW 8755   4.579   1.934   1.761
 2619SOL    HW1 8756   4.499   1.953   1.817
 2619SOL    HW2 8757   4.658   1.983   1.797
 2620SOL     OW 8758   6.659   6.601   3.624
 2620SOL    HW1 8759   6.758   6.593   3.634
 2620SOL    HW2 8760   6.626   6.677   3.680
 2621SOL     OW 8761   1.227   5.027   1.857
 2621SOL    HW1 8762   1.171   4.947   1.878
 2621SOL    HW2 8763   1.205   5.101   1.921
 2622SOL     OW 8764   1.218   3.825   6.046
 2622SOL    HW1 8765   1.183   3.781   6.129
 2622SOL    HW2 8766   1.206   3.763   5.968
 2623SOL     OW 8767   0.395   0.861   5.338
 2623SOL    HW1 8768   0.438   0.945   5.370
 2623SOL    HW2 8769   0.297   0.864   5.357
 2624SOL     OW 8770   0.527   1.133   4.769
 2624SOL    HW1 8771   0.443   1.184   4.788
 2624SOL    HW2 8772   0.511   1.071   4.692
 2625SOL     OW 8773   2.412   3.694   5.550
 2625SOL    HW1 8774   2.407   3.600   5.583
 2625SOL    HW2 8775   2.395   3.757   5.625
 2626SOL     OW 8776   6.912   0.522   6.106
 2626SOL    HW1 8777   6.935   0.588   6.177
 2626SOL    HW2 8778   6.996   0.477   6.075
 2627SOL     OW 8779   1.303   1.068   6.188
 2627SOL    HW1 8780   1.352   0.999   6.134
 2627SOL    HW2 8781   1.289   1.034   6.281
 2628SOL     OW 8782   2.232   4.195   5.700
 2628SOL    HW1 8783   2.293   4.117   5.688
 2628SOL    HW2 8784   2.138   4.162   5.709
 2629SOL     OW 8785   4.003   3.306   2.305
 2629SOL    HW1 8786   4.071   3.340   2.240
 2629SOL    HW2 8787   3.987   3.208   2.289
 2630SOL     OW 8788   3.587   1.737   2.668
 2630SOL    HW1 8789   3.632   1.826   2.669
 2630SOL    HW2 8790   3.602   1.693   2.580
 2631SOL     OW 8791   5.521   0.496   6.294
 2631SOL    HW1 8792   5.517   0.516   6.196
 2631SOL    HW2 8793   5.553   0.402   6.307
 2632SOL     OW 8794   5.240   2.979   0.953
 2632SOL    HW1 8795   5.156   3.022   0.920
 2632SOL    HW2 8796   5.271   3.025   1.036
 2633SOL     OW 8797   0.487   1.383   4.502
 2633SOL    HW1 8798   0.532   1.409   4.588
 2633SOL    HW2 8799   0.511   1.288   4.479
 2634SOL     OW 8800   0.764   5.159   3.639
 2634SOL    HW1 8801   0.782   5.154   3.541
 2634SOL    HW2 8802   0.703   5.084   3.665
 2635SOL     OW 8803   0.382   5.972   4.615
 2635SOL    HW1 8804   0.358   5.891   4.667
 2635SOL    HW2 8805   0.369   5.954   4.517
 2636SOL     OW 8806   4.375   0.449   5.711
 2636SOL    HW1 8807   4.316   0.522   5.676
 2636SOL    HW2 8808   4.374   0.451   5.811
 2637SOL     OW 8809   6.135   2.026   3.571
 2637SOL    HW1 8810   6.148   2.110   3.624
 2637SOL    HW2 8811   6.151   2.046   3.474
 2638SOL     OW 8812   0.090   6.538   4.203
 2638SOL    HW1 8813   0.005   6.585   4.178
 2638SOL    HW2 8814   0.146   6.524   4.122
 2639SOL     OW 8815   0.308   6.166   0.684
 2639SOL    HW1 8816   0.315   6.214   0.596
 2639SOL    HW2 8817   0.213   6.167   0.715
 2640SOL     OW 8818   6.791   6.577   5.600
 2640SOL    HW1 8819   6.815   6.615   5.510
 2640SOL    HW2 8820   6.762   6.482   5.589
 2641SOL     OW 8821   5.628   2.646   2.418
 2641SOL    HW1 8822   5.565   2.683   2.487
 2641SOL    HW2 8823   5.685   2.719   2.382
 2642SOL     OW 8824   6.160   0.652   3.908
 2642SOL    HW1 8825   6.090   0.722   3.892
 2642SOL    HW2 8826   6.115   0.564   3.924
 2643SOL     OW 8827   1.586   3.640   3.508
 2643SOL    HW1 8828   1.678   3.678   3.521
 2643SOL    HW2 8829   1.528   3.666   3.584
 2644SOL     OW 8830   4.965   5.137   4.646
 2644SOL    HW1 8831   5.001   5.230   4.639
 2644SOL    HW2 8832   5.000   5.094   4.730
 2645SOL     OW 8833   4.516   5.667   3.642
 2645SOL    HW1 8834   4.418   5.667   3.662
 2645SOL    HW2 8835   4.563   5.605   3.705
 2646SOL     OW 8836   6.414   1.817   6.986
 2646SOL    HW1 8837   6.513   1.825   6.993
 2646SOL    HW2 8838   6.373   1.908   6.989
 2647SOL     OW 8839   6.482   0.074   1.744
 2647SOL    HW1 8840   6.544   0.138   1.789
 2647SOL    HW2 8841   6.406   0.124   1.702
 2648SOL     OW 8842   0.565   6.428   3.915
 2648SOL    HW1 8843   0.587   6.471   4.003
 2648SOL    HW2 8844   0.534   6.334   3.931
 2649SOL     OW 8845   6.573   3.676   1.175
 2649SOL    HW1 8846   6.596   3.580   1.161
 2649SOL    HW2 8847   6.573   3.696   1.273
 2650SOL     OW 8848   1.877   5.032   3.641
 2650SOL    HW1 8849   1.794   5.052   3.589
 2650SOL    HW2 8850   1.950   5.094   3.612
 2651SOL     OW 8851   2.657   2.030   1.151
 2651SOL    HW1 8852   2.660   1.955   1.217
 2651SOL    HW2 8853   2.708   2.108   1.188
 2652SOL     OW 8854   4.234   3.301   5.551
 2652SOL    HW1 8855   4.170   3.254   5.490
 2652SOL    HW2 8856   4.310   3.338   5.497
 2653SOL     OW 8857   4.645   6.751   6.054
 2653SOL    HW1 8858   4.648   6.755   6.154
 2653SOL    HW2 8859   4.569   6.806   6.021
 2654SOL     OW 8860   4.304   6.845   1.515
 2654SOL    HW1 8861   4.365   6.923   1.525
 2654SOL    HW2 8862   4.341   6.767   1.565
 2655SOL     OW 8863   5.230   5.917   3.718
 2655SOL    HW1 8864   5.326   5.919   3.744
 2655SOL    HW2 8865   5.218   5.966   3.631
 2656SOL     OW 8866   3.721   5.017   4.599
 2656SOL    HW1 8867   3.687   5.010   4.505
 2656SOL    HW2 8868   3.779   4.937   4.619
 2657SOL     OW 8869   2.018   4.282   0.158
 2657SOL    HW1 8870   2.014   4.376   0.125
 2657SOL    HW2 8871   2.034   4.282   0.257
 2658SOL     OW 8872   5.205   4.989   0.114
 2658SOL    HW1 8873   5.248   5.015   0.027
 2658SOL    HW2 8874   5.133   5.054   0.136
 2659SOL     OW 8875   4.912   3.158   4.799
 2659SOL    HW1 8876   4.943   3.122   4.886
 2659SOL    HW2 8877   4.922   3.089   4.728
 2660SOL     OW 8878   1.101   0.108   1.807
 2660SOL    HW1 8879   1.088   0.068   1.897
 2660SOL    HW2 8880   1.193   0.147   1.801
 2661SOL     OW 8881   2.127   6.412   1.446
 2661SOL    HW1 8882   2.084   6.502   1.436
 2661SOL    HW2 8883   2.225   6.420   1.431
 2662SOL     OW 8884   3.734   6.807   4.786
 2662SOL    HW1 8885   3.753   6.893   4.833
 2662SOL    HW2 8886   3.645   6.811   4.742
 2663SOL     OW 8887   4.270   4.197   6.792
 2663SOL    HW1 8888   4.344   4.247   6.838
 2663SOL    HW2 8889   4.240   4.248   6.712
 2664SOL     OW 8890   4.662   3.344   5.734
 2664SOL    HW1 8891   4.676   3.426   5.788
 2664SOL    HW2 8892   4.584   3.293   5.769
 2665SOL     OW 8893   2.487   3.413   5.498
 2665SOL    HW1 8894   2.584   3.425   5.476
 2665SOL    HW2 8895   2.457   3.323   5.467
 2666SOL     OW 8896   1.504   4.999   1.598
 2666SOL    HW1 8897   1.455   4.916   1.626
 2666SOL    HW2 8898   1.438   5.070   1.575
 2667SOL     OW 8899   1.822   5.602   3.863
 2667SOL    HW1 8900   1.851   5.545   3.786
 2667SOL    HW2 8901   1.812   5.545   3.945
 2668SOL     OW 8902   6.799   2.569   4.850
 2668SOL    HW1 8903   6.817   2.470   4.850
 2668SOL    HW2 8904   6.761   2.596   4.761
 2669SOL     OW 8905   2.519   5.166   6.004
 2669SOL    HW1 8906   2.563   5.083   6.038
 2669SOL    HW2 8907   2.573   5.206   5.930
 2670SOL     OW 8908   6.269   3.291   4.676
 2670SOL    HW1 8909   6.270   3.286   4.776
 2670SOL    HW2 8910   6.355   3.329   4.643
 2671SOL     OW 8911   4.296   5.358   6.793
 2671SOL    HW1 8912   4.275   5.456   6.798
 2671SOL    HW2 8913   4.272   5.323   6.702
 2672SOL     OW 8914   3.339   6.343   0.793
 2672SOL    HW1 8915   3.302   6.253   0.817
 2672SOL    HW2 8916   3.341   6.401   0.874
 2673SOL     OW 8917   6.142   2.392   1.883
 2673SOL    HW1 8918   6.118   2.480   1.843
 2673SOL    HW2 8919   6.155   2.403   1.982
 2674SOL     OW 8920   1.226   4.374   4.488
 2674SOL    HW1 8921   1.195   4.416   4.574
 2674SOL    HW2 8922   1.253   4.446   4.424
 2675SOL     OW 8923   6.574   6.397   3.831
 2675SOL    HW1 8924   6.556   6.441   3.743
 2675SOL    HW2 8925   6.490   6.356   3.866
 2676SOL     OW 8926   3.312   2.978   1.494
 2676SOL    HW1 8927   3.263   2.963   1.580
 2676SOL    HW2 8928   3.315   2.893   1.442
 2677SOL     OW 8929   2.799   4.179   0.819
 2677SOL    HW1 8930   2.792   4.232   0.904
 2677SOL    HW2 8931   2.894   4.173   0.792
 2678SOL     OW 8932   0.489   2.608   2.528
 2678SOL    HW1 8933   0.583   2.582   2.504
 2678SOL    HW2 8934   0.433   2.527   2.539
 2679SOL     OW 8935   2.335   4.819   2.486
 2679SOL    HW1 8936   2.383   4.770   2.414
 2679SOL    HW2 8937   2.236   4.818   2.467
 2680SOL     OW 8938   1.004   2.088   0.589
 2680SOL    HW1 8939   1.063   2.048   0.660
 2680SOL    HW2 8940   1.039   2.178   0.563
 2681SOL     OW 8941   1.455   2.126   4.540
 2681SOL    HW1 8942   1.499   2.131   4.450
 2681SOL    HW2 8943   1.357   2.144   4.530
 2682SOL     OW 8944   4.798   4.009   3.957
 2682SOL    HW1 8945   4.881   4.063   3.952
 2682SOL    HW2 8946   4.723   4.064   3.993
 2683SOL     OW 8947   2.597   4.665   2.064
 2683SOL    HW1 8948   2.576   4.605   1.986
 2683SOL    HW2 8949   2.681   4.716   2.045
 2684SOL     OW 8950   4.176   6.772   2.200
 2684SOL    HW1 8951   4.174   6.695   2.264
 2684SOL    HW2 8952   4.259   6.826   2.215
 2685SOL     OW 8953   5.403   5.506   5.627
 2685SOL    HW1 8954   5.320   5.476   5.673
 2685SOL    HW2 8955   5.417   5.455   5.543
 2686SOL     OW 8956   1.131   1.519   5.442
 2686SOL    HW1 8957   1.066   1.582   5.485
 2686SOL    HW2 8958   1.112   1.514   5.343
 2687SOL     OW 8959   4.412   5.422   0.891
 2687SOL    HW1 8960   4.356   5.422   0.809
 2687SOL    HW2 8961   4.378   5.492   0.954
 2688SOL     OW 8962   2.420   2.413   0.549
 2688SOL    HW1 8963   2.443   2.461   0.634
 2688SOL    HW2 8964   2.461   2.461   0.472
 2689SOL     OW 8965   6.895   3.603   2.105
 2689SOL    HW1 8966   6.860   3.527   2.050
 2689SOL    HW2 8967   6.952   3.566   2.179
 2690SOL     OW 8968   2.899   3.343   5.631
 2690SOL    HW1 8969   2.945   3.301   5.709
 2690SOL    HW2 8970   2.828   3.282   5.597
 2691SOL     OW 8971   0.210   5.131   3.550
 2691SOL    HW1 8972   0.259   5.070   3.613
 2691SOL    HW2 8973   0.269   5.155   3.473
 2692SOL     OW 8974   2.742   6.436   3.691
 2692SOL    HW1 8975   2.780   6.460   3.602
 2692SOL    HW2 8976   2.817   6.422   3.756
 2693SOL     OW 8977   2.772   4.772   4.342
 2693SOL    HW1 8978   2.786   4.794   4.246
 2693SOL    HW2 8979   2.688   4.718   4.353
 2694SOL     OW 8980   3.943   6.931   3.197
 2694SOL    HW1 8981   3.909   6.929   3.291
 2694SOL    HW2 8982   3.872   6.967   3.136
 2695SOL     OW 8983   6.326   0.337   2.868
 2695SOL    HW1 8984   6.298   0.302   2.957
 2695SOL    HW2 8985   6.384   0.270   2.822
 2696SOL     OW 8986   4.199   3.677   5.610
 2696SOL    HW1 8987   4.272   3.630   5.659
 2696SOL    HW2 8988   4.188   3.770   5.646
 2697SOL     OW 8989   3.341   1.451   3.063
 2697SOL    HW1 8990   3.292   1.413   2.985
 2697SOL    HW2 8991   3.298   1.537   3.091
 2698SOL     OW 8992   2.054   4.268   0.445
 2698SOL    HW1 8993   1.979   4.332   0.461
 2698SOL    HW2 8994   2.052   4.196   0.514
 2699SOL     OW 8995   2.974   5.897   0.926
 2699SOL    HW1 8996   3.048   5.950   0.968
 2699SOL    HW2 8997   2.943   5.944   0.843
 2700SOL     OW 8998   2.971   1.820   0.973
 2700SOL    HW1 8999   3.056   1.788   1.013
 2700SOL    HW2 9000   2.960   1.918   0.992
 2701SOL     OW 9001   5.080   2.134   6.197
 2701SOL    HW1 9002   5.105   2.137   6.294
 2701SOL    HW2 9003   5.023   2.054   6.181
 2702SOL     OW 9004   1.212   2.838   3.651
 2702SOL    HW1 9005   1.218   2.852   3.553
 2702SOL    HW2 9006   1.218   2.740   3.672
 2703SOL     OW 9007   0.988   5.931   1.001
 2703SOL    HW1 9008   0.917   5.909   0.933
 2703SOL    HW2 9009   1.008   6.029   0.997
 2704SOL     OW 9010   6.236   6.296   1.729
 2704SOL    HW1 9011   6.221   6.250   1.817
 2704SOL    HW2 9012   6.149   6.333   1.696
 2705SOL     OW 9013   6.010   0.442   5.351
 2705SOL    HW1 9014   5.999   0.388   5.434
 2705SOL    HW2 9015   6.022   0.381   5.273
 2706SOL     OW 9016   6.499   4.505   3.212
 2706SOL    HW1 9017   6.458   4.558   3.137
 2706SOL    HW2 9018   6.581   4.551   3.244
 2707SOL     OW 9019   3.629   0.114   4.015
 2707SOL    HW1 9020   3.572   0.176   3.961
 2707SOL    HW2 9021   3.708   0.165   4.049
 2708SOL     OW 9022   6.372   2.966   1.284
 2708SOL    HW1 9023   6.389   2.870   1.307
 2708SOL    HW2 9024   6.458   3.011   1.261
 2709SOL     OW 9025   5.627   6.703   6.780
 2709SOL    HW1 9026   5.657   6.792   6.815
 2709SOL    HW2 9027   5.599   6.712   6.685
 2710SOL     OW 9028   1.394   3.146   4.059
 2710SOL    HW1 9029   1.300   3.131   4.088
 2710SOL    HW2 9030   1.427   3.066   4.010
 2711SOL     OW 9031   2.960   0.616   4.017
 2711SOL    HW1 9032   2.919   0.525   4.023
 2711SOL    HW2 9033   2.887   0.685   4.009
 2712SOL     OW 9034   2.642   5.555   1.842
 2712SOL    HW1 9035   2.587   5.578   1.761
 2712SOL    HW2 9036   2.665   5.458   1.840
 2713SOL     OW 9037   2.463   3.702   6.190
 2713SOL    HW1 9038   2.473   3.684   6.288
 2713SOL    HW2 9039   2.549   3.679   6.143
 2714SOL     OW 9040   3.813   2.810   6.800
 2714SOL    HW1 9041   3.900   2.777   6.837
 2714SOL    HW2 9042   3.757   2.845   6.875
 2715SOL     OW 9043   5.030   2.123   0.558
 2715SOL    HW1 9044   5.010   2.123   0.656
 2715SOL    HW2 9045   5.123   2.090   0.543
 2716SOL     OW 9046   5.030   3.427   4.131
 2716SOL    HW1 9047   5.004   3.448   4.037
 2716SOL    HW2 9048   4.991   3.339   4.158
 2717SOL     OW 9049   0.485   6.826   1.903
 2717SOL    HW1 9050   0.475   6.752   1.837
 2717SOL    HW2 9051   0.517   6.789   1.990
 2718SOL     OW 9052   0.926   1.311   5.511
 2718SOL    HW1 9053   0.945   1.393   5.566
 2718SOL    HW2 9054   0.994   1.302   5.439
 2719SOL     OW 9055   0.964   4.954   1.453
 2719SOL    HW1 9056   0.941   4.998   1.366
 2719SOL    HW2 9057   0.901   4.878   1.470
 2720SOL     OW 9058   1.253   0.439   2.528
 2720SOL    HW1 9059   1.193   0.511   2.563
 2720SOL    HW2 9060   1.207   0.350   2.539
 2721SOL     OW 9061   3.188   6.220   2.998
 2721SOL    HW1 9062   3.287   6.210   2.991
 2721SOL    HW2 9063   3.154   6.157   3.068
 2722SOL     OW 9064   5.443   5.247   6.789
 2722SOL    HW1 9065   5.490   5.195   6.860
 2722SOL    HW2 9066   5.508   5.305   6.740
 2723SOL     OW 9067   1.527   6.144   6.884
 2723SOL    HW1 9068   1.439   6.166   6.841
 2723SOL    HW2 9069   1.527   6.049   6.914
 2724SOL     OW 9070   1.428   6.410   6.447
 2724SOL    HW1 9071   1.361   6.352   6.400
 2724SOL    HW2 9072   1.379   6.474   6.507
 2725SOL     OW 9073   5.402   4.793   4.887
 2725SOL    HW1 9074   5.355   4.828   4.969
 2725SOL    HW2 9075   5.484   4.743   4.915
 2726SOL     OW 9076   0.398   2.649   2.253
 2726SOL    HW1 9077   0.426   2.640   2.348
 2726SOL    HW2 9078   0.473   2.689   2.200
 2727SOL     OW 9079   0.527   4.157   4.282
 2727SOL    HW1 9080   0.557   4.136   4.375
 2727SOL    HW2 9081   0.591   4.117   4.216
 2728SOL     OW 9082   4.894   6.176   5.472
 2728SOL    HW1 9083   4.824   6.106   5.459
 2728SOL    HW2 9084   4.898   6.234   5.391
 2729SOL     OW 9085   6.782   6.496   0.693
 2729SOL    HW1 9086   6.735   6.460   0.613
 2729SOL    HW2 9087   6.877   6.464   0.694
 2730SOL     OW 9088   1.588   5.802   1.875
 2730SOL    HW1 9089   1.526   5.829   1.949
 2730SOL    HW2 9090   1.565   5.710   1.844
 2731SOL     OW 9091   2.894   3.577   3.586
 2731SOL    HW1 9092   2.875   3.621   3.498
 2731SOL    HW2 9093   2.904   3.479   3.573
 2732SOL     OW 9094   5.788   1.712   0.860
 2732SOL    HW1 9095   5.743   1.635   0.815
 2732SOL    HW2 9096   5.805   1.690   0.956
 2733SOL     OW 9097   6.708   1.833   5.226
 2733SOL    HW1 9098   6.644   1.826   5.303
 2733SOL    HW2 9099   6.658   1.821   5.140
 2734SOL     OW 9100   2.674   5.637   0.726
 2734SOL    HW1 9101   2.647   5.702   0.655
 2734SOL    HW2 9102   2.768   5.654   0.753
 2735SOL     OW 9103   1.469   2.561   2.180
 2735SOL    HW1 9104   1.491   2.495   2.251
 2735SOL    HW2 9105   1.413   2.634   2.218
 2736SOL     OW 9106   6.916   6.242   4.798
 2736SOL    HW1 9107   6.904   6.143   4.789
 2736SOL    HW2 9108   7.013   6.262   4.809
 2737SOL     OW 9109   2.936   3.903   5.627
 2737SOL    HW1 9110   2.939   3.806   5.651
 2737SOL    HW2 9111   2.843   3.927   5.598
 2738SOL     OW 9112   5.640   5.875   2.023
 2738SOL    HW1 9113   5.692   5.960   2.023
 2738SOL    HW2 9114   5.575   5.875   2.098
 2739SOL     OW 9115   1.182   4.770   0.430
 2739SOL    HW1 9116   1.170   4.695   0.495
 2739SOL    HW2 9117   1.210   4.852   0.480
 2740SOL     OW 9118   6.381   4.947   1.198
 2740SOL    HW1 9119   6.399   4.891   1.279
 2740SOL    HW2 9120   6.354   4.888   1.122
 2741SOL     OW 9121   6.569   1.043   4.240
 2741SOL    HW1 9122   6.483   1.002   4.209
 2741SOL    HW2 9123   6.572   1.139   4.212
 2742SOL     OW 9124   2.169   4.875   0.242
 2742SOL    HW1 9125   2.125   4.946   0.298
 2742SOL    HW2 9126   2.185   4.793   0.297
 2743SOL     OW 9127   0.312   4.598   2.418
 2743SOL    HW1 9128   0.228   4.590   2.472
 2743SOL    HW2 9129   0.374   4.662   2.463
 2744SOL     OW 9130   4.232   2.829   0.586
 2744SOL    HW1 9131   4.304   2.771   0.548
 2744SOL    HW2 9132   4.267   2.923   0.595
 2745SOL     OW 9133   0.154   1.028   4.678
 2745SOL    HW1 9134   0.208   0.979   4.610
 2745SOL    HW2 9135   0.077   0.972   4.707
 2746SOL     OW 9136   1.114   2.366   4.950
 2746SOL    HW1 9137   1.175   2.341   5.025
 2746SOL    HW2 9138   1.031   2.408   4.988
 2747SOL     OW 9139   5.042   5.486   6.803
 2747SOL    HW1 9140   5.064   5.468   6.707
 2747SOL    HW2 9141   5.021   5.583   6.814
 2748SOL     OW 9142   4.460   1.290   2.713
 2748SOL    HW1 9143   4.394   1.306   2.786
 2748SOL    HW2 9144   4.413   1.288   2.625
 2749SOL     OW 9145   6.391   4.510   1.560
 2749SOL    HW1 9146   6.476   4.462   1.540
 2749SOL    HW2 9147   6.314   4.460   1.520
 2750SOL     OW 9148   2.263   3.967   1.911
 2750SOL    HW1 9149   2.261   3.918   1.823
 2750SOL    HW2 9150   2.181   3.944   1.963
 2751SOL     OW 9151   0.918   2.658   1.505
 2751SOL    HW1 9152   0.832   2.624   1.466
 2751SOL    HW2 9153   0.934   2.614   1.593
 2752SOL     OW 9154   3.425   4.601   5.833
 2752SOL    HW1 9155   3.381   4.556   5.911
 2752SOL    HW2 9156   3.466   4.532   5.773
 2753SOL     OW 9157   0.007   6.791   4.900
 2753SOL    HW1 9158   0.085   6.817   4.957
 2753SOL    HW2 9159   0.038   6.728   4.829
 2754SOL     OW 9160   0.470   0.282   0.915
 2754SOL    HW1 9161   0.483   0.363   0.857
 2754SOL    HW2 9162   0.478   0.199   0.860
 2755SOL     OW 9163   3.527   6.757   2.217
 2755SOL    HW1 9164   3.609   6.716   2.177
 2755SOL    HW2 9165   3.527   6.855   2.199
 2756SOL     OW 9166   4.789   5.653   6.944
 2756SOL    HW1 9167   4.734   5.648   6.861
 2756SOL    HW2 9168   4.876   5.699   6.924
 2757SOL     OW 9169   2.462   6.715   0.311
 2757SOL    HW1 9170   2.453   6.619   0.337
 2757SOL    HW2 9171   2.558   6.742   0.315
 2758SOL     OW 9172   4.034   6.959   3.494
 2758SOL    HW1 9173   4.111   6.895   3.499
 2758SOL    HW2 9174   4.069   0.027   3.480
 2759SOL     OW 9175   5.763   6.593   5.728
 2759SOL    HW1 9176   5.678   6.540   5.718
 2759SOL    HW2 9177   5.839   6.531   5.747
 2760SOL     OW 9178   0.019   5.833   1.616
 2760SOL    HW1 9179   0.063   5.885   1.543
 2760SOL    HW2 9180   7.008   5.747   1.580
 2761SOL     OW 9181   2.072   5.196   4.385
 2761SOL    HW1 9182   2.034   5.264   4.322
 2761SOL    HW2 9183   2.172   5.207   4.389
 2762SOL     OW 9184   1.601   0.852   5.354
 2762SOL    HW1 9185   1.577   0.862   5.258
 2762SOL    HW2 9186   1.696   0.822   5.362
 2763SOL     OW 9187   5.044   1.646   3.802
 2763SOL    HW1 9188   5.118   1.651   3.869
 2763SOL    HW2 9189   4.995   1.733   3.801
 2764SOL     OW 9190   5.794   1.140   1.304
 2764SOL    HW1 9191   5.712   1.192   1.281
 2764SOL    HW2 9192   5.823   1.164   1.397
 2765SOL     OW 9193   5.437   0.327   0.880
 2765SOL    HW1 9194   5.450   0.408   0.937
 2765SOL    HW2 9195   5.525   0.295   0.846
 2766SOL     OW 9196   4.039   2.237   6.797
 2766SOL    HW1 9197   3.980   2.307   6.838
 2766SOL    HW2 9198   4.106   2.205   6.864
 2767SOL     OW 9199   6.788   5.484   0.250
 2767SOL    HW1 9200   6.767   5.394   0.212
 2767SOL    HW2 9201   6.788   5.552   0.177
 2768SOL     OW 9202   4.882   0.584   0.946
 2768SOL    HW1 9203   4.878   0.489   0.976
 2768SOL    HW2 9204   4.972   0.603   0.907
 2769SOL     OW 9205   0.735   4.082   4.094
 2769SOL    HW1 9206   0.795   4.151   4.135
 2769SOL    HW2 9207   0.762   4.066   4.000
 2770SOL     OW 9208   2.953   5.235   5.928
 2770SOL    HW1 9209   3.002   5.321   5.911
 2770SOL    HW2 9210   2.880   5.224   5.862
 2771SOL     OW 9211   6.610   0.836   3.241
 2771SOL    HW1 9212   6.621   0.770   3.315
 2771SOL    HW2 9213   6.580   0.924   3.278
 2772SOL     OW 9214   4.465   1.871   0.389
 2772SOL    HW1 9215   4.408   1.888   0.470
 2772SOL    HW2 9216   4.418   1.904   0.307
 2773SOL     OW 9217   5.929   2.237   5.533
 2773SOL    HW1 9218   5.875   2.276   5.459
 2773SOL    HW2 9219   6.017   2.204   5.497
 2774SOL     OW 9220   6.109   3.707   3.473
 2774SOL    HW1 9221   6.195   3.671   3.436
 2774SOL    HW2 9222   6.052   3.632   3.506
 2775SOL     OW 9223   6.783   5.475   6.866
 2775SOL    HW1 9224   6.742   5.523   6.788
 2775SOL    HW2 9225   6.832   5.395   6.834
 2776SOL     OW 9226   4.579   4.611   6.071
 2776SOL    HW1 9227   4.513   4.553   6.024
 2776SOL    HW2 9228   4.536   4.652   6.152
 2777SOL     OW 9229   2.667   1.366   2.132
 2777SOL    HW1 9230   2.745   1.372   2.070
 2777SOL    HW2 9231   2.682   1.426   2.211
 2778SOL     OW 9232   1.322   6.991   5.772
 2778SOL    HW1 9233   1.392   0.008   5.830
 2778SOL    HW2 9234   1.262   6.934   5.828
 2779SOL     OW 9235   4.890   6.202   0.870
 2779SOL    HW1 9236   4.938   6.167   0.951
 2779SOL    HW2 9237   4.793   6.182   0.878
 2780SOL     OW 9238   6.670   6.219   6.864
 2780SOL    HW1 9239   6.580   6.219   6.908
 2780SOL    HW2 9240   6.660   6.239   6.767
 2781SOL     OW 9241   5.363   6.222   1.629
 2781SOL    HW1 9242   5.315   6.215   1.541
 2781SOL    HW2 9243   5.402   6.132   1.652
 2782SOL     OW 9244   3.851   1.997   5.296
 2782SOL    HW1 9245   3.874   1.912   5.343
 2782SOL    HW2 9246   3.764   2.033   5.333
 2783SOL     OW 9247   5.176   4.066   3.939
 2783SOL    HW1 9248   5.131   4.153   3.918
 2783SOL    HW2 9249   5.177   4.009   3.857
 2784SOL     OW 9250   3.650   1.671   1.170
 2784SOL    HW1 9251   3.665   1.740   1.241
 2784SOL    HW2 9252   3.670   1.581   1.207
 2785SOL     OW 9253   5.419   1.824   1.033
 2785SOL    HW1 9254   5.358   1.827   0.954
 2785SOL    HW2 9255   5.397   1.901   1.094
 2786SOL     OW 9256   4.559   5.694   2.120
 2786SOL    HW1 9257   4.541   5.790   2.141
 2786SOL    HW2 9258   4.650   5.669   2.152
 2787SOL     OW 9259   3.244   2.150   6.803
 2787SOL    HW1 9260   3.306   2.105   6.868
 2787SOL    HW2 9261   3.201   2.080   6.746
 2788SOL     OW 9262   2.366   4.623   6.085
 2788SOL    HW1 9263   2.444   4.595   6.140
 2788SOL    HW2 9264   2.396   4.684   6.012
 2789SOL     OW 9265   2.292   2.280   3.645
 2789SOL    HW1 9266   2.294   2.339   3.564
 2789SOL    HW2 9267   2.267   2.334   3.725
 2790SOL     OW 9268   3.193   5.793   2.029
 2790SOL    HW1 9269   3.164   5.762   2.120
 2790SOL    HW2 9270   3.131   5.864   1.997
 2791SOL     OW 9271   1.235   3.904   3.351
 2791SOL    HW1 9272   1.209   3.989   3.397
 2791SOL    HW2 9273   1.299   3.854   3.410
 2792SOL     OW 9274   1.039   6.992   3.901
 2792SOL    HW1 9275   1.034   0.059   3.939
 2792SOL    HW2 9276   1.104   6.937   3.954
 2793SOL     OW 9277   4.910   3.498   3.206
 2793SOL    HW1 9278   4.906   3.598   3.206
 2793SOL    HW2 9279   4.875   3.462   3.292
 2794SOL     OW 9280   0.283   3.271   0.308
 2794SOL    HW1 9281   0.303   3.366   0.286
 2794SOL    HW2 9282   0.361   3.230   0.356
 2795SOL     OW 9283   1.636   2.973   0.703
 2795SOL    HW1 9284   1.688   3.019   0.631
 2795SOL    HW2 9285   1.690   2.972   0.787
 2796SOL     OW 9286   6.699   5.696   2.548
 2796SOL    HW1 9287   6.748   5.677   2.633
 2796SOL    HW2 9288   6.737   5.639   2.475
 2797SOL     OW 9289   5.680   5.179   4.548
 2797SOL    HW1 9290   5.711   5.211   4.459
 2797SOL    HW2 9291   5.612   5.242   4.584
 2798SOL     OW 9292   0.851   5.330   1.384
 2798SOL    HW1 9293   0.899   5.354   1.468
 2798SOL    HW2 9294   0.784   5.401   1.362
 2799SOL     OW 9295   6.562   6.737   0.535
 2799SOL    HW1 9296   6.609   6.665   0.484
 2799SOL    HW2 9297   6.611   6.755   0.620
 2800SOL     OW 9298   4.643   5.190   0.072
 2800SOL    HW1 9299   4.667   5.177   0.168
 2800SOL    HW2 9300   4.716   5.240   0.025
 2801SOL     OW 9301   5.862   5.043   4.951
 2801SOL    HW1 9302   5.768   5.049   4.917
 2801SOL    HW2 9303   5.871   5.097   5.034
 2802SOL     OW 9304   4.539   1.633   5.362
 2802SOL    HW1 9305   4.456   1.659   5.312
 2802SOL    HW2 9306   4.617   1.685   5.328
 2803SOL     OW 9307   3.661   5.867   6.133
 2803SOL    HW1 9308   3.719   5.934   6.086
 2803SOL    HW2 9309   3.566   5.879   6.104
 2804SOL     OW 9310   0.340   4.705   5.102
 2804SOL    HW1 9311   0.306   4.611   5.098
 2804SOL    HW2 9312   0.347   4.742   5.009
 2805SOL     OW 9313   5.314   2.795   1.927
 2805SOL    HW1 9314   5.244   2.742   1.975
 2805SOL    HW2 9315   5.317   2.888   1.964
 2806SOL     OW 9316   6.537   5.390   4.844
 2806SOL    HW1 9317   6.563   5.422   4.935
 2806SOL    HW2 9318   6.542   5.290   4.841
 2807SOL     OW 9319   4.704   5.417   3.282
 2807SOL    HW1 9320   4.709   5.386   3.187
 2807SOL    HW2 9321   4.776   5.483   3.300
 2808SOL     OW 9322   5.129   3.550   2.815
 2808SOL    HW1 9323   5.096   3.597   2.733
 2808SOL    HW2 9324   5.128   3.451   2.798
 2809SOL     OW 9325   6.028   3.239   0.781
 2809SOL    HW1 9326   5.931   3.263   0.773
 2809SOL    HW2 9327   6.084   3.307   0.733
 2810SOL     OW 9328   3.137   5.838   4.145
 2810SOL    HW1 9329   3.187   5.775   4.204
 2810SOL    HW2 9330   3.202   5.897   4.097
 2811SOL     OW 9331   1.420   1.618   3.459
 2811SOL    HW1 9332   1.517   1.631   3.477
 2811SOL    HW2 9333   1.366   1.675   3.521
 2812SOL     OW 9334   5.078   4.021   7.019
 2812SOL    HW1 9335   5.086   4.117   0.019
 2812SOL    HW2 9336   5.010   3.977   0.054
 2813SOL     OW 9337   6.789   6.999   5.771
 2813SOL    HW1 9338   6.771   0.007   5.864
 2813SOL    HW2 9339   6.812   6.901   5.774
 2814SOL     OW 9340   4.623   3.391   6.384
 2814SOL    HW1 9341   4.594   3.316   6.443
 2814SOL    HW2 9342   4.581   3.381   6.294
 2815SOL     OW 9343   5.759   0.502   5.286
 2815SOL    HW1 9344   5.854   0.470   5.289
 2815SOL    HW2 9345   5.757   0.601   5.305
 2816SOL     OW 9346   6.291   5.599   3.435
 2816SOL    HW1 9347   6.241   5.582   3.350
 2816SOL    HW2 9348   6.237   5.567   3.513
 2817SOL     OW 9349   2.427   6.993   1.387
 2817SOL    HW1 9350   2.520   6.971   1.417
 2817SOL    HW2 9351   2.421   0.065   1.365
 2818SOL     OW 9352   6.834   0.386   0.282
 2818SOL    HW1 9353   6.738   0.413   0.295
 2818SOL    HW2 9354   6.886   0.466   0.252
 2819SOL     OW 9355   1.066   0.945   1.257
 2819SOL    HW1 9356   1.051   0.980   1.164
 2819SOL    HW2 9357   1.004   0.992   1.320
 2820SOL     OW 9358   1.166   2.001   2.986
 2820SOL    HW1 9359   1.177   1.915   3.037
 2820SOL    HW2 9360   1.225   2.071   3.026
 2821SOL     OW 9361   3.760   3.450   0.165
 2821SOL    HW1 9362   3.789   3.521   0.229
 2821SOL    HW2 9363   3.748   3.490   0.074
 2822SOL     OW 9364   4.281   2.055   6.740
 2822SOL    HW1 9365   4.256   2.099   6.826
 2822SOL    HW2 9366   4.273   1.956   6.751
 2823SOL     OW 9367   4.226   6.376   0.752
 2823SOL    HW1 9368   4.206   6.303   0.686
 2823SOL    HW2 9369   4.145   6.433   0.764
 2824SOL     OW 9370   2.641   0.994   3.160
 2824SOL    HW1 9371   2.704   0.975   3.084
 2824SOL    HW2 9372   2.569   1.055   3.128
 2825SOL     OW 9373   6.730   0.201   6.827
 2825SOL    HW1 9374   6.653   0.242   6.875
 2825SOL    HW2 9375   6.724   0.223   6.729
 2826SOL     OW 9376   4.700   1.187   6.779
 2826SOL    HW1 9377   4.772   1.208   6.845
 2826SOL    HW2 9378   4.742   1.161   6.692
 2827SOL     OW 9379   6.692   0.805   5.402
 2827SOL    HW1 9380   6.644   0.729   5.357
 2827SOL    HW2 9381   6.701   0.881   5.338
 2828SOL     OW 9382   3.115   1.155   0.041
 2828SOL    HW1 9383   3.060   1.073   0.059
 2828SOL    HW2 9384   3.205   1.144   0.081
 2829SOL     OW 9385   3.232   3.579   5.425
 2829SOL    HW1 9386   3.315   3.574   5.369
 2829SOL    HW2 9387   3.193   3.487   5.434
 2830SOL     OW 9388   1.283   3.291   5.773
 2830SOL    HW1 9389   1.255   3.286   5.869
 2830SOL    HW2 9390   1.355   3.359   5.762
 2831SOL     OW 9391   0.759   5.348   3.280
 2831SOL    HW1 9392   0.760   5.263   3.226
 2831SOL    HW2 9393   0.840   5.352   3.338
 2832SOL     OW 9394   1.195   1.253   2.134
 2832SOL    HW1 9395   1.117   1.191   2.132
 2832SOL    HW2 9396   1.191   1.310   2.216
 2833SOL     OW 9397   4.332   2.059   2.183
 2833SOL    HW1 9398   4.338   2.001   2.264
 2833SOL    HW2 9399   4.333   2.155   2.210
 2834SOL     OW 9400   2.967   5.705   6.413
 2834SOL    HW1 9401   2.966   5.613   6.375
 2834SOL    HW2 9402   3.012   5.767   6.349
 2835SOL     OW 9403   6.947   0.422   1.351
 2835SOL    HW1 9404   6.920   0.434   1.255
 2835SOL    HW2 9405   6.888   0.354   1.394
 2836SOL     OW 9406   5.877   0.462   2.460
 2836SOL    HW1 9407   5.829   0.464   2.547
 2836SOL    HW2 9408   5.829   0.519   2.393
 2837SOL     OW 9409   5.503   4.005   2.991
 2837SOL    HW1 9410   5.517   3.906   3.000
 2837SOL    HW2 9411   5.568   4.053   3.049
 2838SOL     OW 9412   2.039   4.436   1.018
 2838SOL    HW1 9413   2.044   4.536   1.010
 2838SOL    HW2 9414   2.126   4.401   1.050
 2839SOL     OW 9415   6.901   1.660   1.669
 2839SOL    HW1 9416   6.872   1.675   1.574
 2839SOL    HW2 9417   6.831   1.606   1.716
 2840SOL     OW 9418   2.342   1.076   3.235
 2840SOL    HW1 9419   2.352   0.977   3.243
 2840SOL    HW2 9420   2.409   1.121   3.295
 2841SOL     OW 9421   0.577   0.692   5.864
 2841SOL    HW1 9422   0.497   0.707   5.805
 2841SOL    HW2 9423   0.546   0.674   5.957
 2842SOL     OW 9424   6.698   3.729   3.722
 2842SOL    HW1 9425   6.784   3.741   3.672
 2842SOL    HW2 9426   6.680   3.812   3.776
 2843SOL     OW 9427   2.241   1.367   2.766
 2843SOL    HW1 9428   2.199   1.438   2.710
 2843SOL    HW2 9429   2.202   1.370   2.858
 2844SOL     OW 9430   0.234   5.282   0.268
 2844SOL    HW1 9431   0.316   5.283   0.326
 2844SOL    HW2 9432   0.175   5.359   0.294
 2845SOL     OW 9433   6.510   3.186   1.373
 2845SOL    HW1 9434   6.465   3.150   1.454
 2845SOL    HW2 9435   6.444   3.238   1.319
 2846SOL     OW 9436   4.159   1.060   6.090
 2846SOL    HW1 9437   4.219   0.994   6.134
 2846SOL    HW2 9438   4.106   1.109   6.160
 2847SOL     OW 9439   4.935   3.705   4.083
 2847SOL    HW1 9440   4.904   3.697   3.988
 2847SOL    HW2 9441   4.931   3.615   4.127
 2848SOL     OW 9442   1.262   3.030   5.688
 2848SOL    HW1 9443   1.353   3.000   5.716
 2848SOL    HW2 9444   1.257   3.130   5.693
 2849SOL     OW 9445   3.855   6.294   0.841
 2849SOL    HW1 9446   3.801   6.253   0.767
 2849SOL    HW2 9447   3.871   6.226   0.912
 2850SOL     OW 9448   2.344   0.266   2.418
 2850SOL    HW1 9449   2.383   0.358   2.427
 2850SOL    HW2 9450   2.248   0.268   2.447
 2851SOL     OW 9451   6.599   1.699   5.808
 2851SOL    HW1 9452   6.653   1.681   5.726
 2851SOL    HW2 9453   6.649   1.761   5.868
 2852SOL     OW 9454   5.502   4.943   0.001
 2852SOL    HW1 9455   5.515   4.900   0.090
 2852SOL    HW2 9456   5.586   4.992   7.000
 2853SOL     OW 9457   1.653   2.954   6.673
 2853SOL    HW1 9458   1.726   3.006   6.716
 2853SOL    HW2 9459   1.631   2.994   6.584
 2854SOL     OW 9460   3.911   1.093   5.053
 2854SOL    HW1 9461   3.963   1.008   5.062
 2854SOL    HW2 9462   3.817   1.078   5.086
 2855SOL     OW 9463   2.722   1.335   6.748
 2855SOL    HW1 9464   2.761   1.403   6.810
 2855SOL    HW2 9465   2.708   1.375   6.658
 2856SOL     OW 9466   1.391   2.910   6.050
 2856SOL    HW1 9467   1.405   2.965   6.132
 2856SOL    HW2 9468   1.445   2.948   5.975
 2857SOL     OW 9469   3.055   1.708   2.319
 2857SOL    HW1 9470   2.984   1.779   2.324
 2857SOL    HW2 9471   3.143   1.746   2.345
 2858SOL     OW 9472   4.671   4.290   3.070
 2858SOL    HW1 9473   4.706   4.197   3.060
 2858SOL    HW2 9474   4.642   4.324   2.980
 2859SOL     OW 9475   4.861   2.028   0.006
 2859SOL    HW1 9476   4.843   2.125   7.011
 2859SOL    HW2 9477   4.860   2.014   0.105
 2860SOL     OW 9478   3.340   2.050   1.700
 2860SOL    HW1 9479   3.429   2.007   1.718
 2860SOL    HW2 9480   3.268   1.981   1.708
 2861SOL     OW 9481   3.900   3.784   5.830
 2861SOL    HW1 9482   3.982   3.735   5.800
 2861SOL    HW2 9483   3.820   3.727   5.814
 2862SOL     OW 9484   5.265   1.617   3.165
 2862SOL    HW1 9485   5.297   1.526   3.143
 2862SOL    HW2 9486   5.342   1.681   3.165
 2863SOL     OW 9487   5.374   0.809   6.635
 2863SOL    HW1 9488   5.431   0.733   6.664
 2863SOL    HW2 9489   5.414   0.852   6.554
 2864SOL     OW 9490   4.219   1.678   1.366
 2864SOL    HW1 9491   4.267   1.728   1.293
 2864SOL    HW2 9492   4.279   1.606   1.402
 2865SOL     OW 9493   4.734   4.260   6.358
 2865SOL    HW1 9494   4.782   4.173   6.372
 2865SOL    HW2 9495   4.657   4.245   6.295
 2866SOL     OW 9496   6.296   5.437   0.306
 2866SOL    HW1 9497   6.377   5.481   0.345
 2866SOL    HW2 9498   6.218   5.453   0.366
 2867SOL     OW 9499   5.888   3.954   2.601
 2867SOL    HW1 9500   5.837   3.935   2.685
 2867SOL    HW2 9501   5.870   3.881   2.535
 2868SOL     OW 9502   0.059   2.132   5.497
 2868SOL    HW1 9503   0.018   2.102   5.583
 2868SOL    HW2 9504   0.151   2.094   5.489
 2869SOL     OW 9505   6.389   0.702   3.157
 2869SOL    HW1 9506   6.460   0.772   3.163
 2869SOL    HW2 9507   6.429   0.617   3.125
 2870SOL     OW 9508   0.166   1.288   4.422
 2870SOL    HW1 9509   0.155   1.211   4.485
 2870SOL    HW2 9510   0.262   1.315   4.419
 2871SOL     OW 9511   0.182   1.851   0.452
 2871SOL    HW1 9512   0.258   1.832   0.515
 2871SOL    HW2 9513   0.199   1.937   0.405
 2872SOL     OW 9514   2.529   1.159   2.960
 2872SOL    HW1 9515   2.549   1.256   2.971
 2872SOL    HW2 9516   2.560   1.128   2.870
 2873SOL     OW 9517   0.201   4.789   2.740
 2873SOL    HW1 9518   0.126   4.751   2.686
 2873SOL    HW2 9519   0.204   4.743   2.829
 2874SOL     OW 9520   3.626   6.368   3.483
 2874SOL    HW1 9521   3.695   6.300   3.505
 2874SOL    HW2 9522   3.670   6.458   3.478
 2875SOL     OW 9523   4.894   6.896   0.911
 2875SOL    HW1 9524   4.825   6.853   0.852
 2875SOL    HW2 9525   4.885   6.995   0.906
 2876SOL     OW 9526   0.928   6.918   1.776
 2876SOL    HW1 9527   0.992   6.855   1.820
 2876SOL    HW2 9528   0.975   7.002   1.752
 2877SOL     OW 9529   3.322   2.584   5.325
 2877SOL    HW1 9530   3.273   2.510   5.279
 2877SOL    HW2 9531   3.331   2.562   5.422
 2878SOL     OW 9532   4.724   4.662   4.519
 2878SOL    HW1 9533   4.803   4.628   4.570
 2878SOL    HW2 9534   4.687   4.743   4.566
 2879SOL     OW 9535   4.821   4.790   0.849
 2879SOL    HW1 9536   4.729   4.750   0.856
 2879SOL    HW2 9537   4.873   4.769   0.931
 2880SOL     OW 9538   5.646   6.927   1.306
 2880SOL    HW1 9539   5.558   6.880   1.304
 2880SOL    HW2 9540   5.695   6.909   1.220
 2881SOL     OW 9541   5.375   6.168   6.864
 2881SOL    HW1 9542   5.440   6.182   6.939
 2881SOL    HW2 9543   5.291   6.219   6.882
 2882SOL     OW 9544   0.549   4.235   2.656
 2882SOL    HW1 9545   0.519   4.296   2.729
 2882SOL    HW2 9546   0.524   4.273   2.567
 2883SOL     OW 9547   6.098   0.319   3.954
 2883SOL    HW1 9548   6.098   0.225   3.986
 2883SOL    HW2 9549   6.008   0.343   3.919
 2884SOL     OW 9550   0.765   5.761   3.389
 2884SOL    HW1 9551   0.807   5.702   3.320
 2884SOL    HW2 9552   0.715   5.835   3.345
 2885SOL     OW 9553   0.946   3.092   2.217
 2885SOL    HW1 9554   0.939   3.189   2.241
 2885SOL    HW2 9555   1.004   3.081   2.137
 2886SOL     OW 9556   2.667   4.230   5.746
 2886SOL    HW1 9557   2.701   4.315   5.705
 2886SOL    HW2 9558   2.728   4.203   5.821
 2887SOL     OW 9559   0.653   0.392   4.771
 2887SOL    HW1 9560   0.660   0.423   4.676
 2887SOL    HW2 9561   0.635   0.294   4.773
 2888SOL     OW 9562   0.815   4.320   0.066
 2888SOL    HW1 9563   0.823   4.227   0.103
 2888SOL    HW2 9564   0.878   4.330   7.013
 2889SOL     OW 9565   1.765   0.112   2.218
 2889SOL    HW1 9566   1.858   0.146   2.204
 2889SOL    HW2 9567   1.727   0.151   2.302
 2890SOL     OW 9568   2.647   6.491   0.559
 2890SOL    HW1 9569   2.598   6.405   0.574
 2890SOL    HW2 9570   2.625   6.554   0.633
 2891SOL     OW 9571   1.384   4.316   3.324
 2891SOL    HW1 9572   1.342   4.282   3.408
 2891SOL    HW2 9573   1.328   4.291   3.246
 2892SOL     OW 9574   5.515   3.666   6.497
 2892SOL    HW1 9575   5.427   3.647   6.539
 2892SOL    HW2 9576   5.572   3.718   6.560
 2893SOL     OW 9577   0.315   6.258   4.479
 2893SOL    HW1 9578   0.293   6.356   4.476
 2893SOL    HW2 9579   0.302   6.224   4.572
 2894SOL     OW 9580   2.791   2.839   0.993
 2894SOL    HW1 9581   2.755   2.757   0.948
 2894SOL    HW2 9582   2.846   2.892   0.928
 2895SOL     OW 9583   4.532   2.519   5.732
 2895SOL    HW1 9584   4.470   2.478   5.799
 2895SOL    HW2 9585   4.606   2.565   5.779
 2896SOL     OW 9586   3.945   5.400   6.228
 2896SOL    HW1 9587   3.881   5.324   6.216
 2896SOL    HW2 9588   3.944   5.458   6.147
 2897SOL     OW 9589   3.552   4.873   3.559
 2897SOL    HW1 9590   3.474   4.865   3.497
 2897SOL    HW2 9591   3.520   4.871   3.654
 2898SOL     OW 9592   3.665   5.677   4.524
 2898SOL    HW1 9593   3.664   5.604   4.455
 2898SOL    HW2 9594   3.682   5.638   4.614
 2899SOL     OW 9595   0.908   1.739   0.642
 2899SOL    HW1 9596   0.906   1.835   0.670
 2899SOL    HW2 9597   0.819   1.713   0.605
 2900SOL     OW 9598   2.356   4.668   5.174
 2900SOL    HW1 9599   2.432   4.709   5.123
 2900SOL    HW2 9600   2.360   4.568   5.166
 2901SOL     OW 9601   2.152   6.168   3.559
 2901SOL    HW1 9602   2.140   6.251   3.613
 2901SOL    HW2 9603   2.210   6.103   3.609
 2902SOL     OW 9604   4.643   6.645   1.700
 2902SOL    HW1 9605   4.548   6.673   1.717
 2902SOL    HW2 9606   4.705   6.707   1.747
 2903SOL     OW 9607   3.863   0.866   0.564
 2903SOL    HW1 9608   3.778   0.903   0.599
 2903SOL    HW2 9609   3.864   0.766   0.574
 2904SOL     OW 9610   2.184   3.905   5.361
 2904SOL    HW1 9611   2.206   3.808   5.365
 2904SOL    HW2 9612   2.259   3.955   5.319
 2905SOL     OW 9613   1.482   2.487   3.675
 2905SOL    HW1 9614   1.413   2.430   3.629
 2905SOL    HW2 9615   1.460   2.583   3.662
 2906SOL     OW 9616   4.876   5.979   2.483
 2906SOL    HW1 9617   4.957   5.942   2.438
 2906SOL    HW2 9618   4.883   6.079   2.485
 2907SOL     OW 9619   0.634   1.799   3.464
 2907SOL    HW1 9620   0.668   1.706   3.481
 2907SOL    HW2 9621   0.710   1.857   3.434
 2908SOL     OW 9622   4.542   6.274   4.435
 2908SOL    HW1 9623   4.549   6.188   4.383
 2908SOL    HW2 9624   4.447   6.291   4.458
 2909SOL     OW 9625   0.943   6.654   3.345
 2909SOL    HW1 9626   0.946   6.604   3.431
 2909SOL    HW2 9627   1.034   6.652   3.302
 2910SOL     OW 9628   4.696   6.565   4.883
 2910SOL    HW1 9629   4.744   6.653   4.889
 2910SOL    HW2 9630   4.660   6.554   4.790
 2911SOL     OW 9631   1.828   5.455   3.615
 2911SOL    HW1 9632   1.820   5.541   3.565
 2911SOL    HW2 9633   1.738   5.429   3.651
 2912SOL     OW 9634   4.803   0.288   6.823
 2912SOL    HW1 9635   4.812   0.192   6.847
 2912SOL    HW2 9636   4.862   0.344   6.882
 2913SOL     OW 9637   2.391   4.428   3.155
 2913SOL    HW1 9638   2.370   4.492   3.081
 2913SOL    HW2 9639   2.432   4.477   3.231
 2914SOL     OW 9640   5.987   6.436   5.787
 2914SOL    HW1 9641   5.953   6.441   5.880
 2914SOL    HW2 9642   6.086   6.450   5.786
 2915SOL     OW 9643   5.768   1.747   5.274
 2915SOL    HW1 9644   5.675   1.720   5.296
 2915SOL    HW2 9645   5.769   1.841   5.238
 2916SOL     OW 9646   0.224   6.404   6.794
 2916SOL    HW1 9647   0.127   6.411   6.771
 2916SOL    HW2 9648   0.275   6.369   6.716
 2917SOL     OW 9649   3.505   6.719   2.523
 2917SOL    HW1 9650   3.509   6.721   2.423
 2917SOL    HW2 9651   3.491   6.812   2.558
 2918SOL     OW 9652   0.078   4.621   4.007
 2918SOL    HW1 9653   0.164   4.631   3.956
 2918SOL    HW2 9654   0.039   4.711   4.025
 2919SOL     OW 9655   6.681   1.026   1.212
 2919SOL    HW1 9656   6.694   1.082   1.129
 2919SOL    HW2 9657   6.740   0.945   1.207
 2920SOL     OW 9658   2.824   2.057   2.022
 2920SOL    HW1 9659   2.749   2.063   1.957
 2920SOL    HW2 9660   2.847   2.148   2.056
 2921SOL     OW 9661   1.446   0.905   3.121
 2921SOL    HW1 9662   1.481   0.811   3.122
 2921SOL    HW2 9663   1.435   0.937   3.216
 2922SOL     OW 9664   5.148   0.559   0.450
 2922SOL    HW1 9665   5.064   0.605   0.481
 2922SOL    HW2 9666   5.204   0.536   0.529
 2923SOL     OW 9667   7.014   5.206   2.056
 2923SOL    HW1 9668   6.929   5.236   2.012
 2923SOL    HW2 9669   0.001   5.254   2.143
 2924SOL     OW 9670   0.097   1.847   6.442
 2924SOL    HW1 9671   0.185   1.820   6.403
 2924SOL    HW2 9672   0.024   1.833   6.375
 2925SOL     OW 9673   4.414   1.166   3.091
 2925SOL    HW1 9674   4.512   1.157   3.072
 2925SOL    HW2 9675   4.389   1.106   3.167
 2926SOL     OW 9676   6.749   1.054   4.466
 2926SOL    HW1 9677   6.760   0.978   4.530
 2926SOL    HW2 9678   6.693   1.025   4.389
 2927SOL     OW 9679   0.957   2.289   2.524
 2927SOL    HW1 9680   0.925   2.203   2.562
 2927SOL    HW2 9681   1.028   2.327   2.583
 2928SOL     OW 9682   0.405   2.040   6.451
 2928SOL    HW1 9683   0.354   2.057   6.535
 2928SOL    HW2 9684   0.396   2.119   6.390
 2929SOL     OW 9685   0.632   1.374   6.701
 2929SOL    HW1 9686   0.567   1.339   6.635
 2929SOL    HW2 9687   0.682   1.452   6.661
 2930SOL     OW 9688   4.730   6.127   4.622
 2930SOL    HW1 9689   4.751   6.197   4.691
 2930SOL    HW2 9690   4.661   6.163   4.559
 2931SOL     OW 9691   5.794   5.114   0.381
 2931SOL    HW1 9692   5.734   5.177   0.429
 2931SOL    HW2 9693   5.741   5.059   0.316
 2932SOL     OW 9694   0.581   5.322   0.981
 2932SOL    HW1 9695   0.560   5.267   1.062
 2932SOL    HW2 9696   0.507   5.389   0.966
 2933SOL     OW 9697   6.483   4.458   3.526
 2933SOL    HW1 9698   6.478   4.469   3.427
 2933SOL    HW2 9699   6.400   4.496   3.568
 2934SOL     OW 9700   4.841   1.332   6.956
 2934SOL    HW1 9701   4.878   1.317   0.022
 2934SOL    HW2 9702   4.876   1.419   6.920
 2935SOL     OW 9703   6.601   3.009   1.132
 2935SOL    HW1 9704   6.674   3.076   1.139
 2935SOL    HW2 9705   6.543   3.031   1.053
 2936SOL     OW 9706   3.979   5.607   1.749
 2936SOL    HW1 9707   3.965   5.518   1.706
 2936SOL    HW2 9708   3.905   5.668   1.723
 2937SOL     OW 9709   4.109   4.412   0.212
 2937SOL    HW1 9710   4.115   4.326   0.162
 2937SOL    HW2 9711   4.050   4.476   0.162
 2938SOL     OW 9712   4.291   5.286   6.531
 2938SOL    HW1 9713   4.213   5.237   6.492
 2938SOL    HW2 9714   4.299   5.376   6.488
 2939SOL     OW 9715   1.152   0.668   3.804
 2939SOL    HW1 9716   1.121   0.757   3.771
 2939SOL    HW2 9717   1.248   0.674   3.830
 2940SOL     OW 9718   5.905   5.721   6.419
 2940SOL    HW1 9719   5.833   5.732   6.350
 2940SOL    HW2 9720   5.991   5.697   6.373
 2941SOL     OW 9721   1.871   3.250   4.067
 2941SOL    HW1 9722   1.958   3.252   4.018
 2941SOL    HW2 9723   1.796   3.273   4.004
 2942SOL     OW 9724   3.367   2.293   1.058
 2942SOL    HW1 9725   3.361   2.252   0.967
 2942SOL    HW2 9726   3.311   2.375   1.062
 2943SOL     OW 9727   5.000   4.388   2.827
 2943SOL    HW1 9728   5.014   4.379   2.925
 2943SOL    HW2 9729   4.902   4.385   2.807
 2944SOL     OW 9730   2.761   5.505   5.426
 2944SOL    HW1 9731   2.666   5.520   5.396
 2944SOL    HW2 9732   2.782   5.572   5.498
 2945SOL     OW 9733   3.527   3.847   3.161
 2945SOL    HW1 9734   3.610   3.824   3.110
 2945SOL    HW2 9735   3.544   3.928   3.218
 2946SOL     OW 9736   1.100   5.407   6.938
 2946SOL    HW1 9737   1.086   5.329   6.878
 2946SOL    HW2 9738   1.052   5.392   7.025
 2947SOL     OW 9739   0.353   3.601   6.913
 2947SOL    HW1 9740   0.286   3.611   6.840
 2947SOL    HW2 9741   0.346   3.509   6.952
 2948SOL     OW 9742   6.979   4.626   5.688
 2948SOL    HW1 9743   7.024   4.686   5.755
 2948SOL    HW2 9744   6.918   4.680   5.630
 2949SOL     OW 9745   2.850   5.475   0.310
 2949SOL    HW1 9746   2.918   5.411   0.273
 2949SOL    HW2 9747   2.832   5.454   0.406
 2950SOL     OW 9748   5.141   3.575   4.404
 2950SOL    HW1 9749   5.170   3.570   4.500
 2950SOL    HW2 9750   5.073   3.504   4.387
 2951SOL     OW 9751   5.933   1.674   1.153
 2951SOL    HW1 9752   5.928   1.624   1.239
 2951SOL    HW2 9753   6.020   1.654   1.108
 2952SOL     OW 9754   0.964   5.075   5.343
 2952SOL    HW1 9755   0.946   5.119   5.431
 2952SOL    HW2 9756   0.966   5.145   5.271
 2953SOL     OW 9757   5.165   3.442   3.147
 2953SOL    HW1 9758   5.068   3.466   3.154
 2953SOL    HW2 9759   5.185   3.367   3.211
 2954SOL     OW 9760   0.693   5.876   2.014
 2954SOL    HW1 9761   0.681   5.777   2.026
 2954SOL    HW2 9762   0.707   5.919   2.103
 2955SOL     OW 9763   0.897   3.710   1.761
 2955SOL    HW1 9764   0.923   3.782   1.697
 2955SOL    HW2 9765   0.846   3.639   1.712
 2956SOL     OW 9766   5.950   6.507   3.305
 2956SOL    HW1 9767   5.977   6.489   3.210
 2956SOL    HW2 9768   5.851   6.520   3.310
 2957SOL     OW 9769   6.038   2.916   1.960
 2957SOL    HW1 9770   6.022   2.965   1.874
 2957SOL    HW2 9771   6.133   2.930   1.989
 2958SOL     OW 9772   2.404   4.448   4.490
 2958SOL    HW1 9773   2.358   4.530   4.455
 2958SOL    HW2 9774   2.363   4.421   4.577
 2959SOL     OW 9775   4.661   4.737   0.311
 2959SOL    HW1 9776   4.609   4.720   0.395
 2959SOL    HW2 9777   4.748   4.782   0.334
 2960SOL     OW 9778   4.300   6.847   6.180
 2960SOL    HW1 9779   4.302   6.940   6.216
 2960SOL    HW2 9780   4.309   6.782   6.254
 2961SOL     OW 9781   4.902   2.688   3.549
 2961SOL    HW1 9782   4.995   2.718   3.570
 2961SOL    HW2 9783   4.852   2.763   3.507
 2962SOL     OW 9784   4.324   0.950   3.236
 2962SOL    HW1 9785   4.341   0.896   3.153
 2962SOL    HW2 9786   4.227   0.972   3.242
 2963SOL     OW 9787   2.260   0.864   6.139
 2963SOL    HW1 9788   2.191   0.930   6.110
 2963SOL    HW2 9789   2.262   0.787   6.075
 2964SOL     OW 9790   0.212   0.235   2.596
 2964SOL    HW1 9791   0.225   0.312   2.534
 2964SOL    HW2 9792   0.133   0.181   2.565
 2965SOL     OW 9793   6.559   0.975   4.784
 2965SOL    HW1 9794   6.537   1.064   4.824
 2965SOL    HW2 9795   6.619   0.925   4.845
 2966SOL     OW 9796   6.496   5.824   4.299
 2966SOL    HW1 9797   6.590   5.848   4.275
 2966SOL    HW2 9798   6.441   5.821   4.215
 2967SOL     OW 9799   5.797   1.680   4.804
 2967SOL    HW1 9800   5.872   1.633   4.757
 2967SOL    HW2 9801   5.800   1.777   4.782
 2968SOL     OW 9802   0.576   3.171   6.368
 2968SOL    HW1 9803   0.642   3.138   6.436
 2968SOL    HW2 9804   0.592   3.268   6.350
 2969SOL     OW 9805   5.561   1.058   4.233
 2969SOL    HW1 9806   5.618   1.114   4.292
 2969SOL    HW2 9807   5.564   0.963   4.265
 2970SOL     OW 9808   1.008   4.488   5.849
 2970SOL    HW1 9809   0.998   4.389   5.839
 2970SOL    HW2 9810   1.100   4.509   5.884
 2971SOL     OW 9811   5.623   4.135   6.212
 2971SOL    HW1 9812   5.626   4.057   6.275
 2971SOL    HW2 9813   5.707   4.189   6.221
 2972SOL     OW 9814   6.356   4.406   6.442
 2972SOL    HW1 9815   6.310   4.339   6.382
 2972SOL    HW2 9816   6.421   4.459   6.388
 2973SOL     OW 9817   5.670   1.316   4.036
 2973SOL    HW1 9818   5.574   1.313   4.066
 2973SOL    HW2 9819   5.680   1.382   3.962
 2974SOL     OW 9820   0.693   3.931   2.571
 2974SOL    HW1 9821   0.680   4.007   2.507
 2974SOL    HW2 9822   0.640   3.852   2.540
 2975SOL     OW 9823   6.956   2.438   5.040
 2975SOL    HW1 9824   0.017   2.472   5.001
 2975SOL    HW2 9825   6.880   2.496   5.010
 2976SOL     OW 9826   4.182   2.237   3.149
 2976SOL    HW1 9827   4.100   2.230   3.092
 2976SOL    HW2 9828   4.257   2.275   3.095
 2977SOL     OW 9829   1.822   6.828   3.623
 2977SOL    HW1 9830   1.759   6.811   3.699
 2977SOL    HW2 9831   1.874   6.912   3.642
 2978SOL     OW 9832   4.296   4.742   6.828
 2978SOL    HW1 9833   4.269   4.750   6.923
 2978SOL    HW2 9834   4.392   4.771   6.818
 2979SOL     OW 9835   4.469   0.652   4.231
 2979SOL    HW1 9836   4.478   0.552   4.222
 2979SOL    HW2 9837   4.381   0.674   4.272
 2980SOL     OW 9838   1.260   6.032   3.751
 2980SOL    HW1 9839   1.299   5.992   3.835
 2980SOL    HW2 9840   1.186   5.974   3.718
 2981SOL     OW 9841   2.043   0.991   6.074
 2981SOL    HW1 9842   1.976   0.947   6.133
 2981SOL    HW2 9843   2.034   0.956   5.981
 2982SOL     OW 9844   3.814   6.298   3.197
 2982SOL    HW1 9845   3.819   6.302   3.097
 2982SOL    HW2 9846   3.896   6.340   3.236
 2983SOL     OW 9847   1.062   1.525   4.160
 2983SOL    HW1 9848   1.012   1.543   4.075
 2983SOL    HW2 9849   1.017   1.450   4.209
 2984SOL     OW 9850   5.055   5.364   1.984
 2984SOL    HW1 9851   5.011   5.345   1.896
 2984SOL    HW2 9852   5.031   5.292   2.049
 2985SOL     OW 9853   1.386   2.379   5.650
 2985SOL    HW1 9854   1.440   2.307   5.607
 2985SOL    HW2 9855   1.342   2.344   5.732
 2986SOL     OW 9856   2.325   3.842   6.004
 2986SOL    HW1 9857   2.369   3.812   6.088
 2986SOL    HW2 9858   2.262   3.917   6.024
 2987SOL     OW 9859   5.546   1.829   4.206
 2987SOL    HW1 9860   5.600   1.775   4.271
 2987SOL    HW2 9861   5.586   1.920   4.198
 2988SOL     OW 9862   0.539   6.277   2.836
 2988SOL    HW1 9863   0.566   6.323   2.920
 2988SOL    HW2 9864   0.523   6.180   2.854
 2989SOL     OW 9865   6.569   6.014   0.039
 2989SOL    HW1 9866   6.513   6.068   7.000
 2989SOL    HW2 9867   6.638   6.074   0.082
 2990SOL     OW 9868   4.543   1.851   4.393
 2990SOL    HW1 9869   4.624   1.881   4.344
 2990SOL    HW2 9870   4.516   1.922   4.459
 2991SOL     OW 9871   6.238   4.238   6.256
 2991SOL    HW1 9872   6.145   4.260   6.225
 2991SOL    HW2 9873   6.296   4.223   6.176
 2992SOL     OW 9874   2.069   5.039   5.654
 2992SOL    HW1 9875   2.116   4.951   5.652
 2992SOL    HW2 9876   2.135   5.112   5.635
 2993SOL     OW 9877   0.430   5.410   1.276
 2993SOL    HW1 9878   0.476   5.369   1.355
 2993SOL    HW2 9879   0.342   5.364   1.260
 2994SOL     OW 9880   3.766   6.669   0.185
 2994SOL    HW1 9881   3.680   6.716   0.162
 2994SOL    HW2 9882   3.843   6.719   0.144
 2995SOL     OW 9883   1.582   3.560   6.890
 2995SOL    HW1 9884   1.608   3.560   6.793
 2995SOL    HW2 9885   1.640   3.623   6.941
 2996SOL     OW 9886   1.827   0.026   4.275
 2996SOL    HW1 9887   1.868   0.057   4.189
 2996SOL    HW2 9888   1.783   6.962   4.260
 2997SOL     OW 9889   5.445   0.585   2.316
 2997SOL    HW1 9890   5.402   0.631   2.238
 2997SOL    HW2 9891   5.542   0.609   2.320
 2998SOL     OW 9892   4.903   0.206   4.216
 2998SOL    HW1 9893   4.987   0.176   4.261
 2998SOL    HW2 9894   4.917   0.205   4.117
 2999SOL     OW 9895   3.100   4.906   4.683
 2999SOL    HW1 9896   3.121   4.896   4.781
 2999SOL    HW2 9897   3.007   4.873   4.666
 3000SOL     OW 9898   1.832   3.952   0.046
 3000SOL    HW1 9899   1.920   4.000   0.041
 3000SOL    HW2 9900   1.766   4.009   0.095
 3001SOL     OW 9901   6.192   5.942   6.241
 3001SOL    HW1 9902   6.189   6.026   6.188
 3001SOL    HW2 9903   6.264   5.949   6.311
 3002SOL     OW 9904   3.710   6.934   5.901
 3002SOL    HW1 9905   3.731   6.919   5.805
 3002SOL    HW2 9906   3.787   6.982   5.945
 3003SOL     OW 9907   2.078   6.629   0.161
 3003SOL    HW1 9908   2.105   6.703   0.099
 3003SOL    HW2 9909   1.990   6.650   0.202
 3004SOL     OW 9910   1.499   5.001   2.983
 3004SOL    HW1 9911   1.445   4.963   3.058
 3004SOL    HW2 9912   1.594   5.011   3.011
 3005SOL     OW 9913   2.955   2.384   6.652
 3005SOL    HW1 9914   2.963   2.322   6.729
 3005SOL    HW2 9915   2.978   2.477   6.680
 3006SOL     OW 9916   4.750   2.391   6.119
 3006SOL    HW1 9917   4.787   2.338   6.042
 3006SOL    HW2 9918   4.675   2.448   6.087
 3007SOL     OW 9919   5.867   5.445   1.426
 3007SOL    HW1 9920   5.854   5.536   1.387
 3007SOL    HW2 9921   5.907   5.384   1.358
 3008SOL     OW 9922   3.578   0.826   6.159
 3008SOL    HW1 9923   3.560   0.858   6.065
 3008SOL    HW2 9924   3.492   0.802   6.203
 3009SOL     OW 9925   0.774   0.738   2.662
 3009SOL    HW1 9926   0.728   0.674   2.600
 3009SOL    HW2 9927   0.871   0.712   2.671
 3010SOL     OW 9928   3.545   6.251   3.750
 3010SOL    HW1 9929   3.534   6.337   3.700
 3010SOL    HW2 9930   3.484   6.250   3.829
 3011SOL     OW 9931   5.225   1.676   1.318
 3011SOL    HW1 9932   5.312   1.642   1.353
 3011SOL    HW2 9933   5.208   1.639   1.227
 3012SOL     OW 9934   1.242   3.751   5.283
 3012SOL    HW1 9935   1.142   3.757   5.280
 3012SOL    HW2 9936   1.280   3.842   5.297
 3013SOL     OW 9937   5.324   5.532   4.574
 3013SOL    HW1 9938   5.275   5.451   4.542
 3013SOL    HW2 9939   5.383   5.567   4.500
 3014SOL     OW 9940   5.091   2.967   4.697
 3014SOL    HW1 9941   5.183   3.005   4.698
 3014SOL    HW2 9942   5.088   2.887   4.637
 3015SOL     OW 9943   2.729   2.167   6.770
 3015SOL    HW1 9944   2.827   2.178   6.792
 3015SOL    HW2 9945   2.719   2.132   6.678
 3016SOL     OW 9946   3.006   6.180   4.322
 3016SOL    HW1 9947   2.987   6.108   4.256
 3016SOL    HW2 9948   2.947   6.258   4.304
 3017SOL     OW 9949   0.704   5.581   2.041
 3017SOL    HW1 9950   0.610   5.558   2.066
 3017SOL    HW2 9951   0.747   5.503   1.997
 3018SOL     OW 9952   2.245   6.861   5.603
 3018SOL    HW1 9953   2.229   6.768   5.635
 3018SOL    HW2 9954   2.226   6.866   5.505
 3019SOL     OW 9955   1.326   0.351   6.994
 3019SOL    HW1 9956   1.426   0.341   6.991
 3019SOL    HW2 9957   1.301   0.411   0.044
 3020SOL     OW 9958   4.162   3.496   2.145
 3020SOL    HW1 9959   4.176   3.531   2.052
 3020SOL    HW2 9960   4.212   3.553   2.210
 3021SOL     OW 9961   3.356   0.129   6.861
 3021SOL    HW1 9962   3.397   0.165   6.945
 3021SOL    HW2 9963   3.278   0.186   6.835
 3022SOL     OW 9964   4.307   4.806   4.532
 3022SOL    HW1 9965   4.210   4.816   4.511
 3022SOL    HW2 9966   4.333   4.710   4.527
 3023SOL     OW 9967   4.367   0.201   2.802
 3023SOL    HW1 9968   4.273   0.186   2.833
 3023SOL    HW2 9969   4.365   0.239   2.709
 3024SOL     OW 9970   4.318   6.102   5.474
 3024SOL    HW1 9971   4.416   6.120   5.460
 3024SOL    HW2 9972   4.303   6.078   5.570
 3025SOL     OW 9973   3.423   1.271   0.021
 3025SOL    HW1 9974   3.374   1.357   0.030
 3025SOL    HW2 9975   3.507   1.275   0.075
 3026SOL     OW 9976   1.630   1.083   0.914
 3026SOL    HW1 9977   1.707   1.068   0.852
 3026SOL    HW2 9978   1.655   1.152   0.982
 3027SOL     OW 9979   4.191   0.732   2.543
 3027SOL    HW1 9980   4.224   0.827   2.546
 3027SOL    HW2 9981   4.237   0.683   2.469
 3028SOL     OW 9982   1.300   3.961   5.582
 3028SOL    HW1 9983   1.279   4.029   5.653
 3028SOL    HW2 9984   1.326   4.008   5.498
 3029SOL     OW 9985   0.047   3.122   4.899
 3029SOL    HW1 9986   0.073   3.027   4.918
 3029SOL    HW2 9987   6.972   3.130   4.902
 3030SOL     OW 9988   1.001   2.386   5.916
 3030SOL    HW1 9989   0.908   2.351   5.905
 3030SOL    HW2 9990   1.019   2.457   5.848
 3031SOL     OW 9991   0.654   2.869   0.678
 3031SOL    HW1 9992   0.699   2.955   0.653
 3031SOL    HW2 9993   0.565   2.865   0.634
 3032SOL     OW 9994   4.323   6.230   1.735
 3032SOL    HW1 9995   4.368   6.144   1.757
 3032SOL    HW2 9996   4.249   6.247   1.801
 3033SOL     OW 9997   0.160   2.169   1.912
 3033SOL    HW1 9998   0.127   2.235   1.844
 3033SOL    HW2 9999   0.082   2.117   1.948
 3034SOL     OW10000   2.030   5.250   3.560
 3034SOL    HW110001   2.098   5.284   3.626
 3034SOL    HW210002   1.951   5.311   3.558
 3035SOL     OW10003   0.060   3.362   0.465
 3035SOL    HW110004   0.103   3.331   0.380
 3035SOL    HW210005   0.023   3.454   0.453
 3036SOL     OW10006   1.626   2.712   6.817
 3036SOL    HW110007   1.624   2.627   6.763
 3036SOL    HW210008   1.624   2.790   6.754
 3037SOL     OW10009   0.388   5.626   4.990
 3037SOL    HW110010   0.460   5.557   4.980
 3037SOL    HW210011   0.400   5.675   5.076
 3038SOL     OW10012   5.946   5.897   5.601
 3038SOL    HW110013   5.987   5.825   5.546
 3038SOL    HW210014   5.981   5.891   5.694
 3039SOL     OW10015   7.018   3.980   1.374
 3039SOL    HW110016   0.073   3.939   1.417
 3039SOL    HW210017   6.998   3.933   1.288
 3040SOL     OW10018   4.018   3.480   6.262
 3040SOL    HW110019   4.095   3.479   6.199
 3040SOL    HW210020   4.045   3.523   6.348
 3041SOL     OW10021   2.212   3.169   4.792
 3041SOL    HW110022   2.288   3.141   4.733
 3041SOL    HW210023   2.231   3.140   4.886
 3042SOL     OW10024   4.960   6.258   2.210
 3042SOL    HW110025   4.888   6.193   2.186
 3042SOL    HW210026   4.932   6.350   2.185
 3043SOL     OW10027   1.066   5.551   1.716
 3043SOL    HW110028   1.006   5.617   1.670
 3043SOL    HW210029   1.102   5.592   1.800
 3044SOL     OW10030   3.041   3.643   6.029
 3044SOL    HW110031   3.069   3.568   6.089
 3044SOL    HW210032   3.117   3.670   5.971
 3045SOL     OW10033   4.714   1.369   3.012
 3045SOL    HW110034   4.618   1.393   3.031
 3045SOL    HW210035   4.762   1.356   3.099
 3046SOL     OW10036   2.443   1.220   6.796
 3046SOL    HW110037   2.518   1.276   6.760
 3046SOL    HW210038   2.465   1.124   6.783
 3047SOL     OW10039   5.038   0.317   2.485
 3047SOL    HW110040   5.032   0.332   2.583
 3047SOL    HW210041   5.129   0.344   2.452
 3048SOL     OW10042   3.939   2.372   1.739
 3048SOL    HW110043   3.899   2.426   1.665
 3048SOL    HW210044   3.867   2.341   1.801
 3049SOL     OW10045   0.888   6.557   1.489
 3049SOL    HW110046   0.845   6.647   1.485
 3049SOL    HW210047   0.817   6.486   1.491
 3050SOL     OW10048   3.208   1.004   2.160
 3050SOL    HW110049   3.133   1.052   2.114
 3050SOL    HW210050   3.277   0.978   2.092
 3051SOL     OW10051   2.178   3.780   0.330
 3051SOL    HW110052   2.206   3.871   0.299
 3051SOL    HW210053   2.085   3.761   0.296
 3052SOL     OW10054   5.309   6.894   2.301
 3052SOL    HW110055   5.252   6.893   2.383
 3052SOL    HW210056   5.254   6.924   2.223
 3053SOL     OW10057   0.230   1.455   6.875
 3053SOL    HW110058   0.190   1.461   6.966
 3053SOL    HW210059   0.278   1.540   6.854
 3054SOL     OW10060   7.010   2.161   1.618
 3054SOL    HW110061   6.973   2.068   1.613
 3054SOL    HW210062   6.938   2.226   1.594
 3055SOL     OW10063   5.292   6.958   4.065
 3055SOL    HW110064   5.237   6.959   3.982
 3055SOL    HW210065   5.286   6.868   4.109
 3056SOL     OW10066   6.231   1.308   5.296
 3056SOL    HW110067   6.253   1.361   5.378
 3056SOL    HW210068   6.168   1.234   5.320
 3057SOL     OW10069   3.885   6.304   3.606
 3057SOL    HW110070   3.914   6.247   3.530
 3057SOL    HW210071   3.874   6.248   3.688
 3058SOL     OW10072   6.857   5.470   0.812
 3058SOL    HW110073   6.871   5.562   0.849
 3058SOL    HW210074   6.768   5.435   0.843
 3059SOL     OW10075   2.465   2.240   4.483
 3059SOL    HW110076   2.410   2.271   4.406
 3059SOL    HW210077   2.447   2.143   4.500
 3060SOL     OW10078   0.558   5.610   0.337
 3060SOL    HW110079   0.559   5.663   0.422
 3060SOL    HW210080   0.576   5.669   0.259
 3061SOL     OW10081   5.490   0.422   5.387
 3061SOL    HW110082   5.588   0.442   5.381
 3061SOL    HW210083   5.440   0.476   5.320
 3062SOL     OW10084   1.294   6.850   6.948
 3062SOL    HW110085   1.316   6.788   6.873
 3062SOL    HW210086   1.346   6.824   0.004
 3063SOL     OW10087   2.610   5.612   1.461
 3063SOL    HW110088   2.549   5.580   1.534
 3063SOL    HW210089   2.632   5.537   1.399
 3064SOL     OW10090   5.689   3.972   3.418
 3064SOL    HW110091   5.721   3.883   3.452
 3064SOL    HW210092   5.702   4.042   3.488
 3065SOL     OW10093   2.593   0.984   0.283
 3065SOL    HW110094   2.680   1.034   0.286
 3065SOL    HW210095   2.605   0.894   0.326
 3066SOL     OW10096   4.972   5.008   1.153
 3066SOL    HW110097   4.979   4.929   1.091
 3066SOL    HW210098   4.880   5.010   1.193
 3067SOL     OW10099   3.922   2.034   5.041
 3067SOL    HW110100   3.914   2.038   5.141
 3067SOL    HW210101   3.831   2.037   5.001
 3068SOL     OW10102   6.040   6.536   1.751
 3068SOL    HW110103   6.139   6.544   1.755
 3068SOL    HW210104   5.999   6.626   1.739
 3069SOL     OW10105   6.413   6.322   2.176
 3069SOL    HW110106   6.496   6.269   2.191
 3069SOL    HW210107   6.432   6.395   2.110
 3070SOL     OW10108   1.247   0.953   2.040
 3070SOL    HW110109   1.297   1.039   2.034
 3070SOL    HW210110   1.171   0.954   1.975
 3071SOL     OW10111   6.176   5.865   3.003
 3071SOL    HW110112   6.214   5.854   3.095
 3071SOL    HW210113   6.171   5.775   2.958
 3072SOL     OW10114   1.103   0.109   0.086
 3072SOL    HW110115   1.194   0.070   0.102
 3072SOL    HW210116   1.066   0.072   0.001
 3073SOL     OW10117   6.539   2.598   4.931
 3073SOL    HW110118   6.495   2.655   4.861
 3073SOL    HW210119   6.633   2.580   4.904
 3074SOL     OW10120   5.777   3.392   0.742
 3074SOL    HW110121   5.726   3.460   0.689
 3074SOL    HW210122   5.740   3.387   0.835
 3075SOL     OW10123   2.232   5.851   1.836
 3075SOL    HW110124   2.204   5.946   1.827
 3075SOL    HW210125   2.309   5.833   1.774
 3076SOL     OW10126   6.958   0.975   4.305
 3076SOL    HW110127   6.888   1.018   4.363
 3076SOL    HW210128   0.024   0.992   4.345
 3077SOL     OW10129   4.538   5.594   2.761
 3077SOL    HW110130   4.599   5.610   2.683
 3077SOL    HW210131   4.589   5.607   2.846
 3078SOL     OW10132   1.103   3.319   1.763
 3078SOL    HW110133   1.100   3.418   1.776
 3078SOL    HW210134   1.196   3.286   1.781
 3079SOL     OW10135   2.394   1.955   4.385
 3079SOL    HW110136   2.477   1.899   4.381
 3079SOL    HW210137   2.365   1.965   4.480
 3080SOL     OW10138   4.866   3.842   3.508
 3080SOL    HW110139   4.839   3.802   3.421
 3080SOL    HW210140   4.937   3.911   3.493
 3081SOL     OW10141   1.014   2.547   6.167
 3081SOL    HW110142   1.082   2.618   6.188
 3081SOL    HW210143   1.023   2.521   6.071
 3082SOL     OW10144   2.881   7.017   4.082
 3082SOL    HW110145   2.965   0.033   4.046
 3082SOL    HW210146   2.902   6.959   4.160
 3083SOL     OW10147   4.055   6.558   2.861
 3083SOL    HW110148   4.151   6.551   2.889
 3083SOL    HW210149   3.996   6.522   2.933
 3084SOL     OW10150   5.236   4.109   5.037
 3084SOL    HW110151   5.274   4.017   5.042
 3084SOL    HW210152   5.163   4.111   4.969
 3085SOL     OW10153   0.043   4.891   1.659
 3085SOL    HW110154   7.017   4.946   1.725
 3085SOL    HW210155   0.123   4.942   1.628
 3086SOL     OW10156   3.950   2.176   2.076
 3086SOL    HW110157   3.865   2.211   2.037
 3086SOL    HW210158   3.949   2.191   2.175
 3087SOL     OW10159   0.547   5.389   3.933
 3087SOL    HW110160   0.482   5.317   3.911
 3087SOL    HW210161   0.614   5.397   3.860
 3088SOL     OW10162   2.537   4.832   5.596
 3088SOL    HW110163   2.506   4.925   5.617
 3088SOL    HW210164   2.486   4.796   5.518
 3089SOL     OW10165   0.931   3.519   0.038
 3089SOL    HW110166   1.008   3.581   0.020
 3089SOL    HW210167   0.960   3.424   0.022
 3090SOL     OW10168   1.796   1.946   2.228
 3090SOL    HW110169   1.827   1.872   2.288
 3090SOL    HW210170   1.814   1.921   2.133
 3091SOL     OW10171   1.503   0.557   0.966
 3091SOL    HW110172   1.418   0.602   0.991
 3091SOL    HW210173   1.578   0.624   0.969
 3092SOL     OW10174   5.155   6.563   0.460
 3092SOL    HW110175   5.203   6.538   0.545
 3092SOL    HW210176   5.069   6.609   0.483
 3093SOL     OW10177   5.344   6.458   5.934
 3093SOL    HW110178   5.269   6.514   5.969
 3093SOL    HW210179   5.307   6.384   5.878
 3094SOL     OW10180   2.187   6.543   3.964
 3094SOL    HW110181   2.123   6.612   3.930
 3094SOL    HW210182   2.251   6.520   3.891
 3095SOL     OW10183   1.975   5.389   5.881
 3095SOL    HW110184   2.004   5.303   5.924
 3095SOL    HW210185   1.890   5.421   5.925
 3096SOL     OW10186   1.238   6.616   5.032
 3096SOL    HW110187   1.156   6.558   5.034
 3096SOL    HW210188   1.273   6.619   4.938
 3097SOL     OW10189   6.708   2.828   0.793
 3097SOL    HW110190   6.774   2.753   0.790
 3097SOL    HW210191   6.686   2.858   0.700
 3098SOL     OW10192   3.164   3.125   1.019
 3098SOL    HW110193   3.096   3.199   1.014
 3098SOL    HW210194   3.248   3.160   1.059
 3099SOL     OW10195   0.818   6.914   3.280
 3099SOL    HW110196   0.805   6.900   3.182
 3099SOL    HW210197   0.843   6.827   3.323
 3100SOL     OW10198   6.498   6.566   4.590
 3100SOL    HW110199   6.421   6.627   4.611
 3100SOL    HW210200   6.484   6.479   4.636
 3101SOL     OW10201   4.880   6.613   5.992
 3101SOL    HW110202   4.884   6.539   5.924
 3101SOL    HW210203   4.790   6.655   5.991
 3102SOL     OW10204   0.413   4.815   2.132
 3102SOL    HW110205   0.323   4.773   2.147
 3102SOL    HW210206   0.412   4.909   2.166
 3103SOL     OW10207   3.398   0.286   2.099
 3103SOL    HW110208   3.317   0.248   2.053
 3103SOL    HW210209   3.399   0.385   2.088
 3104SOL     OW10210   5.589   6.590   5.184
 3104SOL    HW110211   5.557   6.625   5.096
 3104SOL    HW210212   5.570   6.657   5.255
 3105SOL     OW10213   6.530   4.371   2.019
 3105SOL    HW110214   6.613   4.424   2.000
 3105SOL    HW210215   6.461   4.391   1.951
 3106SOL     OW10216   5.698   1.653   2.564
 3106SOL    HW110217   5.652   1.741   2.552
 3106SOL    HW210218   5.755   1.634   2.484
 3107SOL     OW10219   4.064   1.096   4.288
 3107SOL    HW110220   4.114   1.010   4.302
 3107SOL    HW210221   4.124   1.173   4.309
 3108SOL     OW10222   0.688   6.998   4.193
 3108SOL    HW110223   0.775   0.006   4.231
 3108SOL    HW210224   0.704   6.966   4.099
 3109SOL     OW10225   5.030   6.190   1.933
 3109SOL    HW110226   4.989   6.231   2.015
 3109SOL    HW210227   5.084   6.259   1.886
 3110SOL     OW10228   1.840   2.161   3.911
 3110SOL    HW110229   1.937   2.169   3.931
 3110SOL    HW210230   1.828   2.140   3.814
 3111SOL     OW10231   5.962   5.957   4.053
 3111SOL    HW110232   5.893   5.991   4.117
 3111SOL    HW210233   6.009   5.879   4.094
 3112SOL     OW10234   4.916   2.595   6.240
 3112SOL    HW110235   4.858   2.523   6.202
 3112SOL    HW210236   4.924   2.581   6.339
 3113SOL     OW10237   1.765   6.078   4.085
 3113SOL    HW110238   1.855   6.120   4.077
 3113SOL    HW210239   1.752   6.045   4.179
 3114SOL     OW10240   3.995   2.393   0.167
 3114SOL    HW110241   3.965   2.299   0.147
 3114SOL    HW210242   4.007   2.403   0.266
 3115SOL     OW10243   4.147   3.210   6.333
 3115SOL    HW110244   4.193   3.151   6.400
 3115SOL    HW210245   4.050   3.217   6.356
 3116SOL     OW10246   7.011   3.594   0.332
 3116SOL    HW110247   6.975   3.648   0.408
 3116SOL    HW210248   6.936   3.542   0.290
 3117SOL     OW10249   4.433   3.372   5.370
 3117SOL    HW110250   4.516   3.413   5.407
 3117SOL    HW210251   4.380   3.442   5.322
 3118SOL     OW10252   0.023   4.620   0.999
 3118SOL    HW110253   0.065   4.534   1.027
 3118SOL    HW210254   0.093   4.690   0.985
 3119SOL     OW10255   1.801   3.834   5.658
 3119SOL    HW110256   1.771   3.766   5.590
 3119SOL    HW210257   1.767   3.808   5.748
 3120SOL     OW10258   3.002   6.750   4.108
 3120SOL    HW110259   3.087   6.701   4.127
 3120SOL    HW210260   3.022   6.831   4.053
 3121SOL     OW10261   6.963   1.869   2.875
 3121SOL    HW110262   7.004   1.836   2.790
 3121SOL    HW210263   6.966   1.796   2.943
 3122SOL     OW10264   3.469   6.489   5.757
 3122SOL    HW110265   3.486   6.564   5.821
 3122SOL    HW210266   3.377   6.498   5.719
 3123SOL     OW10267   4.150   1.382   4.054
 3123SOL    HW110268   4.222   1.432   4.102
 3123SOL    HW210269   4.149   1.410   3.958
 3124SOL     OW10270   4.289   6.298   4.574
 3124SOL    HW110271   4.318   6.320   4.667
 3124SOL    HW210272   4.195   6.329   4.560
 3125SOL     OW10273   6.470   2.137   5.215
 3125SOL    HW110274   6.450   2.227   5.177
 3125SOL    HW210275   6.411   2.068   5.173
 3126SOL     OW10276   4.388   4.720   6.246
 3126SOL    HW110277   4.355   4.628   6.268
 3126SOL    HW210278   4.438   4.757   6.325
 3127SOL     OW10279   0.868   3.385   3.867
 3127SOL    HW110280   0.960   3.408   3.898
 3127SOL    HW210281   0.832   3.460   3.811
 3128SOL     OW10282   1.913   0.715   6.568
 3128SOL    HW110283   1.906   0.646   6.640
 3128SOL    HW210284   1.964   0.677   6.490
 3129SOL     OW10285   0.692   4.034   6.402
 3129SOL    HW110286   0.733   3.978   6.329
 3129SOL    HW210287   0.595   4.045   6.385
 3130SOL     OW10288   1.712   4.519   1.776
 3130SOL    HW110289   1.619   4.505   1.811
 3130SOL    HW210290   1.736   4.616   1.780
 3131SOL     OW10291   6.795   2.733   1.696
 3131SOL    HW110292   6.758   2.807   1.752
 3131SOL    HW210293   6.862   2.770   1.631
 3132SOL     OW10294   4.543   5.187   5.780
 3132SOL    HW110295   4.552   5.183   5.880
 3132SOL    HW210296   4.556   5.096   5.741
 3133SOL     OW10297   3.618   1.919   4.088
 3133SOL    HW110298   3.583   1.981   4.159
 3133SOL    HW210299   3.625   1.827   4.126
 3134SOL     OW10300   4.636   4.332   1.405
 3134SOL    HW110301   4.634   4.343   1.504
 3134SOL    HW210302   4.554   4.374   1.365
 3135SOL     OW10303   5.084   0.371   5.234
 3135SOL    HW110304   5.093   0.279   5.197
 3135SOL    HW210305   5.086   0.367   5.334
 3136SOL     OW10306   5.505   0.669   0.498
 3136SOL    HW110307   5.535   0.623   0.414
 3136SOL    HW210308   5.439   0.741   0.474
 3137SOL     OW10309   6.352   0.555   3.469
 3137SOL    HW110310   6.280   0.622   3.451
 3137SOL    HW210311   6.434   0.582   3.418
 3138SOL     OW10312   6.563   2.826   4.006
 3138SOL    HW110313   6.538   2.833   4.103
 3138SOL    HW210314   6.651   2.871   3.990
 3139SOL     OW10315   5.121   6.895   0.309
 3139SOL    HW110316   5.074   6.889   0.397
 3139SOL    HW210317   5.202   6.837   0.310
 3140SOL     OW10318   6.054   6.983   6.872
 3140SOL    HW110319   6.071   6.900   6.820
 3140SOL    HW210320   6.006   6.960   6.957
 3141SOL     OW10321   7.016   5.764   6.318
 3141SOL    HW110322   6.947   5.756   6.390
 3141SOL    HW210323   0.029   5.674   6.297
 3142SOL     OW10324   4.326   6.532   1.631
 3142SOL    HW110325   4.230   6.545   1.609
 3142SOL    HW210326   4.351   6.437   1.611
 3143SOL     OW10327   6.959   1.904   6.906
 3143SOL    HW110328   0.012   1.874   6.850
 3143SOL    HW210329   6.991   1.962   6.980
 3144SOL     OW10330   4.023   4.011   1.045
 3144SOL    HW110331   4.016   4.104   1.081
 3144SOL    HW210332   3.985   3.946   1.111
 3145SOL     OW10333   1.584   5.042   2.307
 3145SOL    HW110334   1.585   5.053   2.407
 3145SOL    HW210335   1.636   5.115   2.265
 3146SOL     OW10336   1.592   6.961   2.679
 3146SOL    HW110337   1.560   6.896   2.610
 3146SOL    HW210338   1.532   6.957   2.759
 3147SOL     OW10339   2.803   5.036   0.154
 3147SOL    HW110340   2.750   5.018   0.071
 3147SOL    HW210341   2.899   5.049   0.130
 3148SOL     OW10342   5.211   5.962   5.061
 3148SOL    HW110343   5.225   5.972   5.160
 3148SOL    HW210344   5.146   5.888   5.044
 3149SOL     OW10345   2.773   0.576   5.210
 3149SOL    HW110346   2.785   0.673   5.227
 3149SOL    HW210347   2.853   0.540   5.162
 3150SOL     OW10348   0.079   6.114   4.333
 3150SOL    HW110349   0.163   6.160   4.364
 3150SOL    HW210350   0.004   6.136   4.396
 3151SOL     OW10351   4.371   1.545   6.286
 3151SOL    HW110352   4.353   1.538   6.385
 3151SOL    HW210353   4.314   1.617   6.247
 3152SOL     OW10354   1.389   5.620   1.122
 3152SOL    HW110355   1.444   5.702   1.137
 3152SOL    HW210356   1.384   5.567   1.207
 3153SOL     OW10357   6.418   4.620   2.281
 3153SOL    HW110358   6.356   4.548   2.248
 3153SOL    HW210359   6.445   4.679   2.205
 3154SOL     OW10360   6.996   1.869   0.587
 3154SOL    HW110361   6.988   1.781   0.634
 3154SOL    HW210362   0.047   1.865   0.522
 3155SOL     OW10363   6.374   4.778   1.455
 3155SOL    HW110364   6.291   4.814   1.498
 3155SOL    HW210365   6.373   4.679   1.459
 3156SOL     OW10366   3.227   3.419   3.507
 3156SOL    HW110367   3.151   3.461   3.456
 3156SOL    HW210368   3.265   3.344   3.453
 3157SOL     OW10369   1.867   2.914   4.798
 3157SOL    HW110370   1.807   2.963   4.862
 3157SOL    HW210371   1.932   2.858   4.849
 3158SOL     OW10372   4.138   6.808   1.896
 3158SOL    HW110373   4.151   6.888   1.837
 3158SOL    HW210374   4.054   6.818   1.949
 3159SOL     OW10375   5.781   1.014   0.354
 3159SOL    HW110376   5.787   0.920   0.321
 3159SOL    HW210377   5.842   1.026   0.432
 3160SOL     OW10378   0.260   6.173   5.060
 3160SOL    HW110379   0.231   6.245   5.123
 3160SOL    HW210380   0.357   6.154   5.073
 3161SOL     OW10381   2.064   1.594   3.680
 3161SOL    HW110382   2.079   1.668   3.614
 3161SOL    HW210383   1.973   1.556   3.666
 3162SOL     OW10384   1.330   6.586   0.980
 3162SOL    HW110385   1.282   6.663   1.022
 3162SOL    HW210386   1.428   6.598   0.992
 3163SOL     OW10387   3.490   2.085   6.627
 3163SOL    HW110388   3.415   2.112   6.687
 3163SOL    HW210389   3.458   2.080   6.532
 3164SOL     OW10390   4.524   4.046   1.447
 3164SOL    HW110391   4.466   4.051   1.528
 3164SOL    HW210392   4.554   4.138   1.421
 3165SOL     OW10393   1.019   5.822   1.254
 3165SOL    HW110394   1.032   5.881   1.175
 3165SOL    HW210395   0.924   5.791   1.258
 3166SOL     OW10396   4.290   0.866   6.214
 3166SOL    HW110397   4.356   0.793   6.237
 3166SOL    HW210398   4.250   0.902   6.298
 3167SOL     OW10399   6.812   4.160   1.413
 3167SOL    HW110400   6.890   4.098   1.412
 3167SOL    HW210401   6.809   4.209   1.500
 3168SOL     OW10402   4.873   2.788   6.638
 3168SOL    HW110403   4.823   2.844   6.572
 3168SOL    HW210404   4.928   2.720   6.589
 3169SOL     OW10405   1.892   3.157   5.141
 3169SOL    HW110406   1.806   3.115   5.113
 3169SOL    HW210407   1.887   3.256   5.128
 3170SOL     OW10408   4.417   1.065   1.258
 3170SOL    HW110409   4.510   1.041   1.286
 3170SOL    HW210410   4.351   1.012   1.312
 3171SOL     OW10411   0.338   6.473   1.222
 3171SOL    HW110412   0.391   6.534   1.165
 3171SOL    HW210413   0.327   6.385   1.176
 3172SOL     OW10414   0.288   5.446   5.971
 3172SOL    HW110415   0.295   5.457   6.070
 3172SOL    HW210416   0.331   5.360   5.943
 3173SOL     OW10417   3.229   1.782   1.089
 3173SOL    HW110418   3.299   1.800   1.019
 3173SOL    HW210419   3.236   1.687   1.118
 3174SOL     OW10420   2.717   2.692   6.382
 3174SOL    HW110421   2.737   2.787   6.405
 3174SOL    HW210422   2.802   2.645   6.359
 3175SOL     OW10423   0.713   6.622   0.679
 3175SOL    HW110424   0.760   6.537   0.655
 3175SOL    HW210425   0.779   6.687   0.717
 3176SOL     OW10426   2.023   5.267   4.637
 3176SOL    HW110427   1.958   5.340   4.657
 3176SOL    HW210428   2.019   5.244   4.540
 3177SOL     OW10429   4.867   4.832   4.975
 3177SOL    HW110430   4.857   4.755   4.911
 3177SOL    HW210431   4.777   4.870   4.997
 3178SOL     OW10432   6.825   2.644   0.169
 3178SOL    HW110433   6.912   2.611   0.133
 3178SOL    HW210434   6.765   2.567   0.188
 3179SOL     OW10435   1.670   2.820   2.491
 3179SOL    HW110436   1.739   2.771   2.439
 3179SOL    HW210437   1.602   2.755   2.525
 3180SOL     OW10438   4.593   0.296   0.243
 3180SOL    HW110439   4.561   0.266   0.332
 3180SOL    HW210440   4.516   0.330   0.190
 3181SOL     OW10441   1.177   1.111   3.181
 3181SOL    HW110442   1.088   1.073   3.204
 3181SOL    HW210443   1.241   1.094   3.256
 3182SOL     OW10444   1.685   1.450   5.726
 3182SOL    HW110445   1.767   1.495   5.691
 3182SOL    HW210446   1.659   1.492   5.813
 3183SOL     OW10447   4.735   3.923   1.185
 3183SOL    HW110448   4.718   3.991   1.257
 3183SOL    HW210449   4.744   3.833   1.225
 3184SOL     OW10450   1.986   2.572   3.011
 3184SOL    HW110451   2.042   2.536   2.937
 3184SOL    HW210452   2.043   2.620   3.077
 3185SOL     OW10453   5.917   0.299   6.402
 3185SOL    HW110454   5.942   0.342   6.315
 3185SOL    HW210455   6.000   0.281   6.455
 3186SOL     OW10456   3.791   1.772   2.949
 3186SOL    HW110457   3.758   1.746   2.859
 3186SOL    HW210458   3.743   1.718   3.019
 3187SOL     OW10459   4.655   4.473   0.267
 3187SOL    HW110460   4.687   4.439   0.355
 3187SOL    HW210461   4.640   4.572   0.274
 3188SOL     OW10462   3.594   6.581   4.536
 3188SOL    HW110463   3.501   6.549   4.556
 3188SOL    HW210464   3.660   6.522   4.581
 3189SOL     OW10465   2.185   1.058   2.476
 3189SOL    HW110466   2.119   1.130   2.498
 3189SOL    HW210467   2.139   0.969   2.483
 3190SOL     OW10468   0.635   5.827   1.523
 3190SOL    HW110469   0.561   5.767   1.492
 3190SOL    HW210470   0.598   5.894   1.587
 3191SOL     OW10471   4.039   6.762   0.929
 3191SOL    HW110472   3.996   6.798   1.011
 3191SOL    HW210473   4.138   6.761   0.941
 3192SOL     OW10474   0.435   2.284   0.987
 3192SOL    HW110475   0.337   2.264   0.987
 3192SOL    HW210476   0.482   2.220   1.048
 3193SOL     OW10477   4.465   1.627   5.745
 3193SOL    HW110478   4.502   1.702   5.691
 3193SOL    HW210479   4.398   1.577   5.691
 3194SOL     OW10480   0.796   3.137   5.876
 3194SOL    HW110481   0.826   3.069   5.943
 3194SOL    HW210482   0.834   3.114   5.786
 3195SOL     OW10483   2.085   2.849   2.423
 3195SOL    HW110484   2.064   2.945   2.404
 3195SOL    HW210485   2.146   2.814   2.352
 3196SOL     OW10486   6.798   0.439   4.908
 3196SOL    HW110487   6.739   0.495   4.966
 3196SOL    HW210488   6.884   0.487   4.890
 3197SOL     OW10489   1.689   5.984   3.640
 3197SOL    HW110490   1.770   5.939   3.602
 3197SOL    HW210491   1.630   6.015   3.565
 3198SOL     OW10492   6.198   2.402   6.220
 3198SOL    HW110493   6.276   2.463   6.207
 3198SOL    HW210494   6.219   2.334   6.290
 3199SOL     OW10495   4.534   2.818   1.701
 3199SOL    HW110496   4.452   2.846   1.651
 3199SOL    HW210497   4.554   2.885   1.773
 3200SOL     OW10498   0.189   1.768   1.855
 3200SOL    HW110499   0.179   1.760   1.955
 3200SOL    HW210500   0.117   1.829   1.820
 3201SOL     OW10501   5.311   4.477   4.926
 3201SOL    HW110502   5.383   4.427   4.974
 3201SOL    HW210503   5.353   4.536   4.857
 3202SOL     OW10504   1.076   4.569   1.588
 3202SOL    HW110505   0.988   4.604   1.619
 3202SOL    HW210506   1.083   4.472   1.611
 3203SOL     OW10507   5.487   1.275   0.898
 3203SOL    HW110508   5.413   1.283   0.965
 3203SOL    HW210509   5.449   1.250   0.809
 3204SOL     OW10510   4.765   5.505   1.919
 3204SOL    HW110511   4.672   5.532   1.895
 3204SOL    HW210512   4.763   5.439   1.994
 3205SOL     OW10513   0.236   3.837   6.476
 3205SOL    HW110514   0.189   3.775   6.539
 3205SOL    HW210515   0.169   3.889   6.423
 3206SOL     OW10516   6.960   6.327   5.950
 3206SOL    HW110517   6.921   6.418   5.936
 3206SOL    HW210518   0.033   6.335   5.968
 3207SOL     OW10519   0.061   1.169   6.177
 3207SOL    HW110520   0.063   1.177   6.276
 3207SOL    HW210521   7.001   1.125   6.148
 3208SOL     OW10522   5.248   6.199   5.848
 3208SOL    HW110523   5.315   6.196   5.773
 3208SOL    HW210524   5.156   6.200   5.810
 3209SOL     OW10525   3.195   5.617   3.425
 3209SOL    HW110526   3.119   5.565   3.386
 3209SOL    HW210527   3.190   5.613   3.525
 3210SOL     OW10528   0.588   3.975   2.052
 3210SOL    HW110529   0.545   4.062   2.027
 3210SOL    HW210530   0.680   3.971   2.013
 3211SOL     OW10531   2.401   3.756   0.908
 3211SOL    HW110532   2.343   3.705   0.971
 3211SOL    HW210533   2.406   3.851   0.937
 3212SOL     OW10534   3.723   1.465   6.625
 3212SOL    HW110535   3.637   1.433   6.585
 3212SOL    HW210536   3.738   1.561   6.598
 3213SOL     OW10537   6.072   5.360   2.827
 3213SOL    HW110538   6.060   5.457   2.807
 3213SOL    HW210539   5.994   5.308   2.792
 3214SOL     OW10540   5.044   5.869   0.259
 3214SOL    HW110541   4.961   5.815   0.271
 3214SOL    HW210542   5.103   5.825   0.192
 3215SOL     OW10543   0.040   3.543   1.622
 3215SOL    HW110544   7.022   3.598   1.693
 3215SOL    HW210545   0.118   3.493   1.660
 3216SOL     OW10546   5.138   5.652   1.968
 3216SOL    HW110547   5.129   5.553   1.982
 3216SOL    HW210548   5.048   5.694   1.967
 3217SOL     OW10549   1.088   5.382   2.444
 3217SOL    HW110550   0.998   5.413   2.411
 3217SOL    HW210551   1.078   5.348   2.538
 3218SOL     OW10552   3.864   6.507   3.790
 3218SOL    HW110553   3.802   6.584   3.803
 3218SOL    HW210554   3.869   6.485   3.692
 3219SOL     OW10555   6.978   1.630   3.013
 3219SOL    HW110556   0.008   1.559   3.057
 3219SOL    HW210557   6.887   1.632   3.054
 3220SOL     OW10558   6.322   5.346   6.205
 3220SOL    HW110559   6.300   5.263   6.154
 3220SOL    HW210560   6.362   5.320   6.293
 3221SOL     OW10561   2.959   0.131   2.315
 3221SOL    HW110562   2.910   0.122   2.228
 3221SOL    HW210563   3.045   0.081   2.310
 3222SOL     OW10564   4.995   1.926   3.750
 3222SOL    HW110565   4.966   1.889   3.662
 3222SOL    HW210566   4.936   2.002   3.776
 3223SOL     OW10567   1.770   5.356   6.516
 3223SOL    HW110568   1.686   5.396   6.481
 3223SOL    HW210569   1.749   5.270   6.563
 3224SOL     OW10570   4.185   4.886   6.219
 3224SOL    HW110571   4.265   4.826   6.227
 3224SOL    HW210572   4.103   4.831   6.209
 3225SOL     OW10573   4.325   2.638   5.568
 3225SOL    HW110574   4.238   2.632   5.617
 3225SOL    HW210575   4.392   2.687   5.624
 3226SOL     OW10576   1.661   1.868   4.774
 3226SOL    HW110577   1.630   1.961   4.795
 3226SOL    HW210578   1.760   1.867   4.767
 3227SOL     OW10579   3.131   2.114   6.203
 3227SOL    HW110580   3.123   2.142   6.299
 3227SOL    HW210581   3.149   2.016   6.198
 3228SOL     OW10582   5.440   3.481   4.361
 3228SOL    HW110583   5.489   3.431   4.291
 3228SOL    HW210584   5.344   3.492   4.334
 3229SOL     OW10585   3.411   1.554   5.770
 3229SOL    HW110586   3.497   1.525   5.813
 3229SOL    HW210587   3.428   1.576   5.674
 3230SOL     OW10588   1.078   2.521   3.938
 3230SOL    HW110589   1.007   2.567   3.884
 3230SOL    HW210590   1.055   2.527   4.035
 3231SOL     OW10591   3.376   6.115   2.327
 3231SOL    HW110592   3.420   6.026   2.341
 3231SOL    HW210593   3.337   6.147   2.413
 3232SOL     OW10594   4.320   5.139   3.959
 3232SOL    HW110595   4.308   5.145   4.058
 3232SOL    HW210596   4.415   5.161   3.935
 3233SOL     OW10597   2.155   3.222   1.137
 3233SOL    HW110598   2.094   3.186   1.068
 3233SOL    HW210599   2.130   3.186   1.227
 3234SOL     OW10600   6.848   3.058   0.587
 3234SOL    HW110601   6.917   3.012   0.531
 3234SOL    HW210602   6.886   3.143   0.624
 3235SOL     OW10603   4.901   6.149   1.443
 3235SOL    HW110604   4.856   6.085   1.381
 3235SOL    HW210605   5.000   6.140   1.436
 3236SOL     OW10606   1.461   3.422   1.322
 3236SOL    HW110607   1.542   3.386   1.368
 3236SOL    HW210608   1.480   3.431   1.224
 3237SOL     OW10609   5.364   1.448   3.804
 3237SOL    HW110610   5.463   1.460   3.796
 3237SOL    HW210611   5.324   1.436   3.713
 3238SOL     OW10612   6.957   5.242   6.965
 3238SOL    HW110613   6.957   5.143   6.950
 3238SOL    HW210614   7.013   5.287   6.896
 3239SOL     OW10615   6.183   1.361   0.593
 3239SOL    HW110616   6.225   1.317   0.513
 3239SOL    HW210617   6.153   1.453   0.568
 3240SOL     OW10618   1.479   6.191   5.126
 3240SOL    HW110619   1.487   6.245   5.210
 3240SOL    HW210620   1.535   6.233   5.054
 3241SOL     OW10621   5.356   1.417   4.526
 3241SOL    HW110622   5.273   1.463   4.495
 3241SOL    HW210623   5.431   1.482   4.528
 3242SOL     OW10624   3.378   4.806   0.917
 3242SOL    HW110625   3.444   4.745   0.872
 3242SOL    HW210626   3.348   4.765   1.003
 3243SOL     OW10627   5.846   5.560   0.549
 3243SOL    HW110628   5.821   5.607   0.633
 3243SOL    HW210629   5.766   5.553   0.489
 3244SOL     OW10630   4.732   5.245   6.733
 3244SOL    HW110631   4.808   5.192   6.773
 3244SOL    HW210632   4.662   5.182   6.699
 3245SOL     OW10633   5.122   2.299   5.784
 3245SOL    HW110634   5.191   2.354   5.737
 3245SOL    HW210635   5.107   2.214   5.733
 3246SOL     OW10636   6.504   0.464   3.098
 3246SOL    HW110637   6.447   0.384   3.077
 3246SOL    HW210638   6.579   0.469   3.032
 3247SOL     OW10639   0.158   5.199   2.923
 3247SOL    HW110640   0.194   5.185   3.015
 3247SOL    HW210641   0.097   5.279   2.923
 3248SOL     OW10642   5.388   3.465   1.668
 3248SOL    HW110643   5.328   3.476   1.589
 3248SOL    HW210644   5.482   3.450   1.637
 3249SOL     OW10645   4.186   4.411   5.633
 3249SOL    HW110646   4.157   4.504   5.654
 3249SOL    HW210647   4.106   4.353   5.614
 3250SOL     OW10648   5.496   0.426   2.885
 3250SOL    HW110649   5.586   0.436   2.928
 3250SOL    HW210650   5.483   0.498   2.818
 3251SOL     OW10651   4.344   0.977   2.614
 3251SOL    HW110652   4.345   0.993   2.713
 3251SOL    HW210653   4.438   0.980   2.579
 3252SOL     OW10654   3.003   1.179   2.069
 3252SOL    HW110655   2.950   1.166   2.153
 3252SOL    HW210656   2.968   1.259   2.020
 3253SOL     OW10657   4.886   3.484   2.443
 3253SOL    HW110658   4.945   3.529   2.509
 3253SOL    HW210659   4.872   3.388   2.470
 3254SOL     OW10660   3.850   5.049   4.917
 3254SOL    HW110661   3.757   5.035   4.952
 3254SOL    HW210662   3.868   4.982   4.845
 3255SOL     OW10663   4.535   6.038   1.720
 3255SOL    HW110664   4.626   6.078   1.713
 3255SOL    HW210665   4.517   6.013   1.815
 3256SOL     OW10666   5.714   0.454   6.807
 3256SOL    HW110667   5.700   0.371   6.753
 3256SOL    HW210668   5.676   0.441   6.898
 3257SOL     OW10669   1.311   1.815   1.154
 3257SOL    HW110670   1.358   1.898   1.124
 3257SOL    HW210671   1.375   1.739   1.159
 3258SOL     OW10672   4.305   5.743   2.671
 3258SOL    HW110673   4.325   5.773   2.578
 3258SOL    HW210674   4.386   5.701   2.711
 3259SOL     OW10675   4.938   5.976   4.267
 3259SOL    HW110676   5.038   5.977   4.268
 3259SOL    HW210677   4.903   5.970   4.361
 3260SOL     OW10678   2.117   2.445   1.502
 3260SOL    HW110679   2.174   2.418   1.424
 3260SOL    HW210680   2.109   2.544   1.504
 3261SOL     OW10681   4.161   6.185   0.531
 3261SOL    HW110682   4.217   6.109   0.498
 3261SOL    HW210683   4.065   6.157   0.535
 3262SOL     OW10684   3.760   1.808   2.430
 3262SOL    HW110685   3.845   1.757   2.433
 3262SOL    HW210686   3.779   1.905   2.449
 3263SOL     OW10687   5.087   0.622   3.862
 3263SOL    HW110688   5.132   0.707   3.888
 3263SOL    HW210689   5.088   0.613   3.762
 3264SOL     OW10690   1.012   4.612   0.079
 3264SOL    HW110691   0.935   4.552   0.101
 3264SOL    HW210692   0.999   4.700   0.126
 3265SOL     OW10693   4.224   2.115   5.842
 3265SOL    HW110694   4.270   2.029   5.863
 3265SOL    HW210695   4.236   2.137   5.745
 3266SOL     OW10696   0.900   2.736   0.200
 3266SOL    HW110697   0.919   2.645   0.164
 3266SOL    HW210698   0.975   2.798   0.177
 3267SOL     OW10699   3.483   2.412   0.684
 3267SOL    HW110700   3.573   2.418   0.640
 3267SOL    HW210701   3.417   2.464   0.630
 3268SOL     OW10702   0.676   3.715   6.641
 3268SOL    HW110703   0.738   3.793   6.631
 3268SOL    HW210704   0.726   3.631   6.619
 3269SOL     OW10705   4.340   5.098   2.016
 3269SOL    HW110706   4.241   5.088   2.010
 3269SOL    HW210707   4.374   5.050   2.097
 3270SOL     OW10708   1.404   5.446   4.709
 3270SOL    HW110709   1.379   5.455   4.613
 3270SOL    HW210710   1.326   5.472   4.766
 3271SOL     OW10711   5.488   3.333   2.587
 3271SOL    HW110712   5.507   3.374   2.498
 3271SOL    HW210713   5.389   3.319   2.597
 3272SOL     OW10714   3.734   4.923   0.549
 3272SOL    HW110715   3.647   4.917   0.598
 3272SOL    HW210716   3.719   4.903   0.452
 3273SOL     OW10717   0.694   6.369   2.029
 3273SOL    HW110718   0.739   6.285   2.000
 3273SOL    HW210719   0.763   6.434   2.061
 3274SOL     OW10720   3.590   2.332   6.797
 3274SOL    HW110721   3.608   2.424   6.761
 3274SOL    HW210722   3.622   2.264   6.731
 3275SOL     OW10723   1.705   0.542   0.021
 3275SOL    HW110724   1.658   0.614   0.071
 3275SOL    HW210725   1.714   0.461   0.080
 3276SOL     OW10726   3.127   4.733   6.272
 3276SOL    HW110727   3.220   4.698   6.285
 3276SOL    HW210728   3.091   4.701   6.184
 3277SOL     OW10729   5.594   0.088   6.016
 3277SOL    HW110730   5.628   0.181   6.011
 3277SOL    HW210731   5.653   0.027   5.962
 3278SOL     OW10732   6.530   1.270   5.488
 3278SOL    HW110733   6.490   1.184   5.456
 3278SOL    HW210734   6.459   1.325   5.532
 3279SOL     OW10735   0.570   0.999   1.231
 3279SOL    HW110736   0.593   0.902   1.235
 3279SOL    HW210737   0.567   1.036   1.324
 3280SOL     OW10738   2.893   5.493   6.206
 3280SOL    HW110739   2.815   5.518   6.149
 3280SOL    HW210740   2.971   5.552   6.184
 3281SOL     OW10741   2.049   5.406   1.209
 3281SOL    HW110742   2.094   5.337   1.266
 3281SOL    HW210743   1.953   5.381   1.197
 3282SOL     OW10744   2.217   5.529   4.463
 3282SOL    HW110745   2.202   5.582   4.546
 3282SOL    HW210746   2.279   5.453   4.483
 3283SOL     OW10747   2.839   1.376   1.892
 3283SOL    HW110748   2.839   1.472   1.919
 3283SOL    HW210749   2.875   1.368   1.799
 3284SOL     OW10750   6.235   6.908   6.396
 3284SOL    HW110751   6.155   6.961   6.369
 3284SOL    HW210752   6.265   6.936   6.487
 3285SOL     OW10753   6.776   3.171   3.351
 3285SOL    HW110754   6.713   3.247   3.337
 3285SOL    HW210755   6.863   3.205   3.387
 3286SOL     OW10756   3.974   3.263   3.928
 3286SOL    HW110757   4.003   3.275   4.024
 3286SOL    HW210758   3.904   3.193   3.923
 3287SOL     OW10759   1.252   5.729   0.439
 3287SOL    HW110760   1.184   5.782   0.388
 3287SOL    HW210761   1.237   5.740   0.537
 3288SOL     OW10762   1.013   5.207   6.769
 3288SOL    HW110763   1.092   5.149   6.749
 3288SOL    HW210764   0.949   5.157   6.828
 3289SOL     OW10765   2.168   6.663   5.869
 3289SOL    HW110766   2.077   6.704   5.876
 3289SOL    HW210767   2.195   6.625   5.957
 3290SOL     OW10768   0.351   6.603   1.765
 3290SOL    HW110769   0.266   6.632   1.721
 3290SOL    HW210770   0.421   6.586   1.696
 3291SOL     OW10771   0.937   6.593   6.806
 3291SOL    HW110772   0.917   6.689   6.829
 3291SOL    HW210773   1.021   6.565   6.850
 3292SOL     OW10774   0.468   1.488   0.164
 3292SOL    HW110775   0.554   1.499   0.114
 3292SOL    HW210776   0.477   1.411   0.228
 3293SOL     OW10777   6.217   2.453   3.162
 3293SOL    HW110778   6.256   2.361   3.156
 3293SOL    HW210779   6.290   2.519   3.175
 3294SOL     OW10780   0.126   0.478   5.970
 3294SOL    HW110781   0.083   0.453   5.883
 3294SOL    HW210782   0.208   0.422   5.983
 3295SOL     OW10783   2.182   2.702   0.871
 3295SOL    HW110784   2.213   2.613   0.905
 3295SOL    HW210785   2.133   2.689   0.784
 3296SOL     OW10786   2.389   6.327   1.037
 3296SOL    HW110787   2.291   6.330   1.057
 3296SOL    HW210788   2.414   6.406   0.981
 3297SOL     OW10789   2.875   1.470   4.681
 3297SOL    HW110790   2.909   1.467   4.774
 3297SOL    HW210791   2.929   1.409   4.623
 3298SOL     OW10792   6.076   2.970   3.253
 3298SOL    HW110793   6.155   2.913   3.232
 3298SOL    HW210794   6.042   2.946   3.344
 3299SOL     OW10795   2.073   6.691   3.612
 3299SOL    HW110796   2.119   6.743   3.685
 3299SOL    HW210797   1.987   6.736   3.588
 3300SOL     OW10798   0.075   0.106   6.006
 3300SOL    HW110799   0.048   0.109   6.102
 3300SOL    HW210800   0.145   0.175   5.989
 3301SOL     OW10801   2.259   4.134   3.633
 3301SOL    HW110802   2.350   4.152   3.595
 3301SOL    HW210803   2.194   4.197   3.590
 3302SOL     OW10804   1.302   5.435   4.431
 3302SOL    HW110805   1.224   5.493   4.409
 3302SOL    HW210806   1.271   5.354   4.480
 3303SOL     OW10807   3.514   3.034   1.725
 3303SOL    HW110808   3.511   2.937   1.749
 3303SOL    HW210809   3.545   3.044   1.631
 3304SOL     OW10810   1.728   4.902   3.327
 3304SOL    HW110811   1.660   4.954   3.379
 3304SOL    HW210812   1.767   4.831   3.386
 3305SOL     OW10813   2.691   2.045   2.697
 3305SOL    HW110814   2.739   2.106   2.761
 3305SOL    HW210815   2.733   1.955   2.698
 3306SOL     OW10816   2.437   4.823   3.959
 3306SOL    HW110817   2.363   4.803   4.023
 3306SOL    HW210818   2.399   4.853   3.872
 3307SOL     OW10819   0.626   5.858   6.594
 3307SOL    HW110820   0.533   5.852   6.560
 3307SOL    HW210821   0.671   5.938   6.554
 3308SOL     OW10822   4.487   5.779   6.385
 3308SOL    HW110823   4.562   5.714   6.372
 3308SOL    HW210824   4.479   5.837   6.304
 3309SOL     OW10825   0.701   5.469   2.813
 3309SOL    HW110826   0.658   5.541   2.868
 3309SOL    HW210827   0.789   5.444   2.854
 3310SOL     OW10828   6.987   3.776   3.580
 3310SOL    HW110829   6.927   3.855   3.591
 3310SOL    HW210830   0.046   3.791   3.633
 3311SOL     OW10831   2.964   4.855   1.308
 3311SOL    HW110832   2.958   4.857   1.209
 3311SOL    HW210833   3.046   4.904   1.338
 3312SOL     OW10834   2.955   4.043   6.304
 3312SOL    HW110835   2.883   4.089   6.356
 3312SOL    HW210836   2.926   3.949   6.284
 3313SOL     OW10837   0.602   5.192   2.783
 3313SOL    HW110838   0.571   5.133   2.858
 3313SOL    HW210839   0.618   5.284   2.817
 3314SOL     OW10840   2.134   2.566   5.408
 3314SOL    HW110841   2.187   2.557   5.324
 3314SOL    HW210842   2.145   2.659   5.444
 3315SOL     OW10843   6.728   2.843   4.244
 3315SOL    HW110844   6.785   2.767   4.213
 3315SOL    HW210845   6.787   2.918   4.274
 3316SOL     OW10846   3.575   1.261   5.490
 3316SOL    HW110847   3.615   1.189   5.433
 3316SOL    HW210848   3.633   1.343   5.486
 3317SOL     OW10849   4.892   2.840   1.964
 3317SOL    HW110850   4.846   2.928   1.955
 3317SOL    HW210851   4.892   2.794   1.875
 3318SOL     OW10852   2.911   0.050   0.331
 3318SOL    HW110853   2.951   7.013   0.398
 3318SOL    HW210854   2.971   0.057   0.251
 3319SOL     OW10855   6.373   6.777   3.520
 3319SOL    HW110856   6.428   6.725   3.585
 3319SOL    HW210857   6.305   6.716   3.478
 3320SOL     OW10858   5.693   0.931   5.688
 3320SOL    HW110859   5.661   0.994   5.618
 3320SOL    HW210860   5.655   0.958   5.777
 3321SOL     OW10861   3.222   2.568   1.652
 3321SOL    HW110862   3.260   2.594   1.563
 3321SOL    HW210863   3.247   2.473   1.672
 3322SOL     OW10864   4.990   2.439   1.942
 3322SOL    HW110865   4.988   2.473   2.036
 3322SOL    HW210866   4.966   2.513   1.879
 3323SOL     OW10867   2.004   3.927   6.521
 3323SOL    HW110868   2.095   3.970   6.527
 3323SOL    HW210869   1.975   3.899   6.612
 3324SOL     OW10870   0.877   4.051   0.096
 3324SOL    HW110871   0.823   3.969   0.076
 3324SOL    HW210872   0.934   4.035   0.177
 3325SOL     OW10873   2.148   3.475   0.066
 3325SOL    HW110874   2.155   3.476   6.991
 3325SOL    HW210875   2.051   3.473   0.092
 3326SOL     OW10876   5.032   1.774   1.495
 3326SOL    HW110877   5.107   1.745   1.435
 3326SOL    HW210878   5.046   1.869   1.523
 3327SOL     OW10879   2.703   6.224   0.809
 3327SOL    HW110880   2.687   6.160   0.884
 3327SOL    HW210881   2.630   6.214   0.741
 3328SOL     OW10882   4.641   1.096   2.835
 3328SOL    HW110883   4.696   1.149   2.899
 3328SOL    HW210884   4.586   1.157   2.779
 3329SOL     OW10885   4.450   0.233   5.553
 3329SOL    HW110886   4.419   0.285   5.473
 3329SOL    HW210887   4.432   0.285   5.636
 3330SOL     OW10888   5.685   6.393   2.283
 3330SOL    HW110889   5.768   6.348   2.316
 3330SOL    HW210890   5.617   6.395   2.357
 3331SOL     OW10891   1.729   3.664   2.309
 3331SOL    HW110892   1.646   3.653   2.364
 3331SOL    HW210893   1.704   3.684   2.214
 3332SOL     OW10894   6.269   3.965   0.015
 3332SOL    HW110895   6.285   4.044   6.980
 3332SOL    HW210896   6.328   3.890   7.011
 3333SOL     OW10897   2.491   3.481   6.893
 3333SOL    HW110898   2.482   3.550   6.965
 3333SOL    HW210899   2.403   3.436   6.878
 3334SOL     OW10900   1.915   3.142   1.818
 3334SOL    HW110901   1.818   3.129   1.838
 3334SOL    HW210902   1.926   3.217   1.753
 3335SOL     OW10903   4.869   5.609   6.172
 3335SOL    HW110904   4.881   5.703   6.205
 3335SOL    HW210905   4.805   5.609   6.096
 3336SOL     OW10906   2.181   0.231   4.321
 3336SOL    HW110907   2.106   0.191   4.375
 3336SOL    HW210908   2.268   0.194   4.352
 3337SOL     OW10909   3.582   3.450   1.809
 3337SOL    HW110910   3.648   3.429   1.736
 3337SOL    HW210911   3.572   3.549   1.817
 3338SOL     OW10912   0.212   2.545   1.656
 3338SOL    HW110913   0.277   2.550   1.732
 3338SOL    HW210914   0.121   2.524   1.692
 3339SOL     OW10915   1.630   0.184   6.190
 3339SOL    HW110916   1.722   0.188   6.229
 3339SOL    HW210917   1.626   0.239   6.107
 3340SOL     OW10918   4.480   0.771   3.973
 3340SOL    HW110919   4.389   0.792   3.940
 3340SOL    HW210920   4.477   0.751   4.071
 3341SOL     OW10921   2.269   4.212   3.969
 3341SOL    HW110922   2.341   4.278   3.992
 3341SOL    HW210923   2.183   4.260   3.952
 3342SOL     OW10924   0.479   0.412   2.724
 3342SOL    HW110925   0.380   0.426   2.730
 3342SOL    HW210926   0.516   0.468   2.650
 3343SOL     OW10927   5.289   5.398   6.052
 3343SOL    HW110928   5.219   5.434   5.991
 3343SOL    HW210929   5.246   5.339   6.121
 3344SOL     OW10930   6.504   2.963   3.760
 3344SOL    HW110931   6.508   2.931   3.855
 3344SOL    HW210932   6.538   2.892   3.699
 3345SOL     OW10933   0.807   4.224   6.154
 3345SOL    HW110934   0.726   4.167   6.144
 3345SOL    HW210935   0.884   4.181   6.106
 3346SOL     OW10936   1.642   1.211   6.803
 3346SOL    HW110937   1.687   1.209   6.714
 3346SOL    HW210938   1.566   1.146   6.804
 3347SOL     OW10939   2.007   2.592   6.505
 3347SOL    HW110940   2.084   2.538   6.470
 3347SOL    HW210941   1.971   2.649   6.432
 3348SOL     OW10942   4.515   3.743   5.353
 3348SOL    HW110943   4.574   3.709   5.280
 3348SOL    HW210944   4.422   3.710   5.338
 3349SOL     OW10945   2.752   5.117   3.917
 3349SOL    HW110946   2.822   5.188   3.932
 3349SOL    HW210947   2.797   5.031   3.894
 3350SOL     OW10948   0.522   3.059   5.845
 3350SOL    HW110949   0.615   3.078   5.812
 3350SOL    HW210950   0.503   3.117   5.924
 3351SOL     OW10951   4.909   1.389   1.113
 3351SOL    HW110952   4.907   1.483   1.080
 3351SOL    HW210953   4.933   1.328   1.037
 3352SOL     OW10954   5.437   2.374   0.730
 3352SOL    HW110955   5.420   2.436   0.807
 3352SOL    HW210956   5.504   2.305   0.758
 3353SOL     OW10957   1.982   6.463   0.587
 3353SOL    HW110958   2.051   6.536   0.591
 3353SOL    HW210959   1.943   6.459   0.495
 3354SOL     OW10960   3.988   2.782   5.286
 3354SOL    HW110961   4.046   2.704   5.261
 3354SOL    HW210962   3.953   2.769   5.379
 3355SOL     OW10963   2.084   1.378   5.841
 3355SOL    HW110964   2.060   1.469   5.874
 3355SOL    HW210965   2.015   1.348   5.775
 3356SOL     OW10966   0.458   6.616   6.670
 3356SOL    HW110967   0.444   6.584   6.576
 3356SOL    HW210968   0.529   6.561   6.714
 3357SOL     OW10969   3.197   3.199   1.660
 3357SOL    HW110970   3.245   3.158   1.582
 3357SOL    HW210971   3.214   3.298   1.662
 3358SOL     OW10972   5.551   1.081   3.343
 3358SOL    HW110973   5.581   1.067   3.249
 3358SOL    HW210974   5.478   1.150   3.345
 3359SOL     OW10975   0.130   5.489   3.475
 3359SOL    HW110976   0.176   5.540   3.547
 3359SOL    HW210977   0.093   5.553   3.408
 3360SOL     OW10978   0.725   2.080   6.199
 3360SOL    HW110979   0.816   2.108   6.231
 3360SOL    HW210980   0.666   2.160   6.196
 3361SOL     OW10981   0.747   0.485   4.279
 3361SOL    HW110982   0.826   0.481   4.341
 3361SOL    HW210983   0.664   0.464   4.330
 3362SOL     OW10984   3.871   1.458   2.833
 3362SOL    HW110985   3.912   1.401   2.761
 3362SOL    HW210986   3.909   1.550   2.828
 3363SOL     OW10987   6.876   3.325   1.720
 3363SOL    HW110988   6.874   3.239   1.670
 3363SOL    HW210989   6.942   3.387   1.676
 3364SOL     OW10990   2.023   4.590   2.834
 3364SOL    HW110991   2.117   4.625   2.831
 3364SOL    HW210992   2.019   4.501   2.789
 3365SOL     OW10993   1.252   2.475   4.563
 3365SOL    HW110994   1.250   2.575   4.570
 3365SOL    HW210995   1.276   2.449   4.469
 3366SOL     OW10996   6.470   4.507   4.061
 3366SOL    HW110997   6.532   4.569   4.110
 3366SOL    HW210998   6.390   4.487   4.118
 3367SOL     OW10999   3.345   3.121   3.145
 3367SOL    HW111000   3.249   3.104   3.122
 3367SOL    HW211001   3.402   3.103   3.065
 3368SOL     OW11002   0.788   5.569   6.609
 3368SOL    HW111003   0.724   5.560   6.686
 3368SOL    HW211004   0.756   5.640   6.547
 3369SOL     OW11005   4.403   2.095   1.531
 3369SOL    HW111006   4.305   2.101   1.550
 3369SOL    HW211007   4.442   2.016   1.579
 3370SOL     OW11008   5.912   6.811   1.430
 3370SOL    HW111009   6.012   6.818   1.433
 3370SOL    HW211010   5.877   6.865   1.353
 3371SOL     OW11011   2.127   3.575   1.703
 3371SOL    HW111012   2.200   3.563   1.770
 3371SOL    HW211013   2.060   3.641   1.739
 3372SOL     OW11014   6.695   2.393   0.231
 3372SOL    HW111015   6.758   2.370   0.305
 3372SOL    HW211016   6.723   2.346   0.147
 3373SOL     OW11017   0.468   2.297   3.513
 3373SOL    HW111018   0.437   2.202   3.518
 3373SOL    HW211019   0.416   2.346   3.443
 3374SOL     OW11020   1.416   0.462   3.903
 3374SOL    HW111021   1.360   0.453   3.985
 3374SOL    HW211022   1.367   0.423   3.825
 3375SOL     OW11023   6.551   4.553   0.686
 3375SOL    HW111024   6.525   4.458   0.701
 3375SOL    HW211025   6.600   4.587   0.767
 3376SOL     OW11026   3.070   3.191   5.039
 3376SOL    HW111027   3.115   3.102   5.034
 3376SOL    HW211028   3.140   3.263   5.038
 3377SOL     OW11029   6.755   4.469   4.622
 3377SOL    HW111030   6.723   4.547   4.676
 3377SOL    HW211031   6.749   4.386   4.676
 3378SOL     OW11032   0.680   7.024   6.976
 3378SOL    HW111033   0.692   0.043   0.040
 3378SOL    HW211034   0.648   0.066   6.909
 3379SOL     OW11035   0.766   2.711   4.735
 3379SOL    HW111036   0.861   2.678   4.726
 3379SOL    HW211037   0.759   2.803   4.698
 3380SOL     OW11038   4.247   5.512   4.996
 3380SOL    HW111039   4.170   5.448   5.008
 3380SOL    HW211040   4.237   5.588   5.060
 3381SOL     OW11041   6.844   3.077   1.647
 3381SOL    HW111042   6.763   3.073   1.588
 3381SOL    HW211043   6.912   3.010   1.615
 3382SOL     OW11044   0.157   3.083   1.064
 3382SOL    HW111045   0.174   3.116   1.157
 3382SOL    HW211046   0.195   2.991   1.054
 3383SOL     OW11047   3.416   5.156   0.637
 3383SOL    HW111048   3.383   5.240   0.681
 3383SOL    HW211049   3.339   5.109   0.594
 3384SOL     OW11050   2.958   4.451   0.817
 3384SOL    HW111051   3.031   4.520   0.823
 3384SOL    HW211052   2.911   4.446   0.905
 3385SOL     OW11053   6.764   3.256   4.052
 3385SOL    HW111054   6.734   3.216   3.966
 3385SOL    HW211055   6.783   3.354   4.039
 3386SOL     OW11056   6.493   4.448   6.836
 3386SOL    HW111057   6.426   4.484   6.771
 3386SOL    HW211058   6.584   4.453   6.796
 3387SOL     OW11059   5.247   0.564   2.751
 3387SOL    HW111060   5.336   0.550   2.707
 3387SOL    HW211061   5.257   0.552   2.850
 3388SOL     OW11062   5.240   4.054   2.600
 3388SOL    HW111063   5.179   4.114   2.548
 3388SOL    HW211064   5.313   4.021   2.540
 3389SOL     OW11065   6.502   5.344   6.479
 3389SOL    HW111066   6.563   5.320   6.555
 3389SOL    HW211067   6.462   5.434   6.495
 3390SOL     OW11068   4.322   6.521   6.678
 3390SOL    HW111069   4.374   6.598   6.641
 3390SOL    HW211070   4.241   6.556   6.726
 3391SOL     OW11071   5.387   1.982   2.952
 3391SOL    HW111072   5.322   2.055   2.974
 3391SOL    HW211073   5.395   1.973   2.853
 3392SOL     OW11074   3.106   0.108   3.965
 3392SOL    HW111075   3.135   0.156   3.882
 3392SOL    HW211076   3.146   0.153   4.045
 3393SOL     OW11077   5.761   6.526   0.153
 3393SOL    HW111078   5.739   6.620   0.179
 3393SOL    HW211079   5.840   6.525   0.092
 3394SOL     OW11080   4.350   4.392   0.421
 3394SOL    HW111081   4.334   4.302   0.380
 3394SOL    HW211082   4.263   4.429   0.455
 3395SOL     OW11083   4.708   1.720   3.096
 3395SOL    HW111084   4.772   1.779   3.047
 3395SOL    HW211085   4.637   1.689   3.032
 3396SOL     OW11086   5.616   1.785   3.935
 3396SOL    HW111087   5.572   1.864   3.892
 3396SOL    HW211088   5.598   1.787   4.034
 3397SOL     OW11089   3.105   5.653   6.147
 3397SOL    HW111090   3.172   5.602   6.201
 3397SOL    HW211091   3.124   5.643   6.050
 3398SOL     OW11092   0.761   0.030   5.379
 3398SOL    HW111093   0.779   0.119   5.422
 3398SOL    HW211094   0.827   6.988   5.412
 3399SOL     OW11095   6.540   5.040   2.879
 3399SOL    HW111096   6.484   5.011   2.956
 3399SOL    HW211097   6.497   5.010   2.794
 3400SOL     OW11098   6.265   3.400   6.950
 3400SOL    HW111099   6.246   3.404   0.023
 3400SOL    HW211100   6.212   3.470   6.902
 3401SOL     OW11101   5.994   3.552   6.188
 3401SOL    HW111102   6.023   3.475   6.131
 3401SOL    HW211103   5.998   3.637   6.134
 3402SOL     OW11104   6.118   5.551   0.786
 3402SOL    HW111105   6.127   5.456   0.816
 3402SOL    HW211106   6.116   5.611   0.866
 3403SOL     OW11107   5.285   5.735   6.409
 3403SOL    HW111108   5.347   5.692   6.345
 3403SOL    HW211109   5.221   5.794   6.360
 3404SOL     OW11110   4.675   2.946   6.827
 3404SOL    HW111111   4.730   3.022   6.792
 3404SOL    HW211112   4.685   2.867   6.767
 3405SOL     OW11113   5.453   4.724   6.158
 3405SOL    HW111114   5.382   4.670   6.113
 3405SOL    HW211115   5.474   4.684   6.247
 3406SOL     OW11116   1.964   3.557   2.370
 3406SOL    HW111117   2.024   3.613   2.426
 3406SOL    HW211118   1.875   3.601   2.361
 3407SOL     OW11119   2.882   4.441   0.311
 3407SOL    HW111120   2.882   4.400   0.220
 3407SOL    HW211121   2.810   4.510   0.317
 3408SOL     OW11122   4.763   2.880   4.704
 3408SOL    HW111123   4.729   2.910   4.794
 3408SOL    HW211124   4.721   2.792   4.681
 3409SOL     OW11125   3.688   6.226   0.632
 3409SOL    HW111126   3.632   6.305   0.607
 3409SOL    HW211127   3.647   6.143   0.595
 3410SOL     OW11128   5.650   6.297   2.729
 3410SOL    HW111129   5.581   6.346   2.675
 3410SOL    HW211130   5.683   6.356   2.802
 3411SOL     OW11131   6.963   3.129   0.202
 3411SOL    HW111132   6.943   3.227   0.198
 3411SOL    HW211133   6.979   3.095   0.109
 3412SOL     OW11134   5.081   3.749   1.114
 3412SOL    HW111135   5.115   3.831   1.161
 3412SOL    HW211136   5.057   3.679   1.181
 3413SOL     OW11137   6.325   2.075   7.006
 3413SOL    HW111138   6.348   2.126   6.923
 3413SOL    HW211139   6.263   2.129   0.038
 3414SOL     OW11140   3.651   1.760   5.374
 3414SOL    HW111141   3.633   1.818   5.294
 3414SOL    HW211142   3.696   1.815   5.445
 3415SOL     OW11143   2.416   2.689   4.098
 3415SOL    HW111144   2.483   2.617   4.116
 3415SOL    HW211145   2.432   2.728   4.007
 3416SOL     OW11146   5.999   0.186   6.719
 3416SOL    HW111147   6.026   0.106   6.773
 3416SOL    HW211148   6.063   0.261   6.736
 3417SOL     OW11149   0.104   6.677   2.593
 3417SOL    HW111150   0.141   6.590   2.560
 3417SOL    HW211151   0.170   6.750   2.575
 3418SOL     OW11152   3.812   6.137   3.806
 3418SOL    HW111153   3.716   6.166   3.811
 3418SOL    HW211154   3.861   6.174   3.885
 3419SOL     OW11155   3.975   5.567   6.020
 3419SOL    HW111156   4.031   5.528   5.947
 3419SOL    HW211157   4.014   5.653   6.051
 3420SOL     OW11158   5.724   3.018   4.514
 3420SOL    HW111159   5.758   2.925   4.497
 3420SOL    HW211160   5.630   3.013   4.549
 3421SOL     OW11161   5.780   1.744   3.105
 3421SOL    HW111162   5.714   1.816   3.084
 3421SOL    HW211163   5.854   1.747   3.039
 3422SOL     OW11164   2.597   0.595   0.641
 3422SOL    HW111165   2.602   0.660   0.565
 3422SOL    HW211166   2.535   0.520   0.617
 3423SOL     OW11167   0.049   4.413   6.157
 3423SOL    HW111168   0.027   4.420   6.254
 3423SOL    HW211169   0.041   4.318   6.127
 3424SOL     OW11170   3.309   0.562   1.246
 3424SOL    HW111171   3.350   0.652   1.258
 3424SOL    HW211172   3.251   0.562   1.165
 3425SOL     OW11173   4.591   4.726   2.167
 3425SOL    HW111174   4.499   4.695   2.192
 3425SOL    HW211175   4.598   4.730   2.067
 3426SOL     OW11176   4.927   3.110   0.105
 3426SOL    HW111177   4.960   3.184   0.164
 3426SOL    HW211178   4.831   3.092   0.126
 3427SOL     OW11179   0.698   2.308   1.694
 3427SOL    HW111180   0.617   2.307   1.634
 3427SOL    HW211181   0.685   2.376   1.766
 3428SOL     OW11182   4.483   4.830   6.483
 3428SOL    HW111183   4.478   4.927   6.509
 3428SOL    HW211184   4.560   4.787   6.530
 3429SOL     OW11185   0.648   1.434   1.179
 3429SOL    HW111186   0.601   1.514   1.143
 3429SOL    HW211187   0.744   1.457   1.196
 3430SOL     OW11188   2.262   5.338   6.042
 3430SOL    HW111189   2.338   5.300   5.989
 3430SOL    HW211190   2.182   5.279   6.032
 3431SOL     OW11191   1.893   6.947   2.038
 3431SOL    HW111192   1.857   6.951   1.945
 3431SOL    HW211193   1.846   7.014   2.095
 3432SOL     OW11194   2.444   4.856   6.301
 3432SOL    HW111195   2.423   4.760   6.285
 3432SOL    HW211196   2.368   4.899   6.351
 3433SOL     OW11197   1.729   1.116   6.033
 3433SOL    HW111198   1.676   1.067   5.965
 3433SOL    HW211199   1.802   1.168   5.988
 3434SOL     OW11200   3.547   1.882   1.789
 3434SOL    HW111201   3.511   1.906   1.879
 3434SOL    HW211202   3.638   1.919   1.779
 3435SOL     OW11203   2.799   1.185   0.317
 3435SOL    HW111204   2.776   1.252   0.387
 3435SOL    HW211205   2.786   1.226   0.226
 3436SOL     OW11206   3.452   5.391   0.135
 3436SOL    HW111207   3.487   5.327   0.204
 3436SOL    HW211208   3.491   5.482   0.152
 3437SOL     OW11209   1.934   6.773   5.939
 3437SOL    HW111210   1.856   6.714   5.917
 3437SOL    HW211211   1.939   6.784   6.039
 3438SOL     OW11212   0.526   4.085   1.183
 3438SOL    HW111213   0.560   3.991   1.177
 3438SOL    HW211214   0.445   4.087   1.241
 3439SOL     OW11215   3.235   5.950   3.668
 3439SOL    HW111216   3.170   5.874   3.666
 3439SOL    HW211217   3.186   6.036   3.656
 3440SOL     OW11218   4.035   3.161   3.326
 3440SOL    HW111219   4.029   3.257   3.301
 3440SOL    HW211220   4.089   3.151   3.410
 3441SOL     OW11221   0.659   6.193   6.682
 3441SOL    HW111222   0.658   6.181   6.781
 3441SOL    HW211223   0.751   6.179   6.647
 3442SOL     OW11224   3.003   3.626   0.742
 3442SOL    HW111225   3.036   3.547   0.690
 3442SOL    HW211226   2.994   3.704   0.681
 3443SOL     OW11227   3.495   5.863   2.116
 3443SOL    HW111228   3.493   5.855   2.215
 3443SOL    HW211229   3.402   5.880   2.082
 3444SOL     OW11230   5.176   4.901   1.552
 3444SOL    HW111231   5.096   4.886   1.493
 3444SOL    HW211232   5.258   4.865   1.507
 3445SOL     OW11233   0.124   5.034   4.192
 3445SOL    HW111234   0.156   5.079   4.276
 3445SOL    HW211235   0.200   5.026   4.128
 3446SOL     OW11236   5.376   0.584   1.305
 3446SOL    HW111237   5.433   0.547   1.232
 3446SOL    HW211238   5.412   0.555   1.394
 3447SOL     OW11239   5.221   0.653   0.189
 3447SOL    HW111240   5.202   0.600   0.272
 3447SOL    HW211241   5.153   0.726   0.181
 3448SOL     OW11242   2.936   6.386   6.373
 3448SOL    HW111243   2.897   6.430   6.292
 3448SOL    HW211244   3.021   6.432   6.398
 3449SOL     OW11245   6.159   5.111   4.825
 3449SOL    HW111246   6.162   5.045   4.900
 3449SOL    HW211247   6.078   5.169   4.836
 3450SOL     OW11248   1.310   1.127   6.592
 3450SOL    HW111249   1.221   1.108   6.550
 3450SOL    HW211250   1.329   1.057   6.661
 3451SOL     OW11251   1.613   5.771   0.515
 3451SOL    HW111252   1.561   5.693   0.549
 3451SOL    HW211253   1.656   5.819   0.592
 3452SOL     OW11254   5.752   0.420   5.783
 3452SOL    HW111255   5.681   0.490   5.785
 3452SOL    HW211256   5.735   0.354   5.857
 3453SOL     OW11257   5.867   5.728   5.927
 3453SOL    HW111258   5.923   5.646   5.942
 3453SOL    HW211259   5.836   5.730   5.832
 3454SOL     OW11260   1.312   3.985   4.464
 3454SOL    HW111261   1.409   3.969   4.481
 3454SOL    HW211262   1.258   3.941   4.536
 3455SOL     OW11263   2.481   1.226   5.162
 3455SOL    HW111264   2.496   1.162   5.086
 3455SOL    HW211265   2.534   1.196   5.241
 3456SOL     OW11266   4.419   4.542   2.041
 3456SOL    HW111267   4.458   4.453   2.017
 3456SOL    HW211268   4.458   4.612   1.982
 3457SOL     OW11269   4.277   5.087   4.579
 3457SOL    HW111270   4.178   5.099   4.588
 3457SOL    HW211271   4.296   4.998   4.538
 3458SOL     OW11272   4.453   1.740   2.052
 3458SOL    HW111273   4.411   1.709   2.138
 3458SOL    HW211274   4.381   1.760   1.985
 3459SOL     OW11275   5.212   1.962   3.506
 3459SOL    HW111276   5.181   2.054   3.482
 3459SOL    HW211277   5.135   1.908   3.538
 3460SOL     OW11278   3.051   1.809   5.704
 3460SOL    HW111279   2.994   1.883   5.739
 3460SOL    HW211280   3.109   1.774   5.778
 3461SOL     OW11281   6.013   4.424   6.759
 3461SOL    HW111282   5.962   4.505   6.788
 3461SOL    HW211283   6.110   4.448   6.748
 3462SOL     OW11284   0.912   3.628   5.492
 3462SOL    HW111285   0.988   3.682   5.526
 3462SOL    HW211286   0.941   3.532   5.482
 3463SOL     OW11287   0.911   4.119   0.865
 3463SOL    HW111288   0.987   4.182   0.880
 3463SOL    HW211289   0.824   4.167   0.878
 3464SOL     OW11290   0.366   4.345   6.462
 3464SOL    HW111291   0.336   4.394   6.380
 3464SOL    HW211292   0.301   4.361   6.536
 3465SOL     OW11293   2.288   1.865   2.079
 3465SOL    HW111294   2.281   1.932   2.152
 3465SOL    HW211295   2.376   1.876   2.032
 3466SOL     OW11296   0.070   5.521   6.442
 3466SOL    HW111297   7.009   5.472   6.459
 3466SOL    HW211298   0.111   5.488   6.357
 3467SOL     OW11299   1.859   1.742   6.907
 3467SOL    HW111300   1.813   1.656   6.882
 3467SOL    HW211301   1.794   1.818   6.899
 3468SOL     OW11302   3.387   5.156   2.787
 3468SOL    HW111303   3.413   5.171   2.691
 3468SOL    HW211304   3.364   5.060   2.800
 3469SOL     OW11305   6.359   1.732   3.950
 3469SOL    HW111306   6.425   1.803   3.923
 3469SOL    HW211307   6.275   1.744   3.897
 3470SOL     OW11308   0.277   5.269   0.996
 3470SOL    HW111309   0.254   5.272   1.094
 3470SOL    HW211310   0.221   5.335   0.947
 3471SOL     OW11311   4.748   5.317   4.858
 3471SOL    HW111312   4.757   5.253   4.933
 3471SOL    HW211313   4.753   5.268   4.771
 3472SOL     OW11314   2.775   0.820   3.634
 3472SOL    HW111315   2.871   0.833   3.610
 3472SOL    HW211316   2.718   0.884   3.583
 3473SOL     OW11317   5.625   1.366   6.083
 3473SOL    HW111318   5.703   1.392   6.141
 3473SOL    HW211319   5.648   1.383   5.987
 3474SOL     OW11320   2.868   4.990   1.540
 3474SOL    HW111321   2.908   5.082   1.534
 3474SOL    HW211322   2.881   4.943   1.452
 3475SOL     OW11323   1.118   6.348   4.254
 3475SOL    HW111324   1.021   6.344   4.277
 3475SOL    HW211325   1.170   6.295   4.321
 3476SOL     OW11326   3.777   0.336   4.410
 3476SOL    HW111327   3.767   0.383   4.497
 3476SOL    HW211328   3.696   0.279   4.393
 3477SOL     OW11329   3.121   5.467   1.525
 3477SOL    HW111330   3.199   5.513   1.568
 3477SOL    HW211331   3.037   5.516   1.547
 3478SOL     OW11332   2.650   6.165   5.926
 3478SOL    HW111333   2.599   6.234   5.978
 3478SOL    HW211334   2.738   6.148   5.970
 3479SOL     OW11335   0.790   6.865   3.020
 3479SOL    HW111336   0.868   6.808   2.993
 3479SOL    HW211337   0.789   6.948   2.964
 3480SOL     OW11338   6.751   1.456   4.037
 3480SOL    HW111339   6.674   1.513   4.009
 3480SOL    HW211340   6.793   1.414   3.956
 3481SOL     OW11341   4.664   6.542   6.740
 3481SOL    HW111342   4.676   6.488   6.657
 3481SOL    HW211343   4.615   6.627   6.718
 3482SOL     OW11344   5.568   1.599   1.061
 3482SOL    HW111345   5.580   1.574   0.965
 3482SOL    HW211346   5.525   1.689   1.067
 3483SOL     OW11347   3.198   0.439   0.645
 3483SOL    HW111348   3.135   0.404   0.576
 3483SOL    HW211349   3.212   0.369   0.715
 3484SOL     OW11350   2.941   3.231   2.698
 3484SOL    HW111351   2.959   3.235   2.600
 3484SOL    HW211352   2.997   3.159   2.740
 3485SOL     OW11353   1.343   0.895   5.044
 3485SOL    HW111354   1.300   0.869   5.130
 3485SOL    HW211355   1.422   0.954   5.063
 3486SOL     OW11356   3.773   1.295   1.970
 3486SOL    HW111357   3.697   1.295   2.035
 3486SOL    HW211358   3.835   1.370   1.992
 3487SOL     OW11359   5.676   1.376   6.559
 3487SOL    HW111360   5.626   1.408   6.639
 3487SOL    HW211361   5.683   1.449   6.492
 3488SOL     OW11362   5.898   3.069   4.321
 3488SOL    HW111363   5.843   3.045   4.401
 3488SOL    HW211364   5.985   3.109   4.351
 3489SOL     OW11365   3.358   6.807   0.380
 3489SOL    HW111366   3.433   6.783   0.319
 3489SOL    HW211367   3.380   6.891   0.429
 3490SOL     OW11368   4.356   4.497   0.158
 3490SOL    HW111369   4.257   4.479   0.160
 3490SOL    HW211370   4.399   4.459   0.239
 3491SOL     OW11371   6.837   2.924   6.157
 3491SOL    HW111372   6.915   2.948   6.099
 3491SOL    HW211373   6.757   2.908   6.099
 3492SOL     OW11374   0.939   5.644   0.543
 3492SOL    HW111375   0.902   5.554   0.523
 3492SOL    HW211376   1.030   5.634   0.582
 3493SOL     OW11377   6.283   5.026   7.010
 3493SOL    HW111378   6.301   5.039   6.913
 3493SOL    HW211379   6.203   5.080   0.013
 3494SOL     OW11380   4.476   6.963   0.558
 3494SOL    HW111381   4.427   0.002   0.500
 3494SOL    HW211382   4.448   6.976   0.653
 3495SOL     OW11383   4.310   4.636   2.758
 3495SOL    HW111384   4.279   4.651   2.664
 3495SOL    HW211385   4.366   4.713   2.787
 3496SOL     OW11386   0.875   3.032   1.252
 3496SOL    HW111387   0.950   3.061   1.312
 3496SOL    HW211388   0.790   3.026   1.304
 3497SOL     OW11389   4.183   0.685   2.805
 3497SOL    HW111390   4.089   0.674   2.837
 3497SOL    HW211391   4.182   0.704   2.706
 3498SOL     OW11392   3.398   1.816   0.885
 3498SOL    HW111393   3.373   1.759   0.807
 3498SOL    HW211394   3.397   1.912   0.858
 3499SOL     OW11395   6.210   3.280   4.940
 3499SOL    HW111396   6.218   3.320   5.031
 3499SOL    HW211397   6.130   3.220   4.937
 3500SOL     OW11398   6.609   4.542   6.471
 3500SOL    HW111399   6.551   4.622   6.455
 3500SOL    HW211400   6.655   4.516   6.386
 3501SOL     OW11401   0.250   5.107   4.735
 3501SOL    HW111402   0.179   5.126   4.803
 3501SOL    HW211403   0.287   5.015   4.750
 3502SOL     OW11404   0.611   2.107   1.919
 3502SOL    HW111405   0.648   2.085   1.828
 3502SOL    HW211406   0.541   2.177   1.911
 3503SOL     OW11407   4.807   5.793   5.308
 3503SOL    HW111408   4.770   5.814   5.218
 3503SOL    HW211409   4.887   5.850   5.325
 3504SOL     OW11410   2.753   2.880   1.254
 3504SOL    HW111411   2.797   2.847   1.170
 3504SOL    HW211412   2.722   2.974   1.240
 3505SOL     OW11413   5.251   5.361   4.907
 3505SOL    HW111414   5.244   5.461   4.914
 3505SOL    HW211415   5.178   5.318   4.960
 3506SOL     OW11416   4.124   5.594   4.750
 3506SOL    HW111417   4.135   5.579   4.848
 3506SOL    HW211418   4.211   5.574   4.704
 3507SOL     OW11419   1.636   0.610   6.792
 3507SOL    HW111420   1.622   0.708   6.779
 3507SOL    HW211421   1.665   0.592   6.886
 3508SOL     OW11422   4.439   2.309   6.296
 3508SOL    HW111423   4.394   2.265   6.373
 3508SOL    HW211424   4.456   2.242   6.224
 3509SOL     OW11425   5.682   5.950   6.696
 3509SOL    HW111426   5.712   5.858   6.668
 3509SOL    HW211427   5.687   5.957   6.796
 3510SOL     OW11428   1.545   2.688   1.952
 3510SOL    HW111429   1.522   2.632   1.872
 3510SOL    HW211430   1.528   2.635   2.036
 3511SOL     OW11431   1.370   3.482   6.614
 3511SOL    HW111432   1.415   3.393   6.614
 3511SOL    HW211433   1.410   3.539   6.542
 3512SOL     OW11434   1.012   4.444   0.390
 3512SOL    HW111435   1.058   4.388   0.322
 3512SOL    HW211436   1.073   4.462   0.467
 3513SOL     OW11437   6.107   4.607   0.633
 3513SOL    HW111438   6.064   4.656   0.709
 3513SOL    HW211439   6.121   4.670   0.556
 3514SOL     OW11440   0.430   0.331   1.640
 3514SOL    HW111441   0.366   0.280   1.698
 3514SOL    HW211442   0.435   0.426   1.672
 3515SOL     OW11443   3.294   6.161   2.601
 3515SOL    HW111444   3.295   6.260   2.589
 3515SOL    HW211445   3.209   6.134   2.648
 3516SOL     OW11446   3.631   0.676   0.875
 3516SOL    HW111447   3.544   0.691   0.922
 3516SOL    HW211448   3.618   0.690   0.777
 3517SOL     OW11449   0.761   1.346   0.300
 3517SOL    HW111450   0.707   1.275   0.255
 3517SOL    HW211451   0.853   1.310   0.318
 3518SOL     OW11452   5.049   3.895   5.783
 3518SOL    HW111453   5.104   3.979   5.784
 3518SOL    HW211454   4.953   3.919   5.795
 3519SOL     OW11455   1.150   0.616   6.677
 3519SOL    HW111456   1.083   0.546   6.653
 3519SOL    HW211457   1.233   0.572   6.710
 3520SOL     OW11458   3.750   4.715   1.384
 3520SOL    HW111459   3.699   4.788   1.339
 3520SOL    HW211460   3.809   4.755   1.454
 3521SOL     OW11461   5.591   3.002   1.101
 3521SOL    HW111462   5.620   3.050   1.018
 3521SOL    HW211463   5.672   2.967   1.149
 3522SOL     OW11464   3.183   5.255   2.029
 3522SOL    HW111465   3.137   5.313   1.962
 3522SOL    HW211466   3.281   5.250   2.006
 3523SOL     OW11467   3.209   4.662   5.338
 3523SOL    HW111468   3.130   4.609   5.307
 3523SOL    HW211469   3.181   4.756   5.358
 3524SOL     OW11470   2.785   1.014   1.033
 3524SOL    HW111471   2.740   1.069   1.103
 3524SOL    HW211472   2.809   1.073   0.955
 3525SOL     OW11473   0.693   3.173   1.943
 3525SOL    HW111474   0.697   3.075   1.964
 3525SOL    HW211475   0.758   3.194   1.870
 3526SOL     OW11476   1.571   0.577   4.159
 3526SOL    HW111477   1.474   0.557   4.145
 3526SOL    HW211478   1.590   0.671   4.130
 3527SOL     OW11479   4.983   2.722   5.845
 3527SOL    HW111480   5.035   2.722   5.931
 3527SOL    HW211481   5.043   2.750   5.770
 3528SOL     OW11482   0.724   6.313   3.409
 3528SOL    HW111483   0.722   6.355   3.500
 3528SOL    HW211484   0.795   6.356   3.354
 3529SOL     OW11485   4.173   6.605   5.690
 3529SOL    HW111486   4.142   6.520   5.733
 3529SOL    HW211487   4.163   6.596   5.590
 3530SOL     OW11488   2.487   5.945   2.978
 3530SOL    HW111489   2.408   5.966   3.034
 3530SOL    HW211490   2.530   5.861   3.010
 3531SOL     OW11491   5.849   3.857   0.197
 3531SOL    HW111492   5.941   3.894   0.182
 3531SOL    HW211493   5.789   3.929   0.229
 3532SOL     OW11494   2.643   0.708   7.011
 3532SOL    HW111495   2.645   0.719   0.085
 3532SOL    HW211496   2.589   0.627   6.987
 3533SOL     OW11497   1.220   2.002   3.516
 3533SOL    HW111498   1.212   2.055   3.600
 3533SOL    HW211499   1.205   2.061   3.437
 3534SOL     OW11500   5.887   1.759   5.531
 3534SOL    HW111501   5.807   1.735   5.587
 3534SOL    HW211502   5.857   1.776   5.438
 3535SOL     OW11503   6.872   6.171   0.025
 3535SOL    HW111504   6.967   6.188   7.024
 3535SOL    HW211505   6.811   6.219   6.987
 3536SOL     OW11506   1.696   3.552   3.262
 3536SOL    HW111507   1.672   3.458   3.238
 3536SOL    HW211508   1.641   3.582   3.340
 3537SOL     OW11509   2.362   4.794   0.894
 3537SOL    HW111510   2.354   4.885   0.935
 3537SOL    HW211511   2.449   4.788   0.845
 3538SOL     OW11512   3.564   0.924   4.032
 3538SOL    HW111513   3.611   0.955   4.115
 3538SOL    HW211514   3.512   1.000   3.993
 3539SOL     OW11515   6.193   3.320   5.648
 3539SOL    HW111516   6.219   3.416   5.633
 3539SOL    HW211517   6.275   3.263   5.644
 3540SOL     OW11518   2.245   3.368   6.839
 3540SOL    HW111519   2.162   3.366   6.784
 3540SOL    HW211520   2.282   3.275   6.847
 3541SOL     OW11521   2.634   2.733   0.497
 3541SOL    HW111522   2.606   2.797   0.569
 3541SOL    HW211523   2.704   2.777   0.441
 3542SOL     OW11524   5.536   2.313   0.211
 3542SOL    HW111525   5.557   2.410   0.193
 3542SOL    HW211526   5.441   2.295   0.185
 3543SOL     OW11527   1.161   3.425   3.128
 3543SOL    HW111528   1.146   3.510   3.179
 3543SOL    HW211529   1.211   3.444   3.044
 3544SOL     OW11530   3.077   4.494   0.029
 3544SOL    HW111531   2.999   4.432   0.039
 3544SOL    HW211532   3.141   4.456   6.986
 3545SOL     OW11533   3.799   5.302   0.413
 3545SOL    HW111534   3.813   5.263   0.504
 3545SOL    HW211535   3.884   5.293   0.360
 3546SOL     OW11536   6.410   4.258   3.307
 3546SOL    HW111537   6.331   4.239   3.249
 3546SOL    HW211538   6.447   4.348   3.284
 3547SOL     OW11539   6.801   3.263   4.446
 3547SOL    HW111540   6.726   3.215   4.402
 3547SOL    HW211541   6.764   3.335   4.505
 3548SOL     OW11542   4.971   1.046   5.852
 3548SOL    HW111543   5.022   1.085   5.776
 3548SOL    HW211544   4.940   1.120   5.912
 3549SOL     OW11545   2.163   5.221   6.558
 3549SOL    HW111546   2.262   5.208   6.553
 3549SOL    HW211547   2.142   5.319   6.558
 3550SOL     OW11548   5.590   2.524   5.283
 3550SOL    HW111549   5.572   2.569   5.195
 3550SOL    HW211550   5.546   2.435   5.285
 3551SOL     OW11551   3.349   1.791   5.061
 3551SOL    HW111552   3.286   1.752   5.129
 3551SOL    HW211553   3.363   1.888   5.081
 3552SOL     OW11554   6.547   5.592   1.966
 3552SOL    HW111555   6.532   5.495   1.952
 3552SOL    HW211556   6.505   5.620   2.053
 3553SOL     OW11557   3.171   5.937   6.166
 3553SOL    HW111558   3.152   5.854   6.114
 3553SOL    HW211559   3.086   5.975   6.201
 3554SOL     OW11560   3.778   3.911   0.942
 3554SOL    HW111561   3.866   3.949   0.969
 3554SOL    HW211562   3.782   3.811   0.947
 3555SOL     OW11563   2.080   2.415   4.390
 3555SOL    HW111564   2.042   2.508   4.388
 3555SOL    HW211565   2.161   2.411   4.330
 3556SOL     OW11566   3.949   0.907   4.777
 3556SOL    HW111567   3.984   0.999   4.763
 3556SOL    HW211568   4.002   0.842   4.722
 3557SOL     OW11569   0.594   0.177   2.740
 3557SOL    HW111570   0.525   0.120   2.785
 3557SOL    HW211571   0.561   0.271   2.736
 3558SOL     OW11572   2.561   5.898   0.667
 3558SOL    HW111573   2.589   5.971   0.729
 3558SOL    HW211574   2.462   5.883   0.676
 3559SOL     OW11575   2.723   0.185   4.914
 3559SOL    HW111576   2.673   0.221   4.993
 3559SOL    HW211577   2.677   0.104   4.879
 3560SOL     OW11578   1.546   4.877   4.081
 3560SOL    HW111579   1.538   4.905   4.177
 3560SOL    HW211580   1.596   4.791   4.075
 3561SOL     OW11581   5.714   4.623   5.610
 3561SOL    HW111582   5.702   4.524   5.617
 3561SOL    HW211583   5.662   4.668   5.683
 3562SOL     OW11584   3.416   1.436   3.993
 3562SOL    HW111585   3.347   1.364   4.003
 3562SOL    HW211586   3.498   1.412   4.045
 3563SOL     OW11587   5.938   2.103   6.233
 3563SOL    HW111588   6.037   2.117   6.236
 3563SOL    HW211589   5.903   2.132   6.144
 3564SOL     OW11590   0.469   4.729   2.605
 3564SOL    HW111591   0.538   4.798   2.629
 3564SOL    HW211592   0.383   4.751   2.652
 3565SOL     OW11593   3.655   5.043   2.734
 3565SOL    HW111594   3.723   5.075   2.668
 3565SOL    HW211595   3.690   4.964   2.783
 3566SOL     OW11596   6.764   1.134   5.485
 3566SOL    HW111597   6.698   1.195   5.529
 3566SOL    HW211598   6.720   1.087   5.408
 3567SOL     OW11599   0.499   2.895   6.278
 3567SOL    HW111600   0.517   2.991   6.254
 3567SOL    HW211601   0.484   2.842   6.195
 3568SOL     OW11602   6.768   4.091   5.844
 3568SOL    HW111603   6.747   4.093   5.746
 3568SOL    HW211604   6.751   4.000   5.880
 3569SOL     OW11605   2.152   1.984   5.306
 3569SOL    HW111606   2.116   2.043   5.234
 3569SOL    HW211607   2.176   1.895   5.268
 3570SOL     OW11608   4.861   0.353   6.026
 3570SOL    HW111609   4.833   0.261   5.997
 3570SOL    HW211610   4.853   0.361   6.125
 3571SOL     OW11611   0.281   5.496   0.083
 3571SOL    HW111612   0.185   5.497   0.056
 3571SOL    HW211613   0.291   5.445   0.169
 3572SOL     OW11614   5.670   3.857   3.958
 3572SOL    HW111615   5.702   3.809   3.877
 3572SOL    HW211616   5.655   3.792   4.032
 3573SOL     OW11617   0.577   4.452   4.219
 3573SOL    HW111618   0.643   4.474   4.291
 3573SOL    HW211619   0.524   4.371   4.246
 3574SOL     OW11620   0.527   4.865   7.020
 3574SOL    HW111621   0.603   4.892   6.960
 3574SOL    HW211622   0.534   4.768   0.016
 3575SOL     OW11623   5.320   4.935   3.509
 3575SOL    HW111624   5.309   4.987   3.424
 3575SOL    HW211625   5.371   4.989   3.575
 3576SOL     OW11626   1.862   1.856   5.853
 3576SOL    HW111627   1.917   1.923   5.803
 3576SOL    HW211628   1.769   1.853   5.816
 3577SOL     OW11629   1.643   2.427   6.713
 3577SOL    HW111630   1.739   2.455   6.713
 3577SOL    HW211631   1.638   2.327   6.715
 3578SOL     OW11632   3.479   3.439   6.919
 3578SOL    HW111633   3.558   3.491   6.953
 3578SOL    HW211634   3.511   3.362   6.864
 3579SOL     OW11635   0.216   3.727   4.501
 3579SOL    HW111636   0.167   3.639   4.499
 3579SOL    HW211637   0.309   3.713   4.467
 3580SOL     OW11638   6.054   1.818   1.511
 3580SOL    HW111639   5.958   1.803   1.534
 3580SOL    HW211640   6.112   1.757   1.565
 3581SOL     OW11641   6.401   0.769   3.796
 3581SOL    HW111642   6.458   0.687   3.787
 3581SOL    HW211643   6.318   0.746   3.848
 3582SOL     OW11644   0.735   2.658   6.140
 3582SOL    HW111645   0.826   2.637   6.177
 3582SOL    HW211646   0.667   2.651   6.213
 3583SOL     OW11647   0.764   4.123   6.632
 3583SOL    HW111648   0.730   4.079   6.548
 3583SOL    HW211649   0.774   4.054   6.704
 3584SOL     OW11650   6.076   6.189   6.500
 3584SOL    HW111651   6.013   6.161   6.428
 3584SOL    HW211652   6.151   6.241   6.459
 3585SOL     OW11653   3.550   5.359   5.333
 3585SOL    HW111654   3.528   5.281   5.391
 3585SOL    HW211655   3.551   5.443   5.388
 3586SOL     OW11656   6.707   2.304   5.402
 3586SOL    HW111657   6.608   2.310   5.413
 3586SOL    HW211658   6.744   2.394   5.379
 3587SOL     OW11659   2.576   5.554   0.245
 3587SOL    HW111660   2.674   5.544   0.261
 3587SOL    HW211661   2.558   5.547   0.146
 3588SOL     OW11662   0.889   3.013   5.650
 3588SOL    HW111663   0.872   2.916   5.670
 3588SOL    HW211664   0.947   3.021   5.570
 3589SOL     OW11665   3.865   1.065   3.917
 3589SOL    HW111666   3.832   1.079   4.011
 3589SOL    HW211667   3.964   1.052   3.918
 3590SOL     OW11668   6.967   4.380   6.429
 3590SOL    HW111669   6.961   4.301   6.490
 3590SOL    HW211670   6.883   4.387   6.375
 3591SOL     OW11671   4.894   3.498   6.747
 3591SOL    HW111672   4.880   3.596   6.732
 3591SOL    HW211673   4.944   3.460   6.669
 3592SOL     OW11674   5.515   3.755   3.318
 3592SOL    HW111675   5.563   3.826   3.369
 3592SOL    HW211676   5.456   3.704   3.381
 3593SOL     OW11677   2.359   6.420   4.457
 3593SOL    HW111678   2.312   6.390   4.540
 3593SOL    HW211679   2.444   6.368   4.446
 3594SOL     OW11680   3.949   0.757   2.452
 3594SOL    HW111681   3.898   0.832   2.493
 3594SOL    HW211682   4.045   0.762   2.480
 3595SOL     OW11683   1.844   6.183   6.536
 3595SOL    HW111684   1.901   6.138   6.605
 3595SOL    HW211685   1.798   6.114   6.480
 3596SOL     OW11686   6.920   2.068   3.093
 3596SOL    HW111687   6.834   2.018   3.078
 3596SOL    HW211688   6.931   2.137   3.022
 3597SOL     OW11689   2.784   6.725   5.131
 3597SOL    HW111690   2.854   6.704   5.063
 3597SOL    HW211691   2.824   6.723   5.223
 3598SOL     OW11692   1.383   0.277   5.743
 3598SOL    HW111693   1.302   0.218   5.742
 3598SOL    HW211694   1.460   0.228   5.784
 3599SOL     OW11695   0.764   2.065   5.472
 3599SOL    HW111696   0.742   2.104   5.383
 3599SOL    HW211697   0.837   2.118   5.515
 3600SOL     OW11698   0.239   3.449   1.165
 3600SOL    HW111699   0.252   3.367   1.221
 3600SOL    HW211700   0.167   3.431   1.097
 3601SOL     OW11701   6.457   3.936   0.424
 3601SOL    HW111702   6.464   4.035   0.406
 3601SOL    HW211703   6.522   3.910   0.495
 3602SOL     OW11704   1.967   1.350   1.180
 3602SOL    HW111705   1.974   1.275   1.246
 3602SOL    HW211706   2.001   1.434   1.224
 3603SOL     OW11707   3.367   6.569   3.751
 3603SOL    HW111708   3.450   6.600   3.705
 3603SOL    HW211709   3.309   6.648   3.770
 3604SOL     OW11710   6.453   4.683   3.811
 3604SOL    HW111711   6.530   4.714   3.866
 3604SOL    HW211712   6.429   4.589   3.837
 3605SOL     OW11713   6.236   4.652   5.912
 3605SOL    HW111714   6.164   4.640   5.844
 3605SOL    HW211715   6.264   4.748   5.914
 3606SOL     OW11716   6.565   5.084   5.554
 3606SOL    HW111717   6.664   5.077   5.568
 3606SOL    HW211718   6.533   5.174   5.584
 3607SOL     OW11719   5.339   6.484   0.686
 3607SOL    HW111720   5.356   6.541   0.766
 3607SOL    HW211721   5.258   6.427   0.702
 3608SOL     OW11722   6.930   1.861   1.839
 3608SOL    HW111723   6.924   1.803   1.757
 3608SOL    HW211724   6.908   1.806   1.920
 3609SOL     OW11725   0.243   0.569   4.104
 3609SOL    HW111726   0.273   0.565   4.009
 3609SOL    HW211727   0.187   0.650   4.118
 3610SOL     OW11728   0.648   0.267   5.668
 3610SOL    HW111729   0.660   0.336   5.739
 3610SOL    HW211730   0.675   0.304   5.579
 3611SOL     OW11731   3.769   5.125   5.398
 3611SOL    HW111732   3.756   5.118   5.497
 3611SOL    HW211733   3.777   5.033   5.359
 3612SOL     OW11734   6.339   0.208   5.715
 3612SOL    HW111735   6.255   0.153   5.714
 3612SOL    HW211736   6.413   0.156   5.674
 3613SOL     OW11737   5.562   5.250   1.368
 3613SOL    HW111738   5.538   5.347   1.366
 3613SOL    HW211739   5.628   5.234   1.442
 3614SOL     OW11740   3.459   3.365   3.641
 3614SOL    HW111741   3.381   3.382   3.581
 3614SOL    HW211742   3.542   3.397   3.597
 3615SOL     OW11743   5.854   6.389   6.026
 3615SOL    HW111744   5.872   6.442   6.110
 3615SOL    HW211745   5.756   6.382   6.012
 3616SOL     OW11746   6.819   1.748   6.352
 3616SOL    HW111747   6.836   1.710   6.443
 3616SOL    HW211748   6.798   1.846   6.359
 3617SOL     OW11749   5.512   1.197   6.686
 3617SOL    HW111750   5.439   1.144   6.643
 3617SOL    HW211751   5.558   1.252   6.616
 3618SOL     OW11752   1.912   2.204   5.481
 3618SOL    HW111753   1.891   2.264   5.403
 3618SOL    HW211754   1.912   2.109   5.450
 3619SOL     OW11755   5.983   2.426   3.846
 3619SOL    HW111756   5.929   2.353   3.887
 3619SOL    HW211757   5.923   2.494   3.804
 3620SOL     OW11758   5.992   5.500   5.731
 3620SOL    HW111759   6.018   5.407   5.756
 3620SOL    HW211760   6.067   5.543   5.680
 3621SOL     OW11761   2.882   1.972   5.849
 3621SOL    HW111762   2.893   2.071   5.859
 3621SOL    HW211763   2.809   1.953   5.784
 3622SOL     OW11764   2.598   1.952   3.107
 3622SOL    HW111765   2.624   1.986   3.197
 3622SOL    HW211766   2.678   1.913   3.062
 3623SOL     OW11767   5.722   6.067   3.912
 3623SOL    HW111768   5.777   5.995   3.955
 3623SOL    HW211769   5.778   6.114   3.843
 3624SOL     OW11770   2.080   0.243   2.497
 3624SOL    HW111771   2.028   0.157   2.501
 3624SOL    HW211772   2.021   0.319   2.524
 3625SOL     OW11773   5.826   3.077   6.782
 3625SOL    HW111774   5.838   3.165   6.736
 3625SOL    HW211775   5.891   3.071   6.858
 3626SOL     OW11776   1.726   3.690   5.410
 3626SOL    HW111777   1.784   3.716   5.333
 3626SOL    HW211778   1.767   3.614   5.459
 3627SOL     OW11779   3.748   2.919   3.685
 3627SOL    HW111780   3.754   2.963   3.595
 3627SOL    HW211781   3.782   2.825   3.678
 3628SOL     OW11782   2.089   6.701   1.412
 3628SOL    HW111783   2.051   6.793   1.400
 3628SOL    HW211784   2.178   6.708   1.457
 3629SOL     OW11785   6.525   1.966   3.861
 3629SOL    HW111786   6.433   2.005   3.864
 3629SOL    HW211787   6.549   1.942   3.767
 3630SOL     OW11788   5.499   3.078   3.283
 3630SOL    HW111789   5.424   3.012   3.275
 3630SOL    HW211790   5.582   3.031   3.315
 3631SOL     OW11791   1.971   6.822   4.056
 3631SOL    HW111792   1.873   6.830   4.074
 3631SOL    HW211793   2.018   6.792   4.139
 3632SOL     OW11794   5.331   0.480   0.616
 3632SOL    HW111795   5.410   0.530   0.579
 3632SOL    HW211796   5.363   0.402   0.670
 3633SOL     OW11797   3.351   1.288   5.851
 3633SOL    HW111798   3.345   1.381   5.814
 3633SOL    HW211799   3.410   1.288   5.932
 3634SOL     OW11800   0.185   5.058   5.559
 3634SOL    HW111801   0.174   4.961   5.537
 3634SOL    HW211802   0.259   5.096   5.504
 3635SOL     OW11803   2.535   0.137   6.198
 3635SOL    HW111804   2.629   0.118   6.226
 3635SOL    HW211805   2.517   0.235   6.209
 3636SOL     OW11806   1.046   5.689   6.503
 3636SOL    HW111807   1.006   5.659   6.590
 3636SOL    HW211808   0.973   5.698   6.435
 3637SOL     OW11809   6.447   2.271   1.435
 3637SOL    HW111810   6.489   2.354   1.398
 3637SOL    HW211811   6.383   2.295   1.507
 3638SOL     OW11812   0.197   4.484   4.228
 3638SOL    HW111813   0.144   4.541   4.165
 3638SOL    HW211814   0.177   4.387   4.212
 3639SOL     OW11815   3.882   3.636   0.686
 3639SOL    HW111816   3.922   3.558   0.638
 3639SOL    HW211817   3.871   3.614   0.783
 3640SOL     OW11818   3.784   0.018   6.712
 3640SOL    HW111819   3.795   0.095   6.776
 3640SOL    HW211820   3.693   7.003   6.725
 3641SOL     OW11821   4.723   2.886   4.148
 3641SOL    HW111822   4.737   2.864   4.244
 3641SOL    HW211823   4.661   2.819   4.107
 3642SOL     OW11824   5.086   0.900   0.170
 3642SOL    HW111825   5.024   0.959   0.222
 3642SOL    HW211826   5.145   0.956   0.113
 3643SOL     OW11827   2.958   5.661   4.806
 3643SOL    HW111828   2.988   5.609   4.886
 3643SOL    HW211829   2.982   5.611   4.723
 3644SOL     OW11830   6.928   1.254   1.588
 3644SOL    HW111831   6.986   1.189   1.539
 3644SOL    HW211832   6.977   1.340   1.600
 3645SOL     OW11833   6.591   1.584   3.662
 3645SOL    HW111834   6.551   1.675   3.651
 3645SOL    HW211835   6.560   1.544   3.749
 3646SOL     OW11836   6.711   4.365   6.654
 3646SOL    HW111837   6.680   4.276   6.620
 3646SOL    HW211838   6.675   4.437   6.595
 3647SOL     OW11839   2.235   3.528   0.317
 3647SOL    HW111840   2.209   3.503   0.223
 3647SOL    HW211841   2.232   3.627   0.326
 3648SOL     OW11842   3.143   5.244   3.189
 3648SOL    HW111843   3.192   5.240   3.102
 3648SOL    HW211844   3.206   5.266   3.263
 3649SOL     OW11845   4.741   3.043   1.652
 3649SOL    HW111846   4.688   3.050   1.736
 3649SOL    HW211847   4.680   3.054   1.573
 3650SOL     OW11848   6.938   4.882   0.209
 3650SOL    HW111849   6.991   4.908   0.129
 3650SOL    HW211850   6.903   4.789   0.198
 3651SOL     OW11851   0.436   6.269   3.440
 3651SOL    HW111852   0.401   6.238   3.528
 3651SOL    HW211853   0.536   6.259   3.438
 3652SOL     OW11854   5.862   6.282   3.041
 3652SOL    HW111855   5.921   6.249   2.967
 3652SOL    HW211856   5.874   6.381   3.052
 3653SOL     OW11857   0.235   0.761   3.624
 3653SOL    HW111858   0.182   0.787   3.705
 3653SOL    HW211859   0.192   0.800   3.542
 3654SOL     OW11860   2.181   6.260   0.465
 3654SOL    HW111861   2.093   6.297   0.494
 3654SOL    HW211862   2.166   6.184   0.401
 3655SOL     OW11863   1.453   0.069   3.426
 3655SOL    HW111864   1.446   0.137   3.499
 3655SOL    HW211865   1.488   7.008   3.464
 3656SOL     OW11866   1.280   3.462   2.042
 3656SOL    HW111867   1.235   3.495   2.125
 3656SOL    HW211868   1.220   3.478   1.963
 3657SOL     OW11869   5.529   5.845   6.423
 3657SOL    HW111870   5.532   5.820   6.326
 3657SOL    HW211871   5.436   5.834   6.457
 3658SOL     OW11872   1.587   5.933   3.892
 3658SOL    HW111873   1.622   5.994   3.963
 3658SOL    HW211874   1.606   5.971   3.802
 3659SOL     OW11875   2.305   3.324   6.068
 3659SOL    HW111876   2.289   3.415   6.028
 3659SOL    HW211877   2.380   3.329   6.133
 3660SOL     OW11878   4.785   0.044   2.943
 3660SOL    HW111879   4.761   7.007   3.019
 3660SOL    HW211880   4.802   0.136   2.979
 3661SOL     OW11881   4.869   1.723   5.611
 3661SOL    HW111882   4.889   1.653   5.543
 3661SOL    HW211883   4.850   1.679   5.699
 3662SOL     OW11884   4.485   0.759   3.329
 3662SOL    HW111885   4.414   0.828   3.313
 3662SOL    HW211886   4.443   0.668   3.330
 3663SOL     OW11887   2.144   1.941   0.618
 3663SOL    HW111888   2.231   1.948   0.668
 3663SOL    HW211889   2.143   2.009   0.544
 3664SOL     OW11890   4.423   2.108   1.260
 3664SOL    HW111891   4.499   2.169   1.240
 3664SOL    HW211892   4.425   2.084   1.357
 3665SOL     OW11893   1.380   6.166   5.676
 3665SOL    HW111894   1.345   6.075   5.695
 3665SOL    HW211895   1.327   6.234   5.728
 3666SOL     OW11896   2.171   3.987   3.055
 3666SOL    HW111897   2.100   4.032   3.108
 3666SOL    HW211898   2.225   4.055   3.005
 3667SOL     OW11899   6.923   0.807   0.767
 3667SOL    HW111900   6.909   0.903   0.746
 3667SOL    HW211901   6.963   0.797   0.858
 3668SOL     OW11902   1.599   0.826   2.281
 3668SOL    HW111903   1.670   0.793   2.219
 3668SOL    HW211904   1.592   0.926   2.272
 3669SOL     OW11905   6.123   1.159   3.801
 3669SOL    HW111906   6.023   1.157   3.793
 3669SOL    HW211907   6.154   1.077   3.848
 3670SOL     OW11908   2.332   4.231   0.402
 3670SOL    HW111909   2.243   4.227   0.447
 3670SOL    HW211910   2.405   4.226   0.471
 3671SOL     OW11911   6.361   0.376   3.869
 3671SOL    HW111912   6.365   0.327   3.782
 3671SOL    HW211913   6.270   0.366   3.910
 3672SOL     OW11914   5.424   2.331   1.624
 3672SOL    HW111915   5.333   2.293   1.641
 3672SOL    HW211916   5.441   2.407   1.687
 3673SOL     OW11917   3.640   7.012   6.173
 3673SOL    HW111918   3.644   6.942   6.243
 3673SOL    HW211919   3.664   6.973   6.084
 3674SOL     OW11920   0.198   6.933   5.149
 3674SOL    HW111921   0.253   7.016   5.154
 3674SOL    HW211922   0.120   6.941   5.211
 3675SOL     OW11923   1.504   3.251   5.006
 3675SOL    HW111924   1.451   3.254   5.090
 3675SOL    HW211925   1.545   3.340   4.988
 3676SOL     OW11926   4.909   4.492   4.630
 3676SOL    HW111927   4.861   4.514   4.715
 3676SOL    HW211928   4.985   4.431   4.649
 3677SOL     OW11929   1.573   6.498   3.399
 3677SOL    HW111930   1.666   6.477   3.369
 3677SOL    HW211931   1.572   6.508   3.498
 3678SOL     OW11932   1.029   3.694   4.251
 3678SOL    HW111933   0.944   3.737   4.222
 3678SOL    HW211934   1.106   3.737   4.203
 3679SOL     OW11935   1.903   0.141   3.424
 3679SOL    HW111936   2.002   0.142   3.429
 3679SOL    HW211937   1.874   0.139   3.328
 3680SOL     OW11938   5.670   2.220   3.106
 3680SOL    HW111939   5.623   2.297   3.065
 3680SOL    HW211940   5.768   2.230   3.094
 3681SOL     OW11941   0.844   0.725   5.098
 3681SOL    HW111942   0.817   0.819   5.118
 3681SOL    HW211943   0.939   0.710   5.126
 3682SOL     OW11944   5.129   2.266   6.904
 3682SOL    HW111945   5.155   2.171   6.921
 3682SOL    HW211946   5.035   2.280   6.934
 3683SOL     OW11947   6.782   6.538   3.295
 3683SOL    HW111948   6.804   6.540   3.197
 3683SOL    HW211949   6.723   6.616   3.317
 3684SOL     OW11950   1.487   4.050   6.952
 3684SOL    HW111951   1.563   4.106   6.918
 3684SOL    HW211952   1.512   4.011   0.016
 3685SOL     OW11953   6.873   6.625   6.368
 3685SOL    HW111954   6.777   6.626   6.340
 3685SOL    HW211955   6.884   6.679   6.452
 3686SOL     OW11956   6.403   6.095   3.320
 3686SOL    HW111957   6.436   6.103   3.414
 3686SOL    HW211958   6.358   6.180   3.293
 3687SOL     OW11959   3.832   6.061   5.598
 3687SOL    HW111960   3.906   6.000   5.569
 3687SOL    HW211961   3.757   6.057   5.532
 3688SOL     OW11962   0.275   3.271   6.207
 3688SOL    HW111963   0.283   3.224   6.295
 3688SOL    HW211964   0.329   3.222   6.138
 3689SOL     OW11965   1.930   0.712   6.894
 3689SOL    HW111966   1.925   0.641   6.964
 3689SOL    HW211967   1.838   0.744   6.872
 3690SOL     OW11968   4.458   6.769   6.645
 3690SOL    HW111969   4.528   6.838   6.633
 3690SOL    HW211970   4.372   6.813   6.674
 3691SOL     OW11971   2.869   2.315   0.105
 3691SOL    HW111972   2.787   2.257   0.113
 3691SOL    HW211973   2.842   2.409   0.084
 3692SOL     OW11974   0.594   5.876   5.081
 3692SOL    HW111975   0.534   5.826   5.143
 3692SOL    HW211976   0.630   5.813   5.011
 3693SOL     OW11977   2.289   2.861   2.595
 3693SOL    HW111978   2.324   2.771   2.619
 3693SOL    HW211979   2.225   2.852   2.518
 3694SOL     OW11980   1.699   5.317   2.666
 3694SOL    HW111981   1.697   5.322   2.765
 3694SOL    HW211982   1.652   5.234   2.635
 3695SOL     OW11983   6.200   2.749   2.374
 3695SOL    HW111984   6.268   2.724   2.305
 3695SOL    HW211985   6.195   2.676   2.443
 3696SOL     OW11986   2.921   6.133   5.278
 3696SOL    HW111987   2.857   6.057   5.267
 3696SOL    HW211988   2.951   6.165   5.188
 3697SOL     OW11989   0.304   6.221   3.676
 3697SOL    HW111990   0.306   6.318   3.700
 3697SOL    HW211991   0.291   6.167   3.759
 3698SOL     OW11992   2.624   6.946   5.103
 3698SOL    HW111993   2.643   6.963   5.200
 3698SOL    HW211994   2.651   6.853   5.080
 3699SOL     OW11995   0.191   3.149   3.205
 3699SOL    HW111996   0.101   3.191   3.196
 3699SOL    HW211997   0.183   3.050   3.191
 3700SOL     OW11998   6.920   0.283   4.406
 3700SOL    HW111999   6.845   0.298   4.471
 3700SOL    HW212000   6.989   0.224   4.448
 3701SOL     OW12001   0.901   0.569   3.697
 3701SOL    HW112002   0.997   0.551   3.718
 3701SOL    HW212003   0.843   0.509   3.753
 3702SOL     OW12004   5.385   6.368   2.370
 3702SOL    HW112005   5.373   6.391   2.466
 3702SOL    HW212006   5.327   6.428   2.314
 3703SOL     OW12007   4.291   2.019   6.325
 3703SOL    HW112008   4.385   2.024   6.361
 3703SOL    HW212009   4.235   2.088   6.369
 3704SOL     OW12010   3.567   1.135   0.836
 3704SOL    HW112011   3.660   1.171   0.847
 3704SOL    HW212012   3.503   1.210   0.826
 3705SOL     OW12013   5.100   5.483   3.745
 3705SOL    HW112014   5.032   5.476   3.672
 3705SOL    HW212015   5.082   5.565   3.799
 3706SOL     OW12016   1.502   3.617   5.281
 3706SOL    HW112017   1.426   3.678   5.304
 3706SOL    HW212018   1.581   3.639   5.337
 3707SOL     OW12019   6.003   3.877   5.546
 3707SOL    HW112020   5.930   3.942   5.569
 3707SOL    HW212021   5.972   3.819   5.471
 3708SOL     OW12022   6.348   0.627   5.911
 3708SOL    HW112023   6.396   0.710   5.941
 3708SOL    HW212024   6.342   0.562   5.986
 3709SOL     OW12025   3.797   0.604   0.567
 3709SOL    HW112026   3.793   0.513   0.608
 3709SOL    HW212027   3.708   0.648   0.573
 3710SOL     OW12028   0.184   5.906   0.241
 3710SOL    HW112029   0.170   6.004   0.255
 3710SOL    HW212030   0.098   5.863   0.217
 3711SOL     OW12031   6.822   6.478   2.166
 3711SOL    HW112032   6.767   6.556   2.197
 3711SOL    HW212033   6.910   6.478   2.214
 3712SOL     OW12034   6.907   6.537   6.993
 3712SOL    HW112035   6.938   6.503   6.904
 3712SOL    HW212036   6.812   6.509   7.008
 3713SOL     OW12037   1.859   6.367   4.577
 3713SOL    HW112038   1.831   6.288   4.632
 3713SOL    HW212039   1.829   6.354   4.482
 3714SOL     OW12040   4.691   5.188   5.361
 3714SOL    HW112041   4.725   5.267   5.412
 3714SOL    HW212042   4.619   5.217   5.298
 3715SOL     OW12043   6.027   3.861   3.193
 3715SOL    HW112044   6.049   3.828   3.284
 3715SOL    HW212045   6.044   3.788   3.126
 3716SOL     OW12046   5.976   6.128   5.108
 3716SOL    HW112047   6.058   6.172   5.071
 3716SOL    HW212048   6.002   6.047   5.160
 3717SOL     OW12049   5.807   5.506   6.151
 3717SOL    HW112050   5.885   5.564   6.125
 3717SOL    HW212051   5.722   5.557   6.135
 3718SOL     OW12052   1.962   0.463   6.631
 3718SOL    HW112053   1.893   0.403   6.671
 3718SOL    HW212054   2.012   0.413   6.560
 3719SOL     OW12055   5.370   4.511   0.749
 3719SOL    HW112056   5.468   4.524   0.733
 3719SOL    HW212057   5.319   4.541   0.669
 3720SOL     OW12058   6.519   2.062   5.468
 3720SOL    HW112059   6.493   2.084   5.374
 3720SOL    HW212060   6.520   2.145   5.524
 3721SOL     OW12061   5.401   4.689   1.235
 3721SOL    HW112062   5.434   4.595   1.226
 3721SOL    HW212063   5.305   4.693   1.207
 3722SOL     OW12064   6.149   6.954   1.681
 3722SOL    HW112065   6.173   6.932   1.587
 3722SOL    HW212066   6.159   6.873   1.738
 3723SOL     OW12067   5.980   6.340   1.573
 3723SOL    HW112068   5.923   6.277   1.627
 3723SOL    HW212069   5.982   6.429   1.617
 3724SOL     OW12070   1.641   5.205   5.853
 3724SOL    HW112071   1.682   5.267   5.920
 3724SOL    HW212072   1.671   5.112   5.872
 3725SOL     OW12073   5.515   5.759   0.537
 3725SOL    HW112074   5.497   5.681   0.597
 3725SOL    HW212075   5.430   5.788   0.493
 3726SOL     OW12076   6.551   5.605   0.678
 3726SOL    HW112077   6.465   5.656   0.680
 3726SOL    HW212078   6.563   5.556   0.765
 3727SOL     OW12079   6.638   2.271   6.084
 3727SOL    HW112080   6.657   2.342   6.152
 3727SOL    HW212081   6.721   2.217   6.068
 3728SOL     OW12082   1.515   3.934   0.643
 3728SOL    HW112083   1.523   3.982   0.556
 3728SOL    HW212084   1.590   3.961   0.703
 3729SOL     OW12085   1.224   2.155   3.752
 3729SOL    HW112086   1.266   2.240   3.784
 3729SOL    HW212087   1.218   2.090   3.828
 3730SOL     OW12088   2.451   5.246   6.256
 3730SOL    HW112089   2.436   5.342   6.280
 3730SOL    HW212090   2.445   5.235   6.157
 3731SOL     OW12091   4.811   0.376   1.109
 3731SOL    HW112092   4.887   0.408   1.166
 3731SOL    HW212093   4.725   0.414   1.143
 3732SOL     OW12094   1.578   2.173   6.399
 3732SOL    HW112095   1.522   2.155   6.480
 3732SOL    HW212096   1.673   2.149   6.419
 3733SOL     OW12097   1.365   3.560   1.644
 3733SOL    HW112098   1.406   3.651   1.648
 3733SOL    HW212099   1.317   3.549   1.557
 3734SOL     OW12100   4.715   1.162   1.794
 3734SOL    HW112101   4.794   1.223   1.789
 3734SOL    HW212102   4.670   1.174   1.883
 3735SOL     OW12103   2.322   0.811   3.296
 3735SOL    HW112104   2.296   0.750   3.222
 3735SOL    HW212105   2.413   0.786   3.330
 3736SOL     OW12106   6.539   2.455   1.089
 3736SOL    HW112107   6.477   2.417   1.020
 3736SOL    HW212108   6.544   2.554   1.078
 3737SOL     OW12109   5.081   0.707   3.605
 3737SOL    HW112110   4.989   0.739   3.630
 3737SOL    HW212111   5.141   0.786   3.592
 3738SOL     OW12112   7.000   5.737   2.252
 3738SOL    HW112113   0.048   5.668   2.245
 3738SOL    HW212114   7.008   5.785   2.339
 3739SOL     OW12115   2.317   4.572   1.372
 3739SOL    HW112116   2.410   4.577   1.335
 3739SOL    HW212117   2.263   4.649   1.338
 3740SOL     OW12118   5.283   0.053   0.446
 3740SOL    HW112119   5.253   0.149   0.442
 3740SOL    HW212120   5.208   7.018   0.418
 3741SOL     OW12121   4.654   3.122   1.173
 3741SOL    HW112122   4.645   3.219   1.192
 3741SOL    HW212123   4.623   3.069   1.252
 3742SOL     OW12124   2.507   1.902   6.165
 3742SOL    HW112125   2.593   1.913   6.214
 3742SOL    HW212126   2.436   1.957   6.209
 3743SOL     OW12127   5.279   3.987   1.032
 3743SOL    HW112128   5.273   3.949   0.939
 3743SOL    HW212129   5.358   4.048   1.037
 3744SOL     OW12130   0.484   6.020   2.894
 3744SOL    HW112131   0.409   5.954   2.884
 3744SOL    HW212132   0.541   5.994   2.972
 3745SOL     OW12133   3.625   4.894   2.403
 3745SOL    HW112134   3.667   4.841   2.477
 3745SOL    HW212135   3.696   4.921   2.338
 3746SOL     OW12136   5.006   1.720   2.757
 3746SOL    HW112137   4.968   1.630   2.781
 3746SOL    HW212138   5.086   1.738   2.814
 3747SOL     OW12139   3.123   7.019   5.692
 3747SOL    HW112140   3.051   0.044   5.739
 3747SOL    HW212141   3.171   0.056   5.629
 3748SOL     OW12142   5.502   0.533   1.525
 3748SOL    HW112143   5.501   0.437   1.497
 3748SOL    HW212144   5.514   0.539   1.624
 3749SOL     OW12145   1.673   6.813   4.220
 3749SOL    HW112146   1.619   6.773   4.146
 3749SOL    HW212147   1.643   6.774   4.308
 3750SOL     OW12148   1.730   3.981   0.835
 3750SOL    HW112149   1.758   4.075   0.854
 3750SOL    HW212150   1.801   3.934   0.783
 3751SOL     OW12151   6.507   3.423   2.477
 3751SOL    HW112152   6.506   3.522   2.488
 3751SOL    HW212153   6.598   3.393   2.448
 3752SOL     OW12154   5.083   0.601   6.781
 3752SOL    HW112155   5.099   0.635   6.688
 3752SOL    HW212156   5.109   0.504   6.786
 3753SOL     OW12157   6.273   0.719   5.427
 3753SOL    HW112158   6.273   0.642   5.492
 3753SOL    HW212159   6.296   0.803   5.476
 3754SOL     OW12160   2.359   0.469   1.578
 3754SOL    HW112161   2.433   0.414   1.539
 3754SOL    HW212162   2.396   0.528   1.650
 3755SOL     OW12163   4.303   5.151   5.024
 3755SOL    HW112164   4.353   5.198   4.952
 3755SOL    HW212165   4.212   5.191   5.033
 3756SOL     OW12166   2.316   5.725   6.849
 3756SOL    HW112167   2.407   5.762   6.868
 3756SOL    HW212168   2.251   5.800   6.840
 3757SOL     OW12169   6.034   5.159   1.796
 3757SOL    HW112170   5.958   5.215   1.827
 3757SOL    HW212171   6.025   5.067   1.834
 3758SOL     OW12172   2.160   1.118   4.326
 3758SOL    HW112173   2.087   1.051   4.316
 3758SOL    HW212174   2.243   1.074   4.359
 3759SOL     OW12175   4.466   0.084   5.289
 3759SOL    HW112176   4.534   0.011   5.284
 3759SOL    HW212177   4.385   0.050   5.337
 3760SOL     OW12178   0.779   1.529   3.807
 3760SOL    HW112179   0.759   1.604   3.870
 3760SOL    HW212180   0.711   1.457   3.818
 3761SOL     OW12181   6.552   1.220   4.917
 3761SOL    HW112182   6.526   1.314   4.893
 3761SOL    HW212183   6.525   1.201   5.011
 3762SOL     OW12184   1.667   4.056   1.334
 3762SOL    HW112185   1.745   4.006   1.296
 3762SOL    HW212186   1.615   3.995   1.394
 3763SOL     OW12187   6.480   3.687   0.296
 3763SOL    HW112188   6.434   3.766   0.336
 3763SOL    HW212189   6.575   3.710   0.276
 3764SOL     OW12190   1.812   6.621   2.687
 3764SOL    HW112191   1.830   6.688   2.616
 3764SOL    HW212192   1.889   6.558   2.694
 3765SOL     OW12193   6.210   1.353   1.143
 3765SOL    HW112194   6.227   1.448   1.119
 3765SOL    HW212195   6.270   1.293   1.089
 3766SOL     OW12196   2.199   2.725   4.272
 3766SOL    HW112197   2.177   2.822   4.265
 3766SOL    HW212198   2.259   2.699   4.196
 3767SOL     OW12199   3.225   3.971   6.353
 3767SOL    HW112200   3.141   4.004   6.309
 3767SOL    HW212201   3.207   3.882   6.396
 3768SOL     OW12202   0.573   0.135   5.136
 3768SOL    HW112203   0.640   0.103   5.203
 3768SOL    HW212204   0.481   0.129   5.174
 3769SOL     OW12205   6.383   5.521   5.109
 3769SOL    HW112206   6.324   5.459   5.058
 3769SOL    HW212207   6.409   5.599   5.052
 3770SOL     OW12208   1.166   1.001   0.174
 3770SOL    HW112209   1.187   0.923   0.233
 3770SOL    HW212210   1.228   1.077   0.195
 3771SOL     OW12211   5.452   4.269   6.383
 3771SOL    HW112212   5.504   4.193   6.346
 3771SOL    HW212213   5.397   4.238   6.461
 3772SOL     OW12214   0.614   0.196   0.138
 3772SOL    HW112215   0.614   0.228   0.232
 3772SOL    HW212216   0.578   0.268   0.078
 3773SOL     OW12217   6.843   3.047   5.657
 3773SOL    HW112218   6.895   3.123   5.620
 3773SOL    HW212219   6.838   2.973   5.590
 3774SOL     OW12220   5.403   5.561   1.772
 3774SOL    HW112221   5.487   5.589   1.819
 3774SOL    HW212222   5.325   5.608   1.812
 3775SOL     OW12223   4.026   5.306   3.570
 3775SOL    HW112224   3.928   5.328   3.566
 3775SOL    HW212225   4.044   5.253   3.653
 3776SOL     OW12226   4.097   2.369   6.576
 3776SOL    HW112227   4.020   2.398   6.519
 3776SOL    HW212228   4.065   2.306   6.646
 3777SOL     OW12229   2.424   5.459   3.845
 3777SOL    HW112230   2.446   5.429   3.938
 3777SOL    HW212231   2.444   5.557   3.836
 3778SOL     OW12232   2.394   5.692   3.448
 3778SOL    HW112233   2.406   5.791   3.436
 3778SOL    HW212234   2.336   5.657   3.374
 3779SOL     OW12235   0.839   5.173   0.974
 3779SOL    HW112236   0.835   5.173   1.074
 3779SOL    HW212237   0.759   5.221   0.938
 3780SOL     OW12238   6.590   3.896   4.169
 3780SOL    HW112239   6.503   3.852   4.148
 3780SOL    HW212240   6.651   3.831   4.215
 3781SOL     OW12241   0.483   0.341   4.069
 3781SOL    HW112242   0.436   0.426   4.091
 3781SOL    HW212243   0.472   0.276   4.145
 3782SOL     OW12244   3.247   0.110   2.521
 3782SOL    HW112245   3.256   0.074   2.428
 3782SOL    HW212246   3.177   0.058   2.570
 3783SOL     OW12247   6.576   6.007   3.956
 3783SOL    HW112248   6.660   6.057   3.936
 3783SOL    HW212249   6.596   5.909   3.961
 3784SOL     OW12250   5.419   2.855   2.673
 3784SOL    HW112251   5.346   2.909   2.714
 3784SOL    HW212252   5.449   2.899   2.588
 3785SOL     OW12253   1.531   3.466   4.662
 3785SOL    HW112254   1.533   3.550   4.716
 3785SOL    HW212255   1.608   3.408   4.688
 3786SOL     OW12256   2.291   4.186   3.315
 3786SOL    HW112257   2.215   4.121   3.308
 3786SOL    HW212258   2.292   4.246   3.235
 3787SOL     OW12259   5.731   0.640   2.322
 3787SOL    HW112260   5.752   0.675   2.230
 3787SOL    HW212261   5.755   0.710   2.390
 3788SOL     OW12262   6.023   4.259   4.986
 3788SOL    HW112263   6.055   4.351   5.006
 3788SOL    HW212264   6.047   4.234   4.892
 3789SOL     OW12265   0.197   3.825   3.374
 3789SOL    HW112266   0.241   3.914   3.385
 3789SOL    HW212267   0.102   3.831   3.403
 3790SOL     OW12268   0.551   4.723   6.234
 3790SOL    HW112269   0.553   4.731   6.134
 3790SOL    HW212270   0.605   4.798   6.274
 3791SOL     OW12271   5.727   1.971   6.623
 3791SOL    HW112272   5.677   1.898   6.577
 3791SOL    HW212273   5.769   2.031   6.554
 3792SOL     OW12274   1.461   1.761   4.240
 3792SOL    HW112275   1.442   1.666   4.264
 3792SOL    HW212276   1.469   1.816   4.324
 3793SOL     OW12277   5.001   6.480   1.428
 3793SOL    HW112278   4.995   6.382   1.448
 3793SOL    HW212279   5.092   6.502   1.395
 3794SOL     OW12280   2.761   3.117   1.744
 3794SOL    HW112281   2.753   3.035   1.687
 3794SOL    HW212282   2.683   3.177   1.727
 3795SOL     OW12283   4.092   5.507   1.128
 3795SOL    HW112284   4.110   5.443   1.203
 3795SOL    HW212285   4.179   5.541   1.092
 3796SOL     OW12286   4.113   2.083   1.557
 3796SOL    HW112287   4.053   2.105   1.634
 3796SOL    HW212288   4.143   1.988   1.564
 3797SOL     OW12289   0.912   3.655   2.974
 3797SOL    HW112290   0.890   3.560   2.995
 3797SOL    HW212291   0.831   3.699   2.935
 3798SOL     OW12292   2.822   6.466   2.342
 3798SOL    HW112293   2.838   6.557   2.305
 3798SOL    HW212294   2.810   6.471   2.441
 3799SOL     OW12295   0.051   2.530   3.508
 3799SOL    HW112296   0.136   2.562   3.468
 3799SOL    HW212297   0.050   2.430   3.509
 3800SOL     OW12298   5.277   1.913   3.852
 3800SOL    HW112299   5.182   1.932   3.827
 3800SOL    HW212300   5.284   1.819   3.886
 3801SOL     OW12301   6.030   6.593   2.140
 3801SOL    HW112302   6.019   6.498   2.113
 3801SOL    HW212303   5.953   6.647   2.106
 3802SOL     OW12304   0.519   1.480   2.378
 3802SOL    HW112305   0.504   1.487   2.279
 3802SOL    HW212306   0.611   1.512   2.400
 3803SOL     OW12307   4.019   3.437   3.309
 3803SOL    HW112308   3.924   3.465   3.292
 3803SOL    HW212309   4.072   3.517   3.338
 3804SOL     OW12310   4.206   1.590   3.586
 3804SOL    HW112311   4.203   1.678   3.538
 3804SOL    HW212312   4.194   1.516   3.521
 3805SOL     OW12313   1.788   2.486   1.951
 3805SOL    HW112314   1.733   2.406   1.927
 3805SOL    HW212315   1.739   2.569   1.925
 3806SOL     OW12316   3.357   3.934   5.582
 3806SOL    HW112317   3.371   3.857   5.520
 3806SOL    HW212318   3.405   4.014   5.547
 3807SOL     OW12319   2.566   5.177   3.710
 3807SOL    HW112320   2.509   5.255   3.737
 3807SOL    HW212321   2.637   5.164   3.779
 3808SOL     OW12322   4.135   1.232   6.788
 3808SOL    HW112323   4.198   1.309   6.796
 3808SOL    HW212324   4.084   1.240   6.702
 3809SOL     OW12325   5.346   2.772   1.244
 3809SOL    HW112326   5.351   2.870   1.259
 3809SOL    HW212327   5.426   2.742   1.191
 3810SOL     OW12328   5.939   2.789   3.431
 3810SOL    HW112329   5.985   2.702   3.413
 3810SOL    HW212330   5.958   2.820   3.524
 3811SOL     OW12331   0.246   6.416   4.768
 3811SOL    HW112332   0.206   6.329   4.739
 3811SOL    HW212333   0.337   6.400   4.807
 3812SOL     OW12334   3.507   4.416   5.666
 3812SOL    HW112335   3.413   4.409   5.633
 3812SOL    HW212336   3.553   4.328   5.654
 3813SOL     OW12337   5.865   3.653   0.424
 3813SOL    HW112338   5.869   3.732   0.363
 3813SOL    HW212339   5.951   3.602   0.418
 3814SOL     OW12340   6.921   0.002   4.528
 3814SOL    HW112341   6.833   6.980   4.521
 3814SOL    HW212342   6.988   6.980   4.471
 3815SOL     OW12343   3.816   3.196   1.134
 3815SOL    HW112344   3.836   3.098   1.126
 3815SOL    HW212345   3.766   3.225   1.052
 3816SOL     OW12346   0.874   5.025   6.065
 3816SOL    HW112347   0.958   4.979   6.092
 3816SOL    HW212348   0.831   5.067   6.145
 3817SOL     OW12349   5.148   3.775   2.581
 3817SOL    HW112350   5.195   3.857   2.614
 3817SOL    HW212351   5.098   3.797   2.498
 3818SOL     OW12352   6.652   1.188   1.005
 3818SOL    HW112353   6.563   1.230   1.024
 3818SOL    HW212354   6.704   1.248   0.945
 3819SOL     OW12355   6.229   4.766   2.797
 3819SOL    HW112356   6.233   4.742   2.700
 3819SOL    HW212357   6.161   4.709   2.843
 3820SOL     OW12358   5.580   0.070   3.843
 3820SOL    HW112359   5.583   0.156   3.790
 3820SOL    HW212360   5.512   0.009   3.803
 3821SOL     OW12361   1.391   0.604   1.797
 3821SOL    HW112362   1.366   0.515   1.835
 3821SOL    HW212363   1.414   0.666   1.871
 3822SOL     OW12364   1.739   0.013   0.224
 3822SOL    HW112365   1.728   0.059   0.312
 3822SOL    HW212366   1.649   7.010   0.190
 3823SOL     OW12367   3.772   3.536   6.136
 3823SOL    HW112368   3.858   3.504   6.176
 3823SOL    HW212369   3.783   3.546   6.038
 3824SOL     OW12370   1.117   2.335   0.471
 3824SOL    HW112371   1.144   2.363   0.563
 3824SOL    HW212372   1.041   2.392   0.439
 3825SOL     OW12373   0.808   4.759   6.921
 3825SOL    HW112374   0.870   4.700   6.974
 3825SOL    HW212375   0.804   4.726   6.827
 3826SOL     OW12376   0.080   3.660   1.318
 3826SOL    HW112377   0.166   3.629   1.278
 3826SOL    HW212378   0.068   3.618   1.408
 3827SOL     OW12379   1.122   0.922   1.597
 3827SOL    HW112380   1.097   0.825   1.590
 3827SOL    HW212381   1.060   0.976   1.540
 3828SOL     OW12382   3.494   3.864   3.945
 3828SOL    HW112383   3.580   3.912   3.925
 3828SOL    HW212384   3.443   3.914   4.015
 3829SOL     OW12385   0.524   4.777   1.744
 3829SOL    HW112386   0.467   4.847   1.786
 3829SOL    HW212387   0.467   4.714   1.691
 3830SOL     OW12388   0.651   1.461   5.749
 3830SOL    HW112389   0.692   1.370   5.753
 3830SOL    HW212390   0.717   1.526   5.711
 3831SOL     OW12391   4.538   2.427   2.329
 3831SOL    HW112392   4.547   2.487   2.408
 3831SOL    HW212393   4.547   2.481   2.245
 3832SOL     OW12394   6.734   0.513   2.326
 3832SOL    HW112395   6.809   0.555   2.275
 3832SOL    HW212396   6.771   0.462   2.404
 3833SOL     OW12397   0.346   5.882   6.495
 3833SOL    HW112398   0.327   5.845   6.404
 3833SOL    HW212399   0.275   5.948   6.520
 3834SOL     OW12400   3.607   4.457   0.504
 3834SOL    HW112401   3.589   4.554   0.489
 3834SOL    HW212402   3.544   4.402   0.449
 3835SOL     OW12403   4.101   6.164   5.063
 3835SOL    HW112404   4.173   6.094   5.071
 3835SOL    HW212405   4.141   6.254   5.079
 3836SOL     OW12406   6.897   5.295   5.904
 3836SOL    HW112407   6.810   5.259   5.940
 3836SOL    HW212408   6.951   5.333   5.978
 3837SOL     OW12409   4.703   4.542   5.701
 3837SOL    HW112410   4.630   4.597   5.660
 3837SOL    HW212411   4.693   4.447   5.673
 3838SOL     OW12412   0.777   2.717   4.040
 3838SOL    HW112413   0.802   2.657   3.964
 3838SOL    HW212414   0.818   2.807   4.027
 3839SOL     OW12415   5.444   1.605   2.708
 3839SOL    HW112416   5.513   1.622   2.779
 3839SOL    HW212417   5.353   1.619   2.746
 3840SOL     OW12418   2.886   0.938   6.115
 3840SOL    HW112419   2.932   1.027   6.116
 3840SOL    HW212420   2.806   0.941   6.176
 3841SOL     OW12421   0.237   3.321   4.249
 3841SOL    HW112422   0.191   3.246   4.202
 3841SOL    HW212423   0.333   3.297   4.262
 3842SOL     OW12424   2.145   2.630   3.216
 3842SOL    HW112425   2.063   2.650   3.270
 3842SOL    HW212426   2.218   2.600   3.278
 3843SOL     OW12427   5.420   3.697   2.502
 3843SOL    HW112428   5.329   3.689   2.543
 3843SOL    HW212429   5.489   3.671   2.569
 3844SOL     OW12430   1.095   3.003   5.471
 3844SOL    HW112431   1.159   3.041   5.537
 3844SOL    HW212432   1.137   3.000   5.380
 3845SOL     OW12433   3.337   4.407   6.035
 3845SOL    HW112434   3.341   4.357   6.121
 3845SOL    HW212435   3.265   4.369   5.976
 3846SOL     OW12436   1.218   4.605   3.702
 3846SOL    HW112437   1.276   4.525   3.690
 3846SOL    HW212438   1.238   4.647   3.791
 3847SOL     OW12439   5.460   3.029   4.627
 3847SOL    HW112440   5.406   2.984   4.557
 3847SOL    HW212441   5.415   3.020   4.716
 3848SOL     OW12442   4.759   4.658   3.155
 3848SOL    HW112443   4.832   4.725   3.169
 3848SOL    HW212444   4.744   4.606   3.240
 3849SOL     OW12445   0.725   1.541   6.273
 3849SOL    HW112446   0.704   1.553   6.370
 3849SOL    HW212447   0.726   1.630   6.227
 3850SOL     OW12448   2.943   3.243   1.568
 3850SOL    HW112449   2.878   3.187   1.619
 3850SOL    HW212450   3.036   3.225   1.600
 3851SOL     OW12451   0.619   3.851   3.218
 3851SOL    HW112452   0.673   3.769   3.239
 3851SOL    HW212453   0.533   3.824   3.176
 3852SOL     OW12454   4.182   6.425   3.867
 3852SOL    HW112455   4.160   6.502   3.928
 3852SOL    HW212456   4.263   6.448   3.813
 3853SOL     OW12457   1.058   3.999   3.654
 3853SOL    HW112458   1.145   3.952   3.671
 3853SOL    HW212459   1.051   4.023   3.557
 3854SOL     OW12460   1.474   2.350   2.898
 3854SOL    HW112461   1.511   2.393   2.981
 3854SOL    HW212462   1.545   2.349   2.827
 3855SOL     OW12463   4.793   6.418   6.513
 3855SOL    HW112464   4.751   6.327   6.517
 3855SOL    HW212465   4.840   6.429   6.425
 3856SOL     OW12466   6.733   0.303   5.666
 3856SOL    HW112467   6.687   0.350   5.591
 3856SOL    HW212468   6.667   0.251   5.719
 3857SOL     OW12469   0.850   6.120   6.414
 3857SOL    HW112470   0.776   6.061   6.382
 3857SOL    HW212471   0.815   6.211   6.434
 3858SOL     OW12472   2.296   0.666   5.584
 3858SOL    HW112473   2.320   0.645   5.489
 3858SOL    HW212474   2.224   0.736   5.585
 3859SOL     OW12475   6.100   1.388   1.402
 3859SOL    HW112476   6.141   1.358   1.316
 3859SOL    HW212477   6.172   1.405   1.469
 3860SOL     OW12478   1.856   1.726   3.965
 3860SOL    HW112479   1.800   1.744   3.884
 3860SOL    HW212480   1.945   1.692   3.937
 3861SOL     OW12481   4.323   5.573   3.851
 3861SOL    HW112482   4.410   5.527   3.834
 3861SOL    HW212483   4.259   5.552   3.778
 3862SOL     OW12484   0.525   0.635   4.799
 3862SOL    HW112485   0.484   0.691   4.871
 3862SOL    HW212486   0.513   0.538   4.821
 3863SOL     OW12487   5.579   2.331   6.810
 3863SOL    HW112488   5.599   2.369   6.720
 3863SOL    HW212489   5.551   2.404   6.872
 3864SOL     OW12490   2.321   1.034   5.717
 3864SOL    HW112491   2.283   1.125   5.732
 3864SOL    HW212492   2.413   1.030   5.756
 3865SOL     OW12493   4.005   1.093   0.596
 3865SOL    HW112494   4.091   1.115   0.550
 3865SOL    HW212495   3.986   0.996   0.588
 3866SOL     OW12496   4.309   0.057   0.107
 3866SOL    HW112497   4.342   7.012   0.043
 3866SOL    HW212498   4.352   0.145   0.085
 3867SOL     OW12499   0.556   6.100   4.308
 3867SOL    HW112500   0.509   6.169   4.363
 3867SOL    HW212501   0.603   6.035   4.367
 3868SOL     OW12502   3.231   0.152   0.468
 3868SOL    HW112503   3.202   0.060   0.497
 3868SOL    HW212504   3.170   0.220   0.510
 3869SOL     OW12505   6.104   3.531   4.603
 3869SOL    HW112506   6.148   3.445   4.629
 3869SOL    HW212507   6.157   3.576   4.532
 3870SOL     OW12508   6.507   6.591   0.240
 3870SOL    HW112509   6.525   6.512   0.299
 3870SOL    HW212510   6.574   6.663   0.260
 3871SOL     OW12511   3.915   1.205   3.272
 3871SOL    HW112512   3.841   1.249   3.222
 3871SOL    HW212513   3.925   1.247   3.362
 3872SOL     OW12514   3.678   2.981   4.110
 3872SOL    HW112515   3.590   2.945   4.139
 3872SOL    HW212516   3.735   2.999   4.190
 3873SOL     OW12517   6.597   3.820   1.490
 3873SOL    HW112518   6.692   3.801   1.517
 3873SOL    HW212519   6.596   3.890   1.420
 3874SOL     OW12520   4.986   6.170   6.891
 3874SOL    HW112521   4.936   6.255   6.909
 3874SOL    HW212522   5.056   6.157   6.961
 3875SOL     OW12523   2.124   3.116   2.390
 3875SOL    HW112524   2.145   3.192   2.329
 3875SOL    HW212525   2.166   3.132   2.479
 3876SOL     OW12526   4.007   5.939   1.214
 3876SOL    HW112527   4.104   5.946   1.235
 3876SOL    HW212528   3.990   5.982   1.125
 3877SOL     OW12529   5.785   2.563   0.471
 3877SOL    HW112530   5.688   2.581   0.452
 3877SOL    HW212531   5.828   2.647   0.506
 3878SOL     OW12532   3.800   6.887   4.478
 3878SOL    HW112533   3.763   6.920   4.565
 3878SOL    HW212534   3.746   6.810   4.446
 3879SOL     OW12535   5.741   5.148   0.802
 3879SOL    HW112536   5.776   5.197   0.722
 3879SOL    HW212537   5.647   5.121   0.786
 3880SOL     OW12538   5.933   4.852   4.452
 3880SOL    HW112539   5.927   4.831   4.354
 3880SOL    HW212540   5.947   4.950   4.463
 3881SOL     OW12541   1.466   3.311   1.656
 3881SOL    HW112542   1.397   3.261   1.707
 3881SOL    HW212543   1.447   3.409   1.660
 3882SOL     OW12544   1.538   0.749   5.646
 3882SOL    HW112545   1.440   0.752   5.660
 3882SOL    HW212546   1.558   0.753   5.548
 3883SOL     OW12547   4.676   1.028   3.118
 3883SOL    HW112548   4.759   0.980   3.147
 3883SOL    HW212549   4.627   1.061   3.199
 3884SOL     OW12550   0.720   5.578   2.554
 3884SOL    HW112551   0.776   5.661   2.552
 3884SOL    HW212552   0.718   5.542   2.647
 3885SOL     OW12553   5.578   6.624   2.679
 3885SOL    HW112554   5.504   6.681   2.643
 3885SOL    HW212555   5.634   6.591   2.602
 3886SOL     OW12556   5.515   5.348   4.698
 3886SOL    HW112557   5.455   5.419   4.661
 3886SOL    HW212558   5.554   5.379   4.784
 3887SOL     OW12559   0.395   0.433   0.248
 3887SOL    HW112560   0.443   0.374   0.312
 3887SOL    HW212561   0.425   0.413   0.155
 3888SOL     OW12562   6.693   0.674   5.077
 3888SOL    HW112563   6.706   0.743   5.006
 3888SOL    HW212564   6.616   0.700   5.136
 3889SOL     OW12565   0.124   3.951   0.500
 3889SOL    HW112566   0.037   4.000   0.507
 3889SOL    HW212567   0.163   3.965   0.409
 3890SOL     OW12568   5.897   5.929   3.661
 3890SOL    HW112569   5.937   5.862   3.724
 3890SOL    HW212570   5.843   5.882   3.591
 3891SOL     OW12571   6.231   4.696   4.468
 3891SOL    HW112572   6.142   4.743   4.463
 3891SOL    HW212573   6.292   4.746   4.529
 3892SOL     OW12574   6.824   2.286   1.851
 3892SOL    HW112575   6.861   2.241   1.933
 3892SOL    HW212576   6.775   2.219   1.796
 3893SOL     OW12577   4.412   4.827   0.205
 3893SOL    HW112578   4.400   4.922   0.177
 3893SOL    HW212579   4.504   4.797   0.182
 3894SOL     OW12580   3.933   1.689   0.607
 3894SOL    HW112581   3.958   1.652   0.518
 3894SOL    HW212582   3.838   1.665   0.628
 3895SOL     OW12583   1.412   0.566   5.299
 3895SOL    HW112584   1.388   0.516   5.381
 3895SOL    HW212585   1.342   0.635   5.279
 3896SOL     OW12586   6.793   0.654   5.891
 3896SOL    HW112587   6.848   0.594   5.950
 3896SOL    HW212588   6.706   0.609   5.871
 3897SOL     OW12589   3.599   5.649   2.756
 3897SOL    HW112590   3.655   5.722   2.794
 3897SOL    HW212591   3.505   5.681   2.747
 3898SOL     OW12592   2.804   3.665   5.241
 3898SOL    HW112593   2.849   3.749   5.210
 3898SOL    HW212594   2.706   3.683   5.256
 3899SOL     OW12595   5.655   6.949   5.091
 3899SOL    HW112596   5.750   6.923   5.108
 3899SOL    HW212597   5.611   6.971   5.178
 3900SOL     OW12598   4.946   3.437   3.850
 3900SOL    HW112599   4.933   3.493   3.768
 3900SOL    HW212600   5.000   3.356   3.827
 3901SOL     OW12601   3.000   0.292   5.948
 3901SOL    HW112602   3.058   0.241   6.012
 3901SOL    HW212603   2.932   0.344   5.999
 3902SOL     OW12604   5.336   3.599   1.954
 3902SOL    HW112605   5.375   3.624   1.865
 3902SOL    HW212606   5.263   3.663   1.977
 3903SOL     OW12607   3.856   6.079   6.595
 3903SOL    HW112608   3.779   6.126   6.638
 3903SOL    HW212609   3.832   6.055   6.500
 3904SOL     OW12610   2.276   1.239   4.782
 3904SOL    HW112611   2.336   1.197   4.850
 3904SOL    HW212612   2.217   1.169   4.742
 3905SOL     OW12613   0.046   0.167   6.298
 3905SOL    HW112614   0.108   0.090   6.310
 3905SOL    HW212615   6.977   0.138   6.316
 3906SOL     OW12616   4.347   5.123   6.142
 3906SOL    HW112617   4.287   5.197   6.111
 3906SOL    HW212618   4.293   5.050   6.183
 3907SOL     OW12619   5.384   6.989   4.783
 3907SOL    HW112620   5.474   0.007   4.774
 3907SOL    HW212621   5.359   6.986   4.880
 3908SOL     OW12622   1.199   1.715   0.795
 3908SOL    HW112623   1.194   1.644   0.867
 3908SOL    HW212624   1.203   1.671   0.706
 3909SOL     OW12625   6.920   4.881   5.405
 3909SOL    HW112626   6.918   4.955   5.337
 3909SOL    HW212627   6.983   4.810   5.374
 3910SOL     OW12628   3.549   3.714   1.869
 3910SOL    HW112629   3.591   3.789   1.922
 3910SOL    HW212630   3.475   3.751   1.813
 3911SOL     OW12631   4.534   0.847   0.140
 3911SOL    HW112632   4.526   0.771   0.076
 3911SOL    HW212633   4.472   0.832   0.218
 3912SOL     OW12634   4.270   0.102   6.310
 3912SOL    HW112635   4.249   0.172   6.241
 3912SOL    HW212636   4.224   0.125   6.396
 3913SOL     OW12637   2.320   6.833   6.045
 3913SOL    HW112638   2.313   6.878   6.134
 3913SOL    HW212639   2.229   6.821   6.006
 3914SOL     OW12640   4.298   1.132   0.542
 3914SOL    HW112641   4.368   1.165   0.606
 3914SOL    HW212642   4.331   1.047   0.499
 3915SOL     OW12643   3.472   5.847   2.389
 3915SOL    HW112644   3.535   5.872   2.463
 3915SOL    HW212645   3.426   5.761   2.411
 3916SOL     OW12646   1.623   5.716   4.109
 3916SOL    HW112647   1.631   5.737   4.011
 3916SOL    HW212648   1.712   5.724   4.153
 3917SOL     OW12649   1.198   4.670   6.870
 3917SOL    HW112650   1.172   4.615   6.949
 3917SOL    HW212651   1.177   4.766   6.888
 3918SOL     OW12652   4.679   0.054   2.396
 3918SOL    HW112653   4.661   0.038   2.493
 3918SOL    HW212654   4.621   0.129   2.364
 3919SOL     OW12655   2.312   5.941   6.417
 3919SOL    HW112656   2.390   6.004   6.415
 3919SOL    HW212657   2.236   5.980   6.367
 3920SOL     OW12658   2.866   2.763   0.295
 3920SOL    HW112659   2.953   2.802   0.326
 3920SOL    HW212660   2.821   2.828   0.234
 3921SOL     OW12661   6.676   2.987   1.439
 3921SOL    HW112662   6.601   3.028   1.388
 3921SOL    HW212663   6.755   2.973   1.379
 3922SOL     OW12664   6.060   4.133   1.326
 3922SOL    HW112665   6.105   4.123   1.415
 3922SOL    HW212666   6.123   4.103   1.254
 3923SOL     OW12667   6.703   1.831   7.002
 3923SOL    HW112668   6.791   1.855   6.963
 3923SOL    HW212669   6.714   1.808   0.074
 3924SOL     OW12670   0.636   4.851   2.850
 3924SOL    HW112671   0.667   4.757   2.864
 3924SOL    HW212672   0.695   4.896   2.782
 3925SOL     OW12673   4.126   4.499   0.518
 3925SOL    HW112674   4.041   4.491   0.467
 3925SOL    HW212675   4.105   4.513   0.615
 3926SOL     OW12676   6.494   5.689   3.070
 3926SOL    HW112677   6.589   5.691   3.039
 3926SOL    HW212678   6.492   5.678   3.169
 3927SOL     OW12679   6.754   3.447   3.502
 3927SOL    HW112680   6.666   3.447   3.548
 3927SOL    HW212681   6.819   3.503   3.554
 3928SOL     OW12682   2.793   5.537   5.791
 3928SOL    HW112683   2.879   5.588   5.788
 3928SOL    HW212684   2.722   5.590   5.746
 3929SOL     OW12685   0.541   1.988   5.670
 3929SOL    HW112686   0.606   2.008   5.597
 3929SOL    HW212687   0.589   1.987   5.758
 3930SOL     OW12688   2.524   1.607   4.177
 3930SOL    HW112689   2.554   1.651   4.262
 3930SOL    HW212690   2.603   1.590   4.118
 3931SOL     OW12691   1.570   1.941   2.836
 3931SOL    HW112692   1.652   1.996   2.826
 3931SOL    HW212693   1.523   1.935   2.747
 3932SOL     OW12694   2.213   4.047   2.583
 3932SOL    HW112695   2.265   3.989   2.645
 3932SOL    HW212696   2.116   4.041   2.605
 3933SOL     OW12697   1.734   6.652   0.262
 3933SOL    HW112698   1.783   6.740   0.265
 3933SOL    HW212699   1.667   6.654   0.187
 3934SOL     OW12700   6.947   0.814   1.066
 3934SOL    HW112701   0.020   0.800   1.049
 3934SOL    HW212702   6.930   0.821   1.164
 3935SOL     OW12703   2.217   7.014   0.024
 3935SOL    HW112704   2.296   0.050   0.029
 3935SOL    HW212705   2.133   0.042   0.032
 3936SOL     OW12706   6.841   5.143   5.534
 3936SOL    HW112707   6.915   5.153   5.601
 3936SOL    HW212708   6.872   5.084   5.459
 3937SOL     OW12709   0.005   0.169   1.930
 3937SOL    HW112710   7.014   0.072   1.950
 3937SOL    HW212711   0.056   0.211   2.005
 3938SOL     OW12712   0.025   1.971   3.464
 3938SOL    HW112713   0.050   1.957   3.368
 3938SOL    HW212714   6.959   1.933   3.482
 3939SOL     OW12715   2.976   1.832   1.903
 3939SOL    HW112716   2.945   1.920   1.941
 3939SOL    HW212717   2.911   1.760   1.929
 3940SOL     OW12718   4.061   5.352   2.158
 3940SOL    HW112719   4.149   5.396   2.178
 3940SOL    HW212720   3.998   5.419   2.120
 3941SOL     OW12721   5.114   1.434   6.116
 3941SOL    HW112722   5.136   1.513   6.173
 3941SOL    HW212723   5.190   1.368   6.121
 3942SOL     OW12724   0.236   0.415   6.389
 3942SOL    HW112725   0.307   0.410   6.318
 3942SOL    HW212726   0.176   0.336   6.382
 3943SOL     OW12727   1.282   3.933   2.787
 3943SOL    HW112728   1.246   3.944   2.879
 3943SOL    HW212729   1.275   4.020   2.738
 3944SOL     OW12730   5.736   3.667   5.588
 3944SOL    HW112731   5.756   3.577   5.626
 3944SOL    HW212732   5.802   3.688   5.516
 3945SOL     OW12733   0.696   2.492   1.934
 3945SOL    HW112734   0.608   2.539   1.945
 3945SOL    HW212735   0.725   2.455   2.023
 3946SOL     OW12736   5.830   5.602   5.536
 3946SOL    HW112737   5.891   5.556   5.600
 3946SOL    HW212738   5.750   5.636   5.586
 3947SOL     OW12739   6.222   5.123   1.320
 3947SOL    HW112740   6.227   5.207   1.265
 3947SOL    HW212741   6.278   5.052   1.278
 3948SOL     OW12742   0.910   5.335   1.686
 3948SOL    HW112743   0.948   5.243   1.673
 3948SOL    HW212744   0.985   5.401   1.691
 3949SOL     OW12745   6.262   0.604   2.890
 3949SOL    HW112746   6.198   0.616   2.965
 3949SOL    HW212747   6.295   0.510   2.888
 3950SOL     OW12748   3.009   4.124   1.844
 3950SOL    HW112749   2.955   4.208   1.840
 3950SOL    HW212750   3.062   4.114   1.759
 3951SOL     OW12751   0.049   0.053   1.012
 3951SOL    HW112752   6.976   0.072   1.003
 3951SOL    HW212753   0.100   0.139   1.017
 3952SOL     OW12754   6.696   3.996   3.058
 3952SOL    HW112755   6.685   4.091   3.030
 3952SOL    HW212756   6.609   3.948   3.048
 3953SOL     OW12757   4.057   4.174   0.582
 3953SOL    HW112758   4.039   4.247   0.517
 3953SOL    HW212759   4.005   4.092   0.555
 3954SOL     OW12760   5.563   5.513   4.914
 3954SOL    HW112761   5.580   5.514   5.012
 3954SOL    HW212762   5.480   5.565   4.894
 3955SOL     OW12763   3.275   5.742   5.873
 3955SOL    HW112764   3.363   5.733   5.827
 3955SOL    HW212765   3.225   5.655   5.867
 3956SOL     OW12766   0.070   0.933   2.825
 3956SOL    HW112767   0.124   0.935   2.909
 3956SOL    HW212768   0.100   1.007   2.764
 3957SOL     OW12769   4.876   6.831   3.588
 3957SOL    HW112770   4.793   6.849   3.641
 3957SOL    HW212771   4.862   6.861   3.493
 3958SOL     OW12772   5.700   0.713   6.233
 3958SOL    HW112773   5.652   0.740   6.150
 3958SOL    HW212774   5.644   0.647   6.284
 3959SOL     OW12775   4.029   6.330   1.326
 3959SOL    HW112776   4.078   6.277   1.257
 3959SOL    HW212777   3.960   6.386   1.281
 3960SOL     OW12778   4.258   1.501   6.593
 3960SOL    HW112779   4.184   1.440   6.563
 3960SOL    HW212780   4.268   1.495   6.692
 3961SOL     OW12781   5.803   2.329   1.438
 3961SOL    HW112782   5.803   2.314   1.537
 3961SOL    HW212783   5.770   2.247   1.391
 3962SOL     OW12784   2.449   4.642   6.937
 3962SOL    HW112785   2.367   4.684   6.977
 3962SOL    HW212786   2.531   4.684   6.977
 3963SOL     OW12787   4.703   4.159   4.287
 3963SOL    HW112788   4.803   4.157   4.295
 3963SOL    HW212789   4.666   4.070   4.311
 3964SOL     OW12790   4.354   4.987   3.657
 3964SOL    HW112791   4.284   5.052   3.688
 3964SOL    HW212792   4.329   4.895   3.685
 3965SOL     OW12793   4.460   3.205   5.832
 3965SOL    HW112794   4.396   3.150   5.778
 3965SOL    HW212795   4.470   3.165   5.923
 3966SOL     OW12796   5.646   6.008   0.624
 3966SOL    HW112797   5.580   6.082   0.634
 3966SOL    HW212798   5.598   5.921   0.610
 3967SOL     OW12799   1.291   4.137   2.582
 3967SOL    HW112800   1.371   4.168   2.635
 3967SOL    HW212801   1.320   4.070   2.514
 3968SOL     OW12802   5.693   0.114   1.054
 3968SOL    HW112803   5.599   0.106   1.087
 3968SOL    HW212804   5.739   0.026   1.065
 3969SOL     OW12805   1.783   3.664   2.829
 3969SOL    HW112806   1.750   3.713   2.748
 3969SOL    HW212807   1.752   3.710   2.912
 3970SOL     OW12808   5.534   5.823   3.683
 3970SOL    HW112809   5.532   5.804   3.585
 3970SOL    HW212810   5.610   5.884   3.704
 3971SOL     OW12811   2.759   5.294   1.803
 3971SOL    HW112812   2.819   5.261   1.730
 3971SOL    HW212813   2.701   5.219   1.834
 3972SOL     OW12814   1.225   5.392   0.688
 3972SOL    HW112815   1.231   5.352   0.596
 3972SOL    HW212816   1.315   5.426   0.715
 3973SOL     OW12817   0.850   4.593   6.051
 3973SOL    HW112818   0.809   4.680   6.024
 3973SOL    HW212819   0.902   4.555   5.974
 3974SOL     OW12820   1.194   0.805   4.727
 3974SOL    HW112821   1.175   0.904   4.724
 3974SOL    HW212822   1.291   0.790   4.741
 3975SOL     OW12823   5.075   0.217   5.917
 3975SOL    HW112824   5.053   0.259   6.005
 3975SOL    HW212825   5.141   0.143   5.931
 3976SOL     OW12826   1.336   5.297   2.261
 3976SOL    HW112827   1.285   5.375   2.225
 3976SOL    HW212828   1.434   5.312   2.247
 3977SOL     OW12829   2.796   4.444   5.634
 3977SOL    HW112830   2.856   4.449   5.554
 3977SOL    HW212831   2.798   4.532   5.683
 3978SOL     OW12832   5.844   6.202   4.831
 3978SOL    HW112833   5.851   6.247   4.921
 3978SOL    HW212834   5.758   6.229   4.787
 3979SOL     OW12835   2.945   5.696   1.168
 3979SOL    HW112836   2.936   5.769   1.099
 3979SOL    HW212837   3.042   5.681   1.188
 3980SOL     OW12838   0.596   5.726   6.970
 3980SOL    HW112839   0.517   5.737   0.006
 3980SOL    HW212840   0.566   5.688   6.882
 3981SOL     OW12841   2.012   1.673   0.530
 3981SOL    HW112842   2.020   1.764   0.571
 3981SOL    HW212843   1.916   1.655   0.508
 3982SOL     OW12844   1.936   0.431   4.311
 3982SOL    HW112845   1.855   0.422   4.252
 3982SOL    HW212846   1.907   0.460   4.402
 3983SOL     OW12847   4.754   5.361   4.354
 3983SOL    HW112848   4.732   5.264   4.353
 3983SOL    HW212849   4.669   5.414   4.341
 3984SOL     OW12850   0.067   0.831   2.433
 3984SOL    HW112851   0.148   0.860   2.483
 3984SOL    HW212852   7.013   0.887   2.459
 3985SOL     OW12853   3.509   4.906   6.301
 3985SOL    HW112854   3.467   4.979   6.248
 3985SOL    HW212855   3.502   4.926   6.398
 3986SOL     OW12856   6.186   1.811   2.814
 3986SOL    HW112857   6.130   1.736   2.848
 3986SOL    HW212858   6.275   1.810   2.860
 3987SOL     OW12859   2.960   5.353   4.355
 3987SOL    HW112860   2.911   5.273   4.388
 3987SOL    HW212861   2.935   5.432   4.411
 3988SOL     OW12862   4.155   3.685   6.879
 3988SOL    HW112863   4.101   3.691   6.963
 3988SOL    HW212864   4.201   3.772   6.863
 3989SOL     OW12865   6.682   2.360   6.869
 3989SOL    HW112866   6.720   2.312   6.948
 3989SOL    HW212867   6.602   2.412   6.898
 3990SOL     OW12868   5.251   2.176   2.719
 3990SOL    HW112869   5.195   2.201   2.798
 3990SOL    HW212870   5.279   2.260   2.671
 3991SOL     OW12871   6.068   1.044   1.949
 3991SOL    HW112872   6.120   0.959   1.961
 3991SOL    HW212873   5.970   1.025   1.954
 3992SOL     OW12874   3.315   2.396   6.919
 3992SOL    HW112875   3.413   2.414   6.907
 3992SOL    HW212876   3.283   2.337   6.845
 3993SOL     OW12877   0.884   2.034   2.928
 3993SOL    HW112878   0.968   2.028   2.982
 3993SOL    HW212879   0.826   1.955   2.949
 3994SOL     OW12880   0.487   1.049   6.209
 3994SOL    HW112881   0.470   1.090   6.119
 3994SOL    HW212882   0.400   1.023   6.251
 3995SOL     OW12883   1.791   3.977   4.947
 3995SOL    HW112884   1.848   3.895   4.951
 3995SOL    HW212885   1.838   4.048   4.896
 3996SOL     OW12886   0.968   1.135   4.133
 3996SOL    HW112887   0.904   1.206   4.103
 3996SOL    HW212888   0.937   1.096   4.219
 3997SOL     OW12889   5.031   1.571   3.548
 3997SOL    HW112890   5.025   1.605   3.642
 3997SOL    HW212891   5.111   1.511   3.539
 3998SOL     OW12892   4.091   1.430   3.130
 3998SOL    HW112893   3.998   1.410   3.100
 3998SOL    HW212894   4.102   1.400   3.225
 3999SOL     OW12895   5.932   3.568   3.936
 3999SOL    HW112896   5.972   3.553   4.026
 3999SOL    HW212897   5.852   3.510   3.924
 4000SOL     OW12898   3.273   5.873   3.037
 4000SOL    HW112899   3.329   5.936   2.984
 4000SOL    HW212900   3.244   5.917   3.122
 4001SOL     OW12901   2.733   2.326   3.996
 4001SOL    HW112902   2.644   2.284   3.980
 4001SOL    HW212903   2.786   2.327   3.911
 4002SOL     OW12904   2.790   2.560   0.909
 4002SOL    HW112905   2.785   2.476   0.963
 4002SOL    HW212906   2.858   2.549   0.837
 4003SOL     OW12907   3.314   5.978   4.985
 4003SOL    HW112908   3.221   5.952   4.957
 4003SOL    HW212909   3.344   6.055   4.929
 4004SOL     OW12910   5.757   2.368   3.527
 4004SOL    HW112911   5.691   2.327   3.465
 4004SOL    HW212912   5.849   2.356   3.490
 4005SOL     OW12913   5.211   5.738   0.759
 4005SOL    HW112914   5.182   5.643   0.754
 4005SOL    HW212915   5.298   5.744   0.809
 4006SOL     OW12916   3.760   5.670   3.313
 4006SOL    HW112917   3.839   5.674   3.252
 4006SOL    HW212918   3.788   5.630   3.401
 4007SOL     OW12919   0.923   2.516   1.736
 4007SOL    HW112920   1.006   2.478   1.775
 4007SOL    HW212921   0.850   2.513   1.803
 4008SOL     OW12922   3.505   1.896   3.838
 4008SOL    HW112923   3.486   1.798   3.844
 4008SOL    HW212924   3.549   1.927   3.922
 4009SOL     OW12925   5.655   3.111   0.864
 4009SOL    HW112926   5.608   3.197   0.881
 4009SOL    HW212927   5.636   3.081   0.771
 4010SOL     OW12928   2.530   2.768   1.710
 4010SOL    HW112929   2.472   2.716   1.772
 4010SOL    HW212930   2.477   2.842   1.669
 4011SOL     OW12931   0.108   0.910   1.848
 4011SOL    HW112932   0.051   0.934   1.927
 4011SOL    HW212933   0.200   0.945   1.862
 4012SOL     OW12934   3.910   5.779   1.435
 4012SOL    HW112935   3.812   5.798   1.441
 4012SOL    HW212936   3.953   5.845   1.373
 4013SOL     OW12937   2.788   6.743   6.942
 4013SOL    HW112938   2.863   6.689   6.982
 4013SOL    HW212939   2.715   6.681   6.912
 4014SOL     OW12940   3.996   6.150   3.376
 4014SOL    HW112941   4.037   6.059   3.383
 4014SOL    HW212942   3.952   6.160   3.287
 4015SOL     OW12943   4.675   5.081   6.335
 4015SOL    HW112944   4.774   5.073   6.351
 4015SOL    HW212945   4.645   5.007   6.275
 4016SOL     OW12946   1.971   6.011   6.726
 4016SOL    HW112947   2.070   6.009   6.711
 4016SOL    HW212948   1.937   5.918   6.744
 4017SOL     OW12949   0.547   6.328   1.025
 4017SOL    HW112950   0.609   6.251   1.039
 4017SOL    HW212951   0.459   6.295   0.992
 4018SOL     OW12952   5.064   5.900   3.248
 4018SOL    HW112953   5.109   5.977   3.202
 4018SOL    HW212954   4.965   5.907   3.235
 4019SOL     OW12955   5.861   3.950   2.982
 4019SOL    HW112956   5.899   3.925   3.071
 4019SOL    HW212957   5.845   4.049   2.979
 4020SOL     OW12958   5.332   2.156   6.067
 4020SOL    HW112959   5.237   2.143   6.094
 4020SOL    HW212960   5.365   2.074   6.019
 4021SOL     OW12961   3.495   3.539   6.081
 4021SOL    HW112962   3.450   3.610   6.027
 4021SOL    HW212963   3.594   3.542   6.062
 4022SOL     OW12964   4.064   0.219   0.055
 4022SOL    HW112965   4.133   0.169   0.108
 4022SOL    HW212966   4.059   0.313   0.089
 4023SOL     OW12967   6.182   2.213   5.412
 4023SOL    HW112968   6.173   2.256   5.323
 4023SOL    HW212969   6.279   2.203   5.435
 4024SOL     OW12970   3.658   6.372   4.128
 4024SOL    HW112971   3.615   6.281   4.136
 4024SOL    HW212972   3.747   6.363   4.083
 4025SOL     OW12973   0.966   5.982   4.276
 4025SOL    HW112974   0.932   5.965   4.184
 4025SOL    HW212975   1.048   5.927   4.292
 4026SOL     OW12976   6.413   6.004   4.509
 4026SOL    HW112977   6.466   6.088   4.513
 4026SOL    HW212978   6.455   5.942   4.442
 4027SOL     OW12979   3.817   4.132   1.853
 4027SOL    HW112980   3.898   4.085   1.888
 4027SOL    HW212981   3.843   4.189   1.774
 4028SOL     OW12982   1.312   2.397   3.896
 4028SOL    HW112983   1.226   2.443   3.923
 4028SOL    HW212984   1.384   2.466   3.885
 4029SOL     OW12985   1.611   4.120   6.501
 4029SOL    HW112986   1.611   4.022   6.523
 4029SOL    HW212987   1.550   4.136   6.423
 4030SOL     OW12988   1.442   2.036   5.851
 4030SOL    HW112989   1.441   1.994   5.942
 4030SOL    HW212990   1.492   1.977   5.788
 4031SOL     OW12991   4.815   6.278   2.979
 4031SOL    HW112992   4.845   6.193   2.934
 4031SOL    HW212993   4.737   6.258   3.038
 4032SOL     OW12994   6.028   0.370   2.876
 4032SOL    HW112995   5.967   0.293   2.862
 4032SOL    HW212996   6.122   0.345   2.850
 4033SOL     OW12997   3.647   2.895   3.050
 4033SOL    HW112998   3.599   2.897   2.963
 4033SOL    HW212999   3.690   2.805   3.063
 4034SOL     OW13000   5.436   1.858   5.315
 4034SOL    HW113001   5.495   1.927   5.357
 4034SOL    HW213002   5.403   1.892   5.227
 4035SOL     OW13003   6.482   4.073   1.299
 4035SOL    HW113004   6.453   4.113   1.386
 4035SOL    HW213005   6.531   4.142   1.245
 4036SOL     OW13006   5.554   6.351   3.117
 4036SOL    HW113007   5.522   6.378   3.208
 4036SOL    HW213008   5.640   6.398   3.096
 4037SOL     OW13009   1.692   2.354   0.760
 4037SOL    HW113010   1.662   2.268   0.800
 4037SOL    HW213011   1.791   2.354   0.749
 4038SOL     OW13012   4.953   4.911   2.211
 4038SOL    HW113013   4.885   4.900   2.284
 4038SOL    HW213014   4.986   4.821   2.184
 4039SOL     OW13015   4.993   5.201   1.537
 4039SOL    HW113016   4.941   5.135   1.591
 4039SOL    HW213017   4.959   5.293   1.554
 4040SOL     OW13018   2.829   6.428   0.298
 4040SOL    HW113019   2.788   6.454   0.385
 4040SOL    HW213020   2.929   6.435   0.304
 4041SOL     OW13021   1.594   5.363   2.230
 4041SOL    HW113022   1.614   5.457   2.204
 4041SOL    HW213023   1.660   5.301   2.187
 4042SOL     OW13024   6.064   4.307   2.788
 4042SOL    HW113025   6.144   4.292   2.845
 4042SOL    HW213026   6.069   4.251   2.706
 4043SOL     OW13027   5.521   2.395   4.330
 4043SOL    HW113028   5.457   2.356   4.397
 4043SOL    HW213029   5.496   2.362   4.238
 4044SOL     OW13030   4.980   0.531   4.821
 4044SOL    HW113031   5.035   0.615   4.822
 4044SOL    HW213032   4.950   0.511   4.914
 4045SOL     OW13033   3.148   4.316   6.596
 4045SOL    HW113034   3.099   4.351   6.516
 4045SOL    HW213035   3.150   4.216   6.592
 4046SOL     OW13036   0.940   1.899   3.278
 4046SOL    HW113037   0.858   1.940   3.240
 4046SOL    HW213038   0.930   1.889   3.377
 4047SOL     OW13039   2.479   2.554   0.759
 4047SOL    HW113040   2.561   2.544   0.816
 4047SOL    HW213041   2.464   2.651   0.739
 4048SOL     OW13042   5.881   0.891   1.649
 4048SOL    HW113043   5.940   0.929   1.578
 4048SOL    HW213044   5.838   0.807   1.614
 4049SOL     OW13045   6.294   6.349   6.376
 4049SOL    HW113046   6.274   6.285   6.302
 4049SOL    HW213047   6.290   6.442   6.342
 4050SOL     OW13048   1.046   0.083   0.478
 4050SOL    HW113049   0.977   0.103   0.409
 4050SOL    HW213050   1.126   0.140   0.464
 4051SOL     OW13051   2.879   3.221   6.762
 4051SOL    HW113052   2.884   3.294   6.695
 4051SOL    HW213053   2.800   3.236   6.822
 4052SOL     OW13054   0.990   0.152   1.378
 4052SOL    HW113055   0.947   0.229   1.330
 4052SOL    HW213056   0.969   0.158   1.476
 4053SOL     OW13057   3.279   4.997   4.503
 4053SOL    HW113058   3.213   5.060   4.461
 4053SOL    HW213059   3.232   4.943   4.573
 4054SOL     OW13060   1.973   3.170   0.914
 4054SOL    HW113061   1.992   3.238   0.844
 4054SOL    HW213062   1.985   3.078   0.875
 4055SOL     OW13063   2.715   3.166   5.569
 4055SOL    HW113064   2.664   3.118   5.640
 4055SOL    HW213065   2.715   3.112   5.485
 4056SOL     OW13066   4.235   3.027   6.548
 4056SOL    HW113067   4.159   2.964   6.560
 4056SOL    HW213068   4.319   2.986   6.583
 4057SOL     OW13069   4.957   3.314   0.269
 4057SOL    HW113070   5.033   3.377   0.284
 4057SOL    HW213071   4.872   3.366   0.260
 4058SOL     OW13072   1.346   1.459   4.150
 4058SOL    HW113073   1.260   1.500   4.118
 4058SOL    HW213074   1.420   1.486   4.089
 4059SOL     OW13075   2.437   2.217   3.225
 4059SOL    HW113076   2.427   2.129   3.181
 4059SOL    HW213077   2.395   2.288   3.169
 4060SOL     OW13078   3.923   4.907   5.190
 4060SOL    HW113079   4.012   4.900   5.236
 4060SOL    HW213080   3.938   4.926   5.093
 4061SOL     OW13081   3.356   4.455   1.715
 4061SOL    HW113082   3.300   4.384   1.672
 4061SOL    HW213083   3.438   4.413   1.754
 4062SOL     OW13084   4.179   1.678   3.194
 4062SOL    HW113085   4.133   1.590   3.185
 4062SOL    HW213086   4.276   1.662   3.216
 4063SOL     OW13087   4.099   6.220   5.357
 4063SOL    HW113088   4.067   6.177   5.272
 4063SOL    HW213089   4.185   6.178   5.385
 4064SOL     OW13090   2.366   6.613   2.894
 4064SOL    HW113091   2.302   6.671   2.843
 4064SOL    HW213092   2.415   6.554   2.829
 4065SOL     OW13093   1.103   6.909   0.262
 4065SOL    HW113094   1.139   6.969   0.190
 4065SOL    HW213095   1.085   6.963   0.344
 4066SOL     OW13096   5.274   5.022   2.331
 4066SOL    HW113097   5.274   5.025   2.231
 4066SOL    HW213098   5.308   4.933   2.362
 4067SOL     OW13099   5.798   2.024   2.678
 4067SOL    HW113100   5.791   2.123   2.670
 4067SOL    HW213101   5.716   1.981   2.640
 4068SOL     OW13102   4.622   0.125   4.523
 4068SOL    HW113103   4.647   0.064   4.448
 4068SOL    HW213104   4.698   0.131   4.588
 4069SOL     OW13105   4.700   3.413   6.923
 4069SOL    HW113106   4.782   3.437   6.872
 4069SOL    HW213107   4.675   3.488   6.984
 4070SOL     OW13108   1.841   3.390   2.557
 4070SOL    HW113109   1.863   3.475   2.508
 4070SOL    HW213110   1.898   3.383   2.638
 4071SOL     OW13111   1.806   1.317   5.103
 4071SOL    HW113112   1.902   1.328   5.075
 4071SOL    HW213113   1.755   1.399   5.078
 4072SOL     OW13114   1.879   6.785   4.510
 4072SOL    HW113115   1.796   6.742   4.473
 4072SOL    HW213116   1.862   6.882   4.524
 4073SOL     OW13117   2.638   5.558   6.133
 4073SOL    HW113118   2.581   5.558   6.215
 4073SOL    HW213119   2.581   5.542   6.053
 4074SOL     OW13120   0.878   3.173   1.710
 4074SOL    HW113121   0.891   3.075   1.695
 4074SOL    HW213122   0.966   3.214   1.735
 4075SOL     OW13123   4.866   2.144   2.743
 4075SOL    HW113124   4.954   2.162   2.786
 4075SOL    HW213125   4.817   2.073   2.794
 4076SOL     OW13126   2.543   4.157   5.346
 4076SOL    HW113127   2.488   4.240   5.354
 4076SOL    HW213128   2.505   4.098   5.276
 4077SOL     OW13129   2.641   6.034   1.300
 4077SOL    HW113130   2.729   6.003   1.336
 4077SOL    HW213131   2.568   5.977   1.336
 4078SOL     OW13132   6.104   5.606   1.819
 4078SOL    HW113133   6.158   5.632   1.899
 4078SOL    HW213134   6.141   5.651   1.738
 4079SOL     OW13135   1.681   0.518   3.221
 4079SOL    HW113136   1.753   0.571   3.177
 4079SOL    HW213137   1.716   0.474   3.303
 4080SOL     OW13138   2.792   3.978   6.720
 4080SOL    HW113139   2.725   3.904   6.721
 4080SOL    HW213140   2.884   3.940   6.726
 4081SOL     OW13141   1.815   1.151   4.440
 4081SOL    HW113142   1.876   1.222   4.475
 4081SOL    HW213143   1.733   1.193   4.401
 4082SOL     OW13144   1.636   1.923   6.885
 4082SOL    HW113145   1.619   1.965   6.973
 4082SOL    HW213146   1.553   1.876   6.853
 4083SOL     OW13147   5.930   4.461   3.789
 4083SOL    HW113148   5.901   4.385   3.730
 4083SOL    HW213149   5.887   4.546   3.757
 4084SOL     OW13150   4.796   2.831   3.284
 4084SOL    HW113151   4.731   2.770   3.330
 4084SOL    HW213152   4.792   2.922   3.326
 4085SOL     OW13153   2.720   5.114   1.270
 4085SOL    HW113154   2.671   5.068   1.195
 4085SOL    HW213155   2.818   5.103   1.258
 4086SOL     OW13156   0.046   4.929   0.457
 4086SOL    HW113157   0.139   4.955   0.433
 4086SOL    HW213158   7.022   4.900   0.374
 4087SOL     OW13159   2.472   1.293   2.643
 4087SOL    HW113160   2.378   1.300   2.678
 4087SOL    HW213161   2.485   1.205   2.598
 4088SOL     OW13162   6.234   0.969   5.138
 4088SOL    HW113163   6.189   0.880   5.129
 4088SOL    HW213164   6.202   1.014   5.221
 4089SOL     OW13165   0.309   5.630   4.472
 4089SOL    HW113166   0.268   5.702   4.417
 4089SOL    HW213167   0.252   5.548   4.466
 4090SOL     OW13168   1.780   6.255   5.315
 4090SOL    HW113169   1.775   6.341   5.264
 4090SOL    HW213170   1.694   6.239   5.362
 4091SOL     OW13171   1.005   5.322   0.164
 4091SOL    HW113172   0.941   5.373   0.107
 4091SOL    HW213173   0.979   5.332   0.260
 4092SOL     OW13174   4.975   3.165   4.227
 4092SOL    HW113175   5.058   3.134   4.273
 4092SOL    HW213176   4.895   3.123   4.271
 4093SOL     OW13177   5.576   6.024   1.678
 4093SOL    HW113178   5.616   5.958   1.741
 4093SOL    HW213179   5.627   6.110   1.684
 4094SOL     OW13180   1.160   4.504   6.662
 4094SOL    HW113181   1.168   4.559   6.745
 4094SOL    HW213182   1.123   4.561   6.588
 4095SOL     OW13183   0.518   3.239   0.457
 4095SOL    HW113184   0.592   3.180   0.490
 4095SOL    HW213185   0.557   3.322   0.418
 4096SOL     OW13186   1.888   0.872   6.234
 4096SOL    HW113187   1.813   0.852   6.296
 4096SOL    HW213188   1.975   0.844   6.276
 4097SOL     OW13189   5.987   4.457   5.604
 4097SOL    HW113190   6.018   4.366   5.631
 4097SOL    HW213191   5.890   4.453   5.580
 4098SOL     OW13192   1.911   2.620   1.619
 4098SOL    HW113193   1.976   2.671   1.561
 4098SOL    HW213194   1.838   2.582   1.561
 4099SOL     OW13195   3.465   5.006   0.043
 4099SOL    HW113196   3.407   5.054   7.001
 4099SOL    HW213197   3.554   5.052   0.049
 4100SOL     OW13198   1.103   0.770   4.191
 4100SOL    HW113199   1.073   0.698   4.128
 4100SOL    HW213200   1.200   0.790   4.176
 4101SOL     OW13201   6.546   1.000   6.224
 4101SOL    HW113202   6.544   1.100   6.214
 4101SOL    HW213203   6.634   0.973   6.264
 4102SOL     OW13204   2.065   0.788   0.535
 4102SOL    HW113205   2.050   0.871   0.481
 4102SOL    HW213206   2.061   0.810   0.632
 4103SOL     OW13207   0.158   0.211   2.188
 4103SOL    HW113208   0.193   0.295   2.229
 4103SOL    HW213209   0.229   0.170   2.130
 4104SOL     OW13210   0.236   5.121   3.193
 4104SOL    HW113211   0.321   5.146   3.239
 4104SOL    HW213212   0.172   5.083   3.260
 4105SOL     OW13213   5.169   1.232   2.010
 4105SOL    HW113214   5.183   1.170   1.933
 4105SOL    HW213215   5.104   1.191   2.074
 4106SOL     OW13216   0.198   1.971   3.662
 4106SOL    HW113217   0.110   1.980   3.616
 4106SOL    HW213218   0.200   2.030   3.743
 4107SOL     OW13219   0.796   5.857   6.813
 4107SOL    HW113220   0.816   5.773   6.864
 4107SOL    HW213221   0.716   5.842   6.755
 4108SOL     OW13222   0.713   5.796   4.263
 4108SOL    HW113223   0.683   5.711   4.308
 4108SOL    HW213224   0.772   5.847   4.326
 4109SOL     OW13225   5.641   6.103   3.464
 4109SOL    HW113226   5.583   6.022   3.452
 4109SOL    HW213227   5.700   6.114   3.384
 4110SOL     OW13228   3.867   2.997   6.213
 4110SOL    HW113229   3.925   2.934   6.262
 4110SOL    HW213230   3.816   2.948   6.142
 4111SOL     OW13231   5.845   4.969   6.311
 4111SOL    HW113232   5.778   5.034   6.275
 4111SOL    HW213233   5.821   4.876   6.282
 4112SOL     OW13234   5.272   6.641   4.741
 4112SOL    HW113235   5.283   6.725   4.689
 4112SOL    HW213236   5.272   6.563   4.678
 4113SOL     OW13237   4.701   5.087   4.683
 4113SOL    HW113238   4.661   4.999   4.708
 4113SOL    HW213239   4.795   5.075   4.654
 4114SOL     OW13240   6.165   1.388   2.937
 4114SOL    HW113241   6.262   1.382   2.959
 4114SOL    HW213242   6.151   1.369   2.840
 4115SOL     OW13243   2.622   4.642   3.679
 4115SOL    HW113244   2.632   4.737   3.651
 4115SOL    HW213245   2.712   4.603   3.700
 4116SOL     OW13246   5.071   2.873   3.911
 4116SOL    HW113247   5.066   2.833   3.819
 4116SOL    HW213248   5.000   2.943   3.920
 4117SOL     OW13249   1.414   2.114   3.014
 4117SOL    HW113250   1.435   2.195   2.959
 4117SOL    HW213251   1.455   2.034   2.971
 4118SOL     OW13252   6.553   6.764   5.871
 4118SOL    HW113253   6.532   6.853   5.911
 4118SOL    HW213254   6.585   6.777   5.777
 4119SOL     OW13255   3.019   0.765   3.245
 4119SOL    HW113256   3.035   0.676   3.286
 4119SOL    HW213257   2.921   0.777   3.228
 4120SOL     OW13258   4.169   1.744   6.253
 4120SOL    HW113259   4.101   1.756   6.181
 4120SOL    HW213260   4.216   1.831   6.269
 4121SOL     OW13261   6.714   6.707   2.269
 4121SOL    HW113262   6.624   6.716   2.226
 4121SOL    HW213263   6.771   6.786   2.244
 4122SOL     OW13264   0.942   6.631   4.809
 4122SOL    HW113265   0.950   6.545   4.859
 4122SOL    HW213266   0.991   6.703   4.859
 4123SOL     OW13267   4.285   5.039   4.258
 4123SOL    HW113268   4.367   5.006   4.306
 4123SOL    HW213269   4.235   5.102   4.317
 4124SOL     OW13270   6.628   6.701   0.995
 4124SOL    HW113271   6.665   6.744   0.913
 4124SOL    HW213272   6.611   6.772   1.064
 4125SOL     OW13273   4.832   2.753   2.577
 4125SOL    HW113274   4.826   2.803   2.663
 4125SOL    HW213275   4.921   2.708   2.569
 4126SOL     OW13276   1.426   2.920   2.081
 4126SOL    HW113277   1.479   2.947   2.161
 4126SOL    HW213278   1.477   2.853   2.028
 4127SOL     OW13279   5.013   2.696   4.863
 4127SOL    HW113280   4.964   2.780   4.840
 4127SOL    HW213281   4.964   2.617   4.827
 4128SOL     OW13282   0.758   2.920   1.618
 4128SOL    HW113283   0.813   2.839   1.600
 4128SOL    HW213284   0.746   2.972   1.534
 4129SOL     OW13285   3.520   1.266   0.421
 4129SOL    HW113286   3.508   1.359   0.386
 4129SOL    HW213287   3.615   1.239   0.412
 4130SOL     OW13288   6.087   2.427   0.590
 4130SOL    HW113289   6.118   2.485   0.665
 4130SOL    HW213290   5.995   2.454   0.562
 4131SOL     OW13291   6.531   0.677   2.752
 4131SOL    HW113292   6.527   0.747   2.680
 4131SOL    HW213293   6.471   0.704   2.827
 4132SOL     OW13294   6.005   3.853   4.332
 4132SOL    HW113295   5.983   3.934   4.276
 4132SOL    HW213296   5.935   3.843   4.403
 4133SOL     OW13297   4.673   6.246   1.071
 4133SOL    HW113298   4.747   6.262   1.136
 4133SOL    HW213299   4.656   6.329   1.018
 4134SOL     OW13300   2.382   3.192   0.739
 4134SOL    HW113301   2.443   3.247   0.681
 4134SOL    HW213302   2.367   3.238   0.826
 4135SOL     OW13303   0.257   2.137   2.623
 4135SOL    HW113304   0.297   2.051   2.591
 4135SOL    HW213305   0.173   2.118   2.673
 4136SOL     OW13306   1.124   3.576   1.783
 4136SOL    HW113307   1.208   3.619   1.750
 4136SOL    HW213308   1.048   3.640   1.774
 4137SOL     OW13309   1.133   2.895   0.139
 4137SOL    HW113310   1.178   2.863   0.055
 4137SOL    HW213311   1.192   2.874   0.217
 4138SOL     OW13312   3.893   5.165   1.344
 4138SOL    HW113313   3.949   5.107   1.404
 4138SOL    HW213314   3.801   5.174   1.382
 4139SOL     OW13315   1.182   1.891   3.874
 4139SOL    HW113316   1.091   1.927   3.852
 4139SOL    HW213317   1.186   1.867   3.971
 4140SOL     OW13318   3.302   2.130   4.012
 4140SOL    HW113319   3.398   2.133   4.042
 4140SOL    HW213320   3.244   2.107   4.090
 4141SOL     OW13321   4.978   0.245   0.175
 4141SOL    HW113322   4.899   0.239   0.236
 4141SOL    HW213323   4.954   0.298   0.094
 4142SOL     OW13324   6.945   4.193   1.793
 4142SOL    HW113325   6.900   4.152   1.872
 4142SOL    HW213326   0.003   4.141   1.770
 4143SOL     OW13327   5.548   3.028   0.616
 4143SOL    HW113328   5.573   2.958   0.549
 4143SOL    HW213329   5.466   3.076   0.585
 4144SOL     OW13330   5.073   1.554   0.094
 4144SOL    HW113331   5.003   1.597   0.151
 4144SOL    HW213332   5.078   1.456   0.115
 4145SOL     OW13333   1.389   6.021   0.876
 4145SOL    HW113334   1.319   6.069   0.824
 4145SOL    HW213335   1.348   5.944   0.924
 4146SOL     OW13336   6.844   0.874   3.849
 4146SOL    HW113337   6.791   0.955   3.874
 4146SOL    HW213338   6.793   0.792   3.876
 4147SOL     OW13339   5.248   4.566   6.039
 4147SOL    HW113340   5.217   4.567   6.134
 4147SOL    HW213341   5.205   4.491   5.991
 4148SOL     OW13342   2.717   0.424   5.426
 4148SOL    HW113343   2.646   0.454   5.489
 4148SOL    HW213344   2.713   0.478   5.342
 4149SOL     OW13345   0.415   3.445   1.951
 4149SOL    HW113346   0.359   3.363   1.938
 4149SOL    HW213347   0.390   3.514   1.883
 4150SOL     OW13348   6.965   1.929   5.284
 4150SOL    HW113349   0.010   1.922   5.212
 4150SOL    HW213350   6.881   1.885   5.253
 4151SOL     OW13351   1.877   0.061   5.616
 4151SOL    HW113352   1.836   0.151   5.598
 4151SOL    HW213353   1.965   0.055   5.570
 4152SOL     OW13354   3.915   5.576   2.035
 4152SOL    HW113355   3.915   5.656   2.094
 4152SOL    HW213356   3.905   5.604   1.939
 4153SOL     OW13357   6.293   5.216   1.770
 4153SOL    HW113358   6.198   5.191   1.786
 4153SOL    HW213359   6.298   5.310   1.736
 4154SOL     OW13360   0.503   5.897   3.914
 4154SOL    HW113361   0.479   5.850   3.830
 4154SOL    HW213362   0.599   5.878   3.938
 4155SOL     OW13363   0.093   1.843   1.016
 4155SOL    HW113364   0.003   1.885   1.024
 4155SOL    HW213365   0.102   1.797   0.928
 4156SOL     OW13366   6.797   5.232   5.034
 4156SOL    HW113367   6.744   5.195   4.958
 4156SOL    HW213368   6.744   5.303   5.080
 4157SOL     OW13369   5.711   5.904   3.208
 4157SOL    HW113370   5.790   5.927   3.264
 4157SOL    HW213371   5.701   5.971   3.134
 4158SOL     OW13372   1.917   2.506   2.207
 4158SOL    HW113373   2.013   2.483   2.189
 4158SOL    HW213374   1.860   2.472   2.133
 4159SOL     OW13375   3.004   2.123   3.468
 4159SOL    HW113376   3.083   2.112   3.528
 4159SOL    HW213377   2.920   2.114   3.523
 4160SOL     OW13378   5.724   0.144   0.044
 4160SOL    HW113379   5.696   0.199   0.123
 4160SOL    HW213380   5.812   0.178   0.010
 4161SOL     OW13381   1.703   1.995   1.826
 4161SOL    HW113382   1.800   1.982   1.845
 4161SOL    HW213383   1.655   1.909   1.842
 4162SOL     OW13384   6.264   5.793   1.283
 4162SOL    HW113385   6.305   5.810   1.373
 4162SOL    HW213386   6.315   5.722   1.235
 4163SOL     OW13387   5.695   1.310   3.180
 4163SOL    HW113388   5.794   1.310   3.167
 4163SOL    HW213389   5.656   1.391   3.135
 4164SOL     OW13390   0.894   6.841   5.743
 4164SOL    HW113391   0.827   6.907   5.777
 4164SOL    HW213392   0.935   6.875   5.659
 4165SOL     OW13393   4.719   0.072   6.054
 4165SOL    HW113394   4.711   0.056   6.152
 4165SOL    HW213395   4.770   7.023   6.011
 4166SOL     OW13396   5.420   1.321   1.552
 4166SOL    HW113397   5.485   1.348   1.481
 4166SOL    HW213398   5.387   1.229   1.535
 4167SOL     OW13399   3.066   5.219   6.238
 4167SOL    HW113400   3.009   5.301   6.226
 4167SOL    HW213401   3.036   5.149   6.173
 4168SOL     OW13402   0.296   4.129   0.815
 4168SOL    HW113403   0.236   4.067   0.764
 4168SOL    HW213404   0.299   4.218   0.769
 4169SOL     OW13405   5.999   4.141   5.257
 4169SOL    HW113406   6.018   4.184   5.169
 4169SOL    HW213407   6.053   4.186   5.328
 4170SOL     OW13408   4.703   2.820   5.020
 4170SOL    HW113409   4.730   2.728   4.991
 4170SOL    HW213410   4.784   2.873   5.044
 4171SOL     OW13411   0.828   5.511   0.916
 4171SOL    HW113412   0.731   5.488   0.908
 4171SOL    HW213413   0.881   5.453   0.854
 4172SOL     OW13414   2.182   2.729   0.352
 4172SOL    HW113415   2.102   2.722   0.292
 4172SOL    HW213416   2.157   2.702   0.445
 4173SOL     OW13417   5.314   3.347   5.264
 4173SOL    HW113418   5.292   3.442   5.286
 4173SOL    HW213419   5.329   3.296   5.349
 4174SOL     OW13420   5.415   1.467   2.192
 4174SOL    HW113421   5.430   1.536   2.263
 4174SOL    HW213422   5.317   1.456   2.177
 4175SOL     OW13423   1.636   4.763   4.897
 4175SOL    HW113424   1.659   4.668   4.921
 4175SOL    HW213425   1.661   4.780   4.802
 4176SOL     OW13426   4.256   0.018   1.348
 4176SOL    HW113427   4.256   0.016   1.248
 4176SOL    HW213428   4.260   6.949   1.383
 4177SOL     OW13429   5.650   4.712   4.933
 4177SOL    HW113430   5.700   4.673   4.856
 4177SOL    HW213431   5.665   4.656   5.015
 4178SOL     OW13432   4.365   0.488   3.330
 4178SOL    HW113433   4.356   0.488   3.429
 4178SOL    HW213434   4.283   0.448   3.289
 4179SOL     OW13435   5.286   4.171   3.201
 4179SOL    HW113436   5.284   4.138   3.295
 4179SOL    HW213437   5.380   4.171   3.167
 4180SOL     OW13438   4.592   2.759   0.844
 4180SOL    HW113439   4.623   2.669   0.874
 4180SOL    HW213440   4.668   2.809   0.803
 4181SOL     OW13441   4.541   0.724   6.883
 4181SOL    HW113442   4.608   0.730   6.809
 4181SOL    HW213443   4.486   0.807   6.885
 4182SOL     OW13444   0.527   5.049   3.016
 4182SOL    HW113445   0.456   5.040   3.086
 4182SOL    HW213446   0.541   4.960   2.971
 4183SOL     OW13447   3.039   1.114   0.486
 4183SOL    HW113448   2.990   1.185   0.435
 4183SOL    HW213449   3.100   1.157   0.553
 4184SOL     OW13450   3.636   0.161   2.366
 4184SOL    HW113451   3.672   0.067   2.364
 4184SOL    HW213452   3.663   0.209   2.282
 4185SOL     OW13453   0.833   4.299   3.441
 4185SOL    HW113454   0.852   4.320   3.536
 4185SOL    HW213455   0.891   4.223   3.411
 4186SOL     OW13456   2.254   5.699   6.568
 4186SOL    HW113457   2.265   5.783   6.514
 4186SOL    HW213458   2.263   5.720   6.665
 4187SOL     OW13459   2.483   2.796   5.847
 4187SOL    HW113460   2.443   2.775   5.936
 4187SOL    HW213461   2.458   2.889   5.820
 4188SOL     OW13462   4.864   0.520   5.134
 4188SOL    HW113463   4.776   0.483   5.165
 4188SOL    HW213464   4.934   0.502   5.203
 4189SOL     OW13465   3.688   4.976   4.315
 4189SOL    HW113466   3.753   5.036   4.269
 4189SOL    HW213467   3.603   4.971   4.262
 4190SOL     OW13468   0.869   0.331   1.208
 4190SOL    HW113469   0.916   0.284   1.134
 4190SOL    HW213470   0.770   0.320   1.198
 4191SOL     OW13471   5.468   4.264   5.043
 4191SOL    HW113472   5.555   4.219   5.059
 4191SOL    HW213473   5.393   4.198   5.055
 4192SOL     OW13474   1.118   1.515   2.624
 4192SOL    HW113475   1.030   1.537   2.666
 4192SOL    HW213476   1.189   1.574   2.663
 4193SOL     OW13477   5.617   0.683   0.764
 4193SOL    HW113478   5.597   0.591   0.796
 4193SOL    HW213479   5.618   0.684   0.664
 4194SOL     OW13480   4.671   7.016   4.263
 4194SOL    HW113481   4.754   0.048   4.261
 4194SOL    HW213482   4.631   7.012   4.171
 4195SOL     OW13483   4.146   5.125   1.705
 4195SOL    HW113484   4.209   5.202   1.695
 4195SOL    HW213485   4.099   5.131   1.793
 4196SOL     OW13486   6.415   2.515   2.779
 4196SOL    HW113487   6.508   2.516   2.816
 4196SOL    HW213488   6.372   2.603   2.797
 4197SOL     OW13489   4.770   5.420   5.494
 4197SOL    HW113490   4.843   5.445   5.557
 4197SOL    HW213491   4.692   5.481   5.508
 4198SOL     OW13492   6.745   1.932   1.269
 4198SOL    HW113493   6.696   1.849   1.243
 4198SOL    HW213494   6.795   1.968   1.191
 4199SOL     OW13495   1.160   2.026   5.659
 4199SOL    HW113496   1.078   1.986   5.701
 4199SOL    HW213497   1.186   2.108   5.709
 4200SOL     OW13498   2.858   0.160   6.767
 4200SOL    HW113499   2.837   0.084   6.706
 4200SOL    HW213500   2.821   0.141   6.858
 4201SOL     OW13501   6.081   0.049   3.709
 4201SOL    HW113502   6.171   0.023   3.743
 4201SOL    HW213503   6.015   0.049   3.784
 4202SOL     OW13504   2.564   5.555   6.428
 4202SOL    HW113505   2.465   5.538   6.432
 4202SOL    HW213506   2.581   5.653   6.431
 4203SOL     OW13507   5.015   4.188   0.491
 4203SOL    HW113508   5.023   4.094   0.459
 4203SOL    HW213509   5.054   4.196   0.583
 4204SOL     OW13510   4.060   3.749   4.626
 4204SOL    HW113511   4.059   3.691   4.545
 4204SOL    HW213512   4.094   3.840   4.601
 4205SOL     OW13513   4.334   5.981   4.738
 4205SOL    HW113514   4.235   5.970   4.733
 4205SOL    HW213515   4.375   5.957   4.650
 4206SOL     OW13516   6.372   1.425   4.843
 4206SOL    HW113517   6.307   1.406   4.769
 4206SOL    HW213518   6.323   1.456   4.924
 4207SOL     OW13519   2.077   2.590   1.868
 4207SOL    HW113520   2.001   2.596   1.803
 4207SOL    HW213521   2.078   2.499   1.909
 4208SOL     OW13522   6.922   3.370   5.227
 4208SOL    HW113523   6.967   3.398   5.312
 4208SOL    HW213524   6.828   3.341   5.247
 4209SOL     OW13525   6.876   6.023   3.721
 4209SOL    HW113526   6.929   6.066   3.647
 4209SOL    HW213527   6.885   6.079   3.804
 4210SOL     OW13528   3.503   3.165   2.575
 4210SOL    HW113529   3.453   3.251   2.565
 4210SOL    HW213530   3.565   3.153   2.497
 4211SOL     OW13531   3.821   0.623   5.527
 4211SOL    HW113532   3.737   0.626   5.581
 4211SOL    HW213533   3.897   0.592   5.584
 4212SOL     OW13534   6.131   2.290   2.869
 4212SOL    HW113535   6.195   2.328   2.937
 4212SOL    HW213536   6.110   2.196   2.893
 4213SOL     OW13537   2.941   0.565   2.231
 4213SOL    HW113538   3.003   0.637   2.264
 4213SOL    HW213539   2.878   0.604   2.164
 4214SOL     OW13540   0.235   5.533   5.694
 4214SOL    HW113541   0.227   5.490   5.784
 4214SOL    HW213542   0.196   5.624   5.698
 4215SOL     OW13543   4.789   6.585   5.520
 4215SOL    HW113544   4.730   6.511   5.552
 4215SOL    HW213545   4.867   6.595   5.582
 4216SOL     OW13546   1.677   1.052   3.135
 4216SOL    HW113547   1.710   1.072   3.043
 4216SOL    HW213548   1.585   1.013   3.129
 4217SOL     OW13549   1.242   1.036   2.904
 4217SOL    HW113550   1.264   1.037   3.001
 4217SOL    HW213551   1.146   1.062   2.891
 4218SOL     OW13552   3.279   1.017   1.468
 4218SOL    HW113553   3.216   0.942   1.447
 4218SOL    HW213554   3.301   1.067   1.385
 4219SOL     OW13555   4.484   5.440   4.310
 4219SOL    HW113556   4.438   5.411   4.394
 4219SOL    HW213557   4.464   5.536   4.293
 4220SOL     OW13558   6.447   3.125   2.802
 4220SOL    HW113559   6.529   3.170   2.766
 4220SOL    HW213560   6.412   3.060   2.735
 4221SOL     OW13561   5.866   4.705   6.199
 4221SOL    HW113562   5.827   4.657   6.120
 4221SOL    HW213563   5.923   4.642   6.252
 4222SOL     OW13564   6.881   1.726   2.060
 4222SOL    HW113565   6.924   1.766   2.142
 4222SOL    HW213566   6.798   1.678   2.087
 4223SOL     OW13567   3.025   3.688   1.177
 4223SOL    HW113568   2.964   3.647   1.109
 4223SOL    HW213569   2.971   3.738   1.244
 4224SOL     OW13570   5.621   5.123   4.132
 4224SOL    HW113571   5.577   5.187   4.069
 4224SOL    HW213572   5.697   5.078   4.086
 4225SOL     OW13573   2.161   2.829   5.212
 4225SOL    HW113574   2.178   2.758   5.143
 4225SOL    HW213575   2.241   2.889   5.219
 4226SOL     OW13576   0.962   6.712   2.893
 4226SOL    HW113577   1.016   6.633   2.867
 4226SOL    HW213578   0.873   6.708   2.846
 4227SOL     OW13579   3.574   5.425   1.805
 4227SOL    HW113580   3.626   5.376   1.874
 4227SOL    HW213581   3.637   5.477   1.746
 4228SOL     OW13582   0.726   5.984   5.511
 4228SOL    HW113583   0.641   6.027   5.540
 4228SOL    HW213584   0.793   5.991   5.585
 4229SOL     OW13585   5.130   5.761   5.973
 4229SOL    HW113586   5.215   5.780   5.924
 4229SOL    HW213587   5.062   5.831   5.950
 4230SOL     OW13588   1.516   5.588   2.853
 4230SOL    HW113589   1.540   5.492   2.861
 4230SOL    HW213590   1.592   5.644   2.885
 4231SOL     OW13591   5.153   6.663   5.963
 4231SOL    HW113592   5.186   6.745   6.010
 4231SOL    HW213593   5.057   6.649   5.985
 4232SOL     OW13594   1.417   4.607   3.325
 4232SOL    HW113595   1.493   4.650   3.277
 4232SOL    HW213596   1.417   4.509   3.305
 4233SOL     OW13597   6.132   0.695   5.201
 4233SOL    HW113598   6.061   0.629   5.225
 4233SOL    HW213599   6.202   0.696   5.273
 4234SOL     OW13600   2.153   5.236   5.286
 4234SOL    HW113601   2.178   5.329   5.311
 4234SOL    HW213602   2.054   5.226   5.291
 4235SOL     OW13603   5.836   4.059   5.899
 4235SOL    HW113604   5.873   4.063   5.992
 4235SOL    HW213605   5.819   3.963   5.875
 4236SOL     OW13606   6.449   3.605   2.162
 4236SOL    HW113607   6.534   3.654   2.142
 4236SOL    HW213608   6.383   3.624   2.090
 4237SOL     OW13609   6.136   5.317   3.588
 4237SOL    HW113610   6.199   5.329   3.664
 4237SOL    HW213611   6.085   5.401   3.573
 4238SOL     OW13612   1.660   6.252   2.863
 4238SOL    HW113613   1.603   6.334   2.861
 4238SOL    HW213614   1.751   6.277   2.897
 4239SOL     OW13615   5.090   1.207   2.733
 4239SOL    HW113616   5.024   1.136   2.754
 4239SOL    HW213617   5.162   1.208   2.803
 4240SOL     OW13618   2.100   5.696   0.352
 4240SOL    HW113619   2.148   5.644   0.423
 4240SOL    HW213620   2.003   5.701   0.375
 4241SOL     OW13621   5.729   1.150   0.935
 4241SOL    HW113622   5.641   1.195   0.920
 4241SOL    HW213623   5.799   1.218   0.958
 4242SOL     OW13624   3.137   2.076   4.222
 4242SOL    HW113625   3.183   2.126   4.295
 4242SOL    HW213626   3.041   2.104   4.218
 4243SOL     OW13627   6.172   2.545   2.570
 4243SOL    HW113628   6.239   2.555   2.644
 4243SOL    HW213629   6.082   2.526   2.609
 4244SOL     OW13630   4.180   4.359   1.443
 4244SOL    HW113631   4.105   4.405   1.395
 4244SOL    HW213632   4.162   4.359   1.541
 4245SOL     OW13633   6.500   1.271   6.447
 4245SOL    HW113634   6.562   1.343   6.417
 4245SOL    HW213635   6.465   1.294   6.538
 4246SOL     OW13636   6.955   3.864   2.970
 4246SOL    HW113637   6.941   3.843   2.873
 4246SOL    HW213638   6.866   3.872   3.015
 4247SOL     OW13639   2.846   6.092   3.531
 4247SOL    HW113640   2.847   5.992   3.526
 4247SOL    HW213641   2.767   6.122   3.584
 4248SOL     OW13642   3.496   1.606   3.474
 4248SOL    HW113643   3.468   1.577   3.383
 4248SOL    HW213644   3.437   1.563   3.542
 4249SOL     OW13645   6.483   2.863   4.807
 4249SOL    HW113646   6.579   2.880   4.828
 4249SOL    HW213647   6.428   2.877   4.889
 4250SOL     OW13648   6.603   4.265   2.770
 4250SOL    HW113649   6.534   4.270   2.842
 4250SOL    HW213650   6.577   4.327   2.695
 4251SOL     OW13651   5.684   4.493   0.780
 4251SOL    HW113652   5.645   4.535   0.862
 4251SOL    HW213653   5.746   4.419   0.807
 4252SOL     OW13654   5.698   6.407   5.352
 4252SOL    HW113655   5.673   6.492   5.307
 4252SOL    HW213656   5.782   6.421   5.405
 4253SOL     OW13657   3.392   6.383   0.509
 4253SOL    HW113658   3.371   6.378   0.607
 4253SOL    HW213659   3.377   6.294   0.467
 4254SOL     OW13660   0.779   2.476   2.201
 4254SOL    HW113661   0.733   2.559   2.233
 4254SOL    HW213662   0.786   2.411   2.276
 4255SOL     OW13663   5.755   3.773   3.603
 4255SOL    HW113664   5.783   3.690   3.554
 4255SOL    HW213665   5.836   3.822   3.635
 4256SOL     OW13666   1.688   0.053   0.800
 4256SOL    HW113667   1.592   0.044   0.774
 4256SOL    HW213668   1.694   0.091   0.892
 4257SOL     OW13669   3.548   0.687   3.867
 4257SOL    HW113670   3.448   0.692   3.866
 4257SOL    HW213671   3.583   0.739   3.945
 4258SOL     OW13672   5.278   5.885   1.175
 4258SOL    HW113673   5.193   5.838   1.152
 4258SOL    HW213674   5.272   5.981   1.146
 4259SOL     OW13675   2.654   0.753   0.398
 4259SOL    HW113676   2.668   0.663   0.356
 4259SOL    HW213677   2.740   0.784   0.440
 4260SOL     OW13678   5.167   6.940   6.632
 4260SOL    HW113679   5.129   6.906   6.717
 4260SOL    HW213680   5.127   6.890   6.555
 4261SOL     OW13681   1.750   0.222   1.768
 4261SOL    HW113682   1.668   0.265   1.729
 4261SOL    HW213683   1.774   0.268   1.854
 4262SOL     OW13684   0.261   4.435   5.191
 4262SOL    HW113685   0.176   4.387   5.169
 4262SOL    HW213686   0.259   4.464   5.287
 4263SOL     OW13687   2.864   6.480   3.441
 4263SOL    HW113688   2.798   6.452   3.371
 4263SOL    HW213689   2.933   6.540   3.400
 4264SOL     OW13690   0.414   2.820   2.681
 4264SOL    HW113691   0.392   2.783   2.772
 4264SOL    HW213692   0.443   2.746   2.621
 4265SOL     OW13693   5.663   1.478   0.795
 4265SOL    HW113694   5.609   1.395   0.810
 4265SOL    HW213695   5.757   1.452   0.772
 4266SOL     OW13696   2.021   4.994   0.464
 4266SOL    HW113697   1.962   4.926   0.508
 4266SOL    HW213698   2.072   5.044   0.533
 4267SOL     OW13699   1.822   3.771   4.621
 4267SOL    HW113700   1.909   3.790   4.577
 4267SOL    HW213701   1.834   3.773   4.720
 4268SOL     OW13702   1.508   5.865   6.451
 4268SOL    HW113703   1.441   5.860   6.525
 4268SOL    HW213704   1.548   5.774   6.436
 4269SOL     OW13705   2.466   1.329   1.945
 4269SOL    HW113706   2.507   1.323   2.036
 4269SOL    HW213707   2.391   1.395   1.947
 4270SOL     OW13708   4.043   3.821   3.870
 4270SOL    HW113709   4.029   3.771   3.785
 4270SOL    HW213710   3.965   3.883   3.885
 4271SOL     OW13711   0.350   1.202   6.883
 4271SOL    HW113712   0.367   1.146   6.803
 4271SOL    HW213713   0.331   1.296   6.855
 4272SOL     OW13714   6.810   3.095   5.046
 4272SOL    HW113715   6.792   3.010   4.998
 4272SOL    HW213716   6.882   3.081   5.115
 4273SOL     OW13717   4.549   6.108   5.292
 4273SOL    HW113718   4.599   6.035   5.246
 4273SOL    HW213719   4.551   6.190   5.234
 4274SOL     OW13720   1.738   6.713   1.848
 4274SOL    HW113721   1.818   6.766   1.874
 4274SOL    HW213722   1.658   6.747   1.897
 4275SOL     OW13723   6.429   1.021   4.541
 4275SOL    HW113724   6.455   1.051   4.449
 4275SOL    HW213725   6.510   1.011   4.598
 4276SOL     OW13726   2.043   4.867   3.764
 4276SOL    HW113727   2.140   4.868   3.738
 4276SOL    HW213728   1.992   4.930   3.706
 4277SOL     OW13729   6.302   4.842   4.201
 4277SOL    HW113730   6.254   4.811   4.283
 4277SOL    HW213731   6.379   4.900   4.228
 4278SOL     OW13732   0.064   0.445   4.622
 4278SOL    HW113733   0.097   0.352   4.639
 4278SOL    HW213734   0.033   0.486   4.707
 4279SOL     OW13735   3.541   0.241   5.216
 4279SOL    HW113736   3.580   0.296   5.143
 4279SOL    HW213737   3.461   0.191   5.182
 4280SOL     OW13738   5.155   0.421   6.144
 4280SOL    HW113739   5.090   0.352   6.177
 4280SOL    HW213740   5.246   0.380   6.134
 4281SOL     OW13741   0.967   5.199   3.918
 4281SOL    HW113742   0.909   5.252   3.856
 4281SOL    HW213743   1.058   5.241   3.922
 4282SOL     OW13744   3.427   3.794   6.693
 4282SOL    HW113745   3.475   3.857   6.631
 4282SOL    HW213746   3.406   3.709   6.644
 4283SOL     OW13747   2.091   0.789   3.427
 4283SOL    HW113748   2.028   0.714   3.407
 4283SOL    HW213749   2.185   0.759   3.413
 4284SOL     OW13750   4.274   4.979   1.317
 4284SOL    HW113751   4.206   5.046   1.347
 4284SOL    HW213752   4.346   4.971   1.386
 4285SOL     OW13753   0.426   0.702   6.072
 4285SOL    HW113754   0.482   0.769   6.120
 4285SOL    HW213755   0.330   0.729   6.077
 4286SOL     OW13756   4.878   5.932   6.211
 4286SOL    HW113757   4.864   5.955   6.115
 4286SOL    HW213758   4.975   5.910   6.227
 4287SOL     OW13759   5.591   1.475   6.815
 4287SOL    HW113760   5.580   1.574   6.813
 4287SOL    HW213761   5.510   1.433   6.855
 4288SOL     OW13762   1.408   5.798   3.563
 4288SOL    HW113763   1.457   5.717   3.593
 4288SOL    HW213764   1.387   5.856   3.641
 4289SOL     OW13765   6.607   3.386   1.127
 4289SOL    HW113766   6.655   3.303   1.156
 4289SOL    HW213767   6.616   3.396   1.028
 4290SOL     OW13768   1.931   6.988   2.786
 4290SOL    HW113769   1.869   6.940   2.848
 4290SOL    HW213770   2.022   6.948   2.792
 4291SOL     OW13771   3.963   3.573   1.203
 4291SOL    HW113772   3.931   3.520   1.281
 4291SOL    HW213773   3.913   3.660   1.198
 4292SOL     OW13774   6.173   4.839   6.331
 4292SOL    HW113775   6.219   4.803   6.250
 4292SOL    HW213776   6.075   4.823   6.324
 4293SOL     OW13777   1.221   3.560   0.685
 4293SOL    HW113778   1.290   3.494   0.713
 4293SOL    HW213779   1.142   3.554   0.746
 4294SOL     OW13780   2.846   2.969   0.103
 4294SOL    HW113781   2.909   2.948   0.028
 4294SOL    HW213782   2.859   3.064   0.130
 4295SOL     OW13783   3.900   5.783   4.410
 4295SOL    HW113784   3.817   5.761   4.462
 4295SOL    HW213785   3.979   5.783   4.472
 4296SOL     OW13786   4.388   0.910   0.429
 4296SOL    HW113787   4.348   0.851   0.360
 4296SOL    HW213788   4.479   0.876   0.453
 4297SOL     OW13789   5.617   0.699   6.752
 4297SOL    HW113790   5.632   0.601   6.769
 4297SOL    HW213791   5.686   0.752   6.802
 4298SOL     OW13792   3.303   5.123   6.907
 4298SOL    HW113793   3.284   5.106   6.810
 4298SOL    HW213794   3.282   5.219   6.929
 4299SOL     OW13795   1.171   2.776   6.900
 4299SOL    HW113796   1.138   2.845   6.835
 4299SOL    HW213797   1.271   2.781   6.905
 4300SOL     OW13798   4.190   0.626   7.022
 4300SOL    HW113799   4.242   0.581   6.948
 4300SOL    HW213800   4.094   0.629   6.997
 4301SOL     OW13801   3.807   1.975   0.808
 4301SOL    HW113802   3.789   1.883   0.841
 4301SOL    HW213803   3.776   2.042   0.875
 4302SOL     OW13804   1.528   6.731   5.678
 4302SOL    HW113805   1.545   6.829   5.670
 4302SOL    HW213806   1.600   6.680   5.632
 4303SOL     OW13807   6.058   4.483   4.289
 4303SOL    HW113808   6.143   4.437   4.261
 4303SOL    HW213809   6.065   4.581   4.270
 4304SOL     OW13810   3.255   3.879   3.108
 4304SOL    HW113811   3.253   3.918   3.016
 4304SOL    HW213812   3.346   3.841   3.126
 4305SOL     OW13813   6.708   0.625   4.542
 4305SOL    HW113814   6.697   0.528   4.520
 4305SOL    HW213815   6.734   0.674   4.459
 4306SOL     OW13816   6.493   3.293   0.079
 4306SOL    HW113817   6.426   3.309   0.007
 4306SOL    HW213818   6.523   3.197   0.076
 4307SOL     OW13819   4.376   3.626   6.050
 4307SOL    HW113820   4.397   3.537   6.090
 4307SOL    HW213821   4.385   3.621   5.951
 4308SOL     OW13822   5.940   5.352   6.651
 4308SOL    HW113823   5.973   5.307   6.734
 4308SOL    HW213824   5.888   5.433   6.675
 4309SOL     OW13825   1.304   1.471   0.646
 4309SOL    HW113826   1.268   1.385   0.611
 4309SOL    HW213827   1.363   1.454   0.725
 4310SOL     OW13828   1.612   2.980   3.103
 4310SOL    HW113829   1.703   2.947   3.078
 4310SOL    HW213830   1.619   3.067   3.150
 4311SOL     OW13831   1.913   5.821   3.650
 4311SOL    HW113832   2.006   5.840   3.621
 4311SOL    HW213833   1.914   5.780   3.741
 4312SOL     OW13834   1.322   4.897   0.873
 4312SOL    HW113835   1.337   4.995   0.889
 4312SOL    HW213836   1.233   4.870   0.910
 4313SOL     OW13837   4.801   1.956   1.090
 4313SOL    HW113838   4.896   1.965   1.120
 4313SOL    HW213839   4.765   1.868   1.121
 4314SOL     OW13840   5.718   1.297   4.631
 4314SOL    HW113841   5.663   1.248   4.699
 4314SOL    HW213842   5.748   1.234   4.560
 4315SOL     OW13843   2.674   6.962   2.163
 4315SOL    HW113844   2.589   6.942   2.114
 4315SOL    HW213845   2.659   0.016   2.224
 4316SOL     OW13846   5.124   6.913   1.270
 4316SOL    HW113847   5.110   6.834   1.211
 4316SOL    HW213848   5.064   6.905   1.351
 4317SOL     OW13849   4.089   1.535   5.086
 4317SOL    HW113850   4.035   1.459   5.049
 4317SOL    HW213851   4.060   1.621   5.044
 4318SOL     OW13852   0.652   3.621   4.031
 4318SOL    HW113853   0.681   3.656   3.942
 4318SOL    HW213854   0.722   3.558   4.067
 4319SOL     OW13855   1.857   2.752   0.466
 4319SOL    HW113856   1.816   2.839   0.439
 4319SOL    HW213857   1.785   2.687   0.490
 4320SOL     OW13858   5.800   6.382   2.040
 4320SOL    HW113859   5.738   6.417   1.969
 4320SOL    HW213860   5.773   6.419   2.129
 4321SOL     OW13861   0.114   6.493   5.005
 4321SOL    HW113862   0.153   6.484   4.913
 4321SOL    HW213863   0.015   6.488   5.001
 4322SOL     OW13864   6.363   2.263   6.757
 4322SOL    HW113865   6.399   2.335   6.816
 4322SOL    HW213866   6.438   2.206   6.723
 4323SOL     OW13867   5.098   4.000   1.220
 4323SOL    HW113868   5.146   4.028   1.137
 4323SOL    HW213869   5.004   4.032   1.217
 4324SOL     OW13870   5.283   4.009   6.028
 4324SOL    HW113871   5.323   4.084   5.975
 4324SOL    HW213872   5.245   4.046   6.113
 4325SOL     OW13873   2.873   1.350   1.606
 4325SOL    HW113874   2.844   1.334   1.511
 4325SOL    HW213875   2.894   1.446   1.619
 4326SOL     OW13876   5.369   4.130   5.362
 4326SOL    HW113877   5.328   4.055   5.414
 4326SOL    HW213878   5.461   4.104   5.333
 4327SOL     OW13879   6.271   5.720   2.027
 4327SOL    HW113880   6.195   5.786   2.030
 4327SOL    HW213881   6.270   5.664   2.110
 4328SOL     OW13882   4.325   3.453   5.797
 4328SOL    HW113883   4.397   3.395   5.836
 4328SOL    HW213884   4.313   3.431   5.701
 4329SOL     OW13885   3.931   2.113   5.885
 4329SOL    HW113886   4.026   2.081   5.879
 4329SOL    HW213887   3.870   2.034   5.891
 4330SOL     OW13888   3.059   0.532   5.098
 4330SOL    HW113889   3.112   0.577   5.026
 4330SOL    HW213890   3.081   0.573   5.186
 4331SOL     OW13891   5.102   2.830   0.368
 4331SOL    HW113892   5.184   2.803   0.317
 4331SOL    HW213893   5.129   2.864   0.458
 4332SOL     OW13894   5.023   4.716   2.428
 4332SOL    HW113895   5.074   4.704   2.343
 4332SOL    HW213896   4.926   4.730   2.408
 4333SOL     OW13897   3.822   0.695   5.267
 4333SOL    HW113898   3.836   0.685   5.365
 4333SOL    HW213899   3.892   0.756   5.230
 4334SOL     OW13900   1.782   2.112   2.751
 4334SOL    HW113901   1.849   2.069   2.812
 4334SOL    HW213902   1.774   2.058   2.667
 4335SOL     OW13903   3.550   3.859   2.853
 4335SOL    HW113904   3.463   3.907   2.850
 4335SOL    HW213905   3.580   3.837   2.760
 4336SOL     OW13906   1.438   6.669   6.792
 4336SOL    HW113907   1.531   6.636   6.777
 4336SOL    HW213908   1.373   6.599   6.762
 4337SOL     OW13909   0.555   4.658   0.693
 4337SOL    HW113910   0.592   4.648   0.601
 4337SOL    HW213911   0.573   4.574   0.745
 4338SOL     OW13912   5.153   5.792   4.556
 4338SOL    HW113913   5.217   5.753   4.622
 4338SOL    HW213914   5.081   5.726   4.536
 4339SOL     OW13915   5.680   3.005   5.192
 4339SOL    HW113916   5.716   2.916   5.219
 4339SOL    HW213917   5.665   3.006   5.093
 4340SOL     OW13918   6.419   4.185   1.527
 4340SOL    HW113919   6.504   4.191   1.579
 4340SOL    HW213920   6.345   4.155   1.587
 4341SOL     OW13921   0.317   5.882   2.221
 4341SOL    HW113922   0.277   5.821   2.153
 4341SOL    HW213923   0.265   5.967   2.224
 4342SOL     OW13924   6.267   3.464   4.270
 4342SOL    HW113925   6.179   3.495   4.233
 4342SOL    HW213926   6.339   3.482   4.203
 4343SOL     OW13927   2.570   6.347   6.139
 4343SOL    HW113928   2.651   6.402   6.119
 4343SOL    HW213929   2.494   6.377   6.082
 4344SOL     OW13930   1.671   5.354   2.929
 4344SOL    HW113931   1.734   5.358   3.006
 4344SOL    HW213932   1.582   5.320   2.961
 4345SOL     OW13933   2.433   2.784   5.340
 4345SOL    HW113934   2.502   2.748   5.403
 4345SOL    HW213935   2.470   2.862   5.290
 4346SOL     OW13936   1.783   3.300   2.114
 4346SOL    HW113937   1.842   3.343   2.046
 4346SOL    HW213938   1.688   3.329   2.099
 4347SOL     OW13939   5.889   6.745   2.776
 4347SOL    HW113940   5.800   6.789   2.770
 4347SOL    HW213941   5.915   6.709   2.686
 4348SOL     OW13942   0.064   4.137   2.507
 4348SOL    HW113943   6.998   4.105   2.481
 4348SOL    HW213944   0.072   4.135   2.607
 4349SOL     OW13945   6.972   1.878   2.271
 4349SOL    HW113946   6.909   1.888   2.349
 4349SOL    HW213947   0.007   1.958   2.267
 4350SOL     OW13948   5.202   2.084   4.088
 4350SOL    HW113949   5.223   2.013   4.020
 4350SOL    HW213950   5.208   2.045   4.180
 4351SOL     OW13951   1.908   6.534   1.150
 4351SOL    HW113952   1.835   6.575   1.095
 4351SOL    HW213953   1.873   6.452   1.195
 4352SOL     OW13954   1.179   3.059   2.094
 4352SOL    HW113955   1.196   3.103   2.182
 4352SOL    HW213956   1.234   2.976   2.087
 4353SOL     OW13957   3.261   3.381   0.003
 4353SOL    HW113958   3.351   3.411   6.994
 4353SOL    HW213959   3.222   3.316   6.963
 4354SOL     OW13960   2.576   7.004   5.921
 4354SOL    HW113961   2.551   0.049   5.855
 4354SOL    HW213962   2.561   0.014   6.014
 4355SOL     OW13963   3.080   0.384   2.386
 4355SOL    HW113964   3.028   0.300   2.370
 4355SOL    HW213965   3.042   0.458   2.330
 4356SOL     OW13966   4.821   4.272   0.962
 4356SOL    HW113967   4.845   4.177   0.981
 4356SOL    HW213968   4.901   4.330   0.974
 4357SOL     OW13969   5.995   0.319   0.358
 4357SOL    HW113970   5.961   0.369   0.279
 4357SOL    HW213971   5.985   0.221   0.343
 4358SOL     OW13972   0.075   6.421   0.161
 4358SOL    HW113973   0.170   6.410   0.132
 4358SOL    HW213974   0.020   6.455   0.085
 4359SOL     OW13975   2.340   2.101   6.509
 4359SOL    HW113976   2.426   2.151   6.495
 4359SOL    HW213977   2.274   2.128   6.440
 4360SOL     OW13978   1.319   2.423   4.285
 4360SOL    HW113979   1.386   2.497   4.271
 4360SOL    HW213980   1.353   2.339   4.241
 4361SOL     OW13981   2.677   3.131   1.206
 4361SOL    HW113982   2.746   3.191   1.244
 4361SOL    HW213983   2.659   3.156   1.110
 4362SOL     OW13984   6.251   5.262   2.995
 4362SOL    HW113985   6.193   5.326   2.944
 4362SOL    HW213986   6.214   5.169   2.986
 4363SOL     OW13987   4.696   2.589   0.123
 4363SOL    HW113988   4.654   2.529   0.191
 4363SOL    HW213989   4.723   2.674   0.167
 4364SOL     OW13990   3.452   3.609   5.248
 4364SOL    HW113991   3.407   3.696   5.228
 4364SOL    HW213992   3.529   3.595   5.186
 4365SOL     OW13993   2.100   2.323   2.025
 4365SOL    HW113994   2.027   2.274   2.072
 4365SOL    HW213995   2.132   2.268   1.948
 4366SOL     OW13996   6.113   6.483   0.125
 4366SOL    HW113997   6.143   6.465   0.218
 4366SOL    HW213998   6.155   6.568   0.092
 4367SOL     OW13999   2.434   4.499   4.913
 4367SOL    HW114000   2.519   4.552   4.920
 4367SOL    HW214001   2.425   4.440   4.993
 4368SOL     OW14002   4.223   4.256   0.797
 4368SOL    HW114003   4.265   4.183   0.851
 4368SOL    HW214004   4.168   4.216   0.724
 4369SOL     OW14005   3.687   5.869   3.941
 4369SOL    HW114006   3.760   5.803   3.952
 4369SOL    HW214007   3.654   5.867   3.847
 4370SOL     OW14008   4.978   5.292   2.969
 4370SOL    HW114009   5.049   5.339   2.916
 4370SOL    HW214010   5.020   5.221   3.025
 4371SOL     OW14011   0.838   1.646   1.411
 4371SOL    HW114012   0.809   1.706   1.337
 4371SOL    HW214013   0.938   1.644   1.415
 4372SOL     OW14014   3.699   1.069   2.993
 4372SOL    HW114015   3.712   1.167   3.004
 4372SOL    HW214016   3.607   1.051   2.959
 4373SOL     OW14017   0.029   2.268   6.644
 4373SOL    HW114018   0.033   2.270   6.544
 4373SOL    HW214019   7.021   2.356   6.678
 4374SOL     OW14020   1.014   1.771   2.474
 4374SOL    HW114021   1.091   1.756   2.412
 4374SOL    HW214022   1.013   1.702   2.545
 4375SOL     OW14023   3.564   0.316   3.236
 4375SOL    HW114024   3.597   0.397   3.285
 4375SOL    HW214025   3.635   0.285   3.172
 4376SOL     OW14026   6.448   6.710   2.165
 4376SOL    HW114027   6.450   6.805   2.197
 4376SOL    HW214028   6.396   6.654   2.228
 4377SOL     OW14029   5.442   4.186   0.643
 4377SOL    HW114030   5.345   4.212   0.640
 4377SOL    HW214031   5.499   4.265   0.621
 4378SOL     OW14032   2.062   1.624   2.900
 4378SOL    HW114033   2.141   1.646   2.843
 4378SOL    HW214034   2.085   1.549   2.961
 4379SOL     OW14035   1.949   1.035   2.729
 4379SOL    HW114036   1.867   1.028   2.672
 4379SOL    HW214037   2.002   1.115   2.703
 4380SOL     OW14038   1.680   6.687   2.919
 4380SOL    HW114039   1.622   6.768   2.917
 4380SOL    HW214040   1.696   6.655   2.826
 4381SOL     OW14041   0.632   5.714   5.443
 4381SOL    HW114042   0.663   5.803   5.478
 4381SOL    HW214043   0.587   5.664   5.517
 4382SOL     OW14044   0.718   3.716   5.151
 4382SOL    HW114045   0.689   3.787   5.087
 4382SOL    HW214046   0.663   3.722   5.234
 4383SOL     OW14047   0.371   3.335   6.979
 4383SOL    HW114048   0.301   3.273   7.016
 4383SOL    HW214049   0.460   3.312   7.019
 4384SOL     OW14050   5.990   0.361   4.623
 4384SOL    HW114051   6.054   0.383   4.697
 4384SOL    HW214052   6.006   0.421   4.545
 4385SOL     OW14053   5.560   2.695   5.049
 4385SOL    HW114054   5.531   2.790   5.031
 4385SOL    HW214055   5.496   2.632   5.006
 4386SOL     OW14056   1.816   3.547   6.050
 4386SOL    HW114057   1.803   3.554   6.149
 4386SOL    HW214058   1.794   3.635   6.007
 4387SOL     OW14059   6.661   2.504   1.739
 4387SOL    HW114060   6.714   2.445   1.799
 4387SOL    HW214061   6.703   2.595   1.736
 4388SOL     OW14062   4.226   2.180   5.582
 4388SOL    HW114063   4.166   2.251   5.619
 4388SOL    HW214064   4.313   2.221   5.553
 4389SOL     OW14065   6.050   3.230   1.047
 4389SOL    HW114066   6.035   3.240   0.948
 4389SOL    HW214067   6.093   3.142   1.065
 4390SOL     OW14068   3.592   6.823   1.704
 4390SOL    HW114069   3.551   6.732   1.691
 4390SOL    HW214070   3.614   6.835   1.801
 4391SOL     OW14071   2.156   5.938   6.963
 4391SOL    HW114072   2.057   5.929   6.954
 4391SOL    HW214073   2.185   6.028   6.931
 4392SOL     OW14074   0.257   2.988   5.341
 4392SOL    HW114075   0.287   3.001   5.246
 4392SOL    HW214076   0.336   2.976   5.400
 4393SOL     OW14077   6.318   1.192   1.863
 4393SOL    HW114078   6.258   1.159   1.936
 4393SOL    HW214079   6.333   1.119   1.797
 4394SOL     OW14080   6.699   5.350   2.345
 4394SOL    HW114081   6.646   5.379   2.425
 4394SOL    HW214082   6.741   5.429   2.302
 4395SOL     OW14083   2.075   0.359   1.947
 4395SOL    HW114084   2.088   0.339   1.849
 4395SOL    HW214085   1.978   0.374   1.965
 4396SOL     OW14086   1.782   1.365   4.146
 4396SOL    HW114087   1.777   1.464   4.139
 4396SOL    HW214088   1.875   1.338   4.173
 4397SOL     OW14089   1.916   2.676   4.068
 4397SOL    HW114090   1.859   2.753   4.096
 4397SOL    HW214091   1.901   2.599   4.130
 4398SOL     OW14092   1.031   3.394   5.959
 4398SOL    HW114093   0.935   3.379   5.934
 4398SOL    HW214094   1.076   3.305   5.971
 4399SOL     OW14095   3.423   6.443   2.627
 4399SOL    HW114096   3.493   6.418   2.693
 4399SOL    HW214097   3.430   6.540   2.606
 4400SOL     OW14098   2.169   6.300   5.224
 4400SOL    HW114099   2.152   6.358   5.304
 4400SOL    HW214100   2.260   6.319   5.188
 4401SOL     OW14101   2.831   6.877   5.672
 4401SOL    HW114102   2.748   6.822   5.666
 4401SOL    HW214103   2.807   6.974   5.667
 4402SOL     OW14104   1.526   0.435   2.516
 4402SOL    HW114105   1.430   0.407   2.518
 4402SOL    HW214106   1.532   0.533   2.500
 4403SOL     OW14107   0.729   0.641   0.607
 4403SOL    HW114108   0.743   0.633   0.705
 4403SOL    HW214109   0.745   0.736   0.579
 4404SOL     OW14110   1.794   6.402   5.911
 4404SOL    HW114111   1.814   6.364   5.820
 4404SOL    HW214112   1.745   6.489   5.900
 4405SOL     OW14113   1.966   4.452   1.877
 4405SOL    HW114114   1.960   4.386   1.951
 4405SOL    HW214115   1.874   4.482   1.851
 4406SOL     OW14116   0.779   2.623   0.624
 4406SOL    HW114117   0.777   2.710   0.673
 4406SOL    HW214118   0.755   2.548   0.687
 4407SOL     OW14119   6.668   5.850   1.263
 4407SOL    HW114120   6.644   5.753   1.254
 4407SOL    HW214121   6.692   5.871   1.358
 4408SOL     OW14122   2.289   6.841   0.759
 4408SOL    HW114123   2.206   6.785   0.757
 4408SOL    HW214124   2.314   6.866   0.665
 4409SOL     OW14125   4.559   1.225   2.331
 4409SOL    HW114126   4.621   1.298   2.302
 4409SOL    HW214127   4.533   1.170   2.251
 4410SOL     OW14128   0.563   4.677   0.326
 4410SOL    HW114129   0.494   4.604   0.323
 4410SOL    HW214130   0.650   4.642   0.294
 4411SOL     OW14131   3.790   4.321   5.206
 4411SOL    HW114132   3.822   4.349   5.296
 4411SOL    HW214133   3.762   4.401   5.154
 4412SOL     OW14134   4.723   6.233   3.901
 4412SOL    HW114135   4.806   6.204   3.853
 4412SOL    HW214136   4.737   6.323   3.941
 4413SOL     OW14137   5.960   4.796   4.176
 4413SOL    HW114138   6.015   4.859   4.120
 4413SOL    HW214139   5.920   4.726   4.117
 4414SOL     OW14140   3.641   5.805   1.302
 4414SOL    HW114141   3.671   5.731   1.242
 4414SOL    HW214142   3.629   5.889   1.249
 4415SOL     OW14143   4.436   2.800   0.125
 4415SOL    HW114144   4.442   2.726   0.058
 4415SOL    HW214145   4.495   2.876   0.096
 4416SOL     OW14146   4.150   1.906   3.761
 4416SOL    HW114147   4.055   1.882   3.784
 4416SOL    HW214148   4.164   1.897   3.662
 4417SOL     OW14149   6.143   3.906   4.092
 4417SOL    HW114150   6.215   3.844   4.123
 4417SOL    HW214151   6.117   3.967   4.167
 4418SOL     OW14152   6.312   1.806   2.435
 4418SOL    HW114153   6.313   1.719   2.485
 4418SOL    HW214154   6.228   1.856   2.457
 4419SOL     OW14155   5.891   0.300   5.558
 4419SOL    HW114156   5.828   0.343   5.623
 4419SOL    HW214157   5.841   0.236   5.500
 4420SOL     OW14158   4.087   0.965   1.801
 4420SOL    HW114159   4.016   0.967   1.730
 4420SOL    HW214160   4.044   0.980   1.890
 4421SOL     OW14161   1.971   1.870   4.772
 4421SOL    HW114162   2.059   1.833   4.803
 4421SOL    HW214163   1.968   1.968   4.790
 4422SOL     OW14164   1.234   4.245   6.683
 4422SOL    HW114165   1.213   4.341   6.667
 4422SOL    HW214166   1.273   4.234   6.774
 4423SOL     OW14167   0.007   3.508   5.453
 4423SOL    HW114168   6.991   3.530   5.541
 4423SOL    HW214169   7.016   3.584   5.389
 4424SOL     OW14170   5.485   0.694   4.049
 4424SOL    HW114171   5.427   0.735   4.119
 4424SOL    HW214172   5.441   0.611   4.014
 4425SOL     OW14173   3.353   4.993   0.320
 4425SOL    HW114174   3.345   4.963   0.224
 4425SOL    HW214175   3.288   4.941   0.376
 4426SOL     OW14176   1.034   0.933   3.898
 4426SOL    HW114177   1.044   1.011   3.960
 4426SOL    HW214178   0.943   0.893   3.908
 4427SOL     OW14179   5.778   6.583   2.506
 4427SOL    HW114180   5.878   6.579   2.507
 4427SOL    HW214181   5.746   6.594   2.412
 4428SOL     OW14182   4.152   0.695   3.456
 4428SOL    HW114183   4.185   0.637   3.530
 4428SOL    HW214184   4.111   0.778   3.494
 4429SOL     OW14185   2.862   0.132   2.015
 4429SOL    HW114186   2.851   0.169   1.923
 4429SOL    HW214187   2.795   0.060   2.031
 4430SOL     OW14188   5.075   4.992   4.883
 4430SOL    HW114189   5.013   4.915   4.902
 4430SOL    HW214190   5.167   4.968   4.912
 4431SOL     OW14191   2.305   0.856   2.897
 4431SOL    HW114192   2.250   0.930   2.934
 4431SOL    HW214193   2.402   0.874   2.912
 4432SOL     OW14194   2.839   3.113   6.024
 4432SOL    HW114195   2.776   3.190   6.036
 4432SOL    HW214196   2.796   3.044   5.967
 4433SOL     OW14197   6.061   2.090   4.108
 4433SOL    HW114198   6.104   2.179   4.127
 4433SOL    HW214199   6.012   2.095   4.021
 4434SOL     OW14200   5.600   1.536   3.078
 4434SOL    HW114201   5.680   1.592   3.095
 4434SOL    HW214202   5.603   1.500   2.985
 4435SOL     OW14203   4.404   3.754   1.153
 4435SOL    HW114204   4.390   3.712   1.242
 4435SOL    HW214205   4.370   3.693   1.081
 4436SOL     OW14206   4.599   1.234   1.462
 4436SOL    HW114207   4.684   1.283   1.481
 4436SOL    HW214208   4.616   1.162   1.394
 4437SOL     OW14209   1.097   2.933   2.937
 4437SOL    HW114210   1.062   2.987   2.860
 4437SOL    HW214211   1.187   2.896   2.913
 4438SOL     OW14212   4.808   6.814   6.674
 4438SOL    HW114213   4.731   6.877   6.675
 4438SOL    HW214214   4.880   6.848   6.734
 4439SOL     OW14215   0.125   4.298   1.541
 4439SOL    HW114216   0.028   4.317   1.555
 4439SOL    HW214217   0.176   4.325   1.623
 4440SOL     OW14218   3.071   4.964   1.012
 4440SOL    HW114219   3.035   5.053   0.982
 4440SOL    HW214220   3.148   4.980   1.074
 4441SOL     OW14221   0.556   1.536   2.070
 4441SOL    HW114222   0.498   1.544   1.989
 4441SOL    HW214223   0.578   1.627   2.105
 4442SOL     OW14224   1.744   5.037   4.302
 4442SOL    HW114225   1.688   4.968   4.350
 4442SOL    HW214226   1.786   5.098   4.369
 4443SOL     OW14227   1.423   3.510   5.759
 4443SOL    HW114228   1.438   3.589   5.699
 4443SOL    HW214229   1.510   3.478   5.795
 4444SOL     OW14230   3.510   3.800   6.950
 4444SOL    HW114231   3.545   3.887   6.916
 4444SOL    HW214232   3.437   3.767   6.891
 4445SOL     OW14233   1.310   6.694   0.311
 4445SOL    HW114234   1.272   6.780   0.278
 4445SOL    HW214235   1.298   6.688   0.410
 4446SOL     OW14236   5.255   2.025   0.829
 4446SOL    HW114237   5.181   2.077   0.871
 4446SOL    HW214238   5.339   2.078   0.830
 4447SOL     OW14239   5.767   4.029   5.587
 4447SOL    HW114240   5.736   3.961   5.654
 4447SOL    HW214241   5.756   4.120   5.625
 4448SOL     OW14242   2.475   5.478   1.640
 4448SOL    HW114243   2.381   5.506   1.656
 4448SOL    HW214244   2.476   5.388   1.594
 4449SOL     OW14245   5.274   0.750   6.118
 4449SOL    HW114246   5.228   0.673   6.162
 4449SOL    HW214247   5.214   0.787   6.046
 4450SOL     OW14248   3.416   2.134   6.075
 4450SOL    HW114249   3.334   2.153   6.021
 4450SOL    HW214250   3.446   2.217   6.122
 4451SOL     OW14251   5.384   4.846   4.139
 4451SOL    HW114252   5.456   4.791   4.182
 4451SOL    HW214253   5.323   4.882   4.210
 4452SOL     OW14254   5.608   5.881   4.178
 4452SOL    HW114255   5.594   5.863   4.081
 4452SOL    HW214256   5.577   5.802   4.231
 4453SOL     OW14257   1.637   2.981   1.538
 4453SOL    HW114258   1.550   3.017   1.505
 4453SOL    HW214259   1.655   3.016   1.630
 4454SOL     OW14260   1.232   1.844   7.009
 4454SOL    HW114261   1.156   1.780   7.000
 4454SOL    HW214262   1.289   1.840   6.927
 4455SOL     OW14263   5.508   5.385   5.394
 4455SOL    HW114264   5.520   5.482   5.375
 4455SOL    HW214265   5.506   5.334   5.308
 4456SOL     OW14266   2.558   6.319   3.392
 4456SOL    HW114267   2.605   6.389   3.340
 4456SOL    HW214268   2.502   6.263   3.331
 4457SOL     OW14269   3.642   1.635   3.167
 4457SOL    HW114270   3.630   1.726   3.208
 4457SOL    HW214271   3.721   1.590   3.208
 4458SOL     OW14272   2.094   3.328   0.721
 4458SOL    HW114273   2.046   3.367   0.642
 4458SOL    HW214274   2.154   3.254   0.691
 4459SOL     OW14275   4.219   2.125   4.663
 4459SOL    HW114276   4.176   2.142   4.752
 4459SOL    HW214277   4.202   2.030   4.636
 4460SOL     OW14278   0.985   3.096   0.326
 4460SOL    HW114279   1.060   3.047   0.280
 4460SOL    HW214280   0.900   3.046   0.313
 4461SOL     OW14281   2.035   0.766   0.821
 4461SOL    HW114282   2.095   0.687   0.823
 4461SOL    HW214283   2.068   0.835   0.885
 4462SOL     OW14284   6.037   4.783   2.356
 4462SOL    HW114285   5.978   4.858   2.326
 4462SOL    HW214286   5.998   4.696   2.328
 4463SOL     OW14287   4.633   1.273   0.858
 4463SOL    HW114288   4.555   1.280   0.920
 4463SOL    HW214289   4.630   1.184   0.811
 4464SOL     OW14290   0.231   5.757   0.484
 4464SOL    HW114291   0.246   5.834   0.546
 4464SOL    HW214292   0.225   5.791   0.390
 4465SOL     OW14293   3.748   5.217   0.860
 4465SOL    HW114294   3.784   5.231   0.953
 4465SOL    HW214295   3.683   5.141   0.861
 4466SOL     OW14296   1.107   2.143   3.309
 4466SOL    HW114297   1.059   2.057   3.292
 4466SOL    HW214298   1.040   2.215   3.330
 4467SOL     OW14299   2.174   5.058   3.388
 4467SOL    HW114300   2.104   5.110   3.437
 4467SOL    HW214301   2.132   4.981   3.340
 4468SOL     OW14302   2.065   4.084   0.649
 4468SOL    HW114303   2.029   3.993   0.665
 4468SOL    HW214304   2.108   4.119   0.732
 4469SOL     OW14305   3.437   0.998   1.043
 4469SOL    HW114306   3.496   1.047   0.978
 4469SOL    HW214307   3.392   0.922   0.996
 4470SOL     OW14308   0.597   1.516   2.725
 4470SOL    HW114309   0.590   1.583   2.650
 4470SOL    HW214310   0.533   1.539   2.797
 4471SOL     OW14311   0.769   2.672   6.737
 4471SOL    HW114312   0.842   2.659   6.803
 4471SOL    HW214313   0.800   2.644   6.646
 4472SOL     OW14314   0.232   2.789   1.514
 4472SOL    HW114315   0.246   2.696   1.548
 4472SOL    HW214316   0.298   2.808   1.442
 4473SOL     OW14317   6.002   3.229   4.548
 4473SOL    HW114318   6.076   3.231   4.481
 4473SOL    HW214319   6.039   3.248   4.639
 4474SOL     OW14320   3.134   6.790   2.132
 4474SOL    HW114321   3.155   6.714   2.193
 4474SOL    HW214322   3.056   6.765   2.074
 4475SOL     OW14323   1.393   3.969   1.882
 4475SOL    HW114324   1.483   3.932   1.908
 4475SOL    HW214325   1.358   3.919   1.803
 4476SOL     OW14326   6.194   1.224   3.292
 4476SOL    HW114327   6.220   1.198   3.385
 4476SOL    HW214328   6.114   1.170   3.264
 4477SOL     OW14329   1.630   0.650   5.105
 4477SOL    HW114330   1.686   0.571   5.081
 4477SOL    HW214331   1.541   0.618   5.140
 4478SOL     OW14332   2.743   6.901   2.502
 4478SOL    HW114333   2.679   6.919   2.577
 4478SOL    HW214334   2.802   6.981   2.489
 4479SOL     OW14335   0.264   2.097   1.604
 4479SOL    HW114336   0.165   2.096   1.619
 4479SOL    HW214337   0.302   2.007   1.625
 4480SOL     OW14338   6.914   4.056   5.094
 4480SOL    HW114339   6.922   4.143   5.047
 4480SOL    HW214340   7.005   4.014   5.104
 4481SOL     OW14341   2.295   5.392   5.017
 4481SOL    HW114342   2.294   5.413   5.115
 4481SOL    HW214343   2.276   5.475   4.965
 4482SOL     OW14344   2.002   3.015   5.366
 4482SOL    HW114345   2.075   2.971   5.312
 4482SOL    HW214346   1.937   3.059   5.304
 4483SOL     OW14347   6.858   2.342   2.211
 4483SOL    HW114348   6.932   2.348   2.278
 4483SOL    HW214349   6.776   2.306   2.256
 4484SOL     OW14350   3.046   2.198   6.458
 4484SOL    HW114351   3.008   2.284   6.491
 4484SOL    HW214352   3.135   2.182   6.501
 4485SOL     OW14353   5.916   2.544   4.677
 4485SOL    HW114354   5.891   2.462   4.625
 4485SOL    HW214355   5.842   2.567   4.740
 4486SOL     OW14356   6.077   5.409   4.432
 4486SOL    HW114357   6.126   5.344   4.490
 4486SOL    HW214358   6.023   5.470   4.490
 4487SOL     OW14359   2.704   2.578   6.805
 4487SOL    HW114360   2.659   2.534   6.882
 4487SOL    HW214361   2.802   2.590   6.826
 4488SOL     OW14362   1.236   3.452   5.444
 4488SOL    HW114363   1.262   3.541   5.407
 4488SOL    HW214364   1.317   3.406   5.480
 4489SOL     OW14365   5.040   5.392   4.629
 4489SOL    HW114366   4.997   5.432   4.549
 4489SOL    HW214367   5.018   5.446   4.710
 4490SOL     OW14368   5.008   2.065   1.411
 4490SOL    HW114369   4.940   2.071   1.484
 4490SOL    HW214370   5.098   2.046   1.452
 4491SOL     OW14371   0.014   3.522   3.914
 4491SOL    HW114372   0.107   3.534   3.948
 4491SOL    HW214373   0.016   3.509   3.815
 4492SOL     OW14374   6.238   3.562   1.960
 4492SOL    HW114375   6.183   3.635   1.921
 4492SOL    HW214376   6.181   3.504   2.019
 4493SOL     OW14377   5.423   6.079   4.878
 4493SOL    HW114378   5.329   6.047   4.888
 4493SOL    HW214379   5.480   6.038   4.949
 4494SOL     OW14380   0.144   0.734   6.038
 4494SOL    HW114381   0.159   0.647   5.992
 4494SOL    HW214382   0.098   0.798   5.976
 4495SOL     OW14383   4.628   0.398   3.865
 4495SOL    HW114384   4.679   0.474   3.904
 4495SOL    HW214385   4.628   0.405   3.765
 4496SOL     OW14386   5.458   6.208   0.652
 4496SOL    HW114387   5.393   6.157   0.708
 4496SOL    HW214388   5.464   6.302   0.686
 4497SOL     OW14389   4.075   1.840   6.502
 4497SOL    HW114390   4.060   1.803   6.410
 4497SOL    HW214391   4.165   1.812   6.535
 4498SOL     OW14392   7.007   4.632   6.898
 4498SOL    HW114393   0.019   4.724   6.886
 4498SOL    HW214394   0.039   4.567   6.847
 4499SOL     OW14395   6.207   3.089   3.504
 4499SOL    HW114396   6.285   3.066   3.445
 4499SOL    HW214397   6.209   3.187   3.523
 4500SOL     OW14398   3.503   3.778   5.900
 4500SOL    HW114399   3.434   3.780   5.828
 4500SOL    HW214400   3.566   3.854   5.888
 4501SOL     OW14401   6.738   3.581   2.895
 4501SOL    HW114402   6.726   3.518   2.971
 4501SOL    HW214403   6.832   3.614   2.893
 4502SOL     OW14404   0.610   3.284   0.064
 4502SOL    HW114405   0.626   3.349   0.139
 4502SOL    HW214406   0.628   3.191   0.097
 4503SOL     OW14407   3.726   7.022   1.579
 4503SOL    HW114408   3.691   6.939   1.623
 4503SOL    HW214409   3.709   7.017   1.481
 4504SOL     OW14410   0.985   1.343   4.391
 4504SOL    HW114411   0.933   1.260   4.412
 4504SOL    HW214412   1.070   1.344   4.443
 4505SOL     OW14413   6.393   4.981   1.864
 4505SOL    HW114414   6.367   5.061   1.810
 4505SOL    HW214415   6.492   4.969   1.860
 4506SOL     OW14416   5.036   2.696   3.279
 4506SOL    HW114417   5.054   2.721   3.184
 4506SOL    HW214418   4.950   2.736   3.310
 4507SOL     OW14419   0.006   3.501   3.659
 4507SOL    HW114420   0.010   3.593   3.618
 4507SOL    HW214421   0.029   3.433   3.589
 4508SOL     OW14422   1.631   5.084   6.479
 4508SOL    HW114423   1.601   5.000   6.523
 4508SOL    HW214424   1.715   5.067   6.428
 4509SOL     OW14425   4.958   1.994   3.084
 4509SOL    HW114426   4.980   1.915   3.141
 4509SOL    HW214427   4.884   1.970   3.021
 4510SOL     OW14428   4.127   1.608   4.377
 4510SOL    HW114429   4.055   1.547   4.408
 4510SOL    HW214430   4.216   1.571   4.403
 4511SOL     OW14431   6.047   3.383   6.420
 4511SOL    HW114432   6.000   3.454   6.366
 4511SOL    HW214433   6.113   3.335   6.362
 4512SOL     OW14434   3.165   0.542   5.868
 4512SOL    HW114435   3.135   0.597   5.946
 4512SOL    HW214436   3.131   0.448   5.879
 4513SOL     OW14437   0.716   4.899   6.318
 4513SOL    HW114438   0.680   4.919   6.409
 4513SOL    HW214439   0.814   4.878   6.324
 4514SOL     OW14440   3.185   2.475   5.889
 4514SOL    HW114441   3.125   2.450   5.813
 4514SOL    HW214442   3.185   2.575   5.899
 4515SOL     OW14443   5.724   2.011   5.244
 4515SOL    HW114444   5.648   2.050   5.192
 4515SOL    HW214445   5.706   2.022   5.342
 4516SOL     OW14446   2.529   0.110   0.213
 4516SOL    HW114447   2.505   0.153   0.126
 4516SOL    HW214448   2.466   0.142   0.284
 4517SOL     OW14449   4.978   6.767   6.477
 4517SOL    HW114450   4.905   6.774   6.545
 4517SOL    HW214451   4.963   6.686   6.421
 4518SOL     OW14452   0.218   6.694   2.165
 4518SOL    HW114453   0.303   6.731   2.203
 4518SOL    HW214454   0.239   6.613   2.110
 4519SOL     OW14455   5.394   6.661   0.938
 4519SOL    HW114456   5.436   6.743   0.898
 4519SOL    HW214457   5.460   6.616   0.998
 4520SOL     OW14458   4.333   6.067   6.132
 4520SOL    HW114459   4.235   6.078   6.116
 4520SOL    HW214460   4.366   5.989   6.080
 4521SOL     OW14461   5.753   2.131   5.689
 4521SOL    HW114462   5.824   2.193   5.656
 4521SOL    HW214463   5.790   2.076   5.764
 4522SOL     OW14464   5.776   4.865   3.446
 4522SOL    HW114465   5.771   4.826   3.355
 4522SOL    HW214466   5.729   4.953   3.448
 4523SOL     OW14467   1.771   4.196   0.251
 4523SOL    HW114468   1.829   4.253   0.192
 4523SOL    HW214469   1.829   4.141   0.311
 4524SOL     OW14470   6.278   3.339   2.349
 4524SOL    HW114471   6.220   3.290   2.414
 4524SOL    HW214472   6.369   3.352   2.389
 4525SOL     OW14473   4.041   2.175   5.373
 4525SOL    HW114474   3.974   2.122   5.321
 4525SOL    HW214475   4.077   2.120   5.448
 4526SOL     OW14476   6.475   0.264   6.738
 4526SOL    HW114477   6.447   0.238   6.645
 4526SOL    HW214478   6.432   0.202   6.804
 4527SOL     OW14479   6.657   6.908   2.524
 4527SOL    HW114480   6.737   6.850   2.512
 4527SOL    HW214481   6.574   6.855   2.502
 4528SOL     OW14482   4.375   0.469   6.550
 4528SOL    HW114483   4.313   0.524   6.607
 4528SOL    HW214484   4.461   0.454   6.598
 4529SOL     OW14485   2.257   0.847   5.218
 4529SOL    HW114486   2.296   0.777   5.277
 4529SOL    HW214487   2.214   0.918   5.274
 4530SOL     OW14488   2.720   5.440   3.212
 4530SOL    HW114489   2.810   5.479   3.230
 4530SOL    HW214490   2.727   5.340   3.205
 4531SOL     OW14491   0.507   3.186   6.074
 4531SOL    HW114492   0.512   3.172   6.173
 4531SOL    HW214493   0.567   3.261   6.048
 4532SOL     OW14494   6.644   1.156   2.376
 4532SOL    HW114495   6.698   1.094   2.318
 4532SOL    HW214496   6.701   1.188   2.452
 4533SOL     OW14497   1.969   0.916   2.978
 4533SOL    HW114498   2.049   0.963   3.015
 4533SOL    HW214499   1.951   0.949   2.886
 4534SOL     OW14500   5.481   3.625   5.465
 4534SOL    HW114501   5.427   3.562   5.520
 4534SOL    HW214502   5.568   3.643   5.510
 4535SOL     OW14503   3.930   0.989   2.009
 4535SOL    HW114504   3.870   0.912   1.986
 4535SOL    HW214505   3.878   1.074   2.009
 4536SOL     OW14506   3.392   1.788   4.801
 4536SOL    HW114507   3.439   1.869   4.767
 4536SOL    HW214508   3.363   1.803   4.895
 4537SOL     OW14509   4.206   3.424   1.148
 4537SOL    HW114510   4.127   3.480   1.172
 4537SOL    HW214511   4.278   3.438   1.216
 4538SOL     OW14512   2.792   0.695   2.058
 4538SOL    HW114513   2.828   0.787   2.045
 4538SOL    HW214514   2.787   0.648   1.969
 4539SOL     OW14515   2.972   5.711   5.237
 4539SOL    HW114516   3.055   5.766   5.234
 4539SOL    HW214517   2.892   5.772   5.244
 4540SOL     OW14518   2.471   1.270   0.073
 4540SOL    HW114519   2.439   1.260   0.167
 4540SOL    HW214520   2.416   1.340   0.027
 4541SOL     OW14521   5.322   1.365   6.460
 4541SOL    HW114522   5.358   1.272   6.450
 4541SOL    HW214523   5.380   1.429   6.410
 4542SOL     OW14524   0.155   2.831   1.979
 4542SOL    HW114525   0.072   2.795   1.937
 4542SOL    HW214526   0.216   2.755   2.004
 4543SOL     OW14527   5.002   2.480   1.141
 4543SOL    HW114528   5.025   2.554   1.079
 4543SOL    HW214529   4.913   2.497   1.184
 4544SOL     OW14530   3.287   5.454   6.933
 4544SOL    HW114531   3.349   5.449   7.011
 4544SOL    HW214532   3.335   5.490   6.854
 4545SOL     OW14533   6.351   2.973   5.027
 4545SOL    HW114534   6.350   3.011   5.120
 4545SOL    HW214535   6.331   3.045   4.961
 4546SOL     OW14536   2.800   6.673   4.314
 4546SOL    HW114537   2.854   6.708   4.238
 4546SOL    HW214538   2.710   6.718   4.313
 4547SOL     OW14539   6.391   1.380   0.771
 4547SOL    HW114540   6.306   1.381   0.718
 4547SOL    HW214541   6.468   1.401   0.710
 4548SOL     OW14542   2.528   2.563   3.634
 4548SOL    HW114543   2.532   2.592   3.729
 4548SOL    HW214544   2.442   2.595   3.593
 4549SOL     OW14545   5.376   3.875   2.136
 4549SOL    HW114546   5.399   3.922   2.221
 4549SOL    HW214547   5.299   3.812   2.152
 4550SOL     OW14548   1.034   4.209   2.875
 4550SOL    HW114549   0.968   4.138   2.848
 4550SOL    HW214550   0.985   4.287   2.914
 4551SOL     OW14551   0.642   3.692   4.658
 4551SOL    HW114552   0.606   3.634   4.584
 4551SOL    HW214553   0.567   3.741   4.701
 4552SOL     OW14554   5.215   2.300   1.118
 4552SOL    HW114555   5.277   2.329   1.045
 4552SOL    HW214556   5.141   2.367   1.127
 4553SOL     OW14557   5.187   3.458   0.227
 4553SOL    HW114558   5.253   3.383   0.227
 4553SOL    HW214559   5.157   3.476   0.134
 4554SOL     OW14560   6.695   0.429   1.584
 4554SOL    HW114561   6.785   0.387   1.592
 4554SOL    HW214562   6.704   0.529   1.594
 4555SOL     OW14563   1.566   0.984   5.800
 4555SOL    HW114564   1.588   0.899   5.753
 4555SOL    HW214565   1.613   1.060   5.755
 4556SOL     OW14566   5.833   3.494   4.672
 4556SOL    HW114567   5.871   3.505   4.764
 4556SOL    HW214568   5.908   3.493   4.605
 4557SOL     OW14569   4.926   5.421   4.161
 4557SOL    HW114570   4.851   5.390   4.220
 4557SOL    HW214571   5.000   5.353   4.163
 4558SOL     OW14572   0.047   3.806   4.714
 4558SOL    HW114573   0.105   3.785   4.635
 4558SOL    HW214574   0.026   3.721   4.762
 4559SOL     OW14575   6.951   3.345   2.745
 4559SOL    HW114576   6.918   3.355   2.651
 4559SOL    HW214577   6.977   3.434   2.781
 4560SOL     OW14578   6.005   3.519   1.385
 4560SOL    HW114579   6.019   3.506   1.483
 4560SOL    HW214580   6.013   3.430   1.339
 4561SOL     OW14581   3.487   2.127   3.455
 4561SOL    HW114582   3.533   2.044   3.487
 4561SOL    HW214583   3.517   2.147   3.361
 4562SOL     OW14584   1.429   0.061   0.703
 4562SOL    HW114585   1.384   0.150   0.692
 4562SOL    HW214586   1.385   0.010   0.777
 4563SOL     OW14587   0.087   3.239   1.497
 4563SOL    HW114588   0.120   3.305   1.564
 4563SOL    HW214589   0.114   3.147   1.524
 4564SOL     OW14590   6.570   6.241   1.957
 4564SOL    HW114591   6.667   6.248   1.936
 4564SOL    HW214592   6.551   6.152   1.999
 4565SOL     OW14593   1.523   0.452   4.411
 4565SOL    HW114594   1.604   0.437   4.468
 4565SOL    HW214595   1.546   0.516   4.337
 4566SOL     OW14596   6.827   3.551   1.498
 4566SOL    HW114597   6.918   3.513   1.513
 4566SOL    HW214598   6.825   3.646   1.530
 4567SOL     OW14599   6.953   1.582   6.129
 4567SOL    HW114600   6.917   1.653   6.190
 4567SOL    HW214601   6.913   1.494   6.152
 4568SOL     OW14602   1.727   3.773   5.926
 4568SOL    HW114603   1.805   3.830   5.951
 4568SOL    HW214604   1.644   3.808   5.969
 4569SOL     OW14605   2.361   0.293   3.354
 4569SOL    HW114606   2.304   0.212   3.343
 4569SOL    HW214607   2.341   0.358   3.280
 4570SOL     OW14608   6.257   6.376   2.419
 4570SOL    HW114609   6.310   6.366   2.504
 4570SOL    HW214610   6.307   6.333   2.344
 4571SOL     OW14611   4.985   3.080   6.329
 4571SOL    HW114612   4.958   3.152   6.265
 4571SOL    HW214613   5.031   3.007   6.280
 4572SOL     OW14614   2.325   0.876   6.423
 4572SOL    HW114615   2.267   0.839   6.496
 4572SOL    HW214616   2.282   0.857   6.335
 4573SOL     OW14617   0.168   0.020   0.474
 4573SOL    HW114618   0.118   6.987   0.409
 4573SOL    HW214619   0.109   0.040   0.553
 4574SOL     OW14620   5.696   4.084   0.275
 4574SOL    HW114621   5.712   4.057   0.371
 4574SOL    HW214622   5.761   4.155   0.250
 4575SOL     OW14623   5.377   0.252   4.945
 4575SOL    HW114624   5.280   0.238   4.965
 4575SOL    HW214625   5.400   0.349   4.954
 4576SOL     OW14626   3.248   5.320   5.226
 4576SOL    HW114627   3.250   5.316   5.126
 4576SOL    HW214628   3.335   5.357   5.259
 4577SOL     OW14629   1.163   3.165   4.251
 4577SOL    HW114630   1.239   3.188   4.312
 4577SOL    HW214631   1.120   3.249   4.218
 4578SOL     OW14632   0.969   2.027   5.039
 4578SOL    HW114633   0.900   1.961   5.009
 4578SOL    HW214634   1.039   2.036   4.968
 4579SOL     OW14635   4.568   0.830   2.863
 4579SOL    HW114636   4.584   0.770   2.785
 4579SOL    HW214637   4.597   0.923   2.840
 4580SOL     OW14638   5.688   3.647   0.628
 4580SOL    HW114639   5.779   3.637   0.587
 4580SOL    HW214640   5.622   3.670   0.556
 4581SOL     OW14641   2.428   5.943   2.709
 4581SOL    HW114642   2.378   6.029   2.717
 4581SOL    HW214643   2.447   5.907   2.801
 4582SOL     OW14644   4.850   0.934   3.823
 4582SOL    HW114645   4.774   0.958   3.884
 4582SOL    HW214646   4.820   0.940   3.728
 4583SOL     OW14647   2.902   1.531   6.946
 4583SOL    HW114648   2.964   1.585   7.003
 4583SOL    HW214649   2.947   1.446   6.919
 4584SOL     OW14650   1.413   5.250   5.143
 4584SOL    HW114651   1.361   5.334   5.158
 4584SOL    HW214652   1.410   5.194   5.225
 4585SOL     OW14653   2.410   4.826   3.385
 4585SOL    HW114654   2.455   4.872   3.307
 4585SOL    HW214655   2.467   4.835   3.466
 4586SOL     OW14656   3.915   3.928   0.612
 4586SOL    HW114657   3.909   3.854   0.679
 4586SOL    HW214658   3.831   3.931   0.558
 4587SOL     OW14659   3.331   3.651   3.612
 4587SOL    HW114660   3.296   3.557   3.619
 4587SOL    HW214661   3.342   3.675   3.515
 4588SOL     OW14662   3.167   2.758   5.900
 4588SOL    HW114663   3.175   2.827   5.829
 4588SOL    HW214664   3.071   2.750   5.928
 4589SOL     OW14665   5.812   0.783   2.095
 4589SOL    HW114666   5.804   0.843   2.014
 4589SOL    HW214667   5.897   0.731   2.089
 4590SOL     OW14668   3.886   5.264   1.106
 4590SOL    HW114669   3.978   5.287   1.076
 4590SOL    HW214670   3.891   5.204   1.186
 4591SOL     OW14671   1.685   0.401   5.023
 4591SOL    HW114672   1.785   0.394   5.021
 4591SOL    HW214673   1.646   0.316   5.055
 4592SOL     OW14674   3.143   1.104   2.940
 4592SOL    HW114675   3.101   1.052   2.866
 4592SOL    HW214676   3.101   1.195   2.945
 4593SOL     OW14677   6.039   6.350   1.948
 4593SOL    HW114678   5.940   6.356   1.959
 4593SOL    HW214679   6.069   6.421   1.884
 4594SOL     OW14680   3.092   0.337   3.087
 4594SOL    HW114681   3.068   0.241   3.070
 4594SOL    HW214682   3.121   0.380   3.002
 4595SOL     OW14683   4.734   3.042   5.626
 4595SOL    HW114684   4.657   3.106   5.631
 4595SOL    HW214685   4.801   3.065   5.696
 4596SOL     OW14686   6.678   0.317   2.892
 4596SOL    HW114687   6.681   0.227   2.848
 4596SOL    HW214688   6.721   0.385   2.832
 4597SOL     OW14689   2.986   5.303   6.618
 4597SOL    HW114690   2.904   5.329   6.567
 4597SOL    HW214691   3.067   5.327   6.566
 4598SOL     OW14692   1.113   5.397   1.247
 4598SOL    HW114693   1.088   5.463   1.176
 4598SOL    HW214694   1.109   5.442   1.336
 4599SOL     OW14695   1.109   4.765   1.062
 4599SOL    HW114696   1.012   4.788   1.068
 4599SOL    HW214697   1.150   4.766   1.153
 4600SOL     OW14698   0.499   6.091   5.641
 4600SOL    HW114699   0.497   6.112   5.739
 4600SOL    HW214700   0.414   6.123   5.598
 4601SOL     OW14701   1.036   1.539   5.137
 4601SOL    HW114702   0.988   1.592   5.067
 4601SOL    HW214703   0.977   1.467   5.171
 4602SOL     OW14704   3.299   6.133   0.421
 4602SOL    HW114705   3.204   6.142   0.390
 4602SOL    HW214706   3.358   6.112   0.343
 4603SOL     OW14707   3.690   5.917   0.523
 4603SOL    HW114708   3.602   5.869   0.521
 4603SOL    HW214709   3.755   5.864   0.578
 4604SOL     OW14710   4.440   6.907   6.970
 4604SOL    HW114711   4.489   6.820   6.971
 4604SOL    HW214712   4.498   6.978   7.012
 4605SOL     OW14713   1.772   6.434   1.934
 4605SOL    HW114714   1.768   6.407   2.030
 4605SOL    HW214715   1.761   6.534   1.927
 4606SOL     OW14716   0.598   6.464   2.631
 4606SOL    HW114717   0.654   6.431   2.555
 4606SOL    HW214718   0.587   6.391   2.698
 4607SOL     OW14719   1.968   3.499   3.247
 4607SOL    HW114720   2.001   3.582   3.202
 4607SOL    HW214721   1.868   3.500   3.249
 4608SOL     OW14722   0.290   4.878   3.721
 4608SOL    HW114723   0.345   4.812   3.669
 4608SOL    HW214724   0.303   4.863   3.819
 4609SOL     OW14725   4.965   4.890   6.538
 4609SOL    HW114726   4.964   4.982   6.579
 4609SOL    HW214727   5.024   4.830   6.592
 4610SOL     OW14728   4.267   1.830   6.954
 4610SOL    HW114729   4.184   1.785   6.985
 4610SOL    HW214730   4.310   1.774   6.883
 4611SOL     OW14731   0.769   6.759   6.164
 4611SOL    HW114732   0.757   6.843   6.112
 4611SOL    HW214733   0.690   6.699   6.150
 4612SOL     OW14734   2.415   6.632   0.963
 4612SOL    HW114735   2.402   6.724   0.926
 4612SOL    HW214736   2.389   6.631   1.059
 4613SOL     OW14737   1.595   5.813   2.269
 4613SOL    HW114738   1.517   5.825   2.207
 4613SOL    HW214739   1.570   5.846   2.360
 4614SOL     OW14740   5.774   3.496   3.458
 4614SOL    HW114741   5.837   3.466   3.387
 4614SOL    HW214742   5.787   3.440   3.540
 4615SOL     OW14743   0.657   1.790   0.552
 4615SOL    HW114744   0.560   1.796   0.577
 4615SOL    HW214745   0.675   1.852   0.476
 4616SOL     OW14746   5.600   1.555   4.570
 4616SOL    HW114747   5.603   1.612   4.652
 4616SOL    HW214748   5.641   1.466   4.590
 4617SOL     OW14749   1.489   1.914   2.575
 4617SOL    HW114750   1.413   1.978   2.566
 4617SOL    HW214751   1.497   1.859   2.492
 4618SOL     OW14752   2.081   3.912   5.614
 4618SOL    HW114753   2.127   3.939   5.529
 4618SOL    HW214754   1.984   3.896   5.595
 4619SOL     OW14755   2.995   6.157   3.942
 4619SOL    HW114756   3.029   6.121   3.855
 4619SOL    HW214757   2.979   6.256   3.933
 4620SOL     OW14758   0.816   4.852   0.893
 4620SOL    HW114759   0.837   4.855   0.991
 4620SOL    HW214760   0.724   4.886   0.878
 4621SOL     OW14761   4.881   1.022   2.483
 4621SOL    HW114762   4.797   0.995   2.529
 4621SOL    HW214763   4.941   1.069   2.548
 4622SOL     OW14764   3.929   4.773   0.670
 4622SOL    HW114765   3.860   4.840   0.644
 4622SOL    HW214766   3.892   4.713   0.741
 4623SOL     OW14767   4.760   5.688   1.406
 4623SOL    HW114768   4.858   5.688   1.422
 4623SOL    HW214769   4.725   5.782   1.410
 4624SOL     OW14770   3.379   0.338   2.753
 4624SOL    HW114771   3.408   0.298   2.666
 4624SOL    HW214772   3.460   0.363   2.806
 4625SOL     OW14773   1.763   5.162   2.155
 4625SOL    HW114774   1.802   5.076   2.122
 4625SOL    HW214775   1.834   5.231   2.160
 4626SOL     OW14776   4.783   4.379   1.929
 4626SOL    HW114777   4.691   4.356   1.961
 4626SOL    HW214778   4.800   4.335   1.841
 4627SOL     OW14779   1.168   4.955   4.902
 4627SOL    HW114780   1.244   4.891   4.902
 4627SOL    HW214781   1.194   5.038   4.853
 4628SOL     OW14782   4.612   4.432   4.832
 4628SOL    HW114783   4.528   4.449   4.884
 4628SOL    HW214784   4.589   4.388   4.746
 4629SOL     OW14785   2.274   5.245   5.584
 4629SOL    HW114786   2.367   5.235   5.547
 4629SOL    HW214787   2.213   5.274   5.510
 4630SOL     OW14788   2.353   5.345   1.997
 4630SOL    HW114789   2.350   5.333   2.096
 4630SOL    HW214790   2.373   5.441   1.976
 4631SOL     OW14791   1.023   6.485   3.545
 4631SOL    HW114792   1.113   6.512   3.579
 4631SOL    HW214793   1.005   6.390   3.570
 4632SOL     OW14794   2.311   4.557   2.945
 4632SOL    HW114795   2.278   4.637   2.995
 4632SOL    HW214796   2.299   4.571   2.847
 4633SOL     OW14797   5.795   1.135   4.376
 4633SOL    HW114798   5.841   1.204   4.320
 4633SOL    HW214799   5.859   1.062   4.399
 4634SOL     OW14800   2.554   3.773   5.340
 4634SOL    HW114801   2.505   3.756   5.425
 4634SOL    HW214802   2.496   3.823   5.276
 4635SOL     OW14803   4.189   4.386   1.705
 4635SOL    HW114804   4.258   4.345   1.765
 4635SOL    HW214805   4.099   4.379   1.749
 4636SOL     OW14806   2.171   4.117   0.892
 4636SOL    HW114807   2.152   4.181   0.966
 4636SOL    HW214808   2.212   4.034   0.929
 4637SOL     OW14809   0.998   6.909   1.462
 4637SOL    HW114810   0.906   6.875   1.480
 4637SOL    HW214811   0.994   7.007   1.442
 4638SOL     OW14812   3.908   6.041   6.886
 4638SOL    HW114813   3.833   5.986   6.849
 4638SOL    HW214814   3.986   6.038   6.824
 4639SOL     OW14815   2.909   2.588   6.212
 4639SOL    HW114816   3.002   2.601   6.247
 4639SOL    HW214817   2.901   2.632   6.122
 4640SOL     OW14818   5.831   3.759   4.537
 4640SOL    HW114819   5.736   3.754   4.505
 4640SOL    HW214820   5.850   3.680   4.596
 4641SOL     OW14821   2.393   0.477   4.189
 4641SOL    HW114822   2.426   0.564   4.152
 4641SOL    HW214823   2.463   0.437   4.249
 4642SOL     OW14824   1.386   6.347   2.874
 4642SOL    HW114825   1.365   6.254   2.846
 4642SOL    HW214826   1.381   6.408   2.796
 4643SOL     OW14827   6.328   1.703   0.236
 4643SOL    HW114828   6.326   1.739   0.143
 4643SOL    HW214829   6.388   1.759   0.293
 4644SOL     OW14830   7.020   0.607   5.432
 4644SOL    HW114831   0.030   0.519   5.401
 4644SOL    HW214832   6.933   0.593   5.481
 4645SOL     OW14833   1.504   0.756   4.491
 4645SOL    HW114834   1.500   0.730   4.588
 4645SOL    HW214835   1.446   0.694   4.438
 4646SOL     OW14836   2.607   5.673   3.652
 4646SOL    HW114837   2.639   5.582   3.678
 4646SOL    HW214838   2.531   5.665   3.588
 4647SOL     OW14839   1.933   0.417   2.688
 4647SOL    HW114840   1.931   0.346   2.759
 4647SOL    HW214841   1.920   0.507   2.730
 4648SOL     OW14842   3.715   1.060   3.684
 4648SOL    HW114843   3.776   1.067   3.763
 4648SOL    HW214844   3.673   0.969   3.682
 4649SOL     OW14845   6.577   0.917   0.840
 4649SOL    HW114846   6.573   1.000   0.896
 4649SOL    HW214847   6.568   0.942   0.744
 4650SOL     OW14848   4.743   5.349   2.153
 4650SOL    HW114849   4.809   5.375   2.223
 4650SOL    HW214850   4.699   5.262   2.180
 4651SOL     OW14851   0.069   3.124   6.445
 4651SOL    HW114852   0.163   3.126   6.477
 4651SOL    HW214853   0.055   3.044   6.386
 4652SOL     OW14854   6.693   5.998   4.977
 4652SOL    HW114855   6.629   6.075   4.979
 4652SOL    HW214856   6.756   6.008   4.900
 4653SOL     OW14857   4.994   6.026   1.061
 4653SOL    HW114858   4.928   6.013   1.134
 4653SOL    HW214859   5.018   5.938   1.020
 4654SOL     OW14860   0.741   5.697   6.008
 4654SOL    HW114861   0.819   5.635   5.993
 4654SOL    HW214862   0.678   5.655   6.073
 4655SOL     OW14863   5.783   3.718   1.310
 4655SOL    HW114864   5.712   3.719   1.380
 4655SOL    HW214865   5.864   3.671   1.344
 4656SOL     OW14866   1.225   1.112   1.768
 4656SOL    HW114867   1.319   1.125   1.800
 4656SOL    HW214868   1.221   1.031   1.709
 4657SOL     OW14869   4.477   5.599   1.880
 4657SOL    HW114870   4.445   5.507   1.898
 4657SOL    HW214871   4.500   5.644   1.966
 4658SOL     OW14872   2.985   1.446   4.959
 4658SOL    HW114873   3.007   1.369   5.019
 4658SOL    HW214874   3.070   1.493   4.933
 4659SOL     OW14875   2.756   4.110   6.462
 4659SOL    HW114876   2.755   4.029   6.520
 4659SOL    HW214877   2.663   4.139   6.442
 4660SOL     OW14878   1.083   6.282   4.754
 4660SOL    HW114879   1.152   6.223   4.713
 4660SOL    HW214880   1.048   6.346   4.686
 4661SOL     OW14881   2.952   4.762   6.009
 4661SOL    HW114882   3.005   4.695   5.956
 4661SOL    HW214883   2.856   4.736   6.009
 4662SOL     OW14884   2.965   0.343   5.503
 4662SOL    HW114885   2.870   0.361   5.475
 4662SOL    HW214886   3.002   0.425   5.546
 4663SOL     OW14887   0.468   0.486   0.709
 4663SOL    HW114888   0.454   0.582   0.685
 4663SOL    HW214889   0.566   0.466   0.709
 4664SOL     OW14890   0.493   0.738   0.308
 4664SOL    HW114891   0.585   0.735   0.269
 4664SOL    HW214892   0.446   0.652   0.289
 4665SOL     OW14893   2.855   6.767   6.333
 4665SOL    HW114894   2.846   6.674   6.368
 4665SOL    HW214895   2.870   6.765   6.234
 4666SOL     OW14896   1.736   2.429   0.106
 4666SOL    HW114897   1.737   2.500   0.176
 4666SOL    HW214898   1.646   2.386   0.104
 4667SOL     OW14899   6.203   4.016   1.600
 4667SOL    HW114900   6.238   3.927   1.570
 4667SOL    HW214901   6.104   4.010   1.612
 4668SOL     OW14902   4.566   1.696   4.154
 4668SOL    HW114903   4.560   1.725   4.249
 4668SOL    HW214904   4.651   1.644   4.141
 4669SOL     OW14905   5.126   6.340   6.269
 4669SOL    HW114906   5.154   6.295   6.354
 4669SOL    HW214907   5.178   6.425   6.258
 4670SOL     OW14908   1.099   2.988   6.741
 4670SOL    HW114909   1.023   3.045   6.773
 4670SOL    HW214910   1.067   2.929   6.667
 4671SOL     OW14911   0.145   3.532   6.696
 4671SOL    HW114912   0.093   3.558   6.615
 4671SOL    HW214913   0.084   3.486   6.761
 4672SOL     OW14914   3.382   4.635   6.298
 4672SOL    HW114915   3.449   4.709   6.295
 4672SOL    HW214916   3.370   4.605   6.393
 4673SOL     OW14917   4.817   0.045   1.346
 4673SOL    HW114918   4.782   0.012   1.258
 4673SOL    HW214919   4.855   6.992   1.397
 4674SOL     OW14920   5.450   1.609   0.410
 4674SOL    HW114921   5.366   1.561   0.434
 4674SOL    HW214922   5.487   1.656   0.490
 4675SOL     OW14923   3.711   0.644   0.045
 4675SOL    HW114924   3.680   0.582   0.118
 4675SOL    HW214925   3.666   0.733   0.056
 4676SOL     OW14926   0.286   6.508   4.431
 4676SOL    HW114927   0.216   6.508   4.359
 4676SOL    HW214928   0.293   6.599   4.471
 4677SOL     OW14929   2.883   0.849   0.531
 4677SOL    HW114930   2.902   0.947   0.533
 4677SOL    HW214931   2.887   0.812   0.624
 4678SOL     OW14932   1.819   4.394   2.542
 4678SOL    HW114933   1.820   4.337   2.460
 4678SOL    HW214934   1.904   4.380   2.593
 4679SOL     OW14935   3.768   1.192   6.671
 4679SOL    HW114936   3.740   1.288   6.666
 4679SOL    HW214937   3.745   1.155   6.761
 4680SOL     OW14938   1.781   0.370   1.986
 4680SOL    HW114939   1.770   0.462   1.947
 4680SOL    HW214940   1.763   0.374   2.084
 4681SOL     OW14941   5.849   5.639   5.260
 4681SOL    HW114942   5.906   5.576   5.206
 4681SOL    HW214943   5.873   5.630   5.356
 4682SOL     OW14944   4.536   4.417   6.715
 4682SOL    HW114945   4.499   4.421   6.623
 4682SOL    HW214946   4.629   4.380   6.712
 4683SOL     OW14947   4.835   4.788   2.754
 4683SOL    HW114948   4.771   4.786   2.831
 4683SOL    HW214949   4.836   4.698   2.709
 4684SOL     OW14950   0.091   1.608   4.192
 4684SOL    HW114951   0.032   1.680   4.156
 4684SOL    HW214952   0.050   1.519   4.171
 4685SOL     OW14953   0.537   6.146   5.082
 4685SOL    HW114954   0.560   6.049   5.084
 4685SOL    HW214955   0.565   6.189   5.168
 4686SOL     OW14956   5.362   5.950   0.216
 4686SOL    HW114957   5.408   5.886   0.156
 4686SOL    HW214958   5.352   6.039   0.171
 4687SOL     OW14959   6.936   4.802   4.891
 4687SOL    HW114960   6.996   4.859   4.947
 4687SOL    HW214961   6.844   4.803   4.929
 4688SOL     OW14962   6.993   3.537   6.095
 4688SOL    HW114963   6.931   3.516   6.020
 4688SOL    HW214964   6.966   3.623   6.138
 4689SOL     OW14965   6.151   0.386   6.817
 4689SOL    HW114966   6.082   0.447   6.778
 4689SOL    HW214967   6.238   0.434   6.826
 4690SOL     OW14968   0.990   1.182   0.319
 4690SOL    HW114969   1.047   1.136   0.251
 4690SOL    HW214970   1.020   1.155   0.411
 4691SOL     OW14971   3.074   4.668   1.739
 4691SOL    HW114972   3.017   4.627   1.810
 4691SOL    HW214973   3.020   4.679   1.655
 4692SOL     OW14974   6.772   5.600   2.799
 4692SOL    HW114975   6.782   5.688   2.845
 4692SOL    HW214976   6.759   5.528   2.867
 4693SOL     OW14977   0.829   0.783   4.431
 4693SOL    HW114978   0.891   0.746   4.501
 4693SOL    HW214979   0.776   0.709   4.391
 4694SOL     OW14980   3.225   0.204   0.194
 4694SOL    HW114981   3.250   0.190   0.290
 4694SOL    HW214982   3.152   0.273   0.189
 4695SOL     OW14983   2.521   3.262   1.658
 4695SOL    HW114984   2.458   3.285   1.732
 4695SOL    HW214985   2.470   3.253   1.573
 4696SOL     OW14986   0.527   4.102   5.354
 4696SOL    HW114987   0.489   4.186   5.393
 4696SOL    HW214988   0.613   4.080   5.400
 4697SOL     OW14989   1.433   3.021   0.856
 4697SOL    HW114990   1.353   3.065   0.815
 4697SOL    HW214991   1.508   3.020   0.790
 4698SOL     OW14992   3.904   5.947   3.106
 4698SOL    HW114993   3.836   5.923   3.175
 4698SOL    HW214994   3.926   5.866   3.052
 4699SOL     OW14995   0.918   6.670   1.993
 4699SOL    HW114996   1.001   6.634   2.037
 4699SOL    HW214997   0.909   6.630   1.902
 4700SOL     OW14998   5.927   1.332   2.276
 4700SOL    HW114999   5.943   1.321   2.178
 4700SOL    HW215000   6.007   1.302   2.327
 4701SOL     OW15001   1.247   2.213   0.830
 4701SOL    HW115002   1.332   2.215   0.779
 4701SOL    HW215003   1.194   2.296   0.811
 4702SOL     OW15004   6.037   4.962   6.559
 4702SOL    HW115005   5.967   4.989   6.493
 4702SOL    HW215006   6.120   4.933   6.510
 4703SOL     OW15007   1.485   2.467   1.754
 4703SOL    HW115008   1.526   2.514   1.675
 4703SOL    HW215009   1.544   2.391   1.781
 4704SOL     OW15010   0.633   6.537   0.052
 4704SOL    HW115011   0.676   6.479   7.009
 4704SOL    HW215012   0.535   6.546   0.032
 4705SOL     OW15013   3.803   3.531   2.691
 4705SOL    HW115014   3.837   3.471   2.763
 4705SOL    HW215015   3.864   3.609   2.681
 4706SOL     OW15016   3.777   6.129   6.308
 4706SOL    HW115017   3.750   6.225   6.317
 4706SOL    HW215018   3.811   6.113   6.216
 4707SOL     OW15019   2.323   5.779   0.840
 4707SOL    HW115020   2.408   5.759   0.888
 4707SOL    HW215021   2.267   5.696   0.836
 4708SOL     OW15022   1.412   2.150   6.602
 4708SOL    HW115023   1.424   2.170   6.700
 4708SOL    HW215024   1.323   2.185   6.572
 4709SOL     OW15025   4.113   5.260   5.292
 4709SOL    HW115026   4.120   5.167   5.257
 4709SOL    HW215027   4.025   5.299   5.268
 4710SOL     OW15028   3.754   1.091   5.382
 4710SOL    HW115029   3.730   1.028   5.309
 4710SOL    HW215030   3.810   1.044   5.450
 4711SOL     OW15031   5.432   0.740   2.099
 4711SOL    HW115032   5.455   0.836   2.118
 4711SOL    HW215033   5.476   0.712   2.014
 4712SOL     OW15034   3.113   4.924   0.451
 4712SOL    HW115035   3.137   4.908   0.547
 4712SOL    HW215036   3.092   4.837   0.407
 4713SOL     OW15037   2.961   3.912   1.315
 4713SOL    HW115038   2.916   3.943   1.231
 4713SOL    HW215039   3.009   3.989   1.358
 4714SOL     OW15040   1.997   2.050   0.163
 4714SOL    HW115041   2.039   1.979   0.107
 4714SOL    HW215042   1.905   2.021   0.190
 4715SOL     OW15043   6.614   3.792   1.806
 4715SOL    HW115044   6.560   3.708   1.815
 4715SOL    HW215045   6.619   3.818   1.710
 4716SOL     OW15046   4.094   6.004   6.687
 4716SOL    HW115047   4.015   6.042   6.639
 4716SOL    HW215048   4.171   5.999   6.623
 4717SOL     OW15049   0.027   6.605   3.387
 4717SOL    HW115050   6.956   6.583   3.369
 4717SOL    HW215051   0.085   6.548   3.328
 4718SOL     OW15052   5.815   1.849   6.883
 4718SOL    HW115053   5.756   1.882   6.956
 4718SOL    HW215054   5.793   1.897   6.798
 4719SOL     OW15055   4.916   3.233   2.530
 4719SOL    HW115056   4.931   3.202   2.623
 4719SOL    HW215057   4.903   3.154   2.470
 4720SOL     OW15058   2.317   6.109   5.554
 4720SOL    HW115059   2.335   6.102   5.652
 4720SOL    HW215060   2.386   6.059   5.503
 4721SOL     OW15061   6.663   2.531   1.447
 4721SOL    HW115062   6.657   2.518   1.546
 4721SOL    HW215063   6.758   2.526   1.418
 4722SOL     OW15064   1.260   5.870   6.909
 4722SOL    HW115065   1.345   5.883   6.960
 4722SOL    HW215066   1.182   5.897   6.966
 4723SOL     OW15067   1.933   4.861   6.042
 4723SOL    HW115068   1.973   4.775   6.009
 4723SOL    HW215069   1.911   4.853   6.139
 4724SOL     OW15070   4.753   5.576   3.017
 4724SOL    HW115071   4.829   5.592   2.954
 4724SOL    HW215072   4.759   5.640   3.094
 4725SOL     OW15073   6.028   6.520   2.533
 4725SOL    HW115074   6.111   6.488   2.487
 4725SOL    HW215075   6.022   6.479   2.624
 4726SOL     OW15076   1.566   3.257   6.614
 4726SOL    HW115077   1.603   3.243   6.522
 4726SOL    HW215078   1.642   3.265   6.679
 4727SOL     OW15079   0.222   6.605   0.318
 4727SOL    HW115080   0.186   6.513   0.301
 4727SOL    HW215081   0.243   6.614   0.416
 4728SOL     OW15082   4.562   1.628   0.518
 4728SOL    HW115083   4.595   1.639   0.611
 4728SOL    HW215084   4.547   1.718   0.477
 4729SOL     OW15085   2.197   1.471   2.374
 4729SOL    HW115086   2.114   1.421   2.400
 4729SOL    HW215087   2.272   1.407   2.358
 4730SOL     OW15088   2.194   5.807   5.326
 4730SOL    HW115089   2.237   5.791   5.415
 4730SOL    HW215090   2.094   5.801   5.337
 4731SOL     OW15091   4.512   0.217   6.397
 4731SOL    HW115092   4.421   0.192   6.364
 4731SOL    HW215093   4.513   0.217   6.497
 4732SOL     OW15094   6.788   3.839   5.969
 4732SOL    HW115095   6.767   3.805   6.061
 4732SOL    HW215096   6.857   3.780   5.927
 4733SOL     OW15097   1.202   4.233   3.093
 4733SOL    HW115098   1.128   4.198   3.035
 4733SOL    HW215099   1.271   4.277   3.037
 4734SOL     OW15100   4.758   3.193   6.744
 4734SOL    HW115101   4.815   3.228   6.669
 4734SOL    HW215102   4.728   3.268   6.801
 4735SOL     OW15103   0.910   5.628   3.929
 4735SOL    HW115104   0.829   5.683   3.951
 4735SOL    HW215105   0.885   5.553   3.868
 4736SOL     OW15106   0.217   1.369   6.578
 4736SOL    HW115107   0.153   1.385   6.502
 4736SOL    HW215108   0.174   1.397   6.664
 4737SOL     OW15109   1.138   5.178   2.081
 4737SOL    HW115110   1.197   5.136   2.150
 4737SOL    HW215111   1.071   5.237   2.126
 4738SOL     OW15112   0.105   5.897   2.938
 4738SOL    HW115113   0.192   5.856   2.964
 4738SOL    HW215114   0.074   5.959   3.010
 4739SOL     OW15115   4.424   6.550   3.230
 4739SOL    HW115116   4.506   6.577   3.181
 4739SOL    HW215117   4.350   6.533   3.165
 4740SOL     OW15118   0.481   1.331   1.368
 4740SOL    HW115119   0.516   1.397   1.434
 4740SOL    HW215120   0.519   1.349   1.278
 4741SOL     OW15121   3.321   2.318   1.630
 4741SOL    HW115122   3.337   2.326   1.531
 4741SOL    HW215123   3.349   2.227   1.661
 4742SOL     OW15124   1.868   6.608   5.336
 4742SOL    HW115125   1.929   6.684   5.313
 4742SOL    HW215126   1.797   6.600   5.266
 4743SOL     OW15127   2.186   3.824   2.768
 4743SOL    HW115128   2.122   3.900   2.780
 4743SOL    HW215129   2.171   3.756   2.840
 4744SOL     OW15130   2.064   5.141   0.974
 4744SOL    HW115131   1.979   5.153   0.922
 4744SOL    HW215132   2.141   5.176   0.920
 4745SOL     OW15133   3.193   4.035   6.725
 4745SOL    HW115134   3.208   4.057   6.822
 4745SOL    HW215135   3.188   3.936   6.714
 4746SOL     OW15136   4.692   6.416   3.529
 4746SOL    HW115137   4.758   6.379   3.594
 4746SOL    HW215138   4.738   6.436   3.442
 4747SOL     OW15139   0.807   3.983   0.445
 4747SOL    HW115140   0.759   3.921   0.507
 4747SOL    HW215141   0.895   3.944   0.419
 4748SOL     OW15142   1.664   6.136   1.450
 4748SOL    HW115143   1.650   6.043   1.482
 4748SOL    HW215144   1.611   6.199   1.507
 4749SOL     OW15145   1.778   6.956   6.467
 4749SOL    HW115146   1.713   6.893   6.424
 4749SOL    HW215147   1.813   7.020   6.399
 4750SOL     OW15148   6.686   3.287   5.334
 4750SOL    HW115149   6.638   3.333   5.409
 4750SOL    HW215150   6.622   3.230   5.284
 4751SOL     OW15151   4.541   2.522   3.112
 4751SOL    HW115152   4.531   2.470   3.197
 4751SOL    HW215153   4.455   2.521   3.062
 4752SOL     OW15154   4.500   0.535   0.676
 4752SOL    HW115155   4.437   0.564   0.604
 4752SOL    HW215156   4.455   0.543   0.765
 4753SOL     OW15157   0.975   6.792   3.656
 4753SOL    HW115158   1.020   6.792   3.567
 4753SOL    HW215159   1.026   6.851   3.719
 4754SOL     OW15160   5.083   3.772   5.014
 4754SOL    HW115161   4.993   3.731   5.003
 4754SOL    HW215162   5.127   3.735   5.096
 4755SOL     OW15163   2.950   0.707   0.771
 4755SOL    HW115164   2.921   0.694   0.866
 4755SOL    HW215165   3.043   0.743   0.769
 4756SOL     OW15166   6.463   3.968   5.731
 4756SOL    HW115167   6.416   4.044   5.775
 4756SOL    HW215168   6.531   4.003   5.666
 4757SOL     OW15169   1.813   2.354   1.307
 4757SOL    HW115170   1.733   2.412   1.319
 4757SOL    HW215171   1.846   2.361   1.213
 4758SOL     OW15172   1.316   6.373   3.364
 4758SOL    HW115173   1.301   6.398   3.459
 4758SOL    HW215174   1.406   6.406   3.334
 4759SOL     OW15175   0.771   5.224   6.277
 4759SOL    HW115176   0.727   5.297   6.225
 4759SOL    HW215177   0.804   5.261   6.364
 4760SOL     OW15178   2.055   1.379   0.504
 4760SOL    HW115179   2.153   1.370   0.523
 4760SOL    HW215180   2.037   1.468   0.462
 4761SOL     OW15181   1.627   0.805   1.016
 4761SOL    HW115182   1.640   0.904   1.021
 4761SOL    HW215183   1.702   0.759   1.064
 4762SOL     OW15184   1.524   6.038   2.092
 4762SOL    HW115185   1.452   5.972   2.072
 4762SOL    HW215186   1.542   6.093   2.011
 4763SOL     OW15187   4.972   0.412   2.709
 4763SOL    HW115188   5.019   0.488   2.755
 4763SOL    HW215189   4.874   0.417   2.728
 4764SOL     OW15190   4.677   3.479   5.418
 4764SOL    HW115191   4.696   3.532   5.336
 4764SOL    HW215192   4.755   3.419   5.438
 4765SOL     OW15193   3.858   0.926   5.561
 4765SOL    HW115194   3.935   0.979   5.597
 4765SOL    HW215195   3.864   0.832   5.596
 4766SOL     OW15196   6.329   6.330   3.964
 4766SOL    HW115197   6.278   6.295   3.886
 4766SOL    HW215198   6.334   6.259   4.035
 4767SOL     OW15199   3.062   4.923   5.390
 4767SOL    HW115200   3.083   5.021   5.391
 4767SOL    HW215201   3.003   4.901   5.468
 4768SOL     OW15202   3.487   2.921   5.611
 4768SOL    HW115203   3.416   2.851   5.618
 4768SOL    HW215204   3.445   3.011   5.602
 4769SOL     OW15205   3.930   6.044   0.937
 4769SOL    HW115206   4.028   6.061   0.926
 4769SOL    HW215207   3.897   5.986   0.863
 4770SOL     OW15208   0.400   1.859   4.645
 4770SOL    HW115209   0.407   1.827   4.550
 4770SOL    HW215210   0.337   1.800   4.695
 4771SOL     OW15211   2.524   6.486   6.402
 4771SOL    HW115212   2.520   6.527   6.494
 4771SOL    HW215213   2.501   6.389   6.408
 4772SOL     OW15214   3.328   4.699   1.185
 4772SOL    HW115215   3.260   4.756   1.231
 4772SOL    HW215216   3.420   4.727   1.213
 4773SOL     OW15217   0.438   5.715   5.250
 4773SOL    HW115218   0.384   5.788   5.292
 4773SOL    HW215219   0.505   5.681   5.316
 4774SOL     OW15220   1.299   3.993   1.325
 4774SOL    HW115221   1.310   3.893   1.316
 4774SOL    HW215222   1.359   4.026   1.398
 4775SOL     OW15223   4.888   0.227   3.947
 4775SOL    HW115224   4.809   0.287   3.933
 4775SOL    HW215225   4.961   0.253   3.883
 4776SOL     OW15226   0.907   0.851   5.394
 4776SOL    HW115227   0.813   0.844   5.361
 4776SOL    HW215228   0.956   0.920   5.341
 4777SOL     OW15229   2.006   5.911   1.043
 4777SOL    HW115230   2.042   5.831   1.091
 4777SOL    HW215231   1.937   5.955   1.100
 4778SOL     OW15232   6.950   2.548   4.450
 4778SOL    HW115233   6.980   2.640   4.424
 4778SOL    HW215234   6.852   2.551   4.473
 4779SOL     OW15235   5.610   6.866   3.536
 4779SOL    HW115236   5.611   6.842   3.439
 4779SOL    HW215237   5.704   6.875   3.569
 4780SOL     OW15238   5.588   2.473   6.573
 4780SOL    HW115239   5.652   2.466   6.497
 4780SOL    HW215240   5.503   2.426   6.550
 4781SOL     OW15241   2.911   5.494   1.977
 4781SOL    HW115242   2.831   5.456   1.931
 4781SOL    HW215243   2.994   5.455   1.938
 4782SOL     OW15244   6.294   5.841   6.720
 4782SOL    HW115245   6.340   5.924   6.687
 4782SOL    HW215246   6.197   5.845   6.697
 4783SOL     OW15247   5.723   3.971   6.857
 4783SOL    HW115248   5.682   3.973   6.949
 4783SOL    HW215249   5.774   4.055   6.842
 4784SOL     OW15250   6.238   2.046   6.239
 4784SOL    HW115251   6.288   2.071   6.156
 4784SOL    HW215252   6.255   1.950   6.261
 4785SOL     OW15253   0.274   6.630   3.017
 4785SOL    HW115254   0.363   6.673   3.036
 4785SOL    HW215255   0.226   6.614   3.103
 4786SOL     OW15256   2.227   6.788   6.791
 4786SOL    HW115257   2.224   6.692   6.818
 4786SOL    HW215258   2.262   6.843   6.867
 4787SOL     OW15259   3.890   1.834   3.336
 4787SOL    HW115260   3.795   1.852   3.313
 4787SOL    HW215261   3.933   1.917   3.371
 4788SOL     OW15262   6.756   5.869   0.891
 4788SOL    HW115263   6.768   5.945   0.827
 4788SOL    HW215264   6.663   5.833   0.883
 4789SOL     OW15265   4.821   2.178   1.590
 4789SOL    HW115266   4.746   2.112   1.586
 4789SOL    HW215267   4.808   2.248   1.520
 4790SOL     OW15268   5.790   1.906   5.915
 4790SOL    HW115269   5.802   1.995   5.961
 4790SOL    HW215270   5.730   1.848   5.970
 4791SOL     OW15271   0.051   3.068   2.043
 4791SOL    HW115272   0.074   2.972   2.028
 4791SOL    HW215273   0.057   3.088   2.141
 4792SOL     OW15274   2.244   4.064   4.631
 4792SOL    HW115275   2.223   3.977   4.675
 4792SOL    HW215276   2.323   4.106   4.676
 4793SOL     OW15277   1.886   3.786   5.205
 4793SOL    HW115278   1.869   3.723   5.129
 4793SOL    HW215279   1.984   3.808   5.209
 4794SOL     OW15280   4.514   6.624   4.370
 4794SOL    HW115281   4.554   6.570   4.296
 4794SOL    HW215282   4.428   6.581   4.399
 4795SOL     OW15283   6.458   1.617   4.260
 4795SOL    HW115284   6.555   1.614   4.236
 4795SOL    HW215285   6.407   1.658   4.185
 4796SOL     OW15286   3.838   0.157   6.274
 4796SOL    HW115287   3.897   0.112   6.341
 4796SOL    HW215288   3.790   0.088   6.220
 4797SOL     OW15289   0.604   6.111   4.673
 4797SOL    HW115290   0.514   6.072   4.658
 4797SOL    HW215291   0.597   6.192   4.731
 4798SOL     OW15292   6.163   4.894   5.024
 4798SOL    HW115293   6.184   4.896   5.121
 4798SOL    HW215294   6.077   4.845   5.009
 4799SOL     OW15295   4.018   1.521   0.393
 4799SOL    HW115296   4.022   1.425   0.422
 4799SOL    HW215297   4.110   1.553   0.372
 4800SOL     OW15298   1.790   3.916   6.699
 4800SOL    HW115299   1.765   4.011   6.716
 4800SOL    HW215300   1.712   3.866   6.662
 4801SOL     OW15301   3.648   2.579   6.713
 4801SOL    HW115302   3.687   2.670   6.722
 4801SOL    HW215303   3.620   2.564   6.618
 4802SOL     OW15304   6.690   6.535   1.909
 4802SOL    HW115305   6.593   6.514   1.915
 4802SOL    HW215306   6.736   6.508   1.993
 4803SOL     OW15307   6.628   4.666   0.953
 4803SOL    HW115308   6.681   4.586   0.925
 4803SOL    HW215309   6.683   4.723   1.014
 4804SOL     OW15310   6.033   0.008   0.947
 4804SOL    HW115311   6.122   0.050   0.930
 4804SOL    HW215312   6.044   6.959   1.013
 4805SOL     OW15313   6.453   1.345   2.262
 4805SOL    HW115314   6.515   1.277   2.302
 4805SOL    HW215315   6.475   1.356   2.165
 4806SOL     OW15316   0.639   3.477   2.703
 4806SOL    HW115317   0.554   3.454   2.750
 4806SOL    HW215318   0.702   3.399   2.706
 4807SOL     OW15319   1.543   3.838   6.577
 4807SOL    HW115320   1.497   3.786   6.505
 4807SOL    HW215321   1.474   3.876   6.639
 4808SOL     OW15322   4.564   5.172   0.576
 4808SOL    HW115323   4.470   5.204   0.566
 4808SOL    HW215324   4.594   5.186   0.670
 4809SOL     OW15325   3.747   4.624   1.119
 4809SOL    HW115326   3.672   4.557   1.123
 4809SOL    HW215327   3.743   4.682   1.200
 4810SOL     OW15328   1.755   4.626   3.241
 4810SOL    HW115329   1.680   4.586   3.293
 4810SOL    HW215330   1.816   4.675   3.303
 4811SOL     OW15331   4.023   3.685   3.639
 4811SOL    HW115332   4.026   3.587   3.656
 4811SOL    HW215333   3.965   3.703   3.559
 4812SOL     OW15334   0.478   0.140   2.455
 4812SOL    HW115335   0.539   0.163   2.379
 4812SOL    HW215336   0.519   0.170   2.541
 4813SOL     OW15337   6.170   1.372   6.468
 4813SOL    HW115338   6.226   1.342   6.545
 4813SOL    HW215339   6.092   1.424   6.502
 4814SOL     OW15340   6.809   3.382   1.973
 4814SOL    HW115341   6.836   3.306   2.033
 4814SOL    HW215342   6.838   3.363   1.879
 4815SOL     OW15343   5.394   4.845   3.007
 4815SOL    HW115344   5.431   4.795   2.928
 4815SOL    HW215345   5.301   4.876   2.987
 4816SOL     OW15346   2.223   5.149   1.704
 4816SOL    HW115347   2.212   5.203   1.787
 4816SOL    HW215348   2.149   5.169   1.640
 4817SOL     OW15349   3.176   1.083   1.749
 4817SOL    HW115350   3.181   1.182   1.764
 4817SOL    HW215351   3.197   1.063   1.653
 4818SOL     OW15352   0.762   1.731   4.000
 4818SOL    HW115353   0.689   1.783   4.045
 4818SOL    HW215354   0.828   1.700   4.068
 4819SOL     OW15355   3.337   2.029   1.187
 4819SOL    HW115356   3.287   2.106   1.147
 4819SOL    HW215357   3.300   1.943   1.152
 4820SOL     OW15358   6.207   2.395   0.347
 4820SOL    HW115359   6.141   2.458   0.306
 4820SOL    HW215360   6.180   2.377   0.442
 4821SOL     OW15361   6.829   6.890   1.401
 4821SOL    HW115362   6.880   6.921   1.321
 4821SOL    HW215363   6.735   6.923   1.396
 4822SOL     OW15364   1.729   3.061   3.845
 4822SOL    HW115365   1.634   3.030   3.834
 4822SOL    HW215366   1.743   3.145   3.793
 4823SOL     OW15367   0.179   1.442   3.515
 4823SOL    HW115368   0.266   1.394   3.531
 4823SOL    HW215369   0.189   1.538   3.540
 4824SOL     OW15370   5.829   1.834   3.709
 4824SOL    HW115371   5.789   1.847   3.618
 4824SOL    HW215372   5.763   1.862   3.778
 4825SOL     OW15373   2.080   2.707   4.500
 4825SOL    HW115374   2.119   2.698   4.409
 4825SOL    HW215375   2.151   2.735   4.565
 4826SOL     OW15376   0.738   0.738   6.965
 4826SOL    HW115377   0.674   0.783   6.903
 4826SOL    HW215378   0.756   0.645   6.932
 4827SOL     OW15379   6.252   0.731   1.509
 4827SOL    HW115380   6.254   0.679   1.595
 4827SOL    HW215381   6.233   0.827   1.528
 4828SOL     OW15382   5.530   3.338   0.940
 4828SOL    HW115383   5.547   3.403   1.015
 4828SOL    HW215384   5.474   3.383   0.870
 4829SOL     OW15385   3.697   6.589   6.536
 4829SOL    HW115386   3.635   6.583   6.614
 4829SOL    HW215387   3.693   6.504   6.483
 4830SOL     OW15388   5.495   6.145   4.022
 4830SOL    HW115389   5.434   6.068   4.040
 4830SOL    HW215390   5.586   6.111   3.998
 4831SOL     OW15391   6.738   5.495   6.229
 4831SOL    HW115392   6.650   5.541   6.241
 4831SOL    HW215393   6.776   5.473   6.319
 4832SOL     OW15394   2.259   2.461   5.933
 4832SOL    HW115395   2.179   2.498   5.886
 4832SOL    HW215396   2.304   2.534   5.985
 4833SOL     OW15397   5.490   1.080   2.858
 4833SOL    HW115398   5.518   0.986   2.839
 4833SOL    HW215399   5.458   1.123   2.774
 4834SOL     OW15400   3.850   0.518   0.306
 4834SOL    HW115401   3.831   0.540   0.401
 4834SOL    HW215402   3.769   0.476   0.264
 4835SOL     OW15403   1.083   1.066   6.464
 4835SOL    HW115404   1.105   0.974   6.434
 4835SOL    HW215405   0.987   1.086   6.441
 4836SOL     OW15406   4.631   2.667   3.427
 4836SOL    HW115407   4.713   2.628   3.470
 4836SOL    HW215408   4.553   2.658   3.490
 4837SOL     OW15409   4.431   3.379   1.592
 4837SOL    HW115410   4.382   3.438   1.657
 4837SOL    HW215411   4.397   3.286   1.601
 4838SOL     OW15412   2.537   5.150   1.941
 4838SOL    HW115413   2.534   5.091   1.860
 4838SOL    HW215414   2.455   5.207   1.944
 4839SOL     OW15415   1.667   4.158   5.869
 4839SOL    HW115416   1.582   4.141   5.919
 4839SOL    HW215417   1.651   4.143   5.771
 4840SOL     OW15418   0.797   6.540   5.746
 4840SOL    HW115419   0.834   6.616   5.799
 4840SOL    HW215420   0.703   6.562   5.717
 4841SOL     OW15421   3.131   6.396   1.456
 4841SOL    HW115422   3.054   6.348   1.413
 4841SOL    HW215423   3.097   6.469   1.514
 4842SOL     OW15424   3.268   4.830   1.955
 4842SOL    HW115425   3.189   4.886   1.980
 4842SOL    HW215426   3.334   4.829   2.030
 4843SOL     OW15427   5.833   4.189   0.533
 4843SOL    HW115428   5.878   4.229   0.453
 4843SOL    HW215429   5.885   4.110   0.565
 4844SOL     OW15430   6.684   3.315   6.036
 4844SOL    HW115431   6.734   3.257   5.972
 4844SOL    HW215432   6.665   3.264   6.119
 4845SOL     OW15433   6.821   5.889   4.470
 4845SOL    HW115434   6.804   5.886   4.372
 4845SOL    HW215435   6.797   5.800   4.511
 4846SOL     OW15436   6.558   3.166   3.079
 4846SOL    HW115437   6.506   3.140   2.998
 4846SOL    HW215438   6.611   3.087   3.111
 4847SOL     OW15439   3.791   1.841   5.602
 4847SOL    HW115440   3.887   1.850   5.626
 4847SOL    HW215441   3.736   1.833   5.686
 4848SOL     OW15442   1.634   0.519   3.711
 4848SOL    HW115443   1.593   0.589   3.652
 4848SOL    HW215444   1.571   0.497   3.786
 4849SOL     OW15445   0.888   6.842   6.873
 4849SOL    HW115446   0.972   6.896   6.874
 4849SOL    HW215447   0.813   6.897   6.909
 4850SOL     OW15448   4.060   1.346   2.635
 4850SOL    HW115449   4.102   1.437   2.633
 4850SOL    HW215450   4.118   1.284   2.688
 4851SOL     OW15451   3.301   5.604   4.601
 4851SOL    HW115452   3.379   5.543   4.588
 4851SOL    HW215453   3.284   5.616   4.699
 4852SOL     OW15454   0.976   0.523   5.930
 4852SOL    HW115455   0.995   0.600   5.991
 4852SOL    HW215456   1.034   0.446   5.954
 4853SOL     OW15457   2.756   1.374   2.579
 4853SOL    HW115458   2.659   1.353   2.568
 4853SOL    HW215459   2.810   1.292   2.557
 4854SOL     OW15460   4.771   6.536   2.491
 4854SOL    HW115461   4.747   6.631   2.514
 4854SOL    HW215462   4.696   6.494   2.441
 4855SOL     OW15463   5.672   2.396   2.362
 4855SOL    HW115464   5.672   2.489   2.398
 4855SOL    HW215465   5.702   2.397   2.267
 4856SOL     OW15466   2.332   4.256   2.694
 4856SOL    HW115467   2.384   4.311   2.629
 4856SOL    HW215468   2.298   4.174   2.648
 4857SOL     OW15469   1.915   3.096   5.613
 4857SOL    HW115470   1.967   3.061   5.691
 4857SOL    HW215471   1.945   3.050   5.530
 4858SOL     OW15472   1.576   1.298   4.322
 4858SOL    HW115473   1.553   1.382   4.371
 4858SOL    HW215474   1.602   1.321   4.229
 4859SOL     OW15475   1.275   0.351   4.416
 4859SOL    HW115476   1.369   0.383   4.422
 4859SOL    HW215477   1.220   0.396   4.487
 4860SOL     OW15478   3.729   5.088   1.941
 4860SOL    HW115479   3.653   5.077   1.876
 4860SOL    HW215480   3.805   5.029   1.914
 4861SOL     OW15481   5.250   5.315   0.529
 4861SOL    HW115482   5.267   5.242   0.464
 4861SOL    HW215483   5.210   5.277   0.613
 4862SOL     OW15484   2.932   4.872   5.162
 4862SOL    HW115485   2.898   4.778   5.158
 4862SOL    HW215486   2.985   4.885   5.246
 4863SOL     OW15487   6.107   4.236   1.846
 4863SOL    HW115488   6.068   4.267   1.759
 4863SOL    HW215489   6.156   4.150   1.831
 4864SOL     OW15490   3.890   1.303   3.565
 4864SOL    HW115491   3.812   1.242   3.580
 4864SOL    HW215492   3.921   1.339   3.653
 4865SOL     OW15493   2.241   7.009   5.834
 4865SOL    HW115494   2.302   6.974   5.906
 4865SOL    HW215495   2.255   6.954   5.751
 4866SOL     OW15496   6.984   2.669   0.443
 4866SOL    HW115497   0.032   2.692   0.507
 4866SOL    HW215498   6.909   2.735   0.452
 4867SOL     OW15499   3.746   5.351   3.594
 4867SOL    HW115500   3.700   5.377   3.509
 4867SOL    HW215501   3.683   5.300   3.652
 4868SOL     OW15502   0.126   5.077   2.679
 4868SOL    HW115503   0.135   5.124   2.767
 4868SOL    HW215504   0.111   4.980   2.695
 4869SOL     OW15505   1.240   1.737   2.274
 4869SOL    HW115506   1.255   1.771   2.181
 4869SOL    HW215507   1.185   1.653   2.270
 4870SOL     OW15508   0.430   6.250   2.038
 4870SOL    HW115509   0.526   6.277   2.041
 4870SOL    HW215510   0.422   6.162   1.991
 4871SOL     OW15511   1.464   0.925   3.675
 4871SOL    HW115512   1.564   0.921   3.677
 4871SOL    HW215513   1.429   0.843   3.628
 4872SOL     OW15514   5.811   0.139   3.302
 4872SOL    HW115515   5.884   0.082   3.265
 4872SOL    HW215516   5.775   0.098   3.385
 4873SOL     OW15517   6.226   5.316   3.990
 4873SOL    HW115518   6.180   5.384   4.047
 4873SOL    HW215519   6.160   5.276   3.927
 4874SOL     OW15520   5.796   3.747   2.422
 4874SOL    HW115521   5.781   3.823   2.359
 4874SOL    HW215522   5.838   3.670   2.373
 4875SOL     OW15523   6.149   1.635   0.552
 4875SOL    HW115524   6.120   1.702   0.620
 4875SOL    HW215525   6.206   1.679   0.483
 4876SOL     OW15526   6.343   2.223   3.087
 4876SOL    HW115527   6.434   2.219   3.045
 4876SOL    HW215528   6.330   2.143   3.146
 4877SOL     OW15529   1.313   1.495   5.657
 4877SOL    HW115530   1.342   1.409   5.699
 4877SOL    HW215531   1.277   1.477   5.565
 4878SOL     OW15532   6.274   1.671   1.636
 4878SOL    HW115533   6.293   1.578   1.603
 4878SOL    HW215534   6.348   1.732   1.610
 4879SOL     OW15535   4.324   1.666   2.273
 4879SOL    HW115536   4.305   1.609   2.353
 4879SOL    HW215537   4.307   1.762   2.295
 4880SOL     OW15538   5.564   3.750   0.153
 4880SOL    HW115539   5.555   3.810   0.074
 4880SOL    HW215540   5.661   3.741   0.176
 4881SOL     OW15541   1.526   1.512   0.145
 4881SOL    HW115542   1.532   1.612   0.152
 4881SOL    HW215543   1.438   1.487   0.105
 4882SOL     OW15544   4.739   0.641   4.712
 4882SOL    HW115545   4.693   0.558   4.742
 4882SOL    HW215546   4.835   0.637   4.739
 4883SOL     OW15547   4.786   4.765   1.704
 4883SOL    HW115548   4.780   4.740   1.607
 4883SOL    HW215549   4.875   4.739   1.740
 4884SOL     OW15550   3.023   5.956   1.897
 4884SOL    HW115551   2.999   6.051   1.915
 4884SOL    HW215552   2.939   5.902   1.889
 4885SOL     OW15553   2.383   5.282   1.159
 4885SOL    HW115554   2.319   5.255   1.230
 4885SOL    HW215555   2.456   5.337   1.199
 4886SOL     OW15556   1.858   6.121   1.877
 4886SOL    HW115557   1.824   6.032   1.846
 4886SOL    HW215558   1.958   6.118   1.883
 4887SOL     OW15559   7.006   6.825   1.133
 4887SOL    HW115560   0.024   6.913   1.115
 4887SOL    HW215561   7.004   6.771   1.049
 4888SOL     OW15562   3.002   0.509   4.420
 4888SOL    HW115563   2.911   0.490   4.385
 4888SOL    HW215564   3.046   0.423   4.447
 4889SOL     OW15565   6.900   1.327   5.323
 4889SOL    HW115566   6.820   1.373   5.284
 4889SOL    HW215567   6.872   1.268   5.398
 4890SOL     OW15568   6.521   1.310   6.109
 4890SOL    HW115569   6.538   1.400   6.150
 4890SOL    HW215570   6.551   1.311   6.014
 4891SOL     OW15571   1.735   4.595   0.285
 4891SOL    HW115572   1.745   4.542   0.369
 4891SOL    HW215573   1.824   4.602   0.238
 4892SOL     OW15574   3.993   5.754   2.236
 4892SOL    HW115575   4.017   5.732   2.330
 4892SOL    HW215576   3.920   5.822   2.236
 4893SOL     OW15577   6.135   3.017   1.467
 4893SOL    HW115578   6.135   2.930   1.418
 4893SOL    HW215579   6.229   3.047   1.481
 4894SOL     OW15580   3.681   1.000   2.563
 4894SOL    HW115581   3.600   0.970   2.513
 4894SOL    HW215582   3.657   1.077   2.622
 4895SOL     OW15583   0.706   5.023   4.530
 4895SOL    HW115584   0.656   5.086   4.590
 4895SOL    HW215585   0.657   4.937   4.522
 4896SOL     OW15586   2.368   4.210   1.886
 4896SOL    HW115587   2.330   4.119   1.899
 4896SOL    HW215588   2.435   4.208   1.811
 4897SOL     OW15589   1.429   5.269   5.675
 4897SOL    HW115590   1.491   5.234   5.745
 4897SOL    HW215591   1.455   5.363   5.651
 4898SOL     OW15592   4.528   1.282   5.181
 4898SOL    HW115593   4.456   1.218   5.205
 4898SOL    HW215594   4.587   1.241   5.111
 4899SOL     OW15595   5.834   5.276   2.774
 4899SOL    HW115596   5.822   5.191   2.724
 4899SOL    HW215597   5.759   5.339   2.753
 4900SOL     OW15598   3.618   6.452   5.086
 4900SOL    HW115599   3.674   6.496   5.156
 4900SOL    HW215600   3.658   6.364   5.061
 4901SOL     OW15601   2.274   1.337   5.635
 4901SOL    HW115602   2.279   1.392   5.718
 4901SOL    HW215603   2.363   1.338   5.589
 4902SOL     OW15604   1.553   1.760   4.987
 4902SOL    HW115605   1.584   1.791   4.898
 4902SOL    HW215606   1.455   1.739   4.982
 4903SOL     OW15607   3.811   5.724   0.013
 4903SOL    HW115608   3.861   5.808   0.036
 4903SOL    HW215609   3.876   5.650   7.023
 4904SOL     OW15610   2.128   0.407   5.282
 4904SOL    HW115611   2.179   0.323   5.265
 4904SOL    HW215612   2.062   0.421   5.208
 4905SOL     OW15613   3.270   0.467   3.301
 4905SOL    HW115614   3.211   0.411   3.243
 4905SOL    HW215615   3.366   0.445   3.282
 4906SOL     OW15616   5.205   1.675   6.232
 4906SOL    HW115617   5.108   1.674   6.256
 4906SOL    HW215618   5.256   1.731   6.299
 4907SOL     OW15619   4.405   6.533   2.078
 4907SOL    HW115620   4.413   6.562   1.983
 4907SOL    HW215621   4.308   6.520   2.101
 4908SOL     OW15622   5.895   6.562   6.900
 4908SOL    HW115623   5.826   6.545   6.829
 4908SOL    HW215624   5.980   6.515   6.876
 4909SOL     OW15625   0.463   5.694   3.721
 4909SOL    HW115626   0.539   5.639   3.688
 4909SOL    HW215627   0.377   5.647   3.703
 4910SOL     OW15628   4.889   1.112   4.236
 4910SOL    HW115629   4.900   1.059   4.152
 4910SOL    HW215630   4.916   1.056   4.314
 4911SOL     OW15631   1.713   4.308   3.027
 4911SOL    HW115632   1.768   4.390   3.013
 4911SOL    HW215633   1.620   4.334   3.053
 4912SOL     OW15634   5.907   1.076   6.089
 4912SOL    HW115635   5.904   1.096   5.990
 4912SOL    HW215636   5.923   1.161   6.139
 4913SOL     OW15637   4.011   3.241   4.992
 4913SOL    HW115638   3.954   3.168   5.029
 4913SOL    HW215639   4.043   3.299   5.067
 4914SOL     OW15640   4.489   6.600   5.212
 4914SOL    HW115641   4.497   6.646   5.124
 4914SOL    HW215642   4.459   6.667   5.281
 4915SOL     OW15643   3.018   5.702   5.803
 4915SOL    HW115644   3.085   5.721   5.732
 4915SOL    HW215645   3.022   5.773   5.873
 4916SOL     OW15646   0.828   0.829   4.083
 4916SOL    HW115647   0.810   0.918   4.040
 4916SOL    HW215648   0.880   0.844   4.168
 4917SOL     OW15649   2.474   5.870   1.409
 4917SOL    HW115650   2.429   5.846   1.323
 4917SOL    HW215651   2.525   5.792   1.443
 4918SOL     OW15652   5.107   6.514   1.911
 4918SOL    HW115653   5.172   6.440   1.894
 4918SOL    HW215654   5.111   6.579   1.835
 4919SOL     OW15655   3.151   3.088   0.639
 4919SOL    HW115656   3.082   3.032   0.592
 4919SOL    HW215657   3.232   3.097   0.581
 4920SOL     OW15658   5.476   0.207   4.395
 4920SOL    HW115659   5.539   0.206   4.317
 4920SOL    HW215660   5.474   0.116   4.437
 4921SOL     OW15661   0.799   5.751   0.129
 4921SOL    HW115662   0.725   5.764   0.063
 4921SOL    HW215663   0.780   5.807   0.210
 4922SOL     OW15664   2.690   2.305   4.886
 4922SOL    HW115665   2.735   2.330   4.800
 4922SOL    HW215666   2.593   2.290   4.869
 4923SOL     OW15667   3.358   1.269   2.584
 4923SOL    HW115668   3.335   1.176   2.614
 4923SOL    HW215669   3.352   1.274   2.485
 4924SOL     OW15670   3.600   1.398   4.669
 4924SOL    HW115671   3.502   1.411   4.651
 4924SOL    HW215672   3.649   1.483   4.652
 4925SOL     OW15673   6.020   6.950   2.594
 4925SOL    HW115674   5.997   6.898   2.676
 4925SOL    HW215675   6.116   6.976   2.597
 4926SOL     OW15676   5.485   1.984   1.398
 4926SOL    HW115677   5.512   1.893   1.368
 4926SOL    HW215678   5.566   2.035   1.429
 4927SOL     OW15679   3.068   3.435   4.692
 4927SOL    HW115680   2.989   3.382   4.723
 4927SOL    HW215681   3.152   3.397   4.732
 4928SOL     OW15682   1.324   0.844   7.000
 4928SOL    HW115683   1.248   0.876   0.032
 4928SOL    HW215684   1.397   0.809   0.035
 4929SOL     OW15685   6.282   6.728   4.717
 4929SOL    HW115686   6.273   6.818   4.674
 4929SOL    HW215687   6.193   6.696   4.747
 4930SOL     OW15688   5.960   0.612   3.249
 4930SOL    HW115689   5.957   0.618   3.149
 4930SOL    HW215690   5.989   0.520   3.276
 4931SOL     OW15691   6.590   6.616   1.252
 4931SOL    HW115692   6.617   6.615   1.156
 4931SOL    HW215693   6.645   6.549   1.302
 4932SOL     OW15694   4.157   3.389   2.578
 4932SOL    HW115695   4.112   3.371   2.666
 4932SOL    HW215696   4.128   3.320   2.511
 4933SOL     OW15697   2.267   0.018   2.238
 4933SOL    HW115698   2.317   6.966   2.279
 4933SOL    HW215699   2.293   0.103   2.283
 4934SOL     OW15700   3.640   5.426   3.331
 4934SOL    HW115701   3.664   5.517   3.300
 4934SOL    HW215702   3.688   5.358   3.275
 4935SOL     OW15703   1.558   2.096   6.135
 4935SOL    HW115704   1.494   2.023   6.112
 4935SOL    HW215705   1.544   2.124   6.230
 4936SOL     OW15706   3.522   5.114   1.302
 4936SOL    HW115707   3.496   5.134   1.396
 4936SOL    HW215708   3.548   5.199   1.255
 4937SOL     OW15709   5.677   2.961   6.004
 4937SOL    HW115710   5.724   2.878   6.033
 4937SOL    HW215711   5.723   3.041   6.044
 4938SOL     OW15712   1.789   5.357   5.650
 4938SOL    HW115713   1.864   5.372   5.714
 4938SOL    HW215714   1.721   5.296   5.692
 4939SOL     OW15715   5.755   2.110   4.930
 4939SOL    HW115716   5.767   2.077   4.836
 4939SOL    HW215717   5.842   2.101   4.978
 4940SOL     OW15718   0.705   1.390   4.878
 4940SOL    HW115719   0.637   1.318   4.864
 4940SOL    HW215720   0.686   1.466   4.815
 4941SOL     OW15721   4.724   1.915   5.954
 4941SOL    HW115722   4.778   1.962   5.885
 4941SOL    HW215723   4.673   1.841   5.911
 4942SOL     OW15724   5.414   2.853   6.020
 4942SOL    HW115725   5.491   2.905   6.058
 4942SOL    HW215726   5.449   2.768   5.980
 4943SOL     OW15727   4.276   3.571   0.134
 4943SOL    HW115728   4.336   3.635   0.183
 4943SOL    HW215729   4.239   3.505   0.200
 4944SOL     OW15730   2.438   4.422   2.481
 4944SOL    HW115731   2.363   4.422   2.416
 4944SOL    HW215732   2.512   4.481   2.448
 4945SOL     OW15733   1.025   1.526   3.878
 4945SOL    HW115734   1.095   1.495   3.813
 4945SOL    HW215735   0.934   1.506   3.841
 4946SOL     OW15736   0.270   3.213   1.295
 4946SOL    HW115737   0.219   3.204   1.381
 4946SOL    HW215738   0.348   3.151   1.296
 4947SOL     OW15739   1.864   0.750   1.158
 4947SOL    HW115740   1.947   0.709   1.119
 4947SOL    HW215741   1.885   0.790   1.247
 4948SOL     OW15742   1.890   0.649   2.821
 4948SOL    HW115743   1.824   0.669   2.893
 4948SOL    HW215744   1.970   0.708   2.832
 4949SOL     OW15745   4.409   6.721   5.744
 4949SOL    HW115746   4.390   6.788   5.815
 4949SOL    HW215747   4.329   6.662   5.730
 4950SOL     OW15748   2.911   5.694   4.071
 4950SOL    HW115749   2.816   5.713   4.097
 4950SOL    HW215750   2.972   5.731   4.141
 4951SOL     OW15751   5.140   1.520   4.854
 4951SOL    HW115752   5.192   1.442   4.818
 4951SOL    HW215753   5.058   1.534   4.799
 4952SOL     OW15754   0.191   0.576   5.031
 4952SOL    HW115755   0.246   0.500   4.995
 4952SOL    HW215756   0.249   0.637   5.084
 4953SOL     OW15757   1.956   6.752   2.451
 4953SOL    HW115758   1.868   6.742   2.403
 4953SOL    HW215759   1.965   6.846   2.484
 4954SOL     OW15760   4.652   3.693   0.064
 4954SOL    HW115761   4.575   3.730   0.012
 4954SOL    HW215762   4.688   3.763   0.125
 4955SOL     OW15763   1.727   6.559   6.416
 4955SOL    HW115764   1.684   6.612   6.489
 4955SOL    HW215765   1.817   6.528   6.445
 4956SOL     OW15766   2.541   0.331   4.599
 4956SOL    HW115767   2.531   0.422   4.559
 4956SOL    HW215768   2.483   0.324   4.680
 4957SOL     OW15769   0.099   1.451   3.223
 4957SOL    HW115770   0.128   1.431   3.317
 4957SOL    HW215771   0.133   1.379   3.162
 4958SOL     OW15772   0.025   5.933   5.501
 4958SOL    HW115773   6.974   5.869   5.515
 4958SOL    HW215774   0.041   5.984   5.585
 4959SOL     OW15775   6.894   1.365   6.520
 4959SOL    HW115776   6.843   1.323   6.595
 4959SOL    HW215777   6.905   1.463   6.537
 4960SOL     OW15778   3.338   5.956   3.946
 4960SOL    HW115779   3.407   6.020   3.913
 4960SOL    HW215780   3.271   5.939   3.874
 4961SOL     OW15781   5.192   1.729   5.627
 4961SOL    HW115782   5.170   1.670   5.704
 4961SOL    HW215783   5.283   1.706   5.592
 4962SOL     OW15784   6.279   2.860   0.942
 4962SOL    HW115785   6.378   2.866   0.948
 4962SOL    HW215786   6.246   2.782   0.996
 4963SOL     OW15787   6.012   6.027   0.181
 4963SOL    HW115788   6.039   6.102   0.120
 4963SOL    HW215789   6.089   5.966   0.195
 4964SOL     OW15790   3.802   6.570   3.443
 4964SOL    HW115791   3.836   6.660   3.417
 4964SOL    HW215792   3.872   6.501   3.424
 4965SOL     OW15793   0.187   0.379   3.645
 4965SOL    HW115794   0.223   0.450   3.705
 4965SOL    HW215795   0.203   0.289   3.687
 4966SOL     OW15796   1.984   0.381   5.050
 4966SOL    HW115797   2.019   0.443   4.979
 4966SOL    HW215798   2.021   0.289   5.035
 4967SOL     OW15799   4.003   3.333   5.721
 4967SOL    HW115800   4.081   3.342   5.660
 4967SOL    HW215801   3.997   3.415   5.779
 4968SOL     OW15802   5.564   3.151   2.994
 4968SOL    HW115803   5.634   3.183   3.059
 4968SOL    HW215804   5.578   3.195   2.906
 4969SOL     OW15805   2.197   1.168   1.877
 4969SOL    HW115806   2.188   1.267   1.888
 4969SOL    HW215807   2.274   1.135   1.932
 4970SOL     OW15808   1.873   2.197   4.572
 4970SOL    HW115809   1.913   2.208   4.663
 4970SOL    HW215810   1.837   2.285   4.541
 4971SOL     OW15811   5.989   6.213   3.541
 4971SOL    HW115812   5.974   6.127   3.589
 4971SOL    HW215813   5.916   6.226   3.473
 4972SOL     OW15814   1.345   3.294   0.756
 4972SOL    HW115815   1.289   3.253   0.829
 4972SOL    HW215816   1.352   3.229   0.680
 4973SOL     OW15817   6.912   6.909   1.816
 4973SOL    HW115818   6.812   6.899   1.814
 4973SOL    HW215819   6.948   6.866   1.898
 4974SOL     OW15820   5.835   4.202   0.894
 4974SOL    HW115821   5.743   4.212   0.857
 4974SOL    HW215822   5.857   4.104   0.902
 4975SOL     OW15823   5.582   6.056   6.162
 4975SOL    HW115824   5.493   6.055   6.117
 4975SOL    HW215825   5.583   6.128   6.232
 4976SOL     OW15826   3.304   0.266   4.786
 4976SOL    HW115827   3.355   0.298   4.706
 4976SOL    HW215828   3.294   0.341   4.852
 4977SOL     OW15829   4.784   4.347   0.460
 4977SOL    HW115830   4.865   4.292   0.476
 4977SOL    HW215831   4.716   4.327   0.531
 4978SOL     OW15832   6.803   3.542   5.907
 4978SOL    HW115833   6.804   3.548   5.807
 4978SOL    HW215834   6.748   3.464   5.935
 4979SOL     OW15835   0.099   1.303   5.163
 4979SOL    HW115836   0.168   1.295   5.235
 4979SOL    HW215837   0.011   1.326   5.204
 4980SOL     OW15838   4.701   0.376   3.339
 4980SOL    HW115839   4.691   0.348   3.244
 4980SOL    HW215840   4.727   0.473   3.343
 4981SOL     OW15841   4.960   5.436   6.359
 4981SOL    HW115842   4.929   5.513   6.303
 4981SOL    HW215843   4.974   5.356   6.300
 4982SOL     OW15844   2.078   1.774   6.716
 4982SOL    HW115845   2.148   1.788   6.786
 4982SOL    HW215846   1.988   1.768   6.759
 4983SOL     OW15847   5.326   2.829   4.440
 4983SOL    HW115848   5.286   2.774   4.513
 4983SOL    HW215849   5.401   2.778   4.397
 4984SOL     OW15850   5.629   3.694   4.163
 4984SOL    HW115851   5.553   3.630   4.150
 4984SOL    HW215852   5.615   3.745   4.248
 4985SOL     OW15853   6.677   5.988   3.369
 4985SOL    HW115854   6.593   5.989   3.316
 4985SOL    HW215855   6.719   6.079   3.367
 4986SOL     OW15856   6.802   4.241   2.965
 4986SOL    HW115857   6.884   4.184   2.956
 4986SOL    HW215858   6.761   4.255   2.875
 4987SOL     OW15859   0.709   2.542   1.386
 4987SOL    HW115860   0.634   2.592   1.344
 4987SOL    HW215861   0.736   2.466   1.326
 4988SOL     OW15862   6.563   1.763   3.273
 4988SOL    HW115863   6.510   1.837   3.232
 4988SOL    HW215864   6.501   1.700   3.320
 4989SOL     OW15865   5.162   0.979   1.140
 4989SOL    HW115866   5.209   1.056   1.181
 4989SOL    HW215867   5.181   0.976   1.042
 4990SOL     OW15868   1.264   1.465   6.075
 4990SOL    HW115869   1.344   1.412   6.102
 4990SOL    HW215870   1.182   1.427   6.117
 4991SOL     OW15871   1.034   3.811   3.962
 4991SOL    HW115872   0.946   3.828   3.919
 4991SOL    HW215873   1.086   3.897   3.968
 4992SOL     OW15874   5.009   0.990   4.015
 4992SOL    HW115875   5.077   0.917   4.023
 4992SOL    HW215876   4.948   0.969   3.938
 4993SOL     OW15877   3.377   5.551   4.059
 4993SOL    HW115878   3.397   5.454   4.051
 4993SOL    HW215879   3.462   5.604   4.053
 4994SOL     OW15880   1.270   0.382   2.248
 4994SOL    HW115881   1.252   0.429   2.334
 4994SOL    HW215882   1.335   0.435   2.194
 4995SOL     OW15883   6.635   2.916   5.949
 4995SOL    HW115884   6.554   2.923   6.008
 4995SOL    HW215885   6.636   2.992   5.885
 4996SOL     OW15886   1.424   1.230   2.464
 4996SOL    HW115887   1.487   1.165   2.507
 4996SOL    HW215888   1.364   1.269   2.534
 4997SOL     OW15889   6.013   2.033   2.844
 4997SOL    HW115890   5.923   2.021   2.803
 4997SOL    HW215891   6.061   1.946   2.846
 4998SOL     OW15892   2.153   3.797   5.056
 4998SOL    HW115893   2.212   3.878   5.056
 4998SOL    HW215894   2.200   3.721   5.100
 4999SOL     OW15895   5.571   5.681   1.212
 4999SOL    HW115896   5.500   5.749   1.231
 4999SOL    HW215897   5.660   5.716   1.242
 5000SOL     OW15898   1.009   0.227   4.018
 5000SOL    HW115899   0.924   0.281   4.015
 5000SOL    HW215900   1.046   0.228   4.111
 5001SOL     OW15901   1.413   4.067   5.957
 5001SOL    HW115902   1.393   3.970   5.946
 5001SOL    HW215903   1.396   4.093   6.052
 5002SOL     OW15904   1.451   3.306   3.094
 5002SOL    HW115905   1.374   3.362   3.124
 5002SOL    HW215906   1.416   3.224   3.048
 5003SOL     OW15907   1.404   5.936   3.329
 5003SOL    HW115908   1.399   5.880   3.412
 5003SOL    HW215909   1.465   6.014   3.345
 5004SOL     OW15910   2.553   5.250   5.543
 5004SOL    HW115911   2.628   5.192   5.512
 5004SOL    HW215912   2.544   5.329   5.482
 5005SOL     OW15913   3.359   2.573   0.948
 5005SOL    HW115914   3.262   2.593   0.940
 5005SOL    HW215915   3.410   2.621   0.877
 5006SOL     OW15916   5.585   6.875   6.496
 5006SOL    HW115917   5.665   6.932   6.516
 5006SOL    HW215918   5.537   6.912   6.416
 5007SOL     OW15919   2.562   0.249   6.513
 5007SOL    HW115920   2.512   0.180   6.565
 5007SOL    HW215921   2.551   0.339   6.556
 5008SOL     OW15922   6.903   0.364   3.900
 5008SOL    HW115923   6.899   0.353   3.999
 5008SOL    HW215924   6.998   0.365   3.869
 5009SOL     OW15925   2.108   6.669   1.956
 5009SOL    HW115926   2.194   6.663   2.007
 5009SOL    HW215927   2.094   6.584   1.905
 5010SOL     OW15928   3.065   3.149   3.883
 5010SOL    HW115929   3.054   3.164   3.785
 5010SOL    HW215930   2.985   3.101   3.919
 5011SOL     OW15931   2.041   3.678   2.135
 5011SOL    HW115932   2.000   3.631   2.214
 5011SOL    HW215933   2.103   3.615   2.088
 5012SOL     OW15934   4.849   3.300   6.506
 5012SOL    HW115935   4.804   3.357   6.438
 5012SOL    HW215936   4.938   3.271   6.471
 5013SOL     OW15937   5.422   1.414   0.153
 5013SOL    HW115938   5.480   1.456   0.223
 5013SOL    HW215939   5.377   1.333   0.191
 5014SOL     OW15940   5.624   5.528   0.415
 5014SOL    HW115941   5.610   5.430   0.428
 5014SOL    HW215942   5.541   5.577   0.442
 5015SOL     OW15943   4.482   1.672   3.580
 5015SOL    HW115944   4.522   1.744   3.637
 5015SOL    HW215945   4.384   1.669   3.595
 5016SOL     OW15946   2.580   1.777   1.836
 5016SOL    HW115947   2.586   1.877   1.846
 5016SOL    HW215948   2.565   1.754   1.740
 5017SOL     OW15949   1.932   2.063   0.741
 5017SOL    HW115950   2.018   2.020   0.714
 5017SOL    HW215951   1.946   2.161   0.755
 5018SOL     OW15952   0.868   4.828   1.177
 5018SOL    HW115953   0.829   4.915   1.205
 5018SOL    HW215954   0.805   4.754   1.201
 5019SOL     OW15955   2.414   4.501   0.572
 5019SOL    HW115956   2.342   4.503   0.641
 5019SOL    HW215957   2.477   4.426   0.592
 5020SOL     OW15958   5.019   6.229   5.708
 5020SOL    HW115959   5.005   6.227   5.609
 5020SOL    HW215960   4.940   6.188   5.753
 5021SOL     OW15961   1.528   2.844   5.443
 5021SOL    HW115962   1.489   2.775   5.505
 5021SOL    HW215963   1.484   2.836   5.354
 5022SOL     OW15964   2.149   0.612   1.013
 5022SOL    HW115965   2.189   0.696   1.049
 5022SOL    HW215966   2.221   0.547   0.990
 5023SOL     OW15967   6.337   3.511   1.511
 5023SOL    HW115968   6.432   3.484   1.528
 5023SOL    HW215969   6.302   3.461   1.431
 5024SOL     OW15970   6.558   4.379   2.517
 5024SOL    HW115971   6.562   4.479   2.514
 5024SOL    HW215972   6.609   4.342   2.439
 5025SOL     OW15973   4.061   2.035   1.839
 5025SOL    HW115974   4.039   2.082   1.925
 5025SOL    HW215975   4.160   2.035   1.825
 5026SOL     OW15976   6.051   5.912   6.569
 5026SOL    HW115977   5.991   5.863   6.506
 5026SOL    HW215978   6.051   6.010   6.547
 5027SOL     OW15979   0.644   0.117   2.187
 5027SOL    HW115980   0.660   0.018   2.186
 5027SOL    HW215981   0.726   0.164   2.218
 5028SOL     OW15982   0.288   6.891   2.433
 5028SOL    HW115983   0.361   6.822   2.429
 5028SOL    HW215984   0.328   6.982   2.427
 5029SOL     OW15985   6.503   3.033   3.404
 5029SOL    HW115986   6.494   3.055   3.501
 5029SOL    HW215987   6.587   3.073   3.368
 5030SOL     OW15988   6.386   0.521   6.880
 5030SOL    HW115989   6.420   0.450   6.942
 5030SOL    HW215990   6.352   0.598   6.934
 5031SOL     OW15991   5.529   1.389   4.909
 5031SOL    HW115992   5.557   1.453   4.981
 5031SOL    HW215993   5.434   1.410   4.882
 5032SOL     OW15994   0.844   4.247   1.248
 5032SOL    HW115995   0.774   4.319   1.246
 5032SOL    HW215996   0.926   4.282   1.294
 5033SOL     OW15997   1.898   4.645   6.867
 5033SOL    HW115998   1.935   4.713   6.804
 5033SOL    HW215999   1.800   4.633   6.849
 5034SOL     OW16000   6.769   3.157   2.359
 5034SOL    HW116001   6.859   3.115   2.348
 5034SOL    HW216002   6.731   3.178   2.269
 5035SOL     OW16003   5.973   4.733   0.825
 5035SOL    HW116004   5.992   4.828   0.852
 5035SOL    HW216005   5.876   4.714   0.836
 5036SOL     OW16006   0.611   5.148   6.795
 5036SOL    HW116007   0.700   5.137   6.841
 5036SOL    HW216008   0.540   5.159   6.864
 5037SOL     OW16009   4.635   2.556   2.549
 5037SOL    HW116010   4.706   2.627   2.547
 5037SOL    HW216011   4.679   2.467   2.561
 5038SOL     OW16012   1.516   5.019   5.559
 5038SOL    HW116013   1.613   4.999   5.569
 5038SOL    HW216014   1.494   5.104   5.608
 5039SOL     OW16015   2.261   3.620   5.317
 5039SOL    HW116016   2.328   3.580   5.379
 5039SOL    HW216017   2.185   3.556   5.304
 5040SOL     OW16018   2.209   4.289   6.566
 5040SOL    HW116019   2.266   4.371   6.558
 5040SOL    HW216020   2.120   4.307   6.525
 5041SOL     OW16021   0.859   3.627   1.236
 5041SOL    HW116022   0.934   3.579   1.280
 5041SOL    HW216023   0.888   3.720   1.211
 5042SOL     OW16024   0.001   3.088   6.965
 5042SOL    HW116025   6.968   3.057   6.889
 5042SOL    HW216026   7.004   3.183   6.987
 5043SOL     OW16027   3.328   0.967   5.320
 5043SOL    HW116028   3.381   0.967   5.404
 5043SOL    HW216029   3.320   1.061   5.285
 5044SOL     OW16030   5.970   6.953   3.201
 5044SOL    HW116031   6.014   6.922   3.286
 5044SOL    HW216032   6.028   6.927   3.123
 5045SOL     OW16033   5.424   3.295   0.308
 5045SOL    HW116034   5.428   3.195   0.303
 5045SOL    HW216035   5.517   3.331   0.324
 5046SOL     OW16036   3.899   3.005   4.741
 5046SOL    HW116037   3.976   3.059   4.775
 5046SOL    HW216038   3.906   2.997   4.641
 5047SOL     OW16039   6.679   2.162   2.699
 5047SOL    HW116040   6.633   2.247   2.673
 5047SOL    HW216041   6.641   2.086   2.647
 5048SOL     OW16042   6.539   2.732   1.319
 5048SOL    HW116043   6.574   2.647   1.358
 5048SOL    HW216044   6.601   2.807   1.341
 5049SOL     OW16045   0.012   1.198   3.509
 5049SOL    HW116046   6.940   1.195   3.534
 5049SOL    HW216047   0.048   1.289   3.529
 5050SOL     OW16048   0.546   1.194   2.375
 5050SOL    HW116049   0.513   1.149   2.458
 5050SOL    HW216050   0.549   1.293   2.390
 5051SOL     OW16051   3.962   3.397   0.585
 5051SOL    HW116052   3.884   3.391   0.523
 5051SOL    HW216053   3.965   3.315   0.643
 5052SOL     OW16054   2.230   4.984   6.135
 5052SOL    HW116055   2.163   4.946   6.199
 5052SOL    HW216056   2.322   4.961   6.166
 5053SOL     OW16057   1.975   4.096   3.231
 5053SOL    HW116058   1.937   4.180   3.271
 5053SOL    HW216059   1.928   4.017   3.271
 5054SOL     OW16060   3.602   5.686   5.182
 5054SOL    HW116061   3.677   5.624   5.206
 5054SOL    HW216062   3.528   5.635   5.140
 5055SOL     OW16063   6.848   1.485   4.748
 5055SOL    HW116064   6.802   1.437   4.673
 5055SOL    HW216065   6.910   1.421   4.795
 5056SOL     OW16066   5.972   4.051   6.130
 5056SOL    HW116067   5.966   4.150   6.127
 5056SOL    HW216068   6.035   4.024   6.203
 5057SOL     OW16069   1.495   5.551   3.636
 5057SOL    HW116070   1.395   5.542   3.636
 5057SOL    HW216071   1.536   5.472   3.681
 5058SOL     OW16072   2.988   3.814   6.687
 5058SOL    HW116073   3.031   3.806   6.597
 5058SOL    HW216074   3.002   3.730   6.739
 5059SOL     OW16075   5.100   3.219   4.559
 5059SOL    HW116076   5.056   3.207   4.648
 5059SOL    HW216077   5.037   3.267   4.497
 5060SOL     OW16078   0.320   2.725   5.048
 5060SOL    HW116079   0.402   2.688   5.004
 5060SOL    HW216080   0.284   2.659   5.114
 5061SOL     OW16081   2.925   3.727   3.811
 5061SOL    HW116082   2.907   3.655   3.744
 5061SOL    HW216083   2.965   3.806   3.766
 5062SOL     OW16084   6.151   0.762   2.266
 5062SOL    HW116085   6.199   0.727   2.347
 5062SOL    HW216086   6.116   0.686   2.212
 5063SOL     OW16087   1.055   6.053   1.721
 5063SOL    HW116088   0.983   5.989   1.750
 5063SOL    HW216089   1.048   6.137   1.774
 5064SOL     OW16090   4.923   5.326   1.110
 5064SOL    HW116091   4.898   5.419   1.135
 5064SOL    HW216092   4.916   5.266   1.190
 5065SOL     OW16093   1.538   0.638   2.896
 5065SOL    HW116094   1.449   0.662   2.856
 5065SOL    HW216095   1.567   0.711   2.959
 5066SOL     OW16096   2.780   4.303   1.599
 5066SOL    HW116097   2.822   4.302   1.508
 5066SOL    HW216098   2.848   4.330   1.667
 5067SOL     OW16099   4.676   1.466   2.682
 5067SOL    HW116100   4.634   1.376   2.696
 5067SOL    HW216101   4.713   1.472   2.589
 5068SOL     OW16102   3.012   5.395   6.971
 5068SOL    HW116103   3.101   5.430   6.941
 5068SOL    HW216104   3.025   5.333   0.023
 5069SOL     OW16105   1.939   3.308   5.991
 5069SOL    HW116106   2.009   3.279   6.056
 5069SOL    HW216107   1.905   3.399   6.017
 5070SOL     OW16108   5.787   3.931   4.765
 5070SOL    HW116109   5.786   3.876   4.681
 5070SOL    HW216110   5.743   3.881   4.839
 5071SOL     OW16111   3.945   2.105   3.468
 5071SOL    HW116112   4.036   2.147   3.473
 5071SOL    HW216113   3.890   2.135   3.546
 5072SOL     OW16114   1.916   1.575   1.576
 5072SOL    HW116115   1.922   1.561   1.477
 5072SOL    HW216116   1.928   1.673   1.596
 5073SOL     OW16117   1.552   5.284   1.334
 5073SOL    HW116118   1.469   5.322   1.376
 5073SOL    HW216119   1.597   5.222   1.399
 5074SOL     OW16120   4.077   2.223   1.334
 5074SOL    HW116121   4.113   2.166   1.407
 5074SOL    HW216122   4.040   2.164   1.261
 5075SOL     OW16123   1.192   2.352   6.675
 5075SOL    HW116124   1.221   2.327   6.768
 5075SOL    HW216125   1.250   2.425   6.640
 5076SOL     OW16126   5.670   6.978   6.882
 5076SOL    HW116127   5.602   6.990   6.809
 5076SOL    HW216128   5.656   0.023   6.952
 5077SOL     OW16129   0.096   4.053   6.326
 5077SOL    HW116130   0.036   4.100   6.390
 5077SOL    HW216131   0.072   4.081   6.232
 5078SOL     OW16132   0.187   0.984   4.362
 5078SOL    HW116133   0.246   0.940   4.429
 5078SOL    HW216134   0.242   1.022   4.288
 5079SOL     OW16135   2.006   2.964   5.812
 5079SOL    HW116136   1.917   2.918   5.809
 5079SOL    HW216137   2.069   2.911   5.868
 5080SOL     OW16138   5.565   5.659   5.355
 5080SOL    HW116139   5.531   5.692   5.267
 5080SOL    HW216140   5.664   5.651   5.353
 5081SOL     OW16141   3.053   4.681   5.596
 5081SOL    HW116142   2.964   4.727   5.594
 5081SOL    HW216143   3.048   4.599   5.540
 5082SOL     OW16144   5.330   6.736   0.349
 5082SOL    HW116145   5.415   6.715   0.301
 5082SOL    HW216146   5.308   6.661   0.412
 5083SOL     OW16147   3.642   0.672   1.369
 5083SOL    HW116148   3.605   0.585   1.402
 5083SOL    HW216149   3.566   0.736   1.353
 5084SOL     OW16150   0.612   5.074   4.262
 5084SOL    HW116151   0.611   5.053   4.359
 5084SOL    HW216152   0.666   5.005   4.213
 5085SOL     OW16153   0.802   3.398   5.767
 5085SOL    HW116154   0.890   3.358   5.742
 5085SOL    HW216155   0.751   3.334   5.824
 5086SOL     OW16156   0.822   4.224   2.332
 5086SOL    HW116157   0.921   4.235   2.322
 5086SOL    HW216158   0.780   4.314   2.344
 5087SOL     OW16159   6.764   5.630   2.284
 5087SOL    HW116160   6.856   5.665   2.266
 5087SOL    HW216161   6.696   5.698   2.256
 5088SOL     OW16162   4.581   6.883   3.631
 5088SOL    HW116163   4.561   6.972   3.591
 5088SOL    HW216164   4.556   6.811   3.567
 5089SOL     OW16165   5.896   4.230   4.433
 5089SOL    HW116166   5.799   4.205   4.441
 5089SOL    HW216167   5.904   4.330   4.432
 5090SOL     OW16168   2.023   1.751   2.659
 5090SOL    HW116169   2.043   1.747   2.757
 5090SOL    HW216170   2.109   1.750   2.608
 5091SOL     OW16171   6.129   0.389   1.161
 5091SOL    HW116172   6.091   0.477   1.190
 5091SOL    HW216173   6.054   0.326   1.140
 5092SOL     OW16174   3.321   2.980   3.749
 5092SOL    HW116175   3.291   3.065   3.793
 5092SOL    HW216176   3.399   2.942   3.799
 5093SOL     OW16177   3.451   1.375   0.837
 5093SOL    HW116178   3.411   1.415   0.755
 5093SOL    HW216179   3.428   1.431   0.917
 5094SOL     OW16180   1.903   5.751   6.468
 5094SOL    HW116181   1.923   5.686   6.541
 5094SOL    HW216182   1.809   5.736   6.435
 5095SOL     OW16183   0.647   2.308   3.180
 5095SOL    HW116184   0.679   2.319   3.086
 5095SOL    HW216185   0.582   2.233   3.185
 5096SOL     OW16186   4.686   4.880   6.140
 5096SOL    HW116187   4.664   4.804   6.078
 5096SOL    HW216188   4.781   4.870   6.171
 5097SOL     OW16189   6.723   6.755   0.258
 5097SOL    HW116190   6.737   6.829   0.323
 5097SOL    HW216191   6.782   6.768   0.178
 5098SOL     OW16192   3.629   1.643   1.601
 5098SOL    HW116193   3.661   1.700   1.525
 5098SOL    HW216194   3.578   1.700   1.666
 5099SOL     OW16195   0.016   6.319   2.034
 5099SOL    HW116196   0.032   6.392   2.100
 5099SOL    HW216197   0.067   6.337   1.950
 5100SOL     OW16198   3.400   5.282   4.160
 5100SOL    HW116199   3.486   5.322   4.194
 5100SOL    HW216200   3.333   5.280   4.234
 5101SOL     OW16201   4.719   0.172   5.647
 5101SOL    HW116202   4.688   0.082   5.677
 5101SOL    HW216203   4.640   0.224   5.613
 5102SOL     OW16204   5.371   6.659   4.463
 5102SOL    HW116205   5.339   6.574   4.422
 5102SOL    HW216206   5.432   6.706   4.400
 5103SOL     OW16207   0.983   1.778   4.217
 5103SOL    HW116208   1.033   1.692   4.213
 5103SOL    HW216209   1.047   1.855   4.214
 5104SOL     OW16210   2.463   6.189   1.755
 5104SOL    HW116211   2.385   6.208   1.695
 5104SOL    HW216212   2.431   6.186   1.850
 5105SOL     OW16213   3.132   2.885   6.734
 5105SOL    HW116214   3.133   2.910   6.638
 5105SOL    HW216215   3.039   2.894   6.770
 5106SOL     OW16216   3.960   1.413   1.128
 5106SOL    HW116217   4.015   1.422   1.211
 5106SOL    HW216218   3.949   1.504   1.086
 5107SOL     OW16219   4.796   2.538   1.304
 5107SOL    HW116220   4.795   2.445   1.343
 5107SOL    HW216221   4.753   2.601   1.368
 5108SOL     OW16222   3.904   3.998   4.956
 5108SOL    HW116223   3.940   4.049   5.035
 5108SOL    HW216224   3.943   4.037   4.872
 5109SOL     OW16225   1.339   2.148   0.334
 5109SOL    HW116226   1.248   2.186   0.349
 5109SOL    HW216227   1.339   2.051   0.357
 5110SOL     OW16228   0.728   0.526   6.488
 5110SOL    HW116229   0.750   0.433   6.458
 5110SOL    HW216230   0.811   0.581   6.493
 5111SOL     OW16231   1.105   6.791   4.385
 5111SOL    HW116232   1.102   6.884   4.348
 5111SOL    HW216233   1.021   6.772   4.435
 5112SOL     OW16234   1.134   0.213   2.636
 5112SOL    HW116235   1.045   0.179   2.606
 5112SOL    HW216236   1.197   0.137   2.649
 5113SOL     OW16237   1.699   5.629   1.538
 5113SOL    HW116238   1.710   5.607   1.441
 5113SOL    HW216239   1.642   5.710   1.547
 5114SOL     OW16240   3.525   6.628   6.779
 5114SOL    HW116241   3.462   6.551   6.774
 5114SOL    HW216242   3.600   6.605   6.841
 5115SOL     OW16243   1.343   4.826   2.514
 5115SOL    HW116244   1.411   4.762   2.477
 5115SOL    HW216245   1.380   4.870   2.596
 5116SOL     OW16246   1.530   6.719   0.797
 5116SOL    HW116247   1.624   6.752   0.787
 5116SOL    HW216248   1.531   6.622   0.818
 5117SOL     OW16249   0.576   3.728   3.560
 5117SOL    HW116250   0.479   3.703   3.570
 5117SOL    HW216251   0.616   3.676   3.484
 5118SOL     OW16252   5.729   0.917   6.922
 5118SOL    HW116253   5.773   0.965   6.846
 5118SOL    HW216254   5.638   0.955   6.937
 5119SOL     OW16255   4.917   1.206   2.176
 5119SOL    HW116256   4.944   1.187   2.270
 5119SOL    HW216257   4.844   1.143   2.149
 5120SOL     OW16258   4.579   6.345   5.161
 5120SOL    HW116259   4.551   6.346   5.064
 5120SOL    HW216260   4.547   6.428   5.205
 5121SOL     OW16261   3.364   3.131   6.425
 5121SOL    HW116262   3.452   3.168   6.454
 5121SOL    HW216263   3.379   3.055   6.361
 5122SOL     OW16264   3.433   6.095   2.928
 5122SOL    HW116265   3.503   6.108   2.998
 5122SOL    HW216266   3.474   6.107   2.838
 5123SOL     OW16267   5.794   2.195   4.535
 5123SOL    HW116268   5.864   2.196   4.607
 5123SOL    HW216269   5.722   2.261   4.559
 5124SOL     OW16270   2.379   5.987   4.222
 5124SOL    HW116271   2.335   6.047   4.154
 5124SOL    HW216272   2.342   5.894   4.212
 5125SOL     OW16273   6.400   2.082   3.365
 5125SOL    HW116274   6.499   2.094   3.366
 5125SOL    HW216275   6.376   2.005   3.305
 5126SOL     OW16276   0.373   5.744   0.078
 5126SOL    HW116277   0.308   5.800   0.130
 5126SOL    HW216278   0.350   5.648   0.089
 5127SOL     OW16279   0.269   4.661   0.054
 5127SOL    HW116280   0.312   4.608   7.005
 5127SOL    HW216281   0.238   4.749   0.018
 5128SOL     OW16282   0.339   6.502   0.556
 5128SOL    HW116283   0.355   6.509   0.655
 5128SOL    HW216284   0.419   6.463   0.511
 5129SOL     OW16285   5.721   6.947   2.889
 5129SOL    HW116286   5.648   6.958   2.821
 5129SOL    HW216287   5.681   6.920   2.976
 5130SOL     OW16288   0.084   5.671   2.783
 5130SOL    HW116289   0.172   5.634   2.755
 5130SOL    HW216290   0.097   5.758   2.830
 5131SOL     OW16291   1.797   4.051   4.370
 5131SOL    HW116292   1.828   4.047   4.275
 5131SOL    HW216293   1.869   4.090   4.427
 5132SOL     OW16294   4.342   2.847   6.006
 5132SOL    HW116295   4.274   2.812   6.071
 5132SOL    HW216296   4.363   2.942   6.028
 5133SOL     OW16297   2.193   4.748   7.014
 5133SOL    HW116298   2.146   4.809   0.053
 5133SOL    HW216299   2.129   4.722   6.941
 5134SOL     OW16300   6.727   2.510   2.040
 5134SOL    HW116301   6.770   2.441   2.097
 5134SOL    HW216302   6.764   2.600   2.063
 5135SOL     OW16303   6.452   2.606   5.216
 5135SOL    HW116304   6.497   2.616   5.128
 5135SOL    HW216305   6.378   2.673   5.224
 5136SOL     OW16306   4.595   0.430   6.245
 5136SOL    HW116307   4.695   0.426   6.239
 5136SOL    HW216308   4.563   0.359   6.308
 5137SOL     OW16309   5.628   3.430   6.648
 5137SOL    HW116310   5.588   3.357   6.594
 5137SOL    HW216311   5.624   3.516   6.597
 5138SOL     OW16312   2.870   2.236   5.870
 5138SOL    HW116313   2.770   2.241   5.874
 5138SOL    HW216314   2.907   2.232   5.963
 5139SOL     OW16315   1.470   6.740   3.295
 5139SOL    HW116316   1.489   6.642   3.302
 5139SOL    HW216317   1.480   6.769   3.200
 5140SOL     OW16318   3.497   1.764   6.891
 5140SOL    HW116319   3.576   1.776   6.951
 5140SOL    HW216320   3.427   1.831   6.915
 5141SOL     OW16321   6.242   3.930   0.901
 5141SOL    HW116322   6.253   4.018   0.855
 5141SOL    HW216323   6.308   3.865   0.863
 5142SOL     OW16324   6.071   1.023   4.110
 5142SOL    HW116325   5.977   1.056   4.100
 5142SOL    HW216326   6.128   1.095   4.149
 5143SOL     OW16327   0.423   4.366   3.828
 5143SOL    HW116328   0.483   4.303   3.779
 5143SOL    HW216329   0.380   4.429   3.763
 5144SOL     OW16330   1.365   5.045   6.345
 5144SOL    HW116331   1.452   5.089   6.325
 5144SOL    HW216332   1.381   4.954   6.382
 5145SOL     OW16333   2.192   4.495   5.870
 5145SOL    HW116334   2.251   4.473   5.792
 5145SOL    HW216335   2.245   4.543   5.940
 5146SOL     OW16336   3.807   4.165   5.574
 5146SOL    HW116337   3.841   4.088   5.521
 5146SOL    HW216338   3.835   4.250   5.530
 5147SOL     OW16339   0.020   4.585   2.562
 5147SOL    HW116340   6.976   4.655   2.577
 5147SOL    HW216341   7.015   4.523   2.489
 5148SOL     OW16342   1.072   6.400   1.335
 5148SOL    HW116343   0.999   6.449   1.382
 5148SOL    HW216344   1.128   6.352   1.402
 5149SOL     OW16345   6.298   6.354   4.369
 5149SOL    HW116346   6.313   6.291   4.292
 5149SOL    HW216347   6.200   6.355   4.392
 5150SOL     OW16348   2.350   5.212   2.612
 5150SOL    HW116349   2.407   5.139   2.651
 5150SOL    HW216350   2.254   5.193   2.633
 5151SOL     OW16351   4.853   1.664   0.224
 5151SOL    HW116352   4.870   1.731   0.296
 5151SOL    HW216353   4.770   1.689   0.174
 5152SOL     OW16354   2.565   4.360   0.078
 5152SOL    HW116355   2.617   4.412   0.011
 5152SOL    HW216356   2.514   4.422   0.137
 5153SOL     OW16357   2.448   0.491   6.630
 5153SOL    HW116358   2.356   0.480   6.666
 5153SOL    HW216359   2.475   0.587   6.636
 5154SOL     OW16360   1.881   3.076   6.732
 5154SOL    HW116361   1.886   3.084   6.831
 5154SOL    HW216362   1.956   3.019   6.699
 5155SOL     OW16363   3.466   0.296   2.504
 5155SOL    HW116364   3.538   0.253   2.451
 5155SOL    HW216365   3.379   0.249   2.486
 5156SOL     OW16366   0.013   3.029   5.912
 5156SOL    HW116367   0.025   3.061   5.818
 5156SOL    HW216368   0.029   3.104   5.976
 5157SOL     OW16369   4.168   2.196   3.800
 5157SOL    HW116370   4.070   2.195   3.781
 5157SOL    HW216371   4.209   2.109   3.772
 5158SOL     OW16372   3.715   1.428   1.284
 5158SOL    HW116373   3.794   1.420   1.222
 5158SOL    HW216374   3.745   1.419   1.378
 5159SOL     OW16375   0.347   3.004   4.134
 5159SOL    HW116376   0.443   3.020   4.110
 5159SOL    HW216377   0.339   2.914   4.178
 5160SOL     OW16378   0.616   4.322   3.267
 5160SOL    HW116379   0.661   4.315   3.356
 5160SOL    HW216380   0.566   4.409   3.261
 5161SOL     OW16381   1.401   3.602   4.311
 5161SOL    HW116382   1.466   3.662   4.359
 5161SOL    HW216383   1.322   3.585   4.370
 5162SOL     OW16384   1.168   4.747   4.176
 5162SOL    HW116385   1.249   4.691   4.193
 5162SOL    HW216386   1.092   4.688   4.146
 5163SOL     OW16387   4.103   5.476   0.848
 5163SOL    HW116388   4.069   5.463   0.941
 5163SOL    HW216389   4.105   5.388   0.801
 5164SOL     OW16390   4.623   2.457   6.440
 5164SOL    HW116391   4.628   2.541   6.386
 5164SOL    HW216392   4.562   2.392   6.395
 5165SOL     OW16393   6.271   4.000   5.356
 5165SOL    HW116394   6.211   3.953   5.421
 5165SOL    HW216395   6.267   4.099   5.372
 5166SOL     OW16396   0.640   5.870   2.307
 5166SOL    HW116397   0.568   5.807   2.336
 5166SOL    HW216398   0.621   5.962   2.344
 5167SOL     OW16399   6.394   6.103   5.475
 5167SOL    HW116400   6.385   6.200   5.452
 5167SOL    HW216401   6.459   6.092   5.549
 5168SOL     OW16402   5.278   3.227   3.301
 5168SOL    HW116403   5.222   3.145   3.314
 5168SOL    HW216404   5.374   3.199   3.291
 5169SOL     OW16405   4.084   1.802   4.991
 5169SOL    HW116406   4.094   1.823   5.088
 5169SOL    HW216407   4.033   1.875   4.946
 5170SOL     OW16408   6.919   3.880   5.578
 5170SOL    HW116409   6.947   3.834   5.662
 5170SOL    HW216410   7.001   3.914   5.530
 5171SOL     OW16411   2.182   5.034   4.067
 5171SOL    HW116412   2.088   5.006   4.045
 5171SOL    HW216413   2.187   5.134   4.067
 5172SOL     OW16414   6.575   2.891   2.209
 5172SOL    HW116415   6.493   2.833   2.205
 5172SOL    HW216416   6.624   2.884   2.122
 5173SOL     OW16417   5.772   4.903   5.941
 5173SOL    HW116418   5.679   4.933   5.961
 5173SOL    HW216419   5.794   4.824   5.998
 5174SOL     OW16420   2.563   5.029   4.131
 5174SOL    HW116421   2.493   4.968   4.092
 5174SOL    HW216422   2.616   5.069   4.057
 5175SOL     OW16423   2.560   4.087   0.017
 5175SOL    HW116424   2.502   4.053   0.091
 5175SOL    HW216425   2.559   4.187   0.017
 5176SOL     OW16426   4.396   2.984   6.823
 5176SOL    HW116427   4.481   3.031   6.849
 5176SOL    HW216428   4.415   2.921   6.748
 5177SOL     OW16429   5.062   0.183   6.332
 5177SOL    HW116430   5.036   0.096   6.289
 5177SOL    HW216431   5.089   0.166   6.427
 5178SOL     OW16432   1.654   2.780   1.188
 5178SOL    HW116433   1.576   2.838   1.167
 5178SOL    HW216434   1.704   2.817   1.266
 5179SOL     OW16435   3.868   5.879   4.758
 5179SOL    HW116436   3.810   5.817   4.810
 5179SOL    HW216437   3.821   5.966   4.745
 5180SOL     OW16438   2.862   2.953   6.703
 5180SOL    HW116439   2.833   2.936   6.609
 5180SOL    HW216440   2.852   3.050   6.724
 5181SOL     OW16441   4.892   1.926   1.915
 5181SOL    HW116442   4.956   1.913   1.990
 5181SOL    HW216443   4.883   2.024   1.896
 5182SOL     OW16444   4.007   4.999   1.531
 5182SOL    HW116445   3.967   4.921   1.580
 5182SOL    HW216446   4.084   5.036   1.582
 5183SOL     OW16447   3.941   1.052   2.679
 5183SOL    HW116448   4.008   1.070   2.607
 5183SOL    HW216449   3.849   1.054   2.641
 5184SOL     OW16450   0.545   2.277   4.032
 5184SOL    HW116451   0.594   2.266   4.119
 5184SOL    HW216452   0.540   2.374   4.009
 5185SOL     OW16453   5.312   0.351   2.376
 5185SOL    HW116454   5.336   0.448   2.380
 5185SOL    HW216455   5.391   0.296   2.405
 5186SOL     OW16456   5.543   3.739   1.073
 5186SOL    HW116457   5.607   3.668   1.103
 5186SOL    HW216458   5.552   3.819   1.132
 5187SOL     OW16459   0.080   0.854   3.883
 5187SOL    HW116460   7.005   0.864   3.873
 5187SOL    HW216461   0.100   0.809   3.970
 5188SOL     OW16462   0.875   5.264   0.411
 5188SOL    HW116463   0.809   5.302   0.476
 5188SOL    HW216464   0.844   5.174   0.380
 5189SOL     OW16465   5.170   5.130   1.292
 5189SOL    HW116466   5.138   5.173   1.376
 5189SOL    HW216467   5.092   5.091   1.243
 5190SOL     OW16468   0.392   2.748   4.235
 5190SOL    HW116469   0.474   2.770   4.287
 5190SOL    HW216470   0.413   2.754   4.137
 5191SOL     OW16471   4.319   0.274   2.076
 5191SOL    HW116472   4.228   0.265   2.034
 5191SOL    HW216473   4.337   0.371   2.095
 5192SOL     OW16474   2.970   5.884   3.195
 5192SOL    HW116475   2.906   5.817   3.233
 5192SOL    HW216476   2.933   5.921   3.110
 5193SOL     OW16477   4.922   5.102   3.884
 5193SOL    HW116478   4.956   5.102   3.790
 5193SOL    HW216479   4.961   5.025   3.934
 5194SOL     OW16480   4.176   0.980   6.939
 5194SOL    HW116481   4.150   0.968   0.011
 5194SOL    HW216482   4.186   1.077   6.919
 5195SOL     OW16483   0.045   5.765   4.030
 5195SOL    HW116484   0.121   5.701   4.045
 5195SOL    HW216485   0.074   5.857   4.056
 5196SOL     OW16486   1.475   3.532   1.070
 5196SOL    HW116487   1.569   3.562   1.052
 5196SOL    HW216488   1.412   3.587   1.015
 5197SOL     OW16489   1.574   5.557   5.052
 5197SOL    HW116490   1.578   5.522   4.958
 5197SOL    HW216491   1.494   5.616   5.062
 5198SOL     OW16492   4.004   0.146   3.780
 5198SOL    HW116493   4.097   0.110   3.794
 5198SOL    HW216494   4.000   0.193   3.692
 5199SOL     OW16495   1.212   5.921   0.239
 5199SOL    HW116496   1.307   5.888   0.242
 5199SOL    HW216497   1.201   5.997   0.303
 5200SOL     OW16498   1.278   1.749   5.089
 5200SOL    HW116499   1.273   1.799   5.176
 5200SOL    HW216500   1.199   1.688   5.081
 5201SOL     OW16501   5.515   6.121   4.398
 5201SOL    HW116502   5.420   6.148   4.408
 5201SOL    HW216503   5.529   6.081   4.307
 5202SOL     OW16504   6.051   3.773   6.041
 5202SOL    HW116505   6.061   3.756   5.943
 5202SOL    HW216506   6.007   3.862   6.056
 5203SOL     OW16507   2.556   0.749   6.683
 5203SOL    HW116508   2.594   0.741   6.775
 5203SOL    HW216509   2.490   0.824   6.680
 5204SOL     OW16510   3.887   6.233   0.451
 5204SOL    HW116511   3.841   6.174   0.385
 5204SOL    HW216512   3.838   6.231   0.538
 5205SOL     OW16513   6.995   5.774   0.127
 5205SOL    HW116514   6.931   5.817   0.064
 5205SOL    HW216515   7.002   5.676   0.106
 5206SOL     OW16516   0.689   4.804   6.008
 5206SOL    HW116517   0.624   4.836   5.938
 5206SOL    HW216518   0.742   4.882   6.041
 5207SOL     OW16519   0.775   0.756   3.477
 5207SOL    HW116520   0.839   0.687   3.509
 5207SOL    HW216521   0.771   0.756   3.377
 5208SOL     OW16522   4.049   2.680   6.831
 5208SOL    HW116523   4.136   2.632   6.839
 5208SOL    HW216524   4.065   2.772   6.795
 5209SOL     OW16525   5.354   1.039   1.513
 5209SOL    HW116526   5.412   0.958   1.522
 5209SOL    HW216527   5.258   1.011   1.511
 5210SOL     OW16528   4.887   4.013   0.988
 5210SOL    HW116529   4.958   3.955   0.948
 5210SOL    HW216530   4.835   3.960   1.055
 5211SOL     OW16531   4.902   1.688   4.760
 5211SOL    HW116532   4.848   1.765   4.725
 5211SOL    HW216533   4.864   1.659   4.848
 5212SOL     OW16534   1.451   2.050   1.071
 5212SOL    HW116535   1.421   2.142   1.045
 5212SOL    HW216536   1.506   2.056   1.155
 5213SOL     OW16537   4.323   3.580   0.915
 5213SOL    HW116538   4.292   3.527   0.836
 5213SOL    HW216539   4.273   3.551   0.996
 5214SOL     OW16540   5.520   2.648   5.883
 5214SOL    HW116541   5.569   2.585   5.943
 5214SOL    HW216542   5.585   2.712   5.841
 5215SOL     OW16543   0.284   4.352   4.510
 5215SOL    HW116544   0.188   4.377   4.512
 5215SOL    HW216545   0.296   4.266   4.460
 5216SOL     OW16546   5.131   5.559   1.283
 5216SOL    HW116547   5.084   5.597   1.204
 5216SOL    HW216548   5.065   5.536   1.354
 5217SOL     OW16549   3.695   5.670   4.886
 5217SOL    HW116550   3.754   5.599   4.847
 5217SOL    HW216551   3.624   5.628   4.942
 5218SOL     OW16552   0.555   1.106   1.515
 5218SOL    HW116553   0.540   1.197   1.478
 5218SOL    HW216554   0.604   1.113   1.602
 5219SOL     OW16555   3.633   1.647   4.175
 5219SOL    HW116556   3.633   1.547   4.166
 5219SOL    HW216557   3.637   1.672   4.271
 5220SOL     OW16558   1.514   4.631   2.348
 5220SOL    HW116559   1.581   4.623   2.422
 5220SOL    HW216560   1.541   4.705   2.287
 5221SOL     OW16561   6.546   0.213   2.236
 5221SOL    HW116562   6.593   0.194   2.322
 5221SOL    HW216563   6.553   0.310   2.214
 5222SOL     OW16564   3.727   6.177   2.221
 5222SOL    HW116565   3.636   6.219   2.212
 5222SOL    HW216566   3.796   6.239   2.184
 5223SOL     OW16567   0.200   2.781   0.286
 5223SOL    HW116568   0.295   2.753   0.283
 5223SOL    HW216569   0.141   2.701   0.292
 5224SOL     OW16570   0.087   2.471   3.949
 5224SOL    HW116571   0.105   2.522   4.033
 5224SOL    HW216572   0.077   2.374   3.971
 5225SOL     OW16573   6.654   0.688   3.461
 5225SOL    HW116574   6.633   0.642   3.547
 5225SOL    HW216575   6.748   0.722   3.463
 5226SOL     OW16576   0.377   6.525   3.721
 5226SOL    HW116577   0.467   6.527   3.764
 5226SOL    HW216578   0.326   6.606   3.748
 5227SOL     OW16579   6.800   4.490   5.841
 5227SOL    HW116580   6.873   4.539   5.794
 5227SOL    HW216581   6.720   4.550   5.849
 5228SOL     OW16582   0.652   2.523   0.047
 5228SOL    HW116583   0.674   2.457   7.001
 5228SOL    HW216584   0.735   2.546   0.098
 5229SOL     OW16585   3.122   6.129   0.081
 5229SOL    HW116586   3.088   6.115   0.174
 5229SOL    HW216587   3.153   6.223   0.070
 5230SOL     OW16588   6.657   5.950   2.478
 5230SOL    HW116589   6.725   5.999   2.533
 5230SOL    HW216590   6.664   5.852   2.495
 5231SOL     OW16591   4.647   2.433   3.601
 5231SOL    HW116592   4.558   2.389   3.602
 5231SOL    HW216593   4.717   2.366   3.574
 5232SOL     OW16594   0.910   4.009   6.002
 5232SOL    HW116595   0.907   3.932   6.066
 5232SOL    HW216596   0.895   3.976   5.909
 5233SOL     OW16597   3.479   0.888   2.369
 5233SOL    HW116598   3.390   0.928   2.352
 5233SOL    HW216599   3.480   0.793   2.338
 5234SOL     OW16600   2.618   2.823   6.722
 5234SOL    HW116601   2.662   2.736   6.742
 5234SOL    HW216602   2.689   2.893   6.709
 5235SOL     OW16603   2.209   2.452   1.228
 5235SOL    HW116604   2.214   2.442   1.129
 5235SOL    HW216605   2.173   2.542   1.252
 5236SOL     OW16606   3.549   5.588   2.115
 5236SOL    HW116607   3.540   5.687   2.104
 5236SOL    HW216608   3.631   5.557   2.068
 5237SOL     OW16609   1.552   1.211   4.763
 5237SOL    HW116610   1.608   1.269   4.704
 5237SOL    HW216611   1.611   1.146   4.810
 5238SOL     OW16612   0.598   5.892   0.929
 5238SOL    HW116613   0.617   5.986   0.956
 5238SOL    HW216614   0.680   5.850   0.891
 5239SOL     OW16615   3.384   3.100   0.484
 5239SOL    HW116616   3.435   3.177   0.446
 5239SOL    HW216617   3.446   3.023   0.499
 5240SOL     OW16618   2.946   2.202   5.205
 5240SOL    HW116619   2.872   2.268   5.216
 5240SOL    HW216620   3.021   2.245   5.155
 5241SOL     OW16621   0.766   5.798   3.661
 5241SOL    HW116622   0.750   5.893   3.685
 5241SOL    HW216623   0.762   5.787   3.562
 5242SOL     OW16624   5.145   6.992   2.098
 5242SOL    HW116625   5.178   6.952   2.013
 5242SOL    HW216626   5.140   0.066   2.089
 5243SOL     OW16627   2.164   6.024   1.353
 5243SOL    HW116628   2.139   6.038   1.257
 5243SOL    HW216629   2.216   5.939   1.361
 5244SOL     OW16630   4.189   3.875   0.164
 5244SOL    HW116631   4.252   3.814   0.211
 5244SOL    HW216632   4.165   3.951   0.224
 5245SOL     OW16633   3.513   4.727   0.485
 5245SOL    HW116634   3.417   4.705   0.500
 5245SOL    HW216635   3.524   4.766   0.394
 5246SOL     OW16636   6.356   2.721   2.141
 5246SOL    HW116637   6.268   2.692   2.103
 5246SOL    HW216638   6.419   2.643   2.143
 5247SOL     OW16639   3.159   0.139   6.412
 5247SOL    HW116640   3.223   0.131   6.488
 5247SOL    HW216641   3.086   0.071   6.421
 5248SOL     OW16642   6.824   2.469   3.129
 5248SOL    HW116643   6.920   2.486   3.107
 5248SOL    HW216644   6.789   2.544   3.184
 5249SOL     OW16645   1.253   5.466   6.550
 5249SOL    HW116646   1.330   5.487   6.611
 5249SOL    HW216647   1.187   5.541   6.553
 5250SOL     OW16648   0.821   5.748   0.787
 5250SOL    HW116649   0.864   5.747   0.697
 5250SOL    HW216650   0.828   5.657   0.828
 5251SOL     OW16651   0.832   3.404   0.722
 5251SOL    HW116652   0.886   3.459   0.787
 5251SOL    HW216653   0.861   3.309   0.727
 5252SOL     OW16654   2.668   6.604   1.342
 5252SOL    HW116655   2.726   6.550   1.281
 5252SOL    HW216656   2.614   6.669   1.288
 5253SOL     OW16657   6.742   3.737   4.336
 5253SOL    HW116658   6.667   3.683   4.375
 5253SOL    HW216659   6.783   3.794   4.406
 5254SOL     OW16660   5.591   0.924   3.541
 5254SOL    HW116661   5.580   1.003   3.481
 5254SOL    HW216662   5.673   0.873   3.513
 5255SOL     OW16663   5.205   2.306   4.813
 5255SOL    HW116664   5.106   2.297   4.821
 5255SOL    HW216665   5.230   2.325   4.718
 5256SOL     OW16666   5.084   2.280   3.924
 5256SOL    HW116667   5.117   2.197   3.970
 5256SOL    HW216668   5.092   2.268   3.825
 5257SOL     OW16669   4.583   6.979   1.568
 5257SOL    HW116670   4.625   6.902   1.520
 5257SOL    HW216671   4.602   0.039   1.519
 5258SOL     OW16672   5.828   2.540   2.056
 5258SOL    HW116673   5.869   2.612   2.111
 5258SOL    HW216674   5.878   2.531   1.970
 5259SOL     OW16675   4.717   5.834   3.151
 5259SOL    HW116676   4.670   5.864   3.068
 5259SOL    HW216677   4.701   5.901   3.224
 5260SOL     OW16678   4.461   4.311   0.649
 5260SOL    HW116679   4.373   4.280   0.687
 5260SOL    HW216680   4.446   4.356   0.561
 5261SOL     OW16681   6.428   4.058   6.350
 5261SOL    HW116682   6.334   4.086   6.327
 5261SOL    HW216683   6.456   3.984   6.290
 5262SOL     OW16684   2.856   1.400   3.414
 5262SOL    HW116685   2.774   1.355   3.448
 5262SOL    HW216686   2.914   1.427   3.491
 5263SOL     OW16687   1.861   1.325   3.397
 5263SOL    HW116688   1.950   1.299   3.359
 5263SOL    HW216689   1.818   1.393   3.338
 5264SOL     OW16690   6.461   2.422   1.951
 5264SOL    HW116691   6.398   2.462   1.884
 5264SOL    HW216692   6.543   2.478   1.959
 5265SOL     OW16693   6.171   3.217   4.357
 5265SOL    HW116694   6.178   3.316   4.357
 5265SOL    HW216695   6.263   3.177   4.353
 5266SOL     OW16696   2.769   5.748   6.585
 5266SOL    HW116697   2.820   5.719   6.503
 5266SOL    HW216698   2.803   5.837   6.615
 5267SOL     OW16699   4.959   2.471   4.546
 5267SOL    HW116700   4.889   2.540   4.528
 5267SOL    HW216701   4.988   2.429   4.459
 5268SOL     OW16702   5.241   0.839   0.456
 5268SOL    HW116703   5.194   0.770   0.512
 5268SOL    HW216704   5.230   0.816   0.359
 5269SOL     OW16705   0.778   6.402   2.444
 5269SOL    HW116706   0.851   6.460   2.480
 5269SOL    HW216707   0.816   6.342   2.373
 5270SOL     OW16708   5.534   1.544   1.954
 5270SOL    HW116709   5.579   1.631   1.974
 5270SOL    HW216710   5.486   1.512   2.036
 5271SOL     OW16711   6.042   4.533   5.040
 5271SOL    HW116712   5.992   4.617   5.018
 5271SOL    HW216713   6.052   4.524   5.139
 5272SOL     OW16714   3.175   6.026   1.438
 5272SOL    HW116715   3.213   5.940   1.471
 5272SOL    HW216716   3.248   6.094   1.429
 5273SOL     OW16717   0.409   3.239   3.361
 5273SOL    HW116718   0.500   3.239   3.319
 5273SOL    HW216719   0.346   3.186   3.305
 5274SOL     OW16720   5.705   0.208   2.693
 5274SOL    HW116721   5.637   0.136   2.677
 5274SOL    HW216722   5.780   0.171   2.749
 5275SOL     OW16723   4.039   1.898   0.385
 5275SOL    HW116724   3.947   1.891   0.423
 5275SOL    HW216725   4.035   1.892   0.285
 5276SOL     OW16726   1.944   0.184   1.019
 5276SOL    HW116727   1.976   0.143   1.105
 5276SOL    HW216728   1.844   0.190   1.020
 5277SOL     OW16729   2.508   1.744   2.613
 5277SOL    HW116730   2.603   1.767   2.630
 5277SOL    HW216731   2.489   1.753   2.515
 5278SOL     OW16732   5.069   5.735   3.869
 5278SOL    HW116733   5.089   5.728   3.967
 5278SOL    HW216734   5.123   5.809   3.829
 5279SOL     OW16735   2.526   5.064   0.461
 5279SOL    HW116736   2.501   5.153   0.424
 5279SOL    HW216737   2.501   4.993   0.395
 5280SOL     OW16738   2.972   6.209   5.524
 5280SOL    HW116739   3.023   6.127   5.551
 5280SOL    HW216740   2.961   6.210   5.424
 5281SOL     OW16741   6.294   2.121   2.318
 5281SOL    HW116742   6.259   2.181   2.390
 5281SOL    HW216743   6.226   2.116   2.244
 5282SOL     OW16744   3.841   1.546   3.345
 5282SOL    HW116745   3.902   1.625   3.352
 5282SOL    HW216746   3.813   1.517   3.436
 5283SOL     OW16747   4.557   6.223   2.008
 5283SOL    HW116748   4.606   6.295   1.960
 5283SOL    HW216749   4.492   6.263   2.072
 5284SOL     OW16750   4.748   4.260   3.364
 5284SOL    HW116751   4.806   4.180   3.348
 5284SOL    HW216752   4.694   4.279   3.281
 5285SOL     OW16753   2.799   4.871   4.591
 5285SOL    HW116754   2.741   4.798   4.627
 5285SOL    HW216755   2.804   4.866   4.492
 5286SOL     OW16756   2.106   4.705   1.027
 5286SOL    HW116757   2.107   4.712   1.127
 5286SOL    HW216758   2.188   4.746   0.989
 5287SOL     OW16759   3.500   0.876   0.156
 5287SOL    HW116760   3.572   0.932   0.114
 5287SOL    HW216761   3.446   0.831   0.085
 5288SOL     OW16762   3.089   0.679   1.549
 5288SOL    HW116763   3.045   0.733   1.477
 5288SOL    HW216764   3.145   0.607   1.508
 5289SOL     OW16765   1.880   4.806   6.624
 5289SOL    HW116766   1.781   4.816   6.612
 5289SOL    HW216767   1.921   4.897   6.637
 5290SOL     OW16768   2.338   5.568   5.948
 5290SOL    HW116769   2.279   5.593   5.871
 5290SOL    HW216770   2.302   5.484   5.991
 5291SOL     OW16771   2.564   5.951   5.484
 5291SOL    HW116772   2.577   5.865   5.534
 5291SOL    HW216773   2.623   6.021   5.523
 5292SOL     OW16774   5.588   2.605   0.164
 5292SOL    HW116775   5.501   2.598   0.116
 5292SOL    HW216776   5.606   2.701   0.188
 5293SOL     OW16777   0.742   1.071   4.931
 5293SOL    HW116778   0.657   1.089   4.881
 5293SOL    HW216779   0.820   1.087   4.871
 5294SOL     OW16780   5.265   3.664   6.269
 5294SOL    HW116781   5.360   3.658   6.240
 5294SOL    HW216782   5.206   3.678   6.189
 5295SOL     OW16783   6.034   1.154   2.631
 5295SOL    HW116784   5.998   1.094   2.559
 5295SOL    HW216785   6.097   1.102   2.688
 5296SOL     OW16786   1.620   5.501   0.088
 5296SOL    HW116787   1.537   5.556   0.092
 5296SOL    HW216788   1.687   5.548   0.030
 5297SOL     OW16789   1.445   2.312   1.206
 5297SOL    HW116790   1.495   2.380   1.153
 5297SOL    HW216791   1.369   2.356   1.254
 5298SOL     OW16792   6.365   5.776   2.441
 5298SOL    HW116793   6.424   5.793   2.361
 5298SOL    HW216794   6.422   5.768   2.523
 5299SOL     OW16795   3.122   1.549   1.202
 5299SOL    HW116796   3.126   1.453   1.229
 5299SOL    HW216797   3.103   1.556   1.104
 5300SOL     OW16798   0.234   5.547   3.071
 5300SOL    HW116799   0.147   5.522   3.029
 5300SOL    HW216800   0.276   5.467   3.114
 5301SOL     OW16801   4.261   1.470   6.853
 5301SOL    HW116802   4.197   1.497   6.925
 5301SOL    HW216803   4.355   1.490   6.882
 5302SOL     OW16804   6.286   4.384   2.545
 5302SOL    HW116805   6.384   4.379   2.526
 5302SOL    HW216806   6.244   4.296   2.525
 5303SOL     OW16807   6.829   6.386   4.007
 5303SOL    HW116808   6.915   6.374   3.957
 5303SOL    HW216809   6.753   6.391   3.943
 5304SOL     OW16810   5.870   1.852   6.347
 5304SOL    HW116811   5.945   1.796   6.382
 5304SOL    HW216812   5.907   1.939   6.313
 5305SOL     OW16813   1.276   0.418   4.133
 5305SOL    HW116814   1.182   0.453   4.130
 5305SOL    HW216815   1.294   0.379   4.224
 5306SOL     OW16816   2.251   6.828   5.278
 5306SOL    HW116817   2.299   6.894   5.220
 5306SOL    HW216818   2.153   6.831   5.257
 5307SOL     OW16819   4.298   6.010   6.498
 5307SOL    HW116820   4.350   6.094   6.483
 5307SOL    HW216821   4.361   5.933   6.508
 5308SOL     OW16822   0.293   1.008   3.897
 5308SOL    HW116823   0.313   1.016   3.800
 5308SOL    HW216824   0.203   0.966   3.909
 5309SOL     OW16825   4.094   3.770   3.317
 5309SOL    HW116826   4.066   3.784   3.222
 5309SOL    HW216827   4.183   3.811   3.333
 5310SOL     OW16828   4.954   2.890   1.556
 5310SOL    HW116829   4.899   2.944   1.620
 5310SOL    HW216830   4.944   2.928   1.464
 5311SOL     OW16831   0.994   5.611   6.798
 5311SOL    HW116832   0.917   5.562   6.756
 5311SOL    HW216833   1.052   5.545   6.846
 5312SOL     OW16834   0.630   4.707   2.016
 5312SOL    HW116835   0.564   4.734   2.086
 5312SOL    HW216836   0.589   4.717   1.925
 5313SOL     OW16837   0.556   5.445   0.089
 5313SOL    HW116838   0.464   5.447   0.052
 5313SOL    HW216839   0.553   5.422   0.187
 5314SOL     OW16840   4.708   5.123   0.354
 5314SOL    HW116841   4.758   5.037   0.351
 5314SOL    HW216842   4.664   5.134   0.443
 5315SOL     OW16843   4.768   4.203   2.174
 5315SOL    HW116844   4.819   4.274   2.126
 5315SOL    HW216845   4.674   4.202   2.142
 5316SOL     OW16846   0.624   5.094   5.115
 5316SOL    HW116847   0.654   5.006   5.151
 5316SOL    HW216848   0.703   5.154   5.101
 5317SOL     OW16849   5.289   1.929   4.293
 5317SOL    HW116850   5.364   1.864   4.281
 5317SOL    HW216851   5.219   1.889   4.351
 5318SOL     OW16852   6.890   2.179   4.373
 5318SOL    HW116853   6.918   2.084   4.391
 5318SOL    HW216854   6.829   2.210   4.447
 5319SOL     OW16855   5.854   6.967   6.557
 5319SOL    HW116856   5.877   0.011   6.627
 5319SOL    HW216857   5.909   6.984   6.475
 5320SOL     OW16858   6.219   4.748   0.036
 5320SOL    HW116859   6.160   4.754   6.981
 5320SOL    HW216860   6.252   4.839   0.061
 5321SOL     OW16861   1.410   5.306   3.511
 5321SOL    HW116862   1.325   5.330   3.465
 5321SOL    HW216863   1.436   5.378   3.576
 5322SOL     OW16864   4.023   6.437   6.711
 5322SOL    HW116865   4.013   6.341   6.686
 5322SOL    HW216866   4.027   6.446   6.810
 5323SOL     OW16867   4.804   2.784   1.093
 5323SOL    HW116868   4.875   2.789   1.163
 5323SOL    HW216869   4.811   2.697   1.045
 5324SOL     OW16870   3.779   2.050   1.769
 5324SOL    HW116871   3.877   2.034   1.782
 5324SOL    HW216872   3.745   2.107   1.844
 5325SOL     OW16873   5.293   0.212   2.716
 5325SOL    HW116874   5.361   0.239   2.649
 5325SOL    HW216875   5.268   0.290   2.773
 5326SOL     OW16876   6.507   5.326   1.923
 5326SOL    HW116877   6.587   5.272   1.949
 5326SOL    HW216878   6.452   5.273   1.858
 5327SOL     OW16879   0.304   6.623   5.161
 5327SOL    HW116880   0.297   6.723   5.159
 5327SOL    HW216881   0.249   6.584   5.087
 5328SOL     OW16882   3.359   2.460   5.560
 5328SOL    HW116883   3.459   2.454   5.557
 5328SOL    HW216884   3.321   2.381   5.607
 5329SOL     OW16885   6.818   4.489   0.895
 5329SOL    HW116886   6.848   4.461   0.804
 5329SOL    HW216887   6.898   4.518   0.949
 5330SOL     OW16888   3.995   3.681   0.057
 5330SOL    HW116889   4.059   3.677   0.134
 5330SOL    HW216890   3.926   3.751   0.075
 5331SOL     OW16891   4.592   2.357   0.598
 5331SOL    HW116892   4.534   2.436   0.580
 5331SOL    HW216893   4.624   2.318   0.511
 5332SOL     OW16894   6.052   5.126   0.403
 5332SOL    HW116895   5.959   5.104   0.373
 5332SOL    HW216896   6.066   5.090   0.495
 5333SOL     OW16897   2.042   0.849   3.754
 5333SOL    HW116898   2.084   0.844   3.663
 5333SOL    HW216899   1.978   0.925   3.757
 5334SOL     OW16900   5.103   4.598   4.273
 5334SOL    HW116901   5.036   4.665   4.241
 5334SOL    HW216902   5.154   4.560   4.196
 5335SOL     OW16903   6.380   4.020   2.419
 5335SOL    HW116904   6.288   3.983   2.412
 5335SOL    HW216905   6.411   4.013   2.514
 5336SOL     OW16906   2.225   1.887   4.003
 5336SOL    HW116907   2.185   1.922   3.919
 5336SOL    HW216908   2.178   1.804   4.031
 5337SOL     OW16909   5.988   4.794   1.452
 5337SOL    HW116910   5.937   4.880   1.461
 5337SOL    HW216911   5.925   4.717   1.463
 5338SOL     OW16912   5.343   2.809   0.217
 5338SOL    HW116913   5.335   2.781   0.121
 5338SOL    HW216914   5.370   2.905   0.222
 5339SOL     OW16915   5.653   1.791   1.921
 5339SOL    HW116916   5.735   1.843   1.897
 5339SOL    HW216917   5.578   1.816   1.861
 5340SOL     OW16918   5.298   3.299   1.914
 5340SOL    HW116919   5.318   3.370   1.982
 5340SOL    HW216920   5.308   3.338   1.822
 5341SOL     OW16921   4.278   4.688   3.882
 5341SOL    HW116922   4.317   4.609   3.930
 5341SOL    HW216923   4.246   4.754   3.949
 5342SOL     OW16924   5.153   6.636   5.689
 5342SOL    HW116925   5.193   6.652   5.779
 5342SOL    HW216926   5.169   6.717   5.631
 5343SOL     OW16927   3.636   3.428   4.660
 5343SOL    HW116928   3.696   3.437   4.581
 5343SOL    HW216929   3.586   3.514   4.675
 5344SOL     OW16930   0.455   1.741   0.278
 5344SOL    HW116931   0.367   1.760   0.322
 5344SOL    HW216932   0.451   1.654   0.230
 5345SOL     OW16933   4.794   0.914   0.059
 5345SOL    HW116934   4.822   1.006   0.083
 5345SOL    HW216935   4.700   0.898   0.090
 5346SOL     OW16936   2.642   5.173   4.341
 5346SOL    HW116937   2.641   5.115   4.260
 5346SOL    HW216938   2.712   5.140   4.405
 5347SOL     OW16939   0.028   2.280   3.457
 5347SOL    HW116940   0.086   2.202   3.482
 5347SOL    HW216941   6.961   2.247   3.434
 5348SOL     OW16942   6.574   1.597   4.840
 5348SOL    HW116943   6.492   1.540   4.842
 5348SOL    HW216944   6.650   1.548   4.883
 5349SOL     OW16945   0.963   2.793   1.918
 5349SOL    HW116946   0.991   2.856   1.845
 5349SOL    HW216947   1.012   2.706   1.908
 5350SOL     OW16948   1.636   6.962   5.618
 5350SOL    HW116949   1.602   7.010   5.536
 5350SOL    HW216950   1.735   6.967   5.620
 5351SOL     OW16951   0.451   5.463   1.759
 5351SOL    HW116952   0.485   5.441   1.668
 5351SOL    HW216953   0.373   5.526   1.751
 5352SOL     OW16954   2.048   4.414   3.063
 5352SOL    HW116955   2.125   4.368   3.017
 5352SOL    HW216956   2.002   4.475   2.999
 5353SOL     OW16957   3.521   5.575   3.722
 5353SOL    HW116958   3.424   5.581   3.745
 5353SOL    HW216959   3.542   5.482   3.692
 5354SOL     OW16960   3.532   4.230   0.371
 5354SOL    HW116961   3.479   4.147   0.387
 5354SOL    HW216962   3.480   4.292   0.312
 5355SOL     OW16963   4.820   5.150   5.130
 5355SOL    HW116964   4.791   5.170   5.224
 5355SOL    HW216965   4.888   5.077   5.131
 5356SOL     OW16966   6.472   3.569   1.818
 5356SOL    HW116967   6.394   3.561   1.880
 5356SOL    HW216968   6.490   3.480   1.776
 5357SOL     OW16969   4.099   4.673   1.846
 5357SOL    HW116970   4.118   4.667   1.944
 5357SOL    HW216971   4.176   4.636   1.795
 5358SOL     OW16972   4.368   1.951   0.158
 5358SOL    HW116973   4.349   1.902   0.073
 5358SOL    HW216974   4.324   2.041   0.154
 5359SOL     OW16975   1.904   2.290   0.426
 5359SOL    HW116976   1.925   2.329   0.337
 5359SOL    HW216977   1.806   2.274   0.434
 5360SOL     OW16978   5.755   5.729   3.510
 5360SOL    HW116979   5.697   5.661   3.553
 5360SOL    HW216980   5.726   5.744   3.416
 5361SOL     OW16981   3.083   6.412   2.848
 5361SOL    HW116982   3.114   6.332   2.899
 5361SOL    HW216983   3.093   6.395   2.750
 5362SOL     OW16984   5.601   6.977   2.615
 5362SOL    HW116985   5.512   6.936   2.636
 5362SOL    HW216986   5.627   6.955   2.521
 5363SOL     OW16987   5.213   6.468   4.958
 5363SOL    HW116988   5.235   6.555   4.914
 5363SOL    HW216989   5.291   6.436   5.011
 5364SOL     OW16990   5.197   0.924   2.108
 5364SOL    HW116991   5.250   0.851   2.066
 5364SOL    HW216992   5.242   0.955   2.191
 5365SOL     OW16993   2.908   3.642   3.097
 5365SOL    HW116994   2.857   3.666   3.014
 5365SOL    HW216995   3.006   3.640   3.076
 5366SOL     OW16996   6.472   0.449   1.732
 5366SOL    HW116997   6.490   0.401   1.818
 5366SOL    HW216998   6.551   0.441   1.672
 5367SOL     OW16999   5.953   0.209   0.782
 5367SOL    HW117000   5.936   0.151   0.862
 5367SOL    HW217001   6.045   0.192   0.747
 5368SOL     OW17002   6.538   5.836   2.253
 5368SOL    HW117003   6.565   5.898   2.327
 5368SOL    HW217004   6.580   5.868   2.168
 5369SOL     OW17005   2.884   5.593   1.608
 5369SOL    HW117006   2.803   5.614   1.553
 5369SOL    HW217007   2.871   5.628   1.701
 5370SOL     OW17008   4.186   3.628   1.898
 5370SOL    HW117009   4.111   3.693   1.889
 5370SOL    HW217010   4.170   3.550   1.837
 5371SOL     OW17011   0.102   5.018   5.046
 5371SOL    HW117012   0.072   5.106   5.009
 5371SOL    HW217013   0.190   5.030   5.092
 5372SOL     OW17014   1.619   0.406   2.781
 5372SOL    HW117015   1.655   0.424   2.689
 5372SOL    HW217016   1.589   0.491   2.823
 5373SOL     OW17017   4.003   6.459   6.435
 5373SOL    HW117018   4.020   6.501   6.524
 5373SOL    HW217019   4.071   6.387   6.419
 5374SOL     OW17020   2.519   4.673   1.123
 5374SOL    HW117021   2.539   4.769   1.103
 5374SOL    HW217022   2.524   4.619   1.039
 5375SOL     OW17023   1.072   6.344   5.672
 5375SOL    HW117024   1.138   6.344   5.747
 5375SOL    HW217025   0.982   6.372   5.707
 5376SOL     OW17026   1.251   2.112   2.020
 5376SOL    HW117027   1.262   2.209   2.038
 5376SOL    HW217028   1.160   2.094   1.983
 5377SOL     OW17029   2.174   1.069   3.034
 5377SOL    HW117030   2.246   1.052   3.101
 5377SOL    HW217031   2.152   1.166   3.032
 5378SOL     OW17032   6.131   0.613   0.890
 5378SOL    HW117033   6.075   0.660   0.822
 5378SOL    HW217034   6.181   0.538   0.847
 5379SOL     OW17035   1.269   2.701   5.864
 5379SOL    HW117036   1.322   2.644   5.927
 5379SOL    HW217037   1.273   2.796   5.894
 5380SOL     OW17038   3.352   6.990   1.097
 5380SOL    HW117039   3.329   6.986   1.194
 5380SOL    HW217040   3.278   0.009   1.047
 5381SOL     OW17041   5.918   6.264   2.413
 5381SOL    HW117042   5.996   6.218   2.371
 5381SOL    HW217043   5.950   6.333   2.477
 5382SOL     OW17044   3.937   2.156   2.658
 5382SOL    HW117045   3.939   2.163   2.559
 5382SOL    HW217046   4.007   2.216   2.698
 5383SOL     OW17047   1.041   2.591   4.766
 5383SOL    HW117048   1.120   2.596   4.704
 5383SOL    HW217049   1.064   2.533   4.844
 5384SOL     OW17050   4.481   5.300   5.238
 5384SOL    HW117051   4.499   5.398   5.237
 5384SOL    HW217052   4.405   5.280   5.175
 5385SOL     OW17053   6.207   2.810   6.191
 5385SOL    HW117054   6.287   2.767   6.232
 5385SOL    HW217055   6.128   2.751   6.201
 5386SOL     OW17056   5.906   2.970   4.084
 5386SOL    HW117057   5.932   2.874   4.082
 5386SOL    HW217058   5.892   2.999   4.179
 5387SOL     OW17059   2.664   0.044   2.959
 5387SOL    HW117060   2.633   0.131   2.998
 5387SOL    HW217061   2.604   6.995   2.991
 5388SOL     OW17062   1.062   6.496   2.785
 5388SOL    HW117063   1.151   6.491   2.739
 5388SOL    HW217064   1.056   6.423   2.853
 5389SOL     OW17065   4.399   2.469   4.347
 5389SOL    HW117066   4.330   2.398   4.332
 5389SOL    HW217067   4.359   2.542   4.403
 5390SOL     OW17068   5.980   3.555   4.209
 5390SOL    HW117069   5.934   3.492   4.272
 5390SOL    HW217070   5.982   3.646   4.249
 5391SOL     OW17071   2.521   2.570   0.308
 5391SOL    HW117072   2.467   2.634   0.254
 5391SOL    HW217073   2.572   2.620   0.379
 5392SOL     OW17074   4.855   2.858   2.857
 5392SOL    HW117075   4.796   2.809   2.921
 5392SOL    HW217076   4.950   2.852   2.887
 5393SOL     OW17077   4.279   6.994   5.036
 5393SOL    HW117078   4.218   0.045   5.015
 5393SOL    HW217079   4.300   6.994   5.134
 5394SOL     OW17080   1.185   6.740   1.368
 5394SOL    HW117081   1.179   6.740   1.268
 5394SOL    HW217082   1.121   6.807   1.405
 5395SOL     OW17083   4.601   1.645   0.802
 5395SOL    HW117084   4.592   1.551   0.837
 5395SOL    HW217085   4.572   1.710   0.872
 5396SOL     OW17086   5.367   5.668   2.466
 5396SOL    HW117087   5.370   5.675   2.366
 5396SOL    HW217088   5.434   5.600   2.496
 5397SOL     OW17089   6.566   1.942   2.587
 5397SOL    HW117090   6.475   1.911   2.615
 5397SOL    HW217091   6.579   1.924   2.490
 5398SOL     OW17092   4.308   2.115   4.016
 5398SOL    HW117093   4.250   2.176   3.961
 5398SOL    HW217094   4.295   2.020   3.985
 5399SOL     OW17095   1.726   6.595   5.576
 5399SOL    HW117096   1.749   6.505   5.614
 5399SOL    HW217097   1.771   6.606   5.487
 5400SOL     OW17098   3.524   3.387   1.340
 5400SOL    HW117099   3.476   3.316   1.287
 5400SOL    HW217100   3.457   3.442   1.390
 5401SOL     OW17101   4.960   4.844   3.676
 5401SOL    HW117102   4.945   4.747   3.657
 5401SOL    HW217103   4.894   4.875   3.744
 5402SOL     OW17104   2.848   6.449   0.811
 5402SOL    HW117105   2.779   6.381   0.787
 5402SOL    HW217106   2.930   6.435   0.756
 5403SOL     OW17107   5.201   3.057   6.531
 5403SOL    HW117108   5.296   3.077   6.509
 5403SOL    HW217109   5.148   3.049   6.446
 5404SOL     OW17110   0.408   0.892   1.018
 5404SOL    HW117111   0.369   0.814   1.066
 5404SOL    HW217112   0.422   0.967   1.082
 5405SOL     OW17113   5.225   5.653   0.132
 5405SOL    HW117114   5.251   5.608   0.218
 5405SOL    HW217115   5.306   5.665   0.075
 5406SOL     OW17116   2.222   0.835   4.678
 5406SOL    HW117117   2.149   0.779   4.641
 5406SOL    HW217118   2.187   0.926   4.700
 5407SOL     OW17119   2.867   0.719   1.029
 5407SOL    HW117120   2.835   0.809   1.059
 5407SOL    HW217121   2.808   0.649   1.068
 5408SOL     OW17122   3.748   2.161   4.517
 5408SOL    HW117123   3.799   2.163   4.603
 5408SOL    HW217124   3.656   2.198   4.533
 5409SOL     OW17125   6.251   2.697   1.705
 5409SOL    HW117126   6.197   2.639   1.643
 5409SOL    HW217127   6.289   2.774   1.654
 5410SOL     OW17128   6.828   3.169   1.135
 5410SOL    HW117129   6.894   3.238   1.165
 5410SOL    HW217130   6.854   3.135   1.044
 5411SOL     OW17131   5.360   4.390   6.787
 5411SOL    HW117132   5.365   4.480   6.831
 5411SOL    HW217133   5.272   4.380   6.741
 5412SOL     OW17134   1.976   1.262   6.068
 5412SOL    HW117135   1.987   1.163   6.077
 5412SOL    HW217136   2.015   1.293   5.982
 5413SOL     OW17137   6.147   6.911   5.410
 5413SOL    HW117138   6.144   6.972   5.489
 5413SOL    HW217139   6.115   6.820   5.436
 5414SOL     OW17140   0.235   4.501   5.471
 5414SOL    HW117141   0.253   4.549   5.557
 5414SOL    HW217142   0.139   4.473   5.468
 5415SOL     OW17143   3.054   5.836   0.536
 5415SOL    HW117144   2.959   5.806   0.535
 5415SOL    HW217145   3.096   5.817   0.447
 5416SOL     OW17146   2.770   5.237   4.929
 5416SOL    HW117147   2.820   5.272   4.850
 5416SOL    HW217148   2.672   5.237   4.909
 5417SOL     OW17149   5.180   6.242   3.692
 5417SOL    HW117150   5.147   6.152   3.719
 5417SOL    HW217151   5.274   6.255   3.726
 5418SOL     OW17152   5.609   4.309   4.292
 5418SOL    HW117153   5.636   4.386   4.234
 5418SOL    HW217154   5.595   4.342   4.386
 5419SOL     OW17155   4.248   6.855   0.258
 5419SOL    HW117156   4.271   6.953   0.253
 5419SOL    HW217157   4.319   6.803   0.210
 5420SOL     OW17158   1.035   1.567   1.693
 5420SOL    HW117159   1.051   1.483   1.744
 5420SOL    HW217160   1.115   1.626   1.700
 5421SOL     OW17161   3.388   5.409   2.275
 5421SOL    HW117162   3.329   5.368   2.205
 5421SOL    HW217163   3.450   5.474   2.232
 5422SOL     OW17164   2.030   6.189   4.000
 5422SOL    HW117165   2.045   6.091   3.986
 5422SOL    HW217166   2.116   6.232   4.028
 5423SOL     OW17167   6.798   5.680   1.880
 5423SOL    HW117168   6.800   5.778   1.861
 5423SOL    HW217169   6.715   5.658   1.932
 5424SOL     OW17170   5.025   4.387   5.011
 5424SOL    HW117171   5.114   4.419   4.980
 5424SOL    HW217172   5.028   4.369   5.109
 5425SOL     OW17173   6.645   3.279   4.792
 5425SOL    HW117174   6.580   3.338   4.840
 5425SOL    HW217175   6.683   3.213   4.856
 5426SOL     OW17176   5.041   5.197   2.207
 5426SOL    HW117177   5.081   5.225   2.295
 5426SOL    HW217178   5.018   5.099   2.211
 5427SOL     OW17179   4.553   2.640   6.663
 5427SOL    HW117180   4.544   2.567   6.595
 5427SOL    HW217181   4.622   2.614   6.730
 5428SOL     OW17182   5.843   5.668   2.987
 5428SOL    HW117183   5.930   5.701   2.949
 5428SOL    HW217184   5.852   5.659   3.086
 5429SOL     OW17185   2.962   0.351   4.166
 5429SOL    HW117186   2.922   0.303   4.244
 5429SOL    HW217187   3.061   0.362   4.180
 5430SOL     OW17188   2.122   3.567   6.227
 5430SOL    HW117189   2.126   3.577   6.128
 5430SOL    HW217190   2.201   3.513   6.258
 5431SOL     OW17191   3.818   5.159   6.190
 5431SOL    HW117192   3.834   5.087   6.258
 5431SOL    HW217193   3.739   5.135   6.134
 5432SOL     OW17194   5.484   5.903   0.924
 5432SOL    HW117195   5.450   5.910   1.018
 5432SOL    HW217196   5.584   5.896   0.924
 5433SOL     OW17197   1.141   0.504   1.102
 5433SOL    HW117198   1.223   0.446   1.101
 5433SOL    HW217199   1.151   0.574   1.173
 5434SOL     OW17200   4.922   1.048   5.013
 5434SOL    HW117201   4.943   1.028   4.918
 5434SOL    HW217202   5.000   1.023   5.070
 5435SOL     OW17203   6.230   4.135   0.441
 5435SOL    HW117204   6.230   4.224   0.487
 5435SOL    HW217205   6.228   4.062   0.508
 5436SOL     OW17206   0.819   5.914   2.552
 5436SOL    HW117207   0.853   5.931   2.460
 5436SOL    HW217208   0.721   5.894   2.548
 5437SOL     OW17209   2.974   5.023   6.079
 5437SOL    HW117210   2.967   4.929   6.045
 5437SOL    HW217211   2.942   5.086   6.009
 5438SOL     OW17212   5.185   4.235   1.977
 5438SOL    HW117213   5.134   4.156   1.944
 5438SOL    HW217214   5.160   4.253   2.072
 5439SOL     OW17215   0.795   4.578   0.277
 5439SOL    HW117216   0.871   4.546   0.333
 5439SOL    HW217217   0.771   4.507   0.210
 5440SOL     OW17218   5.705   6.875   3.261
 5440SOL    HW117219   5.796   6.887   3.220
 5440SOL    HW217220   5.638   6.926   3.208
 5441SOL     OW17221   4.878   3.070   3.975
 5441SOL    HW117222   4.916   3.130   4.045
 5441SOL    HW217223   4.821   3.000   4.019
 5442SOL     OW17224   5.549   0.349   3.973
 5442SOL    HW117225   5.451   0.360   3.986
 5442SOL    HW217226   5.577   0.258   4.003
 5443SOL     OW17227   4.958   6.507   5.071
 5443SOL    HW117228   5.040   6.475   5.023
 5443SOL    HW217229   4.924   6.590   5.027
 5444SOL     OW17230   0.467   1.845   3.983
 5444SOL    HW117231   0.455   1.933   4.030
 5444SOL    HW217232   0.445   1.856   3.886
 5445SOL     OW17233   5.024   4.920   5.212
 5445SOL    HW117234   5.026   4.889   5.307
 5445SOL    HW217235   4.969   4.857   5.157
 5446SOL     OW17236   6.978   4.465   4.787
 5446SOL    HW117237   6.955   4.460   4.690
 5446SOL    HW217238   6.986   4.561   4.815
 5447SOL     OW17239   1.932   1.833   1.631
 5447SOL    HW117240   1.988   1.892   1.689
 5447SOL    HW217241   1.850   1.882   1.603
 5448SOL     OW17242   5.031   6.015   4.015
 5448SOL    HW117243   4.984   5.983   4.097
 5448SOL    HW217244   4.974   5.995   3.935
 5449SOL     OW17245   3.204   1.773   2.042
 5449SOL    HW117246   3.229   1.857   2.090
 5449SOL    HW217247   3.116   1.785   1.997
 5450SOL     OW17248   3.652   6.074   1.859
 5450SOL    HW117249   3.670   6.062   1.761
 5450SOL    HW217250   3.731   6.043   1.911
 5451SOL     OW17251   1.521   6.916   2.927
 5451SOL    HW117252   1.537   6.977   3.005
 5451SOL    HW217253   1.423   6.899   2.918
 5452SOL     OW17254   1.726   4.968   1.104
 5452SOL    HW117255   1.785   4.968   1.023
 5452SOL    HW217256   1.632   4.950   1.078
 5453SOL     OW17257   5.365   4.334   2.610
 5453SOL    HW117258   5.360   4.239   2.643
 5453SOL    HW217259   5.274   4.375   2.615
 5454SOL     OW17260   5.635   5.762   2.820
 5454SOL    HW117261   5.654   5.688   2.755
 5454SOL    HW217262   5.669   5.736   2.910
 5455SOL     OW17263   0.780   1.324   2.794
 5455SOL    HW117264   0.731   1.237   2.792
 5455SOL    HW217265   0.717   1.398   2.770
 5456SOL     OW17266   5.196   1.015   6.803
 5456SOL    HW117267   5.117   1.028   6.745
 5456SOL    HW217268   5.261   0.953   6.758
 5457SOL     OW17269   6.129   2.209   0.171
 5457SOL    HW117270   6.165   2.263   0.247
 5457SOL    HW217271   6.030   2.222   0.163
 5458SOL     OW17272   6.382   4.941   0.769
 5458SOL    HW117273   6.451   4.904   0.707
 5458SOL    HW217274   6.345   4.868   0.826
 5459SOL     OW17275   1.444   4.666   5.686
 5459SOL    HW117276   1.381   4.682   5.611
 5459SOL    HW217277   1.509   4.742   5.692
 5460SOL     OW17278   1.928   1.620   1.315
 5460SOL    HW117279   1.876   1.703   1.297
 5460SOL    HW217280   2.021   1.631   1.278
 5461SOL     OW17281   0.899   1.552   5.643
 5461SOL    HW117282   0.973   1.565   5.709
 5461SOL    HW217283   0.890   1.634   5.586
 5462SOL     OW17284   5.634   6.237   6.686
 5462SOL    HW117285   5.661   6.158   6.631
 5462SOL    HW217286   5.706   6.257   6.753
 5463SOL     OW17287   6.538   1.970   6.336
 5463SOL    HW117288   6.551   2.050   6.278
 5463SOL    HW217289   6.546   1.887   6.282
 5464SOL     OW17290   6.588   5.670   5.681
 5464SOL    HW117291   6.516   5.648   5.615
 5464SOL    HW217292   6.627   5.586   5.717
 5465SOL     OW17293   6.276   6.566   3.150
 5465SOL    HW117294   6.241   6.579   3.243
 5465SOL    HW217295   6.326   6.480   3.144
 5466SOL     OW17296   5.748   2.783   5.313
 5466SOL    HW117297   5.737   2.811   5.408
 5466SOL    HW217298   5.739   2.684   5.306
 5467SOL     OW17299   6.015   3.820   3.864
 5467SOL    HW117300   5.965   3.738   3.891
 5467SOL    HW217301   6.068   3.854   3.941
 5468SOL     OW17302   6.680   2.477   2.896
 5468SOL    HW117303   6.709   2.477   2.991
 5468SOL    HW217304   6.752   2.515   2.838
 5469SOL     OW17305   2.234   0.514   6.137
 5469SOL    HW117306   2.212   0.530   6.041
 5469SOL    HW217307   2.318   0.563   6.161
 5470SOL     OW17308   4.158   5.475   4.105
 5470SOL    HW117309   4.139   5.571   4.123
 5470SOL    HW217310   4.219   5.467   4.026
 5471SOL     OW17311   5.952   0.626   2.957
 5471SOL    HW117312   5.924   0.686   2.881
 5471SOL    HW217313   5.980   0.537   2.921
 5472SOL     OW17314   2.941   2.457   5.704
 5472SOL    HW117315   2.924   2.390   5.776
 5472SOL    HW217316   2.888   2.432   5.622
 5473SOL     OW17317   1.576   4.335   0.638
 5473SOL    HW117318   1.655   4.283   0.672
 5473SOL    HW217319   1.559   4.311   0.542
 5474SOL     OW17320   1.084   5.576   3.064
 5474SOL    HW117321   1.127   5.625   2.988
 5474SOL    HW217322   1.153   5.524   3.114
 5475SOL     OW17323   1.472   1.921   0.695
 5475SOL    HW117324   1.484   1.880   0.785
 5475SOL    HW217325   1.457   2.019   0.704
 5476SOL     OW17326   2.145   4.860   5.163
 5476SOL    HW117327   2.187   4.770   5.173
 5476SOL    HW217328   2.210   4.930   5.194
 5477SOL     OW17329   1.462   4.241   2.778
 5477SOL    HW117330   1.545   4.288   2.748
 5477SOL    HW217331   1.414   4.298   2.844
 5478SOL     OW17332   5.155   5.503   6.543
 5478SOL    HW117333   5.078   5.482   6.483
 5478SOL    HW217334   5.196   5.590   6.515
 5479SOL     OW17335   4.644   0.989   3.998
 5479SOL    HW117336   4.576   0.916   4.007
 5479SOL    HW217337   4.615   1.069   4.050
 5480SOL     OW17338   6.164   4.619   4.778
 5480SOL    HW117339   6.099   4.661   4.841
 5480SOL    HW217340   6.249   4.599   4.826
 5481SOL     OW17341   4.663   0.400   5.305
 5481SOL    HW117342   4.564   0.415   5.302
 5481SOL    HW217343   4.683   0.304   5.285
 5482SOL     OW17344   3.446   3.942   2.302
 5482SOL    HW117345   3.416   3.863   2.249
 5482SOL    HW217346   3.387   3.953   2.382
 5483SOL     OW17347   6.567   2.784   5.629
 5483SOL    HW117348   6.643   2.753   5.687
 5483SOL    HW217349   6.504   2.708   5.615
 5484SOL     OW17350   6.102   6.945   3.456
 5484SOL    HW117351   6.099   6.985   3.547
 5484SOL    HW217352   6.167   6.869   3.454
 5485SOL     OW17353   2.868   0.196   4.376
 5485SOL    HW117354   2.909   0.106   4.371
 5485SOL    HW217355   2.850   0.219   4.472
 5486SOL     OW17356   1.956   0.106   4.057
 5486SOL    HW117357   2.047   0.098   4.097
 5486SOL    HW217358   1.955   0.066   3.966
 5487SOL     OW17359   5.961   3.854   6.686
 5487SOL    HW117360   5.914   3.772   6.653
 5487SOL    HW217361   5.905   3.900   6.755
 5488SOL     OW17362   4.223   1.635   0.280
 5488SOL    HW117363   4.268   1.724   0.274
 5488SOL    HW217364   4.291   1.563   0.270
 5489SOL     OW17365   1.728   3.982   1.809
 5489SOL    HW117366   1.691   4.043   1.878
 5489SOL    HW217367   1.752   4.035   1.727
 5490SOL     OW17368   3.552   6.812   0.136
 5490SOL    HW117369   3.582   6.907   0.131
 5490SOL    HW217370   3.483   6.795   0.064
 5491SOL     OW17371   1.454   4.461   6.724
 5491SOL    HW117372   1.456   4.455   6.624
 5491SOL    HW217373   1.365   4.431   6.758
 5492SOL     OW17374   1.131   1.264   6.267
 5492SOL    HW117375   1.176   1.178   6.244
 5492SOL    HW217376   1.033   1.256   6.249
 5493SOL     OW17377   3.257   3.194   5.283
 5493SOL    HW117378   3.219   3.121   5.226
 5493SOL    HW217379   3.185   3.230   5.342
 5494SOL     OW17380   6.358   2.663   0.290
 5494SOL    HW117381   6.446   2.709   0.289
 5494SOL    HW217382   6.313   2.673   0.201
 5495SOL     OW17383   3.198   2.880   1.727
 5495SOL    HW117384   3.153   2.802   1.770
 5495SOL    HW217385   3.203   2.956   1.792
 5496SOL     OW17386   2.946   6.673   1.966
 5496SOL    HW117387   2.897   6.719   1.892
 5496SOL    HW217388   2.981   6.585   1.934
 5497SOL     OW17389   0.721   2.031   3.182
 5497SOL    HW117390   0.722   2.131   3.175
 5497SOL    HW217391   0.633   1.997   3.149
 5498SOL     OW17392   4.972   0.756   0.534
 5498SOL    HW117393   4.930   0.797   0.616
 5498SOL    HW217394   4.915   0.775   0.455
 5499SOL     OW17395   0.761   1.312   4.031
 5499SOL    HW117396   0.672   1.340   3.995
 5499SOL    HW217397   0.797   1.384   4.091
 5500SOL     OW17398   1.667   6.153   0.139
 5500SOL    HW117399   1.614   6.175   0.221
 5500SOL    HW217400   1.621   6.192   0.058
 5501SOL     OW17401   2.958   6.886   1.285
 5501SOL    HW117402   2.944   6.861   1.189
 5501SOL    HW217403   3.049   6.858   1.315
 5502SOL     OW17404   5.723   4.551   6.005
 5502SOL    HW117405   5.668   4.500   6.071
 5502SOL    HW217406   5.662   4.611   5.952
 5503SOL     OW17407   0.482   4.494   2.767
 5503SOL    HW117408   0.387   4.469   2.750
 5503SOL    HW217409   0.502   4.581   2.723
 5504SOL     OW17410   3.005   1.144   5.543
 5504SOL    HW117411   3.035   1.140   5.639
 5504SOL    HW217412   2.990   1.239   5.517
 5505SOL     OW17413   2.632   5.843   4.990
 5505SOL    HW117414   2.625   5.799   4.901
 5505SOL    HW217415   2.578   5.927   4.990
 5506SOL     OW17416   6.564   0.061   5.616
 5506SOL    HW117417   6.634   0.022   5.676
 5506SOL    HW217418   6.532   7.015   5.553
 5507SOL     OW17419   2.589   6.997   2.711
 5507SOL    HW117420   2.500   0.016   2.720
 5507SOL    HW217421   2.644   7.016   2.792
 5508SOL     OW17422   2.803   0.904   6.996
 5508SOL    HW117423   2.732   0.835   6.996
 5508SOL    HW217424   2.761   0.995   6.997
 5509SOL     OW17425   0.765   6.265   0.640
 5509SOL    HW117426   0.784   6.217   0.725
 5509SOL    HW217427   0.833   6.240   0.571
 5510SOL     OW17428   5.483   6.508   0.457
 5510SOL    HW117429   5.450   6.433   0.399
 5510SOL    HW217430   5.451   6.495   0.550
 5511SOL     OW17431   2.372   0.417   3.855
 5511SOL    HW117432   2.457   0.445   3.810
 5511SOL    HW217433   2.368   0.458   3.946
 5512SOL     OW17434   6.307   1.991   0.615
 5512SOL    HW117435   6.318   1.970   0.712
 5512SOL    HW217436   6.209   2.006   0.596
 5513SOL     OW17437   4.721   4.266   5.630
 5513SOL    HW117438   4.790   4.246   5.561
 5513SOL    HW217439   4.751   4.232   5.719
 5514SOL     OW17440   5.215   5.635   2.758
 5514SOL    HW117441   5.257   5.643   2.849
 5514SOL    HW217442   5.284   5.606   2.692
 5515SOL     OW17443   7.023   3.858   1.132
 5515SOL    HW117444   6.982   3.827   1.047
 5515SOL    HW217445   0.033   3.780   1.183
 5516SOL     OW17446   1.034   2.849   0.618
 5516SOL    HW117447   0.975   2.832   0.539
 5516SOL    HW217448   1.098   2.774   0.629
 5517SOL     OW17449   2.506   2.540   2.316
 5517SOL    HW117450   2.487   2.628   2.275
 5517SOL    HW217451   2.453   2.469   2.270
 5518SOL     OW17452   6.383   5.950   6.414
 5518SOL    HW117453   6.384   6.021   6.484
 5518SOL    HW217454   6.473   5.944   6.371
 5519SOL     OW17455   4.854   3.815   2.973
 5519SOL    HW117456   4.904   3.901   2.975
 5519SOL    HW217457   4.897   3.753   2.907
 5520SOL     OW17458   0.968   4.561   3.028
 5520SOL    HW117459   0.882   4.527   2.991
 5520SOL    HW217460   0.965   4.558   3.128
 5521SOL     OW17461   3.889   5.737   2.828
 5521SOL    HW117462   3.983   5.761   2.851
 5521SOL    HW217463   3.835   5.821   2.815
 5522SOL     OW17464   1.289   4.100   1.048
 5522SOL    HW117465   1.217   4.132   0.986
 5522SOL    HW217466   1.253   4.096   1.141
 5523SOL     OW17467   3.134   6.941   2.738
 5523SOL    HW117468   3.206   7.000   2.774
 5523SOL    HW217469   3.048   6.959   2.786
 5524SOL     OW17470   6.787   5.339   4.674
 5524SOL    HW117471   6.825   5.406   4.737
 5524SOL    HW217472   6.688   5.337   4.683
 5525SOL     OW17473   6.500   4.311   0.785
 5525SOL    HW117474   6.403   4.287   0.776
 5525SOL    HW217475   6.544   4.248   0.849
 5526SOL     OW17476   6.081   3.897   5.141
 5526SOL    HW117477   6.081   3.929   5.046
 5526SOL    HW217478   6.046   3.970   5.200
 5527SOL     OW17479   1.099   3.673   3.231
 5527SOL    HW117480   1.044   3.712   3.157
 5527SOL    HW217481   1.161   3.742   3.267
 5528SOL     OW17482   0.941   2.211   6.273
 5528SOL    HW117483   1.024   2.173   6.234
 5528SOL    HW217484   0.936   2.309   6.252
 5529SOL     OW17485   2.453   0.165   4.392
 5529SOL    HW117486   2.498   0.219   4.463
 5529SOL    HW217487   2.521   0.131   4.327
 5530SOL     OW17488   0.291   2.530   2.006
 5530SOL    HW117489   0.200   2.490   2.015
 5530SOL    HW217490   0.333   2.538   2.097
 5531SOL     OW17491   3.721   4.085   3.468
 5531SOL    HW117492   3.796   4.151   3.478
 5531SOL    HW217493   3.759   3.994   3.454
 5532SOL     OW17494   1.229   1.432   0.989
 5532SOL    HW117495   1.322   1.443   0.954
 5532SOL    HW217496   1.219   1.483   1.075
 5533SOL     OW17497   2.810   1.154   2.298
 5533SOL    HW117498   2.760   1.095   2.361
 5533SOL    HW217499   2.747   1.223   2.260
 5534SOL     OW17500   1.066   3.241   6.260
 5534SOL    HW117501   1.034   3.274   6.348
 5534SOL    HW217502   1.142   3.298   6.228
 5535SOL     OW17503   0.517   2.780   3.521
 5535SOL    HW117504   0.462   2.841   3.578
 5535SOL    HW217505   0.600   2.754   3.571
 5536SOL     OW17506   3.396   1.137   3.924
 5536SOL    HW117507   3.432   1.175   3.838
 5536SOL    HW217508   3.311   1.183   3.948
 5537SOL     OW17509   3.419   0.684   4.227
 5537SOL    HW117510   3.320   0.676   4.221
 5537SOL    HW217511   3.446   0.776   4.198
 5538SOL     OW17512   3.330   0.130   5.053
 5538SOL    HW117513   3.248   0.172   5.092
 5538SOL    HW217514   3.328   0.138   4.954
 5539SOL     OW17515   1.128   2.353   1.452
 5539SOL    HW117516   1.183   2.308   1.522
 5539SOL    HW217517   1.033   2.356   1.481
 5540SOL     OW17518   5.143   3.729   2.160
 5540SOL    HW117519   5.064   3.783   2.130
 5540SOL    HW217520   5.127   3.696   2.253
 5541SOL     OW17521   5.151   2.417   6.305
 5541SOL    HW117522   5.112   2.344   6.248
 5541SOL    HW217523   5.079   2.455   6.364
 5542SOL     OW17524   6.009   6.135   5.428
 5542SOL    HW117525   5.952   6.081   5.490
 5542SOL    HW217526   6.065   6.074   5.373
 5543SOL     OW17527   2.126   5.188   6.299
 5543SOL    HW117528   2.151   5.182   6.396
 5543SOL    HW217529   2.208   5.177   6.243
 5544SOL     OW17530   5.418   5.715   6.174
 5544SOL    HW117531   5.463   5.638   6.128
 5544SOL    HW217532   5.331   5.735   6.129
 5545SOL     OW17533   5.090   1.342   3.011
 5545SOL    HW117534   5.040   1.381   2.934
 5545SOL    HW217535   5.036   1.353   3.095
 5546SOL     OW17536   0.889   6.730   4.565
 5546SOL    HW117537   0.958   6.721   4.637
 5546SOL    HW217538   0.805   6.684   4.592
 5547SOL     OW17539   4.141   0.699   4.938
 5547SOL    HW117540   4.215   0.767   4.929
 5547SOL    HW217541   4.112   0.669   4.848
 5548SOL     OW17542   6.527   3.416   5.504
 5548SOL    HW117543   6.463   3.474   5.454
 5548SOL    HW217544   6.476   3.348   5.556
 5549SOL     OW17545   4.172   4.550   0.803
 5549SOL    HW117546   4.213   4.471   0.849
 5549SOL    HW217547   4.244   4.612   0.771
 5550SOL     OW17548   2.347   4.539   2.234
 5550SOL    HW117549   2.424   4.596   2.264
 5550SOL    HW217550   2.367   4.504   2.142
 5551SOL     OW17551   1.102   6.236   3.240
 5551SOL    HW117552   1.019   6.249   3.294
 5551SOL    HW217553   1.175   6.293   3.277
 5552SOL     OW17554   6.553   0.648   6.430
 5552SOL    HW117555   6.612   0.600   6.496
 5552SOL    HW217556   6.466   0.671   6.474
 5553SOL     OW17557   4.652   6.181   6.527
 5553SOL    HW117558   4.669   6.101   6.584
 5553SOL    HW217559   4.564   6.222   6.552
 5554SOL     OW17560   4.576   2.084   6.739
 5554SOL    HW117561   4.476   2.082   6.731
 5554SOL    HW217562   4.610   2.171   6.705
 5555SOL     OW17563   0.763   3.491   2.449
 5555SOL    HW117564   0.704   3.560   2.407
 5555SOL    HW217565   0.727   3.467   2.539
 5556SOL     OW17566   6.083   1.737   3.197
 5556SOL    HW117567   6.079   1.658   3.259
 5556SOL    HW217568   6.074   1.705   3.103
 5557SOL     OW17569   4.061   6.408   2.434
 5557SOL    HW117570   4.154   6.388   2.462
 5557SOL    HW217571   4.005   6.427   2.514
 5558SOL     OW17572   2.974   3.611   6.375
 5558SOL    HW117573   2.912   3.666   6.320
 5558SOL    HW217574   3.001   3.529   6.324
 5559SOL     OW17575   2.062   6.880   1.070
 5559SOL    HW117576   2.086   6.795   1.024
 5559SOL    HW217577   2.020   6.860   1.158
 5560SOL     OW17578   0.367   5.660   1.461
 5560SOL    HW117579   0.311   5.579   1.480
 5560SOL    HW217580   0.429   5.641   1.385
 5561SOL     OW17581   1.680   1.040   4.167
 5561SOL    HW117582   1.746   1.085   4.229
 5561SOL    HW217583   1.588   1.049   4.205
 5562SOL     OW17584   4.166   2.797   6.210
 5562SOL    HW117585   4.123   2.827   6.295
 5562SOL    HW217586   4.145   2.701   6.193
 5563SOL     OW17587   3.385   4.932   2.576
 5563SOL    HW117588   3.329   4.898   2.501
 5563SOL    HW217589   3.474   4.960   2.541
 5564SOL     OW17590   4.756   0.109   0.950
 5564SOL    HW117591   4.777   0.197   0.992
 5564SOL    HW217592   4.702   0.124   0.867
 5565SOL     OW17593   4.476   2.383   5.960
 5565SOL    HW117594   4.469   2.300   6.016
 5565SOL    HW217595   4.429   2.458   6.006
 5566SOL     OW17596   1.018   4.016   6.883
 5566SOL    HW117597   1.003   4.094   6.822
 5566SOL    HW217598   0.975   4.033   6.971
 5567SOL     OW17599   6.976   3.344   1.286
 5567SOL    HW117600   7.022   3.306   1.367
 5567SOL    HW217601   6.918   3.420   1.314
 5568SOL     OW17602   5.172   1.137   3.653
 5568SOL    HW117603   5.261   1.098   3.675
 5568SOL    HW217604   5.100   1.069   3.670
 5569SOL     OW17605   1.660   1.588   2.554
 5569SOL    HW117606   1.631   1.625   2.642
 5569SOL    HW217607   1.690   1.664   2.495
 5570SOL     OW17608   6.808   3.914   4.580
 5570SOL    HW117609   6.870   3.882   4.653
 5570SOL    HW217610   6.717   3.929   4.618
 5571SOL     OW17611   6.088   6.245   0.754
 5571SOL    HW117612   6.027   6.187   0.701
 5571SOL    HW217613   6.057   6.340   0.748
 5572SOL     OW17614   1.312   3.297   4.676
 5572SOL    HW117615   1.380   3.369   4.667
 5572SOL    HW217616   1.256   3.313   4.758
 5573SOL     OW17617   1.843   5.245   5.006
 5573SOL    HW117618   1.935   5.205   5.013
 5573SOL    HW217619   1.804   5.222   4.916
 5574SOL     OW17620   0.060   1.789   2.638
 5574SOL    HW117621   0.140   1.845   2.614
 5574SOL    HW217622   0.091   1.696   2.660
 5575SOL     OW17623   6.922   1.181   1.284
 5575SOL    HW117624   6.867   1.098   1.293
 5575SOL    HW217625   6.862   1.261   1.284
 5576SOL     OW17626   0.747   4.759   1.528
 5576SOL    HW117627   0.727   4.705   1.446
 5576SOL    HW217628   0.753   4.698   1.607
 5577SOL     OW17629   3.079   3.304   5.843
 5577SOL    HW117630   3.090   3.216   5.797
 5577SOL    HW217631   3.073   3.289   5.941
 5578SOL     OW17632   3.513   3.898   1.382
 5578SOL    HW117633   3.536   3.885   1.285
 5578SOL    HW217634   3.414   3.903   1.393
 5579SOL     OW17635   0.551   3.425   0.788
 5579SOL    HW117636   0.617   3.374   0.734
 5579SOL    HW217637   0.590   3.447   0.878
 5580SOL     OW17638   5.207   2.526   5.498
 5580SOL    HW117639   5.117   2.567   5.483
 5580SOL    HW217640   5.213   2.440   5.447
 5581SOL     OW17641   1.504   6.991   1.821
 5581SOL    HW117642   1.416   6.989   1.773
 5581SOL    HW217643   1.503   6.925   1.896
 5582SOL     OW17644   2.962   3.634   5.680
 5582SOL    HW117645   2.921   3.546   5.657
 5582SOL    HW217646   3.036   3.620   5.746
 5583SOL     OW17647   5.316   0.756   2.995
 5583SOL    HW117648   5.236   0.812   2.975
 5583SOL    HW217649   5.291   0.682   3.058
 5584SOL     OW17650   6.303   5.443   3.767
 5584SOL    HW117651   6.327   5.421   3.861
 5584SOL    HW217652   6.323   5.539   3.749
 5585SOL     OW17653   5.206   5.295   3.393
 5585SOL    HW117654   5.108   5.274   3.394
 5585SOL    HW217655   5.223   5.374   3.452
 5586SOL     OW17656   0.881   2.919   6.044
 5586SOL    HW117657   0.811   2.858   6.080
 5586SOL    HW217658   0.952   2.865   5.998
 5587SOL     OW17659   4.169   6.653   1.287
 5587SOL    HW117660   4.105   6.629   1.361
 5587SOL    HW217661   4.118   6.665   1.202
 5588SOL     OW17662   2.538   5.074   2.966
 5588SOL    HW117663   2.476   5.134   2.915
 5588SOL    HW217664   2.488   4.992   2.995
 5589SOL     OW17665   6.666   3.155   5.810
 5589SOL    HW117666   6.594   3.175   5.743
 5589SOL    HW217667   6.739   3.103   5.765
 5590SOL     OW17668   0.046   6.395   3.623
 5590SOL    HW117669   0.015   6.320   3.565
 5590SOL    HW217670   0.109   6.454   3.572
 5591SOL     OW17671   5.344   1.441   1.099
 5591SOL    HW117672   5.432   1.488   1.093
 5591SOL    HW217673   5.285   1.472   1.025
 5592SOL     OW17674   0.487   5.634   2.433
 5592SOL    HW117675   0.436   5.699   2.489
 5592SOL    HW217676   0.576   5.615   2.476
 5593SOL     OW17677   0.721   3.090   0.544
 5593SOL    HW117678   0.804   3.111   0.595
 5593SOL    HW217679   0.742   3.028   0.469
 5594SOL     OW17680   4.568   0.866   6.451
 5594SOL    HW117681   4.517   0.796   6.400
 5594SOL    HW217682   4.514   0.950   6.454
 5595SOL     OW17683   6.862   0.844   4.606
 5595SOL    HW117684   6.939   0.803   4.558
 5595SOL    HW217685   6.781   0.786   4.595
 5596SOL     OW17686   4.898   0.664   3.000
 5596SOL    HW117687   4.895   0.697   2.906
 5596SOL    HW217688   4.820   0.701   3.051
 5597SOL     OW17689   4.941   2.941   5.094
 5597SOL    HW117690   5.041   2.942   5.100
 5597SOL    HW217691   4.904   3.023   5.136
 5598SOL     OW17692   5.677   4.169   3.597
 5598SOL    HW117693   5.644   4.260   3.569
 5598SOL    HW217694   5.610   4.127   3.659
 5599SOL     OW17695   0.949   2.185   1.864
 5599SOL    HW117696   0.967   2.210   1.959
 5599SOL    HW217697   0.854   2.205   1.842
 5600SOL     OW17698   1.709   1.298   1.594
 5600SOL    HW117699   1.761   1.213   1.590
 5600SOL    HW217700   1.771   1.375   1.606
 5601SOL     OW17701   2.142   0.859   6.602
 5601SOL    HW117702   2.054   0.815   6.615
 5601SOL    HW217703   2.178   0.887   6.692
 5602SOL     OW17704   0.369   1.820   1.657
 5602SOL    HW117705   0.360   1.756   1.581
 5602SOL    HW217706   0.298   1.802   1.725
 5603SOL     OW17707   6.213   2.764   0.497
 5603SOL    HW117708   6.255   2.734   0.411
 5603SOL    HW217709   6.239   2.702   0.571
 5604SOL     OW17710   6.260   2.401   4.462
 5604SOL    HW117711   6.266   2.462   4.383
 5604SOL    HW217712   6.182   2.340   4.451
 5605SOL     OW17713   0.014   0.977   4.940
 5605SOL    HW117714   0.051   0.904   4.997
 5605SOL    HW217715   6.990   1.043   4.997
 5606SOL     OW17716   5.304   6.386   0.180
 5606SOL    HW117717   5.403   6.380   0.168
 5606SOL    HW217718   5.283   6.450   0.253
 5607SOL     OW17719   5.782   1.353   2.836
 5607SOL    HW117720   5.849   1.383   2.768
 5607SOL    HW217721   5.828   1.333   2.923
 5608SOL     OW17722   5.418   0.464   3.712
 5608SOL    HW117723   5.349   0.452   3.641
 5608SOL    HW217724   5.374   0.489   3.798
 5609SOL     OW17725   3.363   5.812   1.466
 5609SOL    HW117726   3.370   5.758   1.550
 5609SOL    HW217727   3.445   5.798   1.410
 5610SOL     OW17728   4.798   5.768   0.720
 5610SOL    HW117729   4.756   5.678   0.733
 5610SOL    HW217730   4.796   5.793   0.623
 5611SOL     OW17731   0.749   6.051   3.031
 5611SOL    HW117732   0.802   5.989   2.973
 5611SOL    HW217733   0.767   6.146   3.005
 5612SOL     OW17734   3.937   2.008   6.173
 5612SOL    HW117735   3.968   2.083   6.232
 5612SOL    HW217736   4.009   1.986   6.107
 5613SOL     OW17737   6.765   4.779   3.506
 5613SOL    HW117738   6.865   4.783   3.503
 5613SOL    HW217739   6.732   4.724   3.430
 5614SOL     OW17740   4.520   2.188   4.184
 5614SOL    HW117741   4.444   2.161   4.125
 5614SOL    HW217742   4.490   2.264   4.243
 5615SOL     OW17743   6.856   1.515   3.305
 5615SOL    HW117744   6.949   1.488   3.281
 5615SOL    HW217745   6.840   1.499   3.402
 5616SOL     OW17746   2.603   2.496   4.151
 5616SOL    HW117747   2.628   2.472   4.245
 5616SOL    HW217748   2.668   2.454   4.087
 5617SOL     OW17749   2.933   6.277   5.850
 5617SOL    HW117750   3.002   6.264   5.779
 5617SOL    HW217751   2.958   6.223   5.931
 5618SOL     OW17752   0.590   4.166   3.692
 5618SOL    HW117753   0.514   4.105   3.714
 5618SOL    HW217754   0.633   4.136   3.607
 5619SOL     OW17755   3.433   3.830   4.852
 5619SOL    HW117756   3.438   3.753   4.915
 5619SOL    HW217757   3.374   3.806   4.775
 5620SOL     OW17758   4.160   3.440   0.388
 5620SOL    HW117759   4.217   3.445   0.470
 5620SOL    HW217760   4.105   3.356   0.389
 5621SOL     OW17761   2.340   2.702   0.110
 5621SOL    HW117762   2.279   2.694   0.189
 5621SOL    HW217763   2.365   2.798   0.097
 5622SOL     OW17764   4.692   0.585   5.674
 5622SOL    HW117765   4.748   0.576   5.756
 5622SOL    HW217766   4.604   0.540   5.689
 5623SOL     OW17767   3.826   5.400   5.559
 5623SOL    HW117768   3.856   5.306   5.543
 5623SOL    HW217769   3.830   5.451   5.473
 5624SOL     OW17770   1.106   4.921   3.548
 5624SOL    HW117771   1.127   4.831   3.510
 5624SOL    HW217772   1.068   4.910   3.640
 5625SOL     OW17773   5.327   0.625   5.246
 5625SOL    HW117774   5.328   0.671   5.157
 5625SOL    HW217775   5.239   0.580   5.260
 5626SOL     OW17776   2.515   6.065   4.658
 5626SOL    HW117777   2.444   6.001   4.628
 5626SOL    HW217778   2.497   6.092   4.752
 5627SOL     OW17779   0.354   5.802   6.208
 5627SOL    HW117780   0.347   5.899   6.186
 5627SOL    HW217781   0.275   5.754   6.172
 5628SOL     OW17782   1.525   2.011   2.117
 5628SOL    HW117783   1.516   2.009   2.217
 5628SOL    HW217784   1.448   2.062   2.078
 5629SOL     OW17785   3.723   3.797   2.250
 5629SOL    HW117786   3.631   3.766   2.230
 5629SOL    HW217787   3.734   3.892   2.222
 5630SOL     OW17788   1.168   3.642   6.714
 5630SOL    HW117789   1.118   3.728   6.724
 5630SOL    HW217790   1.217   3.641   6.627
 5631SOL     OW17791   4.607   2.281   1.144
 5631SOL    HW117792   4.570   2.374   1.140
 5631SOL    HW217793   4.587   2.234   1.058
 5632SOL     OW17794   2.937   2.306   6.126
 5632SOL    HW117795   2.999   2.254   6.186
 5632SOL    HW217796   2.910   2.390   6.173
 5633SOL     OW17797   6.232   3.883   4.635
 5633SOL    HW117798   6.211   3.801   4.581
 5633SOL    HW217799   6.189   3.963   4.592
 5634SOL     OW17800   2.331   5.157   4.267
 5634SOL    HW117801   2.427   5.131   4.275
 5634SOL    HW217802   2.287   5.101   4.197
 5635SOL     OW17803   1.527   4.672   5.353
 5635SOL    HW117804   1.491   4.729   5.280
 5635SOL    HW217805   1.623   4.696   5.370
 5636SOL     OW17806   4.650   6.823   4.476
 5636SOL    HW117807   4.636   6.729   4.445
 5636SOL    HW217808   4.627   6.886   4.402
 5637SOL     OW17809   5.273   0.528   3.131
 5637SOL    HW117810   5.372   0.520   3.128
 5637SOL    HW217811   5.234   0.450   3.179
 5638SOL     OW17812   6.001   3.980   0.616
 5638SOL    HW117813   6.068   3.916   0.581
 5638SOL    HW217814   5.966   3.948   0.704
 5639SOL     OW17815   1.073   0.640   2.614
 5639SOL    HW117816   1.132   0.720   2.602
 5639SOL    HW217817   1.014   0.629   2.534
 5640SOL     OW17818   3.618   0.215   3.593
 5640SOL    HW117819   3.541   0.206   3.530
 5640SOL    HW217820   3.701   0.235   3.541
 5641SOL     OW17821   1.075   4.739   5.092
 5641SOL    HW117822   1.070   4.779   5.183
 5641SOL    HW217823   1.082   4.813   5.024
 5642SOL     OW17824   1.457   6.386   5.311
 5642SOL    HW117825   1.461   6.474   5.264
 5642SOL    HW217826   1.386   6.389   5.381
 5643SOL     OW17827   4.200   0.960   5.483
 5643SOL    HW117828   4.253   1.039   5.452
 5643SOL    HW217829   4.126   0.990   5.543
 5644SOL     OW17830   3.084   0.264   5.171
 5644SOL    HW117831   3.108   0.276   5.267
 5644SOL    HW217832   3.041   0.348   5.136
 5645SOL     OW17833   6.213   4.891   3.807
 5645SOL    HW117834   6.260   4.924   3.725
 5645SOL    HW217835   6.261   4.811   3.843
 5646SOL     OW17836   1.564   5.035   3.491
 5646SOL    HW117837   1.502   5.113   3.484
 5646SOL    HW217838   1.533   4.974   3.564
 5647SOL     OW17839   4.798   5.777   1.740
 5647SOL    HW117840   4.714   5.725   1.757
 5647SOL    HW217841   4.807   5.850   1.808
 5648SOL     OW17842   2.026   6.419   2.719
 5648SOL    HW117843   2.039   6.321   2.702
 5648SOL    HW217844   2.012   6.434   2.816
 5649SOL     OW17845   0.679   0.061   3.751
 5649SOL    HW117846   0.705   7.017   3.819
 5649SOL    HW217847   0.738   0.052   3.671
 5650SOL     OW17848   0.390   5.554   0.943
 5650SOL    HW117849   0.299   5.521   0.915
 5650SOL    HW217850   0.381   5.610   1.025
 5651SOL     OW17851   1.457   0.676   1.523
 5651SOL    HW117852   1.425   0.619   1.599
 5651SOL    HW217853   1.387   0.681   1.453
 5652SOL     OW17854   6.257   0.317   1.405
 5652SOL    HW117855   6.205   0.402   1.404
 5652SOL    HW217856   6.208   0.248   1.351
 5653SOL     OW17857   5.843   6.480   6.292
 5653SOL    HW117858   5.811   6.458   6.384
 5653SOL    HW217859   5.899   6.563   6.294
 5654SOL     OW17860   0.560   6.291   5.376
 5654SOL    HW117861   0.577   6.358   5.304
 5654SOL    HW217862   0.635   6.293   5.442
 5655SOL     OW17863   1.317   3.414   4.097
 5655SOL    HW117864   1.359   3.468   4.170
 5655SOL    HW217865   1.362   3.324   4.093
 5656SOL     OW17866   6.992   4.139   6.571
 5656SOL    HW117867   6.989   4.042   6.596
 5656SOL    HW217868   0.019   4.189   6.640
 5657SOL     OW17869   5.948   2.734   6.546
 5657SOL    HW117870   5.856   2.739   6.505
 5657SOL    HW217871   5.979   2.825   6.571
 5658SOL     OW17872   3.123   2.991   6.484
 5658SOL    HW117873   3.045   3.049   6.459
 5658SOL    HW217874   3.208   3.041   6.466
 5659SOL     OW17875   3.080   3.335   5.412
 5659SOL    HW117876   3.036   3.346   5.501
 5659SOL    HW217877   3.023   3.375   5.341
 5660SOL     OW17878   4.426   6.714   6.375
 5660SOL    HW117879   4.441   6.728   6.473
 5660SOL    HW217880   4.503   6.663   6.337
 5661SOL     OW17881   1.744   5.786   5.053
 5661SOL    HW117882   1.694   5.704   5.080
 5661SOL    HW217883   1.752   5.848   5.132
 5662SOL     OW17884   3.089   6.710   3.689
 5662SOL    HW117885   3.000   6.756   3.694
 5662SOL    HW217886   3.076   6.618   3.653
 5663SOL     OW17887   2.231   2.295   0.725
 5663SOL    HW117888   2.280   2.211   0.749
 5663SOL    HW217889   2.279   2.341   0.650
 5664SOL     OW17890   0.272   3.497   3.943
 5664SOL    HW117891   0.342   3.473   3.877
 5664SOL    HW217892   0.267   3.427   4.014
 5665SOL     OW17893   2.227   0.653   0.370
 5665SOL    HW117894   2.165   0.709   0.425
 5665SOL    HW217895   2.294   0.712   0.324
 5666SOL     OW17896   6.626   6.773   3.335
 5666SOL    HW117897   6.617   6.803   3.239
 5666SOL    HW217898   6.537   6.779   3.380
 5667SOL     OW17899   1.770   4.890   4.622
 5667SOL    HW117900   1.853   4.881   4.568
 5667SOL    HW217901   1.768   4.980   4.665
 5668SOL     OW17902   5.699   3.234   3.220
 5668SOL    HW117903   5.618   3.177   3.230
 5668SOL    HW217904   5.671   3.328   3.199
 5669SOL     OW17905   6.675   3.859   0.962
 5669SOL    HW117906   6.643   3.793   1.029
 5669SOL    HW217907   6.772   3.843   0.943
 5670SOL     OW17908   1.168   4.051   4.051
 5670SOL    HW117909   1.193   4.138   4.093
 5670SOL    HW217910   1.212   3.976   4.101
 5671SOL     OW17911   5.977   5.897   5.274
 5671SOL    HW117912   5.923   5.813   5.275
 5671SOL    HW217913   6.067   5.879   5.314
 5672SOL     OW17914   4.761   3.746   6.628
 5672SOL    HW117915   4.716   3.821   6.678
 5672SOL    HW217916   4.694   3.701   6.569
 5673SOL     OW17917   1.920   6.920   0.792
 5673SOL    HW117918   1.841   6.981   0.800
 5673SOL    HW217919   1.967   6.915   0.880
 5674SOL     OW17920   0.890   4.183   5.210
 5674SOL    HW117921   0.945   4.214   5.132
 5674SOL    HW217922   0.846   4.262   5.253
 5675SOL     OW17923   4.477   3.108   6.103
 5675SOL    HW117924   4.571   3.091   6.073
 5675SOL    HW217925   4.466   3.074   6.196
 5676SOL     OW17926   2.438   2.043   2.810
 5676SOL    HW117927   2.426   2.002   2.900
 5676SOL    HW217928   2.500   1.986   2.755
 5677SOL     OW17929   0.531   1.292   0.842
 5677SOL    HW117930   0.606   1.245   0.889
 5677SOL    HW217931   0.508   1.242   0.758
 5678SOL     OW17932   3.940   0.014   2.748
 5678SOL    HW117933   3.850   0.049   2.774
 5678SOL    HW217934   3.941   6.939   2.756
 5679SOL     OW17935   6.502   1.485   3.902
 5679SOL    HW117936   6.475   1.546   3.976
 5679SOL    HW217937   6.425   1.425   3.879
 5680SOL     OW17938   1.494   5.368   6.406
 5680SOL    HW117939   1.509   5.367   6.307
 5680SOL    HW217940   1.396   5.369   6.426
 5681SOL     OW17941   0.810   3.766   2.265
 5681SOL    HW117942   0.729   3.798   2.313
 5681SOL    HW217943   0.789   3.752   2.169
 5682SOL     OW17944   1.862   5.464   4.716
 5682SOL    HW117945   1.786   5.438   4.776
 5682SOL    HW217946   1.826   5.506   4.633
 5683SOL     OW17947   3.928   1.423   5.679
 5683SOL    HW117948   3.906   1.366   5.758
 5683SOL    HW217949   4.003   1.485   5.702
 5684SOL     OW17950   2.355   4.037   6.266
 5684SOL    HW117951   2.326   4.035   6.362
 5684SOL    HW217952   2.453   4.020   6.261
 5685SOL     OW17953   2.420   1.501   3.535
 5685SOL    HW117954   2.398   1.466   3.626
 5685SOL    HW217955   2.483   1.578   3.543
 5686SOL     OW17956   2.948   1.779   6.046
 5686SOL    HW117957   2.921   1.855   5.988
 5686SOL    HW217958   3.023   1.729   6.003
 5687SOL     OW17959   0.422   5.499   6.473
 5687SOL    HW117960   0.447   5.413   6.517
 5687SOL    HW217961   0.396   5.566   6.543
 5688SOL     OW17962   1.365   2.745   2.390
 5688SOL    HW117963   1.408   2.684   2.457
 5688SOL    HW217964   1.404   2.837   2.398
 5689SOL     OW17965   3.122   1.623   1.537
 5689SOL    HW117966   3.118   1.670   1.448
 5689SOL    HW217967   3.203   1.565   1.540
 5690SOL     OW17968   1.493   5.927   0.315
 5690SOL    HW117969   1.544   5.858   0.366
 5690SOL    HW217970   1.457   5.995   0.379
 5691SOL     OW17971   4.021   0.509   2.003
 5691SOL    HW117972   3.969   0.555   2.075
 5691SOL    HW217973   4.070   0.577   1.948
 5692SOL     OW17974   5.607   3.949   0.544
 5692SOL    HW117975   5.615   3.882   0.618
 5692SOL    HW217976   5.561   4.031   0.578
 5693SOL     OW17977   4.316   1.307   2.470
 5693SOL    HW117978   4.393   1.264   2.423
 5693SOL    HW217979   4.235   1.301   2.413
 5694SOL     OW17980   1.281   0.743   2.850
 5694SOL    HW117981   1.282   0.828   2.902
 5694SOL    HW217982   1.231   0.673   2.902
 5695SOL     OW17983   1.597   2.044   4.015
 5695SOL    HW117984   1.689   2.061   3.981
 5695SOL    HW217985   1.563   1.957   3.979
 5696SOL     OW17986   1.066   0.548   4.044
 5696SOL    HW117987   0.979   0.499   4.030
 5696SOL    HW217988   1.083   0.609   3.966
 5697SOL     OW17989   5.846   1.960   1.844
 5697SOL    HW117990   5.778   2.014   1.894
 5697SOL    HW217991   5.923   2.019   1.818
 5698SOL     OW17992   0.791   4.647   3.700
 5698SOL    HW117993   0.858   4.703   3.750
 5698SOL    HW217994   0.704   4.647   3.750
 5699SOL     OW17995   1.153   2.585   2.739
 5699SOL    HW117996   1.079   2.558   2.802
 5699SOL    HW217997   1.223   2.636   2.790
 5700SOL     OW17998   6.569   0.031   3.749
 5700SOL    HW117999   6.628   6.988   3.706
 5700SOL    HW218000   6.623   0.114   3.769
 5701SOL     OW18001   0.584   0.366   1.158
 5701SOL    HW118002   0.533   0.413   1.230
 5701SOL    HW218003   0.523   0.344   1.082
 5702SOL     OW18004   2.530   5.606   4.625
 5702SOL    HW118005   2.614   5.655   4.648
 5702SOL    HW218006   2.459   5.629   4.692
 5703SOL     OW18007   6.224   4.379   0.566
 5703SOL    HW118008   6.260   4.393   0.474
 5703SOL    HW218009   6.189   4.466   0.601
 5704SOL     OW18010   4.475   4.454   3.192
 5704SOL    HW118011   4.526   4.374   3.159
 5704SOL    HW218012   4.438   4.504   3.114
 5705SOL     OW18013   5.194   6.346   6.965
 5705SOL    HW118014   5.240   6.362   0.028
 5705SOL    HW218015   5.097   6.370   6.974
 5706SOL     OW18016   6.296   2.942   2.009
 5706SOL    HW118017   6.363   3.016   2.011
 5706SOL    HW218018   6.331   2.864   2.061
 5707SOL     OW18019   6.549   7.019   0.870
 5707SOL    HW118020   6.489   6.939   0.865
 5707SOL    HW218021   6.538   0.049   0.786
 5708SOL     OW18022   4.894   5.684   2.318
 5708SOL    HW118023   4.975   5.730   2.356
 5708SOL    HW218024   4.858   5.620   2.386
 5709SOL     OW18025   1.012   1.051   2.162
 5709SOL    HW118026   0.961   1.019   2.242
 5709SOL    HW218027   1.023   0.976   2.097
 5710SOL     OW18028   3.307   2.785   0.524
 5710SOL    HW118029   3.304   2.686   0.507
 5710SOL    HW218030   3.352   2.802   0.612
 5711SOL     OW18031   5.165   1.285   2.462
 5711SOL    HW118032   5.130   1.377   2.445
 5711SOL    HW218033   5.145   1.259   2.557
 5712SOL     OW18034   6.133   6.965   0.269
 5712SOL    HW118035   6.187   6.913   0.336
 5712SOL    HW218036   6.053   7.005   0.314
 5713SOL     OW18037   2.687   3.784   1.618
 5713SOL    HW118038   2.622   3.855   1.590
 5713SOL    HW218039   2.637   3.702   1.645
 5714SOL     OW18040   6.896   5.942   1.126
 5714SOL    HW118041   6.837   5.946   1.207
 5714SOL    HW218042   6.841   5.915   1.047
 5715SOL     OW18043   0.547   0.600   2.524
 5715SOL    HW118044   0.578   0.558   2.439
 5715SOL    HW218045   0.490   0.680   2.502
 5716SOL     OW18046   1.168   4.960   6.051
 5716SOL    HW118047   1.175   5.038   5.989
 5716SOL    HW218048   1.251   4.955   6.106
 5717SOL     OW18049   1.919   4.792   0.636
 5717SOL    HW118050   1.822   4.774   0.616
 5717SOL    HW218051   1.928   4.834   0.726
 5718SOL     OW18052   0.582   3.458   0.274
 5718SOL    HW118053   0.507   3.510   0.314
 5718SOL    HW218054   0.669   3.503   0.295
 5719SOL     OW18055   1.871   2.971   0.065
 5719SOL    HW118056   1.864   2.891   0.005
 5719SOL    HW218057   1.791   2.975   0.125
 5720SOL     OW18058   1.982   6.521   5.001
 5720SOL    HW118059   1.886   6.494   5.005
 5720SOL    HW218060   2.038   6.452   5.046
 5721SOL     OW18061   5.874   3.923   0.870
 5721SOL    HW118062   5.929   3.848   0.907
 5721SOL    HW218063   5.784   3.889   0.844
 5722SOL     OW18064   6.802   2.138   5.122
 5722SOL    HW118065   6.706   2.132   5.149
 5722SOL    HW218066   6.808   2.155   5.024
 5723SOL     OW18067   3.890   3.187   0.103
 5723SOL    HW118068   3.861   3.282   0.119
 5723SOL    HW218069   3.979   3.172   0.145
 5724SOL     OW18070   5.698   2.737   4.474
 5724SOL    HW118071   5.613   2.695   4.443
 5724SOL    HW218072   5.770   2.718   4.407
 5725SOL     OW18073   6.237   5.202   3.365
 5725SOL    HW118074   6.196   5.236   3.449
 5725SOL    HW218075   6.294   5.274   3.324
 5726SOL     OW18076   6.902   5.450   4.128
 5726SOL    HW118077   6.914   5.500   4.041
 5726SOL    HW218078   6.939   5.505   4.203
 5727SOL     OW18079   6.011   2.316   4.389
 5727SOL    HW118080   6.031   2.338   4.294
 5727SOL    HW218081   5.922   2.270   4.395
 5728SOL     OW18082   4.752   6.192   5.789
 5728SOL    HW118083   4.716   6.160   5.702
 5728SOL    HW218084   4.676   6.216   5.850
 5729SOL     OW18085   2.312   0.631   0.014
 5729SOL    HW118086   2.242   0.594   0.074
 5729SOL    HW218087   2.355   0.710   0.058
 5730SOL     OW18088   5.192   5.013   5.970
 5730SOL    HW118089   5.186   5.013   6.070
 5730SOL    HW218090   5.270   5.069   5.942
 5731SOL     OW18091   0.363   0.075   2.813
 5731SOL    HW118092   0.324   0.123   2.734
 5731SOL    HW218093   0.306   0.092   2.894
 5732SOL     OW18094   0.761   5.416   3.743
 5732SOL    HW118095   0.763   5.324   3.703
 5732SOL    HW218096   0.722   5.480   3.677
 5733SOL     OW18097   2.969   6.524   5.233
 5733SOL    HW118098   3.025   6.550   5.155
 5733SOL    HW218099   2.892   6.468   5.203
 5734SOL     OW18100   1.085   0.404   5.494
 5734SOL    HW118101   1.088   0.311   5.530
 5734SOL    HW218102   1.177   0.445   5.501
 5735SOL     OW18103   3.966   1.676   0.990
 5735SOL    HW118104   4.039   1.711   0.931
 5735SOL    HW218105   3.881   1.672   0.938
 5736SOL     OW18106   5.912   4.272   0.279
 5736SOL    HW118107   5.906   4.369   0.254
 5736SOL    HW218108   5.979   4.226   0.220
 5737SOL     OW18109   6.071   6.261   7.023
 5737SOL    HW118110   6.091   6.350   0.040
 5737SOL    HW218111   6.116   6.256   6.934
 5738SOL     OW18112   2.081   2.734   6.141
 5738SOL    HW118113   2.020   2.768   6.213
 5738SOL    HW218114   2.030   2.676   6.079
 5739SOL     OW18115   2.040   0.813   5.870
 5739SOL    HW118116   2.119   0.762   5.904
 5739SOL    HW218117   2.065   0.860   5.785
 5740SOL     OW18118   4.353   4.725   0.713
 5740SOL    HW118119   4.381   4.727   0.617
 5740SOL    HW218120   4.338   4.818   0.746
 5741SOL     OW18121   0.791   5.449   4.568
 5741SOL    HW118122   0.801   5.430   4.470
 5741SOL    HW218123   0.722   5.520   4.581
 5742SOL     OW18124   5.352   6.317   2.647
 5742SOL    HW118125   5.276   6.260   2.615
 5742SOL    HW218126   5.364   6.303   2.746
 5743SOL     OW18127   2.272   6.773   4.887
 5743SOL    HW118128   2.206   6.755   4.814
 5743SOL    HW218129   2.365   6.755   4.853
 5744SOL     OW18130   4.428   6.926   2.158
 5744SOL    HW118131   4.496   6.853   2.156
 5744SOL    HW218132   4.418   6.965   2.067
 5745SOL     OW18133   3.899   0.596   4.096
 5745SOL    HW118134   3.897   0.696   4.089
 5745SOL    HW218135   3.993   0.563   4.095
 5746SOL     OW18136   5.025   0.479   1.291
 5746SOL    HW118137   5.062   0.560   1.245
 5746SOL    HW218138   5.077   0.398   1.262
 5747SOL     OW18139   0.579   5.306   2.202
 5747SOL    HW118140   0.666   5.262   2.179
 5747SOL    HW218141   0.536   5.256   2.278
 5748SOL     OW18142   1.629   4.971   0.754
 5748SOL    HW118143   1.565   5.043   0.729
 5748SOL    HW218144   1.598   4.883   0.717
 5749SOL     OW18145   2.700   1.026   4.526
 5749SOL    HW118146   2.699   0.946   4.585
 5749SOL    HW218147   2.636   1.012   4.450
 5750SOL     OW18148   6.276   5.188   4.582
 5750SOL    HW118149   6.374   5.179   4.601
 5750SOL    HW218150   6.226   5.189   4.668
 5751SOL     OW18151   2.280   2.923   4.603
 5751SOL    HW118152   2.350   2.868   4.557
 5751SOL    HW218153   2.282   2.903   4.701
 5752SOL     OW18154   6.533   0.338   6.456
 5752SOL    HW118155   6.593   0.384   6.521
 5752SOL    HW218156   6.483   0.407   6.403
 5753SOL     OW18157   2.759   3.661   5.966
 5753SOL    HW118158   2.859   3.664   5.963
 5753SOL    HW218159   2.724   3.613   5.885
 5754SOL     OW18160   5.881   5.420   0.941
 5754SOL    HW118161   5.846   5.511   0.920
 5754SOL    HW218162   5.912   5.376   0.857
 5755SOL     OW18163   2.402   3.296   5.737
 5755SOL    HW118164   2.304   3.314   5.747
 5755SOL    HW218165   2.445   3.370   5.685
 5756SOL     OW18166   6.580   5.538   3.459
 5756SOL    HW118167   6.638   5.602   3.409
 5756SOL    HW218168   6.487   5.544   3.426
 5757SOL     OW18169   6.565   6.302   2.544
 5757SOL    HW118170   6.598   6.236   2.476
 5757SOL    HW218171   6.631   6.376   2.554
 5758SOL     OW18172   3.000   1.558   4.063
 5758SOL    HW118173   3.084   1.612   4.068
 5758SOL    HW218174   3.002   1.501   3.981
 5759SOL     OW18175   4.689   1.557   6.069
 5759SOL    HW118176   4.670   1.565   6.167
 5759SOL    HW218177   4.679   1.462   6.041
 5760SOL     OW18178   1.566   5.283   1.896
 5760SOL    HW118179   1.654   5.323   1.924
 5760SOL    HW218180   1.558   5.190   1.932
 5761SOL     OW18181   5.011   0.649   6.296
 5761SOL    HW118182   5.043   0.574   6.238
 5761SOL    HW218183   4.920   0.627   6.332
 5762SOL     OW18184   5.006   6.820   6.870
 5762SOL    HW118185   5.076   6.828   6.940
 5762SOL    HW218186   4.972   6.726   6.866
 5763SOL     OW18187   0.150   0.285   0.396
 5763SOL    HW118188   0.087   0.269   0.472
 5763SOL    HW218189   0.219   0.212   0.395
 5764SOL     OW18190   5.451   4.612   6.444
 5764SOL    HW118191   5.541   4.570   6.451
 5764SOL    HW218192   5.384   4.543   6.419
 5765SOL     OW18193   6.656   4.098   6.563
 5765SOL    HW118194   6.686   4.017   6.614
 5765SOL    HW218195   6.582   4.072   6.501
 5766SOL     OW18196   2.714   1.705   1.020
 5766SOL    HW118197   2.634   1.758   0.992
 5766SOL    HW218198   2.797   1.749   0.986
 5767SOL     OW18199   2.661   7.008   0.430
 5767SOL    HW118200   2.739   0.029   0.387
 5767SOL    HW218201   2.600   6.972   0.358
 5768SOL     OW18202   0.017   6.908   3.232
 5768SOL    HW118203   7.021   6.989   3.286
 5768SOL    HW218204   0.101   6.866   3.267
 5769SOL     OW18205   2.509   6.981   3.456
 5769SOL    HW118206   2.443   6.993   3.530
 5769SOL    HW218207   2.545   0.045   3.428
 5770SOL     OW18208   0.235   6.573   0.884
 5770SOL    HW118209   0.242   6.665   0.844
 5770SOL    HW218210   0.305   6.515   0.844
 5771SOL     OW18211   1.284   5.913   1.623
 5771SOL    HW118212   1.225   5.854   1.569
 5771SOL    HW218213   1.229   5.977   1.676
 5772SOL     OW18214   5.916   2.768   0.600
 5772SOL    HW118215   6.004   2.744   0.559
 5772SOL    HW218216   5.926   2.853   0.652
 5773SOL     OW18217   5.734   0.750   4.145
 5773SOL    HW118218   5.772   0.660   4.120
 5773SOL    HW218219   5.641   0.757   4.109
 5774SOL     OW18220   2.460   5.399   4.115
 5774SOL    HW118221   2.458   5.459   4.195
 5774SOL    HW218222   2.547   5.349   4.112
 5775SOL     OW18223   1.570   0.099   1.347
 5775SOL    HW118224   1.513   0.044   1.286
 5775SOL    HW218225   1.602   0.042   1.422
 5776SOL     OW18226   6.843   0.858   6.056
 5776SOL    HW118227   6.920   0.837   6.117
 5776SOL    HW218228   6.829   0.781   5.993
 5777SOL     OW18229   6.235   0.821   4.452
 5777SOL    HW118230   6.284   0.893   4.501
 5777SOL    HW218231   6.290   0.738   4.449
 5778SOL     OW18232   2.202   0.078   1.695
 5778SOL    HW118233   2.163   0.032   1.774
 5778SOL    HW218234   2.238   0.011   1.630
 5779SOL     OW18235   4.328   0.510   1.322
 5779SOL    HW118236   4.246   0.563   1.342
 5779SOL    HW218237   4.321   0.421   1.368
 5780SOL     OW18238   6.364   5.214   2.156
 5780SOL    HW118239   6.295   5.154   2.116
 5780SOL    HW218240   6.424   5.250   2.084
 5781SOL     OW18241   1.711   4.450   4.846
 5781SOL    HW118242   1.786   4.422   4.785
 5781SOL    HW218243   1.626   4.405   4.818
 5782SOL     OW18244   1.772   1.037   1.778
 5782SOL    HW118245   1.739   0.967   1.715
 5782SOL    HW218246   1.853   1.081   1.739
 5783SOL     OW18247   1.940   1.190   0.962
 5783SOL    HW118248   1.975   1.099   0.985
 5783SOL    HW218249   1.947   1.249   1.042
 5784SOL     OW18250   0.571   6.383   0.444
 5784SOL    HW118251   0.644   6.418   0.385
 5784SOL    HW218252   0.611   6.321   0.511
 5785SOL     OW18253   1.490   1.614   1.106
 5785SOL    HW118254   1.512   1.565   1.191
 5785SOL    HW218255   1.498   1.552   1.029
 5786SOL     OW18256   1.276   3.729   0.986
 5786SOL    HW118257   1.189   3.740   0.939
 5786SOL    HW218258   1.332   3.811   0.972
 5787SOL     OW18259   5.042   2.355   4.316
 5787SOL    HW118260   4.976   2.296   4.269
 5787SOL    HW218261   5.102   2.399   4.249
 5788SOL     OW18262   3.000   0.139   1.329
 5788SOL    HW118263   3.097   0.121   1.342
 5788SOL    HW218264   2.952   0.053   1.310
 5789SOL     OW18265   3.881   2.470   6.448
 5789SOL    HW118266   3.839   2.386   6.413
 5789SOL    HW218267   3.818   2.547   6.432
 5790SOL     OW18268   6.566   5.746   5.269
 5790SOL    HW118269   6.626   5.699   5.204
 5790SOL    HW218270   6.563   5.843   5.247
 5791SOL     OW18271   3.381   1.579   2.646
 5791SOL    HW118272   3.419   1.548   2.559
 5791SOL    HW218273   3.452   1.627   2.698
 5792SOL     OW18274   4.930   3.769   3.239
 5792SOL    HW118275   5.021   3.811   3.232
 5792SOL    HW218276   4.885   3.773   3.150
 5793SOL     OW18277   6.157   1.917   5.638
 5793SOL    HW118278   6.072   1.950   5.597
 5793SOL    HW218279   6.138   1.837   5.696
 5794SOL     OW18280   3.225   6.844   6.511
 5794SOL    HW118281   3.265   6.929   6.546
 5794SOL    HW218282   3.142   6.823   6.561
 5795SOL     OW18283   1.059   6.285   1.904
 5795SOL    HW118284   1.056   6.323   1.996
 5795SOL    HW218285   1.073   6.359   1.838
 5796SOL     OW18286   4.491   1.079   6.886
 5796SOL    HW118287   4.569   1.124   6.842
 5796SOL    HW218288   4.413   1.077   6.823
 5797SOL     OW18289   5.670   1.444   0.373
 5797SOL    HW118290   5.753   1.483   0.414
 5797SOL    HW218291   5.592   1.501   0.397
 5798SOL     OW18292   0.808   4.136   4.520
 5798SOL    HW118293   0.871   4.148   4.444
 5798SOL    HW218294   0.785   4.039   4.530
 5799SOL     OW18295   0.719   6.708   2.738
 5799SOL    HW118296   0.649   6.767   2.777
 5799SOL    HW218297   0.676   6.625   2.701
 5800SOL     OW18298   0.879   0.167   0.916
 5800SOL    HW118299   0.825   0.094   0.959
 5800SOL    HW218300   0.859   0.169   0.818
 5801SOL     OW18301   2.397   2.693   3.401
 5801SOL    HW118302   2.443   2.716   3.315
 5801SOL    HW218303   2.350   2.774   3.436
 5802SOL     OW18304   6.022   3.450   2.722
 5802SOL    HW118305   6.013   3.546   2.751
 5802SOL    HW218306   5.973   3.392   2.787
 5803SOL     OW18307   0.639   4.845   3.921
 5803SOL    HW118308   0.622   4.746   3.915
 5803SOL    HW218309   0.676   4.866   4.012
 5804SOL     OW18310   6.948   6.658   3.675
 5804SOL    HW118311   6.993   6.570   3.659
 5804SOL    HW218312   6.941   6.709   3.589
 5805SOL     OW18313   1.169   3.132   0.954
 5805SOL    HW118314   1.216   3.067   1.015
 5805SOL    HW218315   1.157   3.219   1.002
 5806SOL     OW18316   6.899   3.990   4.322
 5806SOL    HW118317   6.885   3.982   4.421
 5806SOL    HW218318   6.836   4.060   4.286
 5807SOL     OW18319   1.148   6.103   1.212
 5807SOL    HW118320   1.193   6.158   1.142
 5807SOL    HW218321   1.212   6.086   1.287
 5808SOL     OW18322   6.700   6.912   4.428
 5808SOL    HW118323   6.724   6.816   4.418
 5808SOL    HW218324   6.637   6.939   4.354
 5809SOL     OW18325   0.217   2.252   5.831
 5809SOL    HW118326   0.272   2.169   5.842
 5809SOL    HW218327   0.241   2.317   5.903
 5810SOL     OW18328   4.142   0.057   4.673
 5810SOL    HW118329   4.125   6.983   4.677
 5810SOL    HW218330   4.209   0.076   4.602
 5811SOL     OW18331   2.711   2.427   5.579
 5811SOL    HW118332   2.672   2.446   5.670
 5811SOL    HW218333   2.698   2.507   5.520
 5812SOL     OW18334   6.022   3.570   6.775
 5812SOL    HW118335   5.991   3.486   6.733
 5812SOL    HW218336   5.954   3.601   6.842
 5813SOL     OW18337   3.066   6.129   1.115
 5813SOL    HW118338   2.967   6.138   1.106
 5813SOL    HW218339   3.091   6.136   1.212
 5814SOL     OW18340   6.885   2.055   2.033
 5814SOL    HW118341   6.816   2.025   2.098
 5814SOL    HW218342   6.901   1.983   1.965
 5815SOL     OW18343   5.704   2.061   4.125
 5815SOL    HW118344   5.725   2.052   4.028
 5815SOL    HW218345   5.641   2.138   4.139
 5816SOL     OW18346   0.139   5.376   1.789
 5816SOL    HW118347   0.093   5.440   1.851
 5816SOL    HW218348   0.133   5.283   1.826
 5817SOL     OW18349   5.703   4.322   5.310
 5817SOL    HW118350   5.733   4.227   5.317
 5817SOL    HW218351   5.612   4.332   5.348
 5818SOL     OW18352   1.014   5.564   5.222
 5818SOL    HW118353   0.939   5.498   5.219
 5818SOL    HW218354   0.991   5.644   5.165
 5819SOL     OW18355   2.642   5.140   6.919
 5819SOL    HW118356   2.548   5.160   6.888
 5819SOL    HW218357   2.694   5.225   6.922
 5820SOL     OW18358   4.763   4.802   2.368
 5820SOL    HW118359   4.735   4.775   2.460
 5820SOL    HW218360   4.685   4.796   2.306
 5821SOL     OW18361   6.640   1.029   1.470
 5821SOL    HW118362   6.714   0.999   1.529
 5821SOL    HW218363   6.663   1.011   1.374
 5822SOL     OW18364   1.282   2.356   2.655
 5822SOL    HW118365   1.356   2.322   2.712
 5822SOL    HW218366   1.248   2.442   2.693
 5823SOL     OW18367   2.113   6.482   4.237
 5823SOL    HW118368   2.153   6.452   4.151
 5823SOL    HW218369   2.169   6.450   4.313
 5824SOL     OW18370   1.022   0.017   2.289
 5824SOL    HW118371   0.965   0.098   2.302
 5824SOL    HW218372   0.978   6.980   2.224
 5825SOL     OW18373   0.222   6.130   4.766
 5825SOL    HW118374   0.245   6.118   4.863
 5825SOL    HW218375   0.260   6.055   4.713
 5826SOL     OW18376   6.957   0.148   5.597
 5826SOL    HW118377   6.878   0.189   5.642
 5826SOL    HW218378   6.927   0.071   5.541
 5827SOL     OW18379   0.956   3.615   5.127
 5827SOL    HW118380   0.949   3.520   5.159
 5827SOL    HW218381   0.866   3.659   5.135
 5828SOL     OW18382   5.306   0.494   4.001
 5828SOL    HW118383   5.272   0.421   4.061
 5828SOL    HW218384   5.229   0.547   3.967
 5829SOL     OW18385   1.289   0.420   5.024
 5829SOL    HW118386   1.250   0.508   4.999
 5829SOL    HW218387   1.359   0.433   5.095
 5830SOL     OW18388   4.261   5.227   5.759
 5830SOL    HW118389   4.356   5.200   5.773
 5830SOL    HW218390   4.201   5.155   5.793
 5831SOL     OW18391   0.804   1.773   5.495
 5831SOL    HW118392   0.749   1.707   5.443
 5831SOL    HW218393   0.794   1.864   5.453
 5832SOL     OW18394   3.614   4.483   1.399
 5832SOL    HW118395   3.654   4.574   1.403
 5832SOL    HW218396   3.586   4.463   1.305
 5833SOL     OW18397   4.276   3.600   5.276
 5833SOL    HW118398   4.247   3.581   5.182
 5833SOL    HW218399   4.197   3.593   5.337
 5834SOL     OW18400   6.799   3.617   6.532
 5834SOL    HW118401   6.728   3.556   6.497
 5834SOL    HW218402   6.889   3.579   6.512
 5835SOL     OW18403   5.962   1.442   2.664
 5835SOL    HW118404   6.020   1.511   2.620
 5835SOL    HW218405   5.991   1.351   2.635
 5836SOL     OW18406   3.309   6.566   2.223
 5836SOL    HW118407   3.285   6.543   2.318
 5836SOL    HW218408   3.388   6.626   2.223
 5837SOL     OW18409   3.675   4.095   0.110
 5837SOL    HW118410   3.728   4.011   0.101
 5837SOL    HW218411   3.684   4.131   0.203
 5838SOL     OW18412   2.769   1.911   1.369
 5838SOL    HW118413   2.852   1.943   1.414
 5838SOL    HW218414   2.773   1.812   1.358
 5839SOL     OW18415   0.406   2.819   1.325
 5839SOL    HW118416   0.430   2.908   1.287
 5839SOL    HW218417   0.456   2.747   1.276
 5840SOL     OW18418   0.075   3.854   1.767
 5840SOL    HW118419   0.141   3.896   1.829
 5840SOL    HW218420   0.013   3.796   1.819
 5841SOL     OW18421   4.859   0.849   1.919
 5841SOL    HW118422   4.824   0.813   1.833
 5841SOL    HW218423   4.895   0.775   1.975
 5842SOL     OW18424   3.865   2.130   0.203
 5842SOL    HW118425   3.822   2.151   0.290
 5842SOL    HW218426   3.796   2.126   0.131
 5843SOL     OW18427   2.222   3.739   1.280
 5843SOL    HW118428   2.299   3.675   1.276
 5843SOL    HW218429   2.137   3.689   1.299
 5844SOL     OW18430   0.489   6.341   4.884
 5844SOL    HW118431   0.515   6.271   4.950
 5844SOL    HW218432   0.548   6.421   4.896
 5845SOL     OW18433   0.361   0.068   1.866
 5845SOL    HW118434   0.392   6.998   1.873
 5845SOL    HW218435   0.281   0.072   1.806
 5846SOL     OW18436   6.547   3.945   5.366
 5846SOL    HW118437   6.448   3.948   5.381
 5846SOL    HW218438   6.566   3.889   5.285
 5847SOL     OW18439   2.781   2.842   1.618
 5847SOL    HW118440   2.856   2.791   1.659
 5847SOL    HW218441   2.694   2.806   1.652
 5848SOL     OW18442   2.345   6.212   4.008
 5848SOL    HW118443   2.375   6.169   3.923
 5848SOL    HW218444   2.399   6.294   4.024
 5849SOL     OW18445   2.094   6.458   5.439
 5849SOL    HW118446   2.138   6.503   5.517
 5849SOL    HW218447   2.022   6.517   5.403
 5850SOL     OW18448   1.259   2.834   1.863
 5850SOL    HW118449   1.324   2.862   1.934
 5850SOL    HW218450   1.215   2.748   1.889
 5851SOL     OW18451   5.355   3.632   3.937
 5851SOL    HW118452   5.432   3.667   3.882
 5851SOL    HW218453   5.307   3.708   3.980
 5852SOL     OW18454   4.355   5.903   3.256
 5852SOL    HW118455   4.337   5.809   3.283
 5852SOL    HW218456   4.394   5.905   3.164
 5853SOL     OW18457   4.240   4.921   4.888
 5853SOL    HW118458   4.307   4.847   4.886
 5853SOL    HW218459   4.270   4.992   4.951
 5854SOL     OW18460   3.872   4.415   5.467
 5854SOL    HW118461   3.848   4.481   5.538
 5854SOL    HW218462   3.948   4.451   5.413
 5855SOL     OW18463   2.132   2.797   3.973
 5855SOL    HW118464   2.144   2.871   4.039
 5855SOL    HW218465   2.064   2.732   4.008
 5856SOL     OW18466   1.425   6.823   2.505
 5856SOL    HW118467   1.441   6.776   2.418
 5856SOL    HW218468   1.372   6.906   2.488
 5857SOL     OW18469   0.149   3.097   5.675
 5857SOL    HW118470   0.109   3.147   5.599
 5857SOL    HW218471   0.234   3.141   5.704
 5858SOL     OW18472   2.371   2.269   2.611
 5858SOL    HW118473   2.413   2.186   2.647
 5858SOL    HW218474   2.430   2.347   2.630
 5859SOL     OW18475   5.682   6.520   1.804
 5859SOL    HW118476   5.738   6.589   1.759
 5859SOL    HW218477   5.618   6.564   1.868
 5860SOL     OW18478   0.833   4.273   3.125
 5860SOL    HW118479   0.810   4.325   3.043
 5860SOL    HW218480   0.761   4.287   3.193
 5861SOL     OW18481   5.480   0.493   4.949
 5861SOL    HW118482   5.570   0.519   4.984
 5861SOL    HW218483   5.411   0.559   4.980
 5862SOL     OW18484   6.131   5.860   2.494
 5862SOL    HW118485   6.065   5.831   2.425
 5862SOL    HW218486   6.224   5.838   2.462
 5863SOL     OW18487   3.139   0.905   4.096
 5863SOL    HW118488   3.204   0.957   4.152
 5863SOL    HW218489   3.132   0.812   4.132
 5864SOL     OW18490   3.456   3.594   2.931
 5864SOL    HW118491   3.490   3.686   2.910
 5864SOL    HW218492   3.451   3.583   3.030
 5865SOL     OW18493   5.580   0.723   5.521
 5865SOL    HW118494   5.621   0.794   5.578
 5865SOL    HW218495   5.484   0.712   5.547
 5866SOL     OW18496   2.913   3.129   0.763
 5866SOL    HW118497   2.904   3.193   0.840
 5866SOL    HW218498   3.010   3.117   0.742
 5867SOL     OW18499   2.044   2.086   1.757
 5867SOL    HW118500   2.113   2.158   1.743
 5867SOL    HW218501   1.966   2.103   1.697
 5868SOL     OW18502   0.727   1.994   5.895
 5868SOL    HW118503   0.811   1.946   5.869
 5868SOL    HW218504   0.726   2.007   5.994
 5869SOL     OW18505   1.426   4.402   3.711
 5869SOL    HW118506   1.516   4.413   3.754
 5869SOL    HW218507   1.419   4.310   3.672
 5870SOL     OW18508   4.097   4.986   5.870
 5870SOL    HW118509   4.012   4.944   5.903
 5870SOL    HW218510   4.099   4.983   5.770
 5871SOL     OW18511   3.931   3.939   2.831
 5871SOL    HW118512   3.941   3.927   2.732
 5871SOL    HW218513   3.857   4.003   2.849
 5872SOL     OW18514   3.968   6.165   1.542
 5872SOL    HW118515   4.044   6.102   1.555
 5872SOL    HW218516   3.984   6.220   1.460
 5873SOL     OW18517   2.870   5.664   2.192
 5873SOL    HW118518   2.875   5.585   2.131
 5873SOL    HW218519   2.962   5.696   2.214
 5874SOL     OW18520   2.214   4.195   5.232
 5874SOL    HW118521   2.256   4.110   5.199
 5874SOL    HW218522   2.131   4.174   5.282
 5875SOL     OW18523   3.316   2.249   0.170
 5875SOL    HW118524   3.313   2.299   0.083
 5875SOL    HW218525   3.240   2.279   0.228
 5876SOL     OW18526   3.825   3.478   2.401
 5876SOL    HW118527   3.794   3.462   2.495
 5876SOL    HW218528   3.893   3.409   2.376
 5877SOL     OW18529   6.028   6.183   0.394
 5877SOL    HW118530   6.012   6.133   0.308
 5877SOL    HW218531   5.985   6.273   0.388
 5878SOL     OW18532   1.349   6.073   4.012
 5878SOL    HW118533   1.439   6.117   4.015
 5878SOL    HW218534   1.278   6.143   4.002
 5879SOL     OW18535   0.147   3.783   0.716
 5879SOL    HW118536   0.168   3.829   0.629
 5879SOL    HW218537   0.203   3.822   0.789
 5880SOL     OW18538   2.955   5.220   0.911
 5880SOL    HW118539   2.882   5.163   0.873
 5880SOL    HW218540   2.983   5.288   0.844
 5881SOL     OW18541   0.413   4.878   3.438
 5881SOL    HW118542   0.479   4.944   3.403
 5881SOL    HW218543   0.341   4.863   3.369
 5882SOL     OW18544   6.376   6.335   1.280
 5882SOL    HW118545   6.303   6.266   1.272
 5882SOL    HW218546   6.451   6.311   1.218
 5883SOL     OW18547   0.923   2.302   6.671
 5883SOL    HW118548   0.895   2.224   6.616
 5883SOL    HW218549   1.022   2.309   6.673
 5884SOL     OW18550   2.458   1.307   3.334
 5884SOL    HW118551   2.430   1.382   3.393
 5884SOL    HW218552   2.509   1.343   3.256
 5885SOL     OW18553   6.665   6.799   1.817
 5885SOL    HW118554   6.698   6.711   1.848
 5885SOL    HW218555   6.565   6.802   1.825
 5886SOL     OW18556   0.461   1.851   5.000
 5886SOL    HW118557   0.451   1.941   4.958
 5886SOL    HW218558   0.465   1.861   5.099
 5887SOL     OW18559   3.714   0.735   3.217
 5887SOL    HW118560   3.813   0.743   3.207
 5887SOL    HW218561   3.669   0.806   3.162
 5888SOL     OW18562   2.678   0.654   2.572
 5888SOL    HW118563   2.704   0.636   2.666
 5888SOL    HW218564   2.598   0.713   2.570
 5889SOL     OW18565   1.614   6.696   1.147
 5889SOL    HW118566   1.672   6.691   1.228
 5889SOL    HW218567   1.671   6.689   1.065
 5890SOL     OW18568   1.202   6.968   6.054
 5890SOL    HW118569   1.142   6.896   6.090
 5890SOL    HW218570   1.293   6.960   6.095
 5891SOL     OW18571   3.709   3.070   5.772
 5891SOL    HW118572   3.636   3.010   5.739
 5891SOL    HW218573   3.770   3.093   5.697
 5892SOL     OW18574   0.720   6.042   1.322
 5892SOL    HW118575   0.695   5.973   1.389
 5892SOL    HW218576   0.792   6.101   1.360
 5893SOL     OW18577   1.511   4.120   3.664
 5893SOL    HW118578   1.584   4.081   3.608
 5893SOL    HW218579   1.546   4.139   3.756
 5894SOL     OW18580   0.835   5.585   3.178
 5894SOL    HW118581   0.812   5.494   3.213
 5894SOL    HW218582   0.918   5.579   3.123
 5895SOL     OW18583   5.301   3.129   3.855
 5895SOL    HW118584   5.336   3.084   3.937
 5895SOL    HW218585   5.339   3.085   3.773
 5896SOL     OW18586   3.795   1.579   0.229
 5896SOL    HW118587   3.769   1.495   0.180
 5896SOL    HW218588   3.872   1.559   0.289
 5897SOL     OW18589   3.316   0.618   1.754
 5897SOL    HW118590   3.268   0.532   1.737
 5897SOL    HW218591   3.281   0.689   1.693
 5898SOL     OW18592   1.815   6.853   3.333
 5898SOL    HW118593   1.840   6.834   3.428
 5898SOL    HW218594   1.734   6.800   3.308
 5899SOL     OW18595   4.906   6.471   5.758
 5899SOL    HW118596   5.002   6.500   5.749
 5899SOL    HW218597   4.902   6.372   5.761
 5900SOL     OW18598   4.557   5.458   3.833
 5900SOL    HW118599   4.637   5.501   3.876
 5900SOL    HW218600   4.568   5.359   3.834
 5901SOL     OW18601   3.124   0.267   6.784
 5901SOL    HW118602   3.103   0.365   6.781
 5901SOL    HW218603   3.041   0.215   6.765
 5902SOL     OW18604   0.038   2.523   6.979
 5902SOL    HW118605   6.999   2.497   6.906
 5902SOL    HW218606   0.029   2.460   0.031
 5903SOL     OW18607   4.374   3.923   0.695
 5903SOL    HW118608   4.466   3.955   0.720
 5903SOL    HW218609   4.308   3.957   0.761
 5904SOL     OW18610   0.761   3.695   2.010
 5904SOL    HW118611   0.796   3.691   1.916
 5904SOL    HW218612   0.753   3.602   2.047
 5905SOL     OW18613   6.969   5.991   3.131
 5905SOL    HW118614   6.917   5.911   3.099
 5905SOL    HW218615   6.992   5.979   3.228
 5906SOL     OW18616   4.597   1.391   4.517
 5906SOL    HW118617   4.619   1.359   4.425
 5906SOL    HW218618   4.509   1.439   4.516
 5907SOL     OW18619   1.930   5.929   2.535
 5907SOL    HW118620   1.983   5.844   2.533
 5907SOL    HW218621   1.965   5.993   2.466
 5908SOL     OW18622   0.874   2.326   5.569
 5908SOL    HW118623   0.831   2.303   5.656
 5908SOL    HW218624   0.952   2.387   5.586
 5909SOL     OW18625   6.880   5.238   0.962
 5909SOL    HW118626   6.887   5.325   0.913
 5909SOL    HW218627   6.837   5.170   0.903
 5910SOL     OW18628   0.974   3.070   3.517
 5910SOL    HW118629   1.060   3.115   3.541
 5910SOL    HW218630   0.994   2.984   3.470
 5911SOL     OW18631   6.603   5.823   6.787
 5911SOL    HW118632   6.531   5.812   6.856
 5911SOL    HW218633   6.562   5.858   6.702
 5912SOL     OW18634   6.442   1.153   5.146
 5912SOL    HW118635   6.398   1.233   5.188
 5912SOL    HW218636   6.385   1.072   5.162
 5913SOL     OW18637   4.512   2.881   6.591
 5913SOL    HW118638   4.519   2.782   6.607
 5913SOL    HW218639   4.604   2.918   6.574
 5914SOL     OW18640   0.675   6.465   6.795
 5914SOL    HW118641   0.755   6.518   6.765
 5914SOL    HW218642   0.671   6.379   6.744
 5915SOL     OW18643   4.253   5.900   0.778
 5915SOL    HW118644   4.193   5.826   0.747
 5915SOL    HW218645   4.298   5.942   0.699
 5916SOL     OW18646   6.843   6.369   2.509
 5916SOL    HW118647   6.863   6.414   2.422
 5916SOL    HW218648   6.884   6.278   2.510
 5917SOL     OW18649   3.316   3.868   5.223
 5917SOL    HW118650   3.254   3.867   5.301
 5917SOL    HW218651   3.285   3.935   5.156
 5918SOL     OW18652   1.693   4.871   5.839
 5918SOL    HW118653   1.779   4.872   5.890
 5918SOL    HW218654   1.621   4.833   5.898
 5919SOL     OW18655   2.917   3.489   2.762
 5919SOL    HW118656   2.963   3.521   2.679
 5919SOL    HW218657   2.905   3.390   2.757
 5920SOL     OW18658   5.330   0.494   6.509
 5920SOL    HW118659   5.383   0.484   6.425
 5920SOL    HW218660   5.311   0.591   6.525
 5921SOL     OW18661   4.233   5.349   6.230
 5921SOL    HW118662   4.269   5.278   6.290
 5921SOL    HW218663   4.141   5.324   6.200
 5922SOL     OW18664   6.216   3.700   4.440
 5922SOL    HW118665   6.271   3.640   4.382
 5922SOL    HW218666   6.152   3.751   4.382
 5923SOL     OW18667   6.813   0.976   2.253
 5923SOL    HW118668   6.876   0.915   2.205
 5923SOL    HW218669   6.746   0.922   2.303
 5924SOL     OW18670   5.729   6.853   2.309
 5924SOL    HW118671   5.706   6.790   2.235
 5924SOL    HW218672   5.828   6.853   2.324
 5925SOL     OW18673   3.474   6.222   2.066
 5925SOL    HW118674   3.550   6.175   2.022
 5925SOL    HW218675   3.438   6.166   2.141
 5926SOL     OW18676   4.828   4.556   2.586
 5926SOL    HW118677   4.914   4.594   2.551
 5926SOL    HW218678   4.788   4.495   2.517
 5927SOL     OW18679   1.218   4.183   1.863
 5927SOL    HW118680   1.265   4.097   1.880
 5927SOL    HW218681   1.265   4.257   1.912
 5928SOL     OW18682   3.447   6.555   1.700
 5928SOL    HW118683   3.356   6.573   1.740
 5928SOL    HW218684   3.436   6.519   1.608
 5929SOL     OW18685   5.528   0.599   5.852
 5929SOL    HW118686   5.478   0.640   5.776
 5929SOL    HW218687   5.525   0.660   5.931
 5930SOL     OW18688   0.847   2.848   2.970
 5930SOL    HW118689   0.940   2.883   2.963
 5930SOL    HW218690   0.814   2.821   2.880
 5931SOL     OW18691   6.177   6.057   2.670
 5931SOL    HW118692   6.114   6.034   2.744
 5931SOL    HW218693   6.168   5.989   2.597
 5932SOL     OW18694   3.482   0.188   0.054
 5932SOL    HW118695   3.550   0.134   0.104
 5932SOL    HW218696   3.396   0.188   0.105
 5933SOL     OW18697   6.956   4.779   4.336
 5933SOL    HW118698   6.971   4.821   4.246
 5933SOL    HW218699   6.867   4.808   4.371
 5934SOL     OW18700   3.700   2.773   5.188
 5934SOL    HW118701   3.763   2.695   5.182
 5934SOL    HW218702   3.722   2.839   5.117
 5935SOL     OW18703   0.176   5.686   6.039
 5935SOL    HW118704   0.219   5.617   5.980
 5935SOL    HW218705   0.113   5.741   5.985
 5936SOL     OW18706   2.949   3.640   2.117
 5936SOL    HW118707   3.000   3.554   2.126
 5936SOL    HW218708   2.888   3.634   2.038
 5937SOL     OW18709   6.001   3.202   2.096
 5937SOL    HW118710   6.030   3.107   2.110
 5937SOL    HW218711   5.913   3.204   2.049
 5938SOL     OW18712   6.542   6.251   4.454
 5938SOL    HW118713   6.612   6.298   4.400
 5938SOL    HW218714   6.455   6.298   4.444
 5939SOL     OW18715   3.143   6.370   4.104
 5939SOL    HW118716   3.170   6.275   4.120
 5939SOL    HW218717   3.060   6.390   4.156
 5940SOL     OW18718   4.115   5.141   3.781
 5940SOL    HW118719   4.194   5.156   3.841
 5940SOL    HW218720   4.058   5.068   3.819
 5941SOL     OW18721   5.546   2.880   2.917
 5941SOL    HW118722   5.492   2.888   2.833
 5941SOL    HW218723   5.539   2.966   2.968
 5942SOL     OW18724   5.296   3.561   6.643
 5942SOL    HW118725   5.241   3.481   6.621
 5942SOL    HW218726   5.338   3.548   6.734
 5943SOL     OW18727   3.316   3.111   5.972
 5943SOL    HW118728   3.387   3.180   5.958
 5943SOL    HW218729   3.355   3.033   6.022
 5944SOL     OW18730   0.980   2.597   0.430
 5944SOL    HW118731   0.921   2.637   0.359
 5944SOL    HW218732   0.931   2.599   0.518
 5945SOL     OW18733   0.202   5.356   5.214
 5945SOL    HW118734   0.176   5.384   5.307
 5945SOL    HW218735   0.301   5.357   5.205
 5946SOL     OW18736   3.424   4.429   0.235
 5946SOL    HW118737   3.337   4.387   0.211
 5946SOL    HW218738   3.420   4.527   0.215
 5947SOL     OW18739   3.461   3.460   3.188
 5947SOL    HW118740   3.387   3.487   3.251
 5947SOL    HW218741   3.463   3.361   3.180
 5948SOL     OW18742   4.230   4.676   2.497
 5948SOL    HW118743   4.294   4.605   2.469
 5948SOL    HW218744   4.142   4.662   2.452
 5949SOL     OW18745   5.418   5.153   1.134
 5949SOL    HW118746   5.328   5.124   1.167
 5949SOL    HW218747   5.472   5.188   1.211
 5950SOL     OW18748   5.507   2.064   5.086
 5950SOL    HW118749   5.417   2.037   5.053
 5950SOL    HW218750   5.570   2.069   5.008
 5951SOL     OW18751   0.777   5.460   5.314
 5951SOL    HW118752   0.748   5.556   5.318
 5951SOL    HW218753   0.797   5.427   5.406
 5952SOL     OW18754   4.842   5.683   3.338
 5952SOL    HW118755   4.815   5.740   3.260
 5952SOL    HW218756   4.827   5.734   3.423
 5953SOL     OW18757   6.691   4.486   5.048
 5953SOL    HW118758   6.664   4.429   4.970
 5953SOL    HW218759   6.675   4.582   5.026
 5954SOL     OW18760   0.147   5.510   4.952
 5954SOL    HW118761   0.137   5.432   5.014
 5954SOL    HW218762   0.238   5.549   4.962
 5955SOL     OW18763   4.312   4.892   2.253
 5955SOL    HW118764   4.253   4.963   2.292
 5955SOL    HW218765   4.394   4.882   2.309
 5956SOL     OW18766   5.908   2.146   3.866
 5956SOL    HW118767   5.941   2.135   3.772
 5956SOL    HW218768   5.821   2.195   3.866
 5957SOL     OW18769   2.734   1.889   4.052
 5957SOL    HW118770   2.640   1.864   4.075
 5957SOL    HW218771   2.797   1.841   4.114
 5958SOL     OW18772   4.119   0.389   2.462
 5958SOL    HW118773   4.024   0.411   2.485
 5958SOL    HW218774   4.157   0.462   2.406
 5959SOL     OW18775   4.703   2.590   5.504
 5959SOL    HW118776   4.687   2.684   5.475
 5959SOL    HW218777   4.646   2.569   5.584
 5960SOL     OW18778   3.454   6.143   4.569
 5960SOL    HW118779   3.432   6.047   4.552
 5960SOL    HW218780   3.401   6.201   4.508
 5961SOL     OW18781   4.464   1.622   2.705
 5961SOL    HW118782   4.448   1.626   2.804
 5961SOL    HW218783   4.539   1.559   2.687
 5962SOL     OW18784   5.630   5.696   5.734
 5962SOL    HW118785   5.543   5.651   5.712
 5962SOL    HW218786   5.627   5.790   5.700
 5963SOL     OW18787   3.202   3.728   6.477
 5963SOL    HW118788   3.285   3.672   6.475
 5963SOL    HW218789   3.127   3.678   6.435
 5964SOL     OW18790   2.122   6.674   4.660
 5964SOL    HW118791   2.115   6.576   4.639
 5964SOL    HW218792   2.038   6.720   4.630
 5965SOL     OW18793   2.364   0.843   0.225
 5965SOL    HW118794   2.433   0.879   0.162
 5965SOL    HW218795   2.379   0.882   0.316
 5966SOL     OW18796   1.125   6.688   6.548
 5966SOL    HW118797   1.031   6.689   6.515
 5966SOL    HW218798   1.129   6.637   6.634
 5967SOL     OW18799   2.223   0.261   6.219
 5967SOL    HW118800   2.175   0.197   6.159
 5967SOL    HW218801   2.255   0.340   6.166
 5968SOL     OW18802   5.603   2.065   6.872
 5968SOL    HW118803   5.582   2.163   6.868
 5968SOL    HW218804   5.638   2.035   6.783
 5969SOL     OW18805   5.518   1.093   6.943
 5969SOL    HW118806   5.517   1.135   0.010
 5969SOL    HW218807   5.505   1.164   6.874
 5970SOL     OW18808   0.548   4.860   0.880
 5970SOL    HW118809   0.555   4.808   0.794
 5970SOL    HW218810   0.485   4.936   0.867
 5971SOL     OW18811   6.988   0.414   0.905
 5971SOL    HW118812   0.034   0.370   0.961
 5971SOL    HW218813   7.010   0.511   0.895
 5972SOL     OW18814   4.909   5.982   6.744
 5972SOL    HW118815   4.816   5.951   6.762
 5972SOL    HW218816   4.927   6.066   6.794
 5973SOL     OW18817   1.738   2.772   2.887
 5973SOL    HW118818   1.795   2.845   2.924
 5973SOL    HW218819   1.773   2.683   2.917
 5974SOL     OW18820   5.109   0.021   0.081
 5974SOL    HW118821   5.118   6.988   0.163
 5974SOL    HW218822   5.066   0.108   0.107
 5975SOL     OW18823   3.867   6.542   1.199
 5975SOL    HW118824   3.850   6.581   1.109
 5975SOL    HW218825   3.873   6.616   1.267
 5976SOL     OW18826   3.730   2.904   5.489
 5976SOL    HW118827   3.790   2.970   5.534
 5976SOL    HW218828   3.635   2.926   5.510
 5977SOL     OW18829   1.022   5.906   0.045
 5977SOL    HW118830   0.954   5.833   0.057
 5977SOL    HW218831   1.086   5.905   0.123
 5978SOL     OW18832   3.354   5.585   1.635
 5978SOL    HW118833   3.329   5.594   1.732
 5978SOL    HW218834   3.454   5.586   1.626
 5979SOL     OW18835   6.779   0.709   1.960
 5979SOL    HW118836   6.823   0.762   2.032
 5979SOL    HW218837   6.818   0.617   1.957
 5980SOL     OW18838   4.118   3.679   1.485
 5980SOL    HW118839   4.216   3.662   1.474
 5980SOL    HW218840   4.075   3.687   1.395
 5981SOL     OW18841   4.967   1.571   6.839
 5981SOL    HW118842   5.008   1.613   6.920
 5981SOL    HW218843   5.038   1.531   6.782
 5982SOL     OW18844   6.071   1.904   2.564
 5982SOL    HW118845   6.001   1.970   2.592
 5982SOL    HW218846   6.102   1.853   2.644
 5983SOL     OW18847   1.245   1.181   4.142
 5983SOL    HW118848   1.161   1.135   4.170
 5983SOL    HW218849   1.240   1.278   4.169
 5984SOL     OW18850   5.093   6.840   3.159
 5984SOL    HW118851   5.084   6.842   3.059
 5984SOL    HW218852   5.120   6.748   3.188
 5985SOL     OW18853   6.856   3.156   3.724
 5985SOL    HW118854   6.766   3.193   3.742
 5985SOL    HW218855   6.880   3.171   3.628
 5986SOL     OW18856   3.583   3.916   5.300
 5986SOL    HW118857   3.589   4.008   5.261
 5986SOL    HW218858   3.494   3.877   5.279
 5987SOL     OW18859   5.531   0.203   4.699
 5987SOL    HW118860   5.470   0.221   4.622
 5987SOL    HW218861   5.488   0.234   4.783
 5988SOL     OW18862   4.146   0.623   6.697
 5988SOL    HW118863   4.070   0.640   6.633
 5988SOL    HW218864   4.127   0.670   6.783
 5989SOL     OW18865   1.739   5.380   6.032
 5989SOL    HW118866   1.780   5.374   6.123
 5989SOL    HW218867   1.678   5.459   6.029
 5990SOL     OW18868   3.698   3.591   6.947
 5990SOL    HW118869   3.768   3.598   6.877
 5990SOL    HW218870   3.640   3.673   6.945
 5991SOL     OW18871   4.631   5.971   6.727
 5991SOL    HW118872   4.580   6.011   6.803
 5991SOL    HW218873   4.622   5.872   6.729
 5992SOL     OW18874   3.472   0.001   2.176
 5992SOL    HW118875   3.498   0.063   2.250
 5992SOL    HW218876   3.458   0.053   2.092
 5993SOL     OW18877   4.675   3.902   6.049
 5993SOL    HW118878   4.668   3.911   6.148
 5993SOL    HW218879   4.586   3.921   6.007
 5994SOL     OW18880   6.432   2.319   0.218
 5994SOL    HW118881   6.518   2.358   0.252
 5994SOL    HW218882   6.355   2.363   0.263
 5995SOL     OW18883   5.282   3.425   2.179
 5995SOL    HW118884   5.184   3.410   2.180
 5995SOL    HW218885   5.307   3.484   2.102
 5996SOL     OW18886   0.835   5.613   1.201
 5996SOL    HW118887   0.846   5.564   1.114
 5996SOL    HW218888   0.739   5.636   1.214
 5997SOL     OW18889   1.088   6.307   2.954
 5997SOL    HW118890   1.124   6.250   2.880
 5997SOL    HW218891   1.110   6.266   3.042
 5998SOL     OW18892   6.425   1.511   2.482
 5998SOL    HW118893   6.328   1.524   2.505
 5998SOL    HW218894   6.432   1.452   2.402
 5999SOL     OW18895   2.980   2.750   1.419
 5999SOL    HW118896   2.896   2.802   1.426
 5999SOL    HW218897   3.006   2.716   1.509
 6000SOL     OW18898   1.248   6.409   0.745
 6000SOL    HW118899   1.174   6.443   0.687
 6000SOL    HW218900   1.275   6.480   0.810
 6001SOL     OW18901   6.720   4.833   0.043
 6001SOL    HW118902   6.652   4.855   0.112
 6001SOL    HW218903   6.736   4.734   0.043
 6002SOL     OW18904   6.477   0.014   5.941
 6002SOL    HW118905   6.380   0.033   5.955
 6002SOL    HW218906   6.525   0.099   5.916
 6003SOL     OW18907   6.132   2.307   5.113
 6003SOL    HW118908   6.100   2.389   5.065
 6003SOL    HW218909   6.065   2.234   5.103
 6004SOL     OW18910   6.212   2.684   3.890
 6004SOL    HW118911   6.217   2.662   3.793
 6004SOL    HW218912   6.300   2.668   3.933
 6005SOL     OW18913   6.309   4.874   4.717
 6005SOL    HW118914   6.246   4.820   4.772
 6005SOL    HW218915   6.261   4.953   4.680
 6006SOL     OW18916   2.863   0.867   5.070
 6006SOL    HW118917   2.922   0.911   5.002
 6006SOL    HW218918   2.919   0.835   5.147
 6007SOL     OW18919   0.041   3.269   6.064
 6007SOL    HW118920   7.018   3.357   6.059
 6007SOL    HW218921   0.123   3.279   6.121
 6008SOL     OW18922   2.815   4.782   5.516
 6008SOL    HW118923   2.793   4.706   5.455
 6008SOL    HW218924   2.731   4.826   5.547
 6009SOL     OW18925   3.780   6.849   3.475
 6009SOL    HW118926   3.710   6.881   3.539
 6009SOL    HW218927   3.867   6.896   3.495
 6010SOL     OW18928   0.821   4.372   3.738
 6010SOL    HW118929   0.813   4.469   3.714
 6010SOL    HW218930   0.734   4.326   3.719
 6011SOL     OW18931   4.921   3.372   2.917
 6011SOL    HW118932   4.971   3.442   2.868
 6011SOL    HW218933   4.924   3.391   3.015
 6012SOL     OW18934   6.027   0.508   0.554
 6012SOL    HW118935   6.067   0.462   0.633
 6012SOL    HW218936   6.003   0.439   0.485
 6013SOL     OW18937   5.071   0.897   3.063
 6013SOL    HW118938   5.034   0.946   2.984
 6013SOL    HW218939   5.020   0.922   3.145
 6014SOL     OW18940   3.115   3.965   3.347
 6014SOL    HW118941   3.170   3.954   3.264
 6014SOL    HW218942   3.151   4.043   3.400
 6015SOL     OW18943   6.049   3.930   4.851
 6015SOL    HW118944   6.120   3.922   4.781
 6015SOL    HW218945   5.964   3.961   4.809
 6016SOL     OW18946   6.024   1.402   5.735
 6016SOL    HW118947   6.043   1.465   5.659
 6016SOL    HW218948   5.926   1.383   5.739
 6017SOL     OW18949   6.700   5.082   4.368
 6017SOL    HW118950   6.710   4.989   4.403
 6017SOL    HW218951   6.701   5.081   4.268
 6018SOL     OW18952   3.352   1.355   5.330
 6018SOL    HW118953   3.267   1.303   5.327
 6018SOL    HW218954   3.423   1.300   5.375
 6019SOL     OW18955   0.617   3.075   5.448
 6019SOL    HW118956   0.714   3.092   5.464
 6019SOL    HW218957   0.573   3.159   5.416
 6020SOL     OW18958   1.301   5.480   0.321
 6020SOL    HW118959   1.297   5.564   0.376
 6020SOL    HW218960   1.224   5.421   0.345
 6021SOL     OW18961   4.455   0.271   3.046
 6021SOL    HW118962   4.414   0.230   2.965
 6021SOL    HW218963   4.453   0.371   3.038
 6022SOL     OW18964   0.179   1.729   3.285
 6022SOL    HW118965   0.125   1.664   3.232
 6022SOL    HW218966   0.151   1.822   3.261
 6023SOL     OW18967   4.955   0.620   2.060
 6023SOL    HW118968   4.889   0.545   2.073
 6023SOL    HW218969   4.948   0.684   2.136
 6024SOL     OW18970   1.144   4.471   1.066
 6024SOL    HW118971   1.202   4.433   1.137
 6024SOL    HW218972   1.147   4.571   1.070
 6025SOL     OW18973   3.118   1.916   2.957
 6025SOL    HW118974   3.159   1.956   3.039
 6025SOL    HW218975   3.189   1.903   2.887
 6026SOL     OW18976   0.291   5.721   4.741
 6026SOL    HW118977   0.318   5.664   4.664
 6026SOL    HW218978   0.294   5.667   4.825
 6027SOL     OW18979   0.033   3.585   6.453
 6027SOL    HW118980   0.021   3.668   6.398
 6027SOL    HW218981   0.044   3.506   6.393
 6028SOL     OW18982   5.493   4.444   1.321
 6028SOL    HW118983   5.506   4.405   1.230
 6028SOL    HW218984   5.562   4.408   1.384
 6029SOL     OW18985   2.868   6.843   3.660
 6029SOL    HW118986   2.922   6.905   3.603
 6029SOL    HW218987   2.833   6.894   3.739
 6030SOL     OW18988   5.291   4.289   4.513
 6030SOL    HW118989   5.339   4.256   4.594
 6030SOL    HW218990   5.317   4.235   4.434
 6031SOL     OW18991   2.712   5.743   4.294
 6031SOL    HW118992   2.780   5.716   4.363
 6031SOL    HW218993   2.646   5.806   4.335
 6032SOL     OW18994   2.676   4.957   2.698
 6032SOL    HW118995   2.713   5.043   2.733
 6032SOL    HW218996   2.579   4.951   2.720
 6033SOL     OW18997   2.212   3.102   2.673
 6033SOL    HW118998   2.236   3.013   2.635
 6033SOL    HW218999   2.287   3.135   2.730
 6034SOL     OW19000   0.979   0.741   6.156
 6034SOL    HW119001   0.933   0.829   6.167
 6034SOL    HW219002   0.931   0.671   6.210
 6035SOL     OW19003   1.465   0.744   2.013
 6035SOL    HW119004   1.554   0.779   1.984
 6035SOL    HW219005   1.411   0.820   2.050
 6036SOL     OW19006   5.568   4.685   1.900
 6036SOL    HW119007   5.505   4.675   1.822
 6036SOL    HW219008   5.556   4.775   1.942
 6037SOL     OW19009   3.897   6.953   0.781
 6037SOL    HW119010   3.959   6.882   0.814
 6037SOL    HW219011   3.913   6.969   0.683
 6038SOL     OW19012   1.400   2.548   6.710
 6038SOL    HW119013   1.415   2.630   6.655
 6038SOL    HW219014   1.486   2.497   6.718
 6039SOL     OW19015   3.554   3.142   3.430
 6039SOL    HW119016   3.546   3.212   3.500
 6039SOL    HW219017   3.469   3.088   3.427
 6040SOL     OW19018   1.610   1.278   0.640
 6040SOL    HW119019   1.614   1.353   0.574
 6040SOL    HW219020   1.702   1.245   0.658
 6041SOL     OW19021   2.956   2.155   4.880
 6041SOL    HW119022   2.860   2.163   4.906
 6041SOL    HW219023   3.011   2.218   4.936
 6042SOL     OW19024   3.707   6.627   2.882
 6042SOL    HW119025   3.650   6.548   2.861
 6042SOL    HW219026   3.747   6.616   2.973
 6043SOL     OW19027   0.586   0.148   4.849
 6043SOL    HW119028   0.573   0.141   4.948
 6043SOL    HW219029   0.635   0.068   4.816
 6044SOL     OW19030   2.655   2.366   1.777
 6044SOL    HW119031   2.744   2.373   1.822
 6044SOL    HW219032   2.650   2.433   1.702
 6045SOL     OW19033   5.825   3.348   3.685
 6045SOL    HW119034   5.777   3.352   3.773
 6045SOL    HW219035   5.920   3.321   3.700
 6046SOL     OW19036   3.504   2.725   0.761
 6046SOL    HW119037   3.510   2.820   0.732
 6046SOL    HW219038   3.593   2.681   0.747
 6047SOL     OW19039   5.155   2.499   1.632
 6047SOL    HW119040   5.166   2.487   1.534
 6047SOL    HW219041   5.243   2.522   1.673
 6048SOL     OW19042   5.055   5.232   5.041
 6048SOL    HW119043   5.062   5.147   4.988
 6048SOL    HW219044   4.965   5.236   5.084
 6049SOL     OW19045   4.823   4.490   6.515
 6049SOL    HW119046   4.795   4.446   6.600
 6049SOL    HW219047   4.788   4.436   6.438
 6050SOL     OW19048   1.699   5.254   0.116
 6050SOL    HW119049   1.680   5.348   0.087
 6050SOL    HW219050   1.709   5.251   0.215
 6051SOL     OW19051   1.899   6.321   2.985
 6051SOL    HW119052   1.940   6.385   3.049
 6051SOL    HW219053   1.928   6.228   3.006
 6052SOL     OW19054   4.961   1.709   1.763
 6052SOL    HW119055   4.971   1.715   1.664
 6052SOL    HW219056   4.919   1.793   1.798
 6053SOL     OW19057   4.025   0.730   5.758
 6053SOL    HW119058   4.049   0.698   5.850
 6053SOL    HW219059   4.105   0.725   5.699
 6054SOL     OW19060   2.721   3.911   0.665
 6054SOL    HW119061   2.719   3.859   0.580
 6054SOL    HW219062   2.809   3.956   0.675
 6055SOL     OW19063   4.076   5.604   5.437
 6055SOL    HW119064   4.131   5.521   5.445
 6055SOL    HW219065   4.136   5.683   5.430
 6056SOL     OW19066   4.992   3.416   5.094
 6056SOL    HW119067   4.936   3.490   5.057
 6056SOL    HW219068   5.088   3.433   5.071
 6057SOL     OW19069   6.042   0.554   2.080
 6057SOL    HW119070   6.069   0.485   2.146
 6057SOL    HW219071   5.979   0.514   2.013
 6058SOL     OW19072   5.365   4.080   0.322
 6058SOL    HW119073   5.302   4.019   0.273
 6058SOL    HW219074   5.406   4.030   0.398
 6059SOL     OW19075   4.754   4.387   6.015
 6059SOL    HW119076   4.815   4.408   6.091
 6059SOL    HW219077   4.696   4.466   5.995
 6060SOL     OW19078   2.363   3.526   6.615
 6060SOL    HW119079   2.325   3.542   6.706
 6060SOL    HW219080   2.312   3.580   6.548
 6061SOL     OW19081   4.852   4.151   0.238
 6061SOL    HW119082   4.780   4.188   0.179
 6061SOL    HW219083   4.852   4.201   0.325
 6062SOL     OW19084   2.482   1.649   6.559
 6062SOL    HW119085   2.422   1.586   6.512
 6062SOL    HW219086   2.481   1.738   6.512
 6063SOL     OW19087   3.956   2.677   5.540
 6063SOL    HW119088   3.874   2.676   5.596
 6063SOL    HW219089   3.968   2.588   5.497
 6064SOL     OW19090   1.368   1.028   0.955
 6064SOL    HW119091   1.465   1.030   0.928
 6064SOL    HW219092   1.341   0.933   0.971
 6065SOL     OW19093   0.834   6.155   1.971
 6065SOL    HW119094   0.822   6.062   1.935
 6065SOL    HW219095   0.921   6.192   1.938
 6066SOL     OW19096   5.568   1.032   5.907
 6066SOL    HW119097   5.615   1.052   5.993
 6066SOL    HW219098   5.522   1.115   5.874
 6067SOL     OW19099   4.865   0.569   5.452
 6067SOL    HW119100   4.814   0.548   5.535
 6067SOL    HW219101   4.829   0.516   5.376
 6068SOL     OW19102   5.141   2.669   4.590
 6068SOL    HW119103   5.092   2.584   4.571
 6068SOL    HW219104   5.146   2.683   4.689
 6069SOL     OW19105   6.288   3.432   5.162
 6069SOL    HW119106   6.209   3.493   5.164
 6069SOL    HW219107   6.370   3.481   5.192
 6070SOL     OW19108   2.724   2.623   1.327
 6070SOL    HW119109   2.659   2.574   1.269
 6070SOL    HW219110   2.711   2.721   1.315
 6071SOL     OW19111   0.939   6.009   4.821
 6071SOL    HW119112   0.844   6.031   4.845
 6071SOL    HW219113   0.991   6.094   4.812
 6072SOL     OW19114   0.203   0.679   1.424
 6072SOL    HW119115   0.280   0.621   1.448
 6072SOL    HW219116   0.118   0.639   1.461
 6073SOL     OW19117   5.068   3.416   0.733
 6073SOL    HW119118   5.165   3.397   0.745
 6073SOL    HW219119   5.026   3.342   0.680
 6074SOL     OW19120   1.838   5.955   2.150
 6074SOL    HW119121   1.768   5.901   2.198
 6074SOL    HW219122   1.794   6.011   2.080
 6075SOL     OW19123   4.663   6.854   5.422
 6075SOL    HW119124   4.699   6.761   5.417
 6075SOL    HW219125   4.736   6.917   5.448
 6076SOL     OW19126   2.948   5.069   3.163
 6076SOL    HW119127   2.855   5.101   3.149
 6076SOL    HW219128   3.012   5.145   3.155
 6077SOL     OW19129   6.196   5.284   0.879
 6077SOL    HW119130   6.129   5.210   0.883
 6077SOL    HW219131   6.281   5.251   0.838
 6078SOL     OW19132   4.921   4.935   0.260
 6078SOL    HW119133   4.892   4.864   0.195
 6078SOL    HW219134   4.973   5.005   0.212
 6079SOL     OW19135   4.847   3.969   6.454
 6079SOL    HW119136   4.856   3.912   6.372
 6079SOL    HW219137   4.819   3.913   6.531
 6080SOL     OW19138   0.225   5.473   0.591
 6080SOL    HW119139   0.226   5.562   0.544
 6080SOL    HW219140   0.136   5.430   0.578
 6081SOL     OW19141   0.090   2.381   5.579
 6081SOL    HW119142   0.116   2.343   5.667
 6081SOL    HW219143   0.059   2.308   5.518
 6082SOL     OW19144   2.890   0.121   2.583
 6082SOL    HW119145   2.882   0.207   2.634
 6082SOL    HW219146   2.934   0.138   2.495
 6083SOL     OW19147   5.904   6.096   0.608
 6083SOL    HW119148   5.951   6.101   0.520
 6083SOL    HW219149   5.807   6.078   0.592
 6084SOL     OW19150   0.690   6.753   2.100
 6084SOL    HW119151   0.769   6.705   2.061
 6084SOL    HW219152   0.707   6.773   2.196
 6085SOL     OW19153   6.956   6.480   6.729
 6085SOL    HW119154   6.922   6.571   6.709
 6085SOL    HW219155   6.935   6.419   6.652
 6086SOL     OW19156   2.319   2.224   5.834
 6086SOL    HW119157   2.317   2.212   5.735
 6086SOL    HW219158   2.290   2.317   5.857
 6087SOL     OW19159   3.604   6.153   1.369
 6087SOL    HW119160   3.515   6.196   1.380
 6087SOL    HW219161   3.651   6.191   1.289
 6088SOL     OW19162   6.032   0.174   4.349
 6088SOL    HW119163   5.979   0.253   4.317
 6088SOL    HW219164   6.121   0.204   4.382
 6089SOL     OW19165   5.740   2.562   2.806
 6089SOL    HW119166   5.822   2.518   2.771
 6089SOL    HW219167   5.755   2.660   2.815
 6090SOL     OW19168   2.406   5.301   4.540
 6090SOL    HW119169   2.412   5.277   4.443
 6090SOL    HW219170   2.414   5.218   4.595
 6091SOL     OW19171   2.306   1.799   6.910
 6091SOL    HW119172   2.394   1.752   6.899
 6091SOL    HW219173   2.280   1.797   7.007
 6092SOL     OW19174   4.615   0.958   2.533
 6092SOL    HW119175   4.601   1.026   2.461
 6092SOL    HW219176   4.637   0.870   2.492
 6093SOL     OW19177   2.386   2.558   1.891
 6093SOL    HW119178   2.294   2.520   1.904
 6093SOL    HW219179   2.451   2.511   1.951
 6094SOL     OW19180   1.465   5.700   3.169
 6094SOL    HW119181   1.531   5.707   3.094
 6094SOL    HW219182   1.418   5.788   3.180
 6095SOL     OW19183   4.553   5.066   6.873
 6095SOL    HW119184   4.463   5.099   6.845
 6095SOL    HW219185   4.577   5.107   6.961
 6096SOL     OW19186   6.627   6.986   2.086
 6096SOL    HW119187   6.559   7.017   2.154
 6096SOL    HW219188   6.583   6.924   2.022
 6097SOL     OW19189   2.284   5.669   2.674
 6097SOL    HW119190   2.210   5.679   2.606
 6097SOL    HW219191   2.372   5.666   2.627
 6098SOL     OW19192   6.994   1.730   5.788
 6098SOL    HW119193   0.046   1.762   5.845
 6098SOL    HW219194   7.021   1.732   5.692
 6099SOL     OW19195   5.022   5.946   5.376
 6099SOL    HW119196   4.981   6.021   5.429
 6099SOL    HW219197   5.121   5.960   5.370
 6100SOL     OW19198   5.658   6.293   1.682
 6100SOL    HW119199   5.577   6.309   1.625
 6100SOL    HW219200   5.676   6.374   1.737
 6101SOL     OW19201   7.020   2.850   2.941
 6101SOL    HW119202   6.968   2.917   2.993
 6101SOL    HW219203   0.050   2.897   2.871
 6102SOL     OW19204   4.146   6.083   3.117
 6102SOL    HW119205   4.195   6.047   3.195
 6102SOL    HW219206   4.055   6.041   3.112
 6103SOL     OW19207   5.902   1.228   1.566
 6103SOL    HW119208   5.824   1.269   1.612
 6103SOL    HW219209   5.968   1.299   1.542
 6104SOL     OW19210   5.908   6.865   5.116
 6104SOL    HW119211   5.944   6.939   5.059
 6104SOL    HW219212   5.946   6.778   5.084
 6105SOL     OW19213   2.055   5.600   6.260
 6105SOL    HW119214   2.001   5.646   6.330
 6105SOL    HW219215   2.031   5.503   6.258
 6106SOL     OW19216   1.421   5.105   6.039
 6106SOL    HW119217   1.513   5.094   6.078
 6106SOL    HW219218   1.429   5.128   5.942
 6107SOL     OW19219   4.588   5.561   5.244
 6107SOL    HW119220   4.587   5.611   5.157
 6107SOL    HW219221   4.672   5.506   5.250
 6108SOL     OW19222   2.217   2.893   3.518
 6108SOL    HW119223   2.222   2.953   3.598
 6108SOL    HW219224   2.144   2.826   3.530
 6109SOL     OW19225   5.713   1.242   5.530
 6109SOL    HW119226   5.645   1.306   5.565
 6109SOL    HW219227   5.785   1.292   5.482
 6110SOL     OW19228   2.413   3.296   1.127
 6110SOL    HW119229   2.322   3.255   1.137
 6110SOL    HW219230   2.478   3.225   1.099
 6111SOL     OW19231   1.531   3.152   2.313
 6111SOL    HW119232   1.611   3.116   2.263
 6111SOL    HW219233   1.553   3.159   2.410
 6112SOL     OW19234   3.868   0.506   2.528
 6112SOL    HW119235   3.865   0.489   2.626
 6112SOL    HW219236   3.923   0.588   2.509
 6113SOL     OW19237   2.456   2.395   6.336
 6113SOL    HW119238   2.498   2.305   6.323
 6113SOL    HW219239   2.500   2.442   6.412
 6114SOL     OW19240   4.739   4.299   2.714
 6114SOL    HW119241   4.742   4.213   2.765
 6114SOL    HW219242   4.774   4.284   2.621
 6115SOL     OW19243   6.400   0.591   4.419
 6115SOL    HW119244   6.484   0.542   4.441
 6115SOL    HW219245   6.388   0.595   4.320
 6116SOL     OW19246   3.588   1.362   6.143
 6116SOL    HW119247   3.494   1.351   6.175
 6116SOL    HW219248   3.651   1.323   6.209
 6117SOL     OW19249   2.052   1.787   3.495
 6117SOL    HW119250   1.989   1.824   3.426
 6117SOL    HW219251   2.111   1.719   3.452
 6118SOL     OW19252   5.604   1.399   1.329
 6118SOL    HW119253   5.692   1.416   1.374
 6118SOL    HW219254   5.608   1.431   1.234
 6119SOL     OW19255   0.808   3.593   0.279
 6119SOL    HW119256   0.853   3.599   0.368
 6119SOL    HW219257   0.866   3.543   0.215
 6120SOL     OW19258   2.255   6.585   5.631
 6120SOL    HW119259   2.337   6.528   5.641
 6120SOL    HW219260   2.206   6.587   5.718
 6121SOL     OW19261   1.361   3.270   5.260
 6121SOL    HW119262   1.347   3.361   5.220
 6121SOL    HW219263   1.418   3.277   5.341
 6122SOL     OW19264   3.965   5.498   6.710
 6122SOL    HW119265   3.998   5.497   6.615
 6122SOL    HW219266   3.947   5.592   6.738
 6123SOL     OW19267   5.209   6.898   6.094
 6123SOL    HW119268   5.296   6.878   6.138
 6123SOL    HW219269   5.145   6.934   6.162
 6124SOL     OW19270   1.185   6.994   6.343
 6124SOL    HW119271   1.140   6.914   6.303
 6124SOL    HW219272   1.276   6.968   6.376
 6125SOL     OW19273   2.290   4.013   0.236
 6125SOL    HW119274   2.298   4.092   0.296
 6125SOL    HW219275   2.231   4.036   0.158
 6126SOL     OW19276   0.053   0.697   4.542
 6126SOL    HW119277   0.058   0.597   4.541
 6126SOL    HW219278   0.144   0.736   4.557
 6127SOL     OW19279   3.637   0.005   1.310
 6127SOL    HW119280   3.707   0.068   1.278
 6127SOL    HW219281   3.632   6.951   1.248
 6128SOL     OW19282   5.777   5.885   0.964
 6128SOL    HW119283   5.865   5.916   0.928
 6128SOL    HW219284   5.767   5.914   1.059
 6129SOL     OW19285   0.629   3.010   2.629
 6129SOL    HW119286   0.552   2.945   2.625
 6129SOL    HW219287   0.681   3.004   2.544
 6130SOL     OW19288   5.068   2.627   2.489
 6130SOL    HW119289   5.082   2.544   2.436
 6130SOL    HW219290   5.113   2.704   2.444
 6131SOL     OW19291   0.742   1.551   3.522
 6131SOL    HW119292   0.781   1.484   3.459
 6131SOL    HW219293   0.771   1.530   3.615
 6132SOL     OW19294   3.588   1.822   6.630
 6132SOL    HW119295   3.541   1.772   6.703
 6132SOL    HW219296   3.525   1.888   6.590
 6133SOL     OW19297   2.099   3.724   3.155
 6133SOL    HW119298   2.086   3.700   3.059
 6133SOL    HW219299   2.129   3.819   3.162
 6134SOL     OW19300   4.617   6.082   0.082
 6134SOL    HW119301   4.710   6.072   0.116
 6134SOL    HW219302   4.592   6.179   0.083
 6135SOL     OW19303   0.454   5.811   1.136
 6135SOL    HW119304   0.521   5.829   1.064
 6135SOL    HW219305   0.456   5.885   1.203
 6136SOL     OW19306   1.207   2.385   1.741
 6136SOL    HW119307   1.293   2.413   1.699
 6136SOL    HW219308   1.185   2.291   1.714
 6137SOL     OW19309   6.631   4.153   2.138
 6137SOL    HW119310   6.565   4.081   2.160
 6137SOL    HW219311   6.598   4.207   2.061
 6138SOL     OW19312   3.397   6.993   3.164
 6138SOL    HW119313   3.449   6.913   3.192
 6138SOL    HW219314   3.441   0.011   3.085
 6139SOL     OW19315   0.891   7.009   6.061
 6139SOL    HW119316   0.977   6.967   6.089
 6139SOL    HW219317   0.904   0.036   5.977
 6140SOL     OW19318   0.921   0.454   2.192
 6140SOL    HW119319   0.838   0.499   2.158
 6140SOL    HW219320   0.990   0.453   2.119
 6141SOL     OW19321   0.484   6.950   6.231
 6141SOL    HW119322   0.523   6.935   6.322
 6141SOL    HW219323   0.543   7.013   6.180
 6142SOL     OW19324   0.239   5.678   6.640
 6142SOL    HW119325   0.283   5.751   6.588
 6142SOL    HW219326   0.169   5.634   6.584
 6143SOL     OW19327   6.612   4.131   0.941
 6143SOL    HW119328   6.656   4.180   1.016
 6143SOL    HW219329   6.619   4.033   0.956
 6144SOL     OW19330   5.507   4.996   3.904
 6144SOL    HW119331   5.457   4.980   3.989
 6144SOL    HW219332   5.605   5.002   3.923
 6145SOL     OW19333   5.448   5.093   4.354
 6145SOL    HW119334   5.490   5.072   4.265
 6145SOL    HW219335   5.506   5.058   4.427
 6146SOL     OW19336   3.162   5.600   3.685
 6146SOL    HW119337   3.138   5.520   3.741
 6146SOL    HW219338   3.152   5.683   3.740
 6147SOL     OW19339   2.477   2.610   4.925
 6147SOL    HW119340   2.572   2.604   4.955
 6147SOL    HW219341   2.468   2.568   4.835
 6148SOL     OW19342   4.419   6.409   4.817
 6148SOL    HW119343   4.495   6.376   4.761
 6148SOL    HW219344   4.377   6.488   4.772
 6149SOL     OW19345   2.841   0.261   1.529
 6149SOL    HW119346   2.885   0.209   1.456
 6149SOL    HW219347   2.852   0.359   1.511
 6150SOL     OW19348   5.833   4.533   0.121
 6150SOL    HW119349   5.761   4.560   0.058
 6150SOL    HW219350   5.917   4.514   0.070
 6151SOL     OW19351   6.382   4.873   5.669
 6151SOL    HW119352   6.463   4.913   5.626
 6151SOL    HW219353   6.337   4.812   5.603
 6152SOL     OW19354   0.538   6.410   4.367
 6152SOL    HW119355   0.443   6.385   4.385
 6152SOL    HW219356   0.578   6.453   4.448
 6153SOL     OW19357   5.691   4.668   1.002
 6153SOL    HW119358   5.761   4.683   1.071
 6153SOL    HW219359   5.629   4.746   1.000
 6154SOL     OW19360   5.963   2.733   2.138
 6154SOL    HW119361   5.998   2.786   2.061
 6154SOL    HW219362   5.961   2.790   2.220
 6155SOL     OW19363   2.764   1.377   3.156
 6155SOL    HW119364   2.802   1.371   3.248
 6155SOL    HW219365   2.805   1.456   3.108
 6156SOL     OW19366   4.843   4.607   2.120
 6156SOL    HW119367   4.755   4.642   2.152
 6156SOL    HW219368   4.829   4.548   2.041
 6157SOL     OW19369   0.225   2.293   3.257
 6157SOL    HW119370   0.228   2.347   3.173
 6157SOL    HW219371   0.153   2.328   3.317
 6158SOL     OW19372   3.790   2.205   6.428
 6158SOL    HW119373   3.875   2.153   6.422
 6158SOL    HW219374   3.723   2.153   6.482
 6159SOL     OW19375   4.021   1.922   0.119
 6159SOL    HW119376   3.964   1.994   0.159
 6159SOL    HW219377   3.990   1.903   0.025
 6160SOL     OW19378   5.745   0.232   6.616
 6160SOL    HW119379   5.817   0.222   6.684
 6160SOL    HW219380   5.782   0.278   6.535
 6161SOL     OW19381   5.862   1.405   6.822
 6161SOL    HW119382   5.765   1.428   6.820
 6161SOL    HW219383   5.911   1.472   6.877
 6162SOL     OW19384   6.051   6.871   4.136
 6162SOL    HW119385   5.994   6.789   4.124
 6162SOL    HW219386   6.082   6.876   4.230
 6163SOL     OW19387   5.006   5.736   1.539
 6163SOL    HW119388   4.954   5.762   1.620
 6163SOL    HW219389   5.088   5.792   1.533
 6164SOL     OW19390   3.386   4.170   4.462
 6164SOL    HW119391   3.410   4.181   4.559
 6164SOL    HW219392   3.338   4.083   4.449
 6165SOL     OW19393   4.627   1.307   5.998
 6165SOL    HW119394   4.626   1.256   6.084
 6165SOL    HW219395   4.543   1.288   5.947
 6166SOL     OW19396   5.477   1.748   0.137
 6166SOL    HW119397   5.461   1.671   0.198
 6166SOL    HW219398   5.569   1.785   0.152
 6167SOL     OW19399   1.227   4.627   2.989
 6167SOL    HW119400   1.243   4.705   3.049
 6167SOL    HW219401   1.131   4.598   2.997
 6168SOL     OW19402   0.972   3.601   3.529
 6168SOL    HW119403   0.877   3.576   3.546
 6168SOL    HW219404   0.986   3.613   3.431
 6169SOL     OW19405   1.367   1.884   0.449
 6169SOL    HW119406   1.409   1.881   0.539
 6169SOL    HW219407   1.288   1.822   0.448
 6170SOL     OW19408   3.045   4.076   5.807
 6170SOL    HW119409   3.011   4.009   5.741
 6170SOL    HW219410   3.066   4.030   5.894
 6171SOL     OW19411   1.845   3.624   1.341
 6171SOL    HW119412   1.913   3.555   1.367
 6171SOL    HW219413   1.790   3.648   1.421
 6172SOL     OW19414   1.312   0.876   3.891
 6172SOL    HW119415   1.369   0.909   3.816
 6172SOL    HW219416   1.216   0.899   3.873
 6173SOL     OW19417   6.770   5.189   2.631
 6173SOL    HW119418   6.824   5.143   2.560
 6173SOL    HW219419   6.698   5.242   2.588
 6174SOL     OW19420   6.433   5.342   3.207
 6174SOL    HW119421   6.529   5.316   3.205
 6174SOL    HW219422   6.392   5.324   3.118
 6175SOL     OW19423   5.229   0.859   3.908
 6175SOL    HW119424   5.285   0.893   3.983
 6175SOL    HW219425   5.288   0.834   3.831
 6176SOL     OW19426   6.291   3.003   0.108
 6176SOL    HW119427   6.378   3.020   0.063
 6176SOL    HW219428   6.293   3.040   0.201
 6177SOL     OW19429   5.475   1.752   1.607
 6177SOL    HW119430   5.461   1.834   1.663
 6177SOL    HW219431   5.445   1.671   1.657
 6178SOL     OW19432   4.678   5.036   3.034
 6178SOL    HW119433   4.772   5.046   3.066
 6178SOL    HW219434   4.653   5.114   2.976
 6179SOL     OW19435   6.370   4.507   4.345
 6179SOL    HW119436   6.469   4.503   4.354
 6179SOL    HW219437   6.333   4.570   4.415
 6180SOL     OW19438   3.307   5.707   6.518
 6180SOL    HW119439   3.224   5.680   6.568
 6180SOL    HW219440   3.313   5.807   6.517
 6181SOL     OW19441   3.965   6.882   1.145
 6181SOL    HW119442   3.937   6.827   1.224
 6181SOL    HW219443   3.941   6.978   1.161
 6182SOL     OW19444   5.767   3.233   6.013
 6182SOL    HW119445   5.730   3.326   6.007
 6182SOL    HW219446   5.812   3.209   5.928
 6183SOL     OW19447   1.992   0.232   2.855
 6183SOL    HW119448   2.081   0.203   2.891
 6183SOL    HW219449   1.942   0.152   2.822
 6184SOL     OW19450   1.086   7.023   6.871
 6184SOL    HW119451   1.166   6.971   6.900
 6184SOL    HW219452   1.095   0.023   6.774
 6185SOL     OW19453   0.579   4.545   6.451
 6185SOL    HW119454   0.567   4.595   6.365
 6185SOL    HW219455   0.506   4.477   6.460
 6186SOL     OW19456   6.133   6.511   5.361
 6186SOL    HW119457   6.157   6.532   5.266
 6186SOL    HW219458   6.034   6.514   5.371
 6187SOL     OW19459   4.183   4.823   4.120
 6187SOL    HW119460   4.229   4.906   4.151
 6187SOL    HW219461   4.220   4.744   4.171
 6188SOL     OW19462   2.511   0.155   0.821
 6188SOL    HW119463   2.521   0.060   0.791
 6188SOL    HW219464   2.567   0.215   0.763
 6189SOL     OW19465   4.990   4.163   4.270
 6189SOL    HW119466   5.089   4.154   4.262
 6189SOL    HW219467   4.960   4.249   4.228
 6190SOL     OW19468   6.357   3.865   6.112
 6190SOL    HW119469   6.418   3.786   6.120
 6190SOL    HW219470   6.263   3.836   6.128
 6191SOL     OW19471   3.991   2.784   6.415
 6191SOL    HW119472   4.070   2.734   6.449
 6191SOL    HW219473   3.942   2.826   6.491
 6192SOL     OW19474   2.922   3.126   6.347
 6192SOL    HW119475   2.950   3.144   6.253
 6192SOL    HW219476   2.931   3.210   6.402
 6193SOL     OW19477   5.214   0.891   2.583
 6193SOL    HW119478   5.280   0.954   2.624
 6193SOL    HW219479   5.226   0.890   2.484
 6194SOL     OW19480   1.097   0.381   0.655
 6194SOL    HW119481   1.041   0.434   0.719
 6194SOL    HW219482   1.070   0.402   0.561
 6195SOL     OW19483   3.765   6.234   5.282
 6195SOL    HW119484   3.728   6.227   5.190
 6195SOL    HW219485   3.864   6.246   5.278
 6196SOL     OW19486   5.755   2.107   1.307
 6196SOL    HW119487   5.765   2.011   1.283
 6196SOL    HW219488   5.692   2.151   1.242
 6197SOL     OW19489   4.115   4.784   0.470
 6197SOL    HW119490   4.074   4.778   0.561
 6197SOL    HW219491   4.182   4.711   0.459
 6198SOL     OW19492   3.118   5.709   2.291
 6198SOL    HW119493   3.177   5.650   2.346
 6198SOL    HW219494   3.116   5.801   2.330
 6199SOL     OW19495   0.992   0.569   0.853
 6199SOL    HW119496   1.028   0.659   0.828
 6199SOL    HW219497   1.026   0.543   0.944
 6200SOL     OW19498   2.216   1.181   5.121
 6200SOL    HW119499   2.312   1.195   5.147
 6200SOL    HW219500   2.165   1.144   5.199
 6201SOL     OW19501   1.529   3.925   5.007
 6201SOL    HW119502   1.467   4.004   5.001
 6201SOL    HW219503   1.621   3.954   4.980
 6202SOL     OW19504   3.960   1.528   1.998
 6202SOL    HW119505   3.877   1.580   1.977
 6202SOL    HW219506   4.035   1.559   1.939
 6203SOL     OW19507   6.046   6.551   3.035
 6203SOL    HW119508   6.058   6.535   2.937
 6203SOL    HW219509   6.136   6.565   3.077
 6204SOL     OW19510   1.233   5.224   4.586
 6204SOL    HW119511   1.148   5.177   4.610
 6204SOL    HW219512   1.311   5.167   4.611
 6205SOL     OW19513   6.440   6.315   0.163
 6205SOL    HW119514   6.407   6.395   0.212
 6205SOL    HW219515   6.457   6.241   0.228
 6206SOL     OW19516   0.235   0.565   2.769
 6206SOL    HW119517   0.198   0.496   2.832
 6206SOL    HW219518   0.177   0.570   2.688
 6207SOL     OW19519   1.582   5.087   3.916
 6207SOL    HW119520   1.646   5.156   3.951
 6207SOL    HW219521   1.590   5.004   3.972
 6208SOL     OW19522   5.999   1.530   6.188
 6208SOL    HW119523   6.066   1.573   6.247
 6208SOL    HW219524   6.045   1.476   6.118
 6209SOL     OW19525   4.474   5.540   6.986
 6209SOL    HW119526   4.452   5.631   6.951
 6209SOL    HW219527   4.533   5.492   6.922
 6210SOL     OW19528   5.847   4.093   3.991
 6210SOL    HW119529   5.795   4.011   3.969
 6210SOL    HW219530   5.926   4.099   3.930
 6211SOL     OW19531   2.707   6.169   5.609
 6211SOL    HW119532   2.806   6.161   5.592
 6211SOL    HW219533   2.693   6.199   5.704
 6212SOL     OW19534   2.391   4.963   2.709
 6212SOL    HW119535   2.340   4.916   2.780
 6212SOL    HW219536   2.371   4.921   2.620
 6213SOL     OW19537   5.321   0.273   6.967
 6213SOL    HW119538   5.373   0.193   6.939
 6213SOL    HW219539   5.280   0.317   6.886
 6214SOL     OW19540   4.672   4.749   4.069
 6214SOL    HW119541   4.742   4.749   4.141
 6214SOL    HW219542   4.710   4.790   3.986
 6215SOL     OW19543   4.263   1.907   0.537
 6215SOL    HW119544   4.253   1.874   0.631
 6215SOL    HW219545   4.179   1.889   0.486
 6216SOL     OW19546   6.096   2.080   2.111
 6216SOL    HW119547   6.063   1.988   2.090
 6216SOL    HW219548   6.156   2.111   2.037
 6217SOL     OW19549   0.749   2.731   2.352
 6217SOL    HW119550   0.728   2.826   2.372
 6217SOL    HW219551   0.834   2.705   2.399
 6218SOL     OW19552   3.720   5.157   5.662
 6218SOL    HW119553   3.667   5.223   5.607
 6218SOL    HW219554   3.768   5.206   5.734
 6219SOL     OW19555   0.921   2.168   4.495
 6219SOL    HW119556   0.874   2.100   4.551
 6219SOL    HW219557   0.985   2.220   4.552
 6220SOL     OW19558   1.648   2.739   5.026
 6220SOL    HW119559   1.627   2.670   4.957
 6220SOL    HW219560   1.575   2.740   5.095
 6221SOL     OW19561   6.222   5.799   6.990
 6221SOL    HW119562   6.192   5.705   6.975
 6221SOL    HW219563   6.173   5.860   6.927
 6222SOL     OW19564   0.697   6.123   1.072
 6222SOL    HW119565   0.794   6.126   1.047
 6222SOL    HW219566   0.689   6.103   1.170
 6223SOL     OW19567   0.558   4.811   4.491
 6223SOL    HW119568   0.567   4.739   4.560
 6223SOL    HW219569   0.489   4.785   4.424
 6224SOL     OW19570   2.321   1.726   5.995
 6224SOL    HW119571   2.397   1.757   6.051
 6224SOL    HW219572   2.242   1.708   6.053
 6225SOL     OW19573   3.266   3.793   0.788
 6225SOL    HW119574   3.261   3.892   0.784
 6225SOL    HW219575   3.181   3.756   0.823
 6226SOL     OW19576   5.918   1.560   5.110
 6226SOL    HW119577   5.822   1.588   5.119
 6226SOL    HW219578   5.926   1.490   5.039
 6227SOL     OW19579   4.093   5.470   5.789
 6227SOL    HW119580   4.165   5.404   5.766
 6227SOL    HW219581   4.071   5.524   5.709
 6228SOL     OW19582   1.538   2.514   3.126
 6228SOL    HW119583   1.514   2.457   3.204
 6228SOL    HW219584   1.515   2.609   3.146
 6229SOL     OW19585   0.410   2.344   2.844
 6229SOL    HW119586   0.508   2.355   2.824
 6229SOL    HW219587   0.369   2.282   2.777
 6230SOL     OW19588   1.307   1.432   3.733
 6230SOL    HW119589   1.352   1.493   3.798
 6230SOL    HW219590   1.350   1.341   3.738
 6231SOL     OW19591   6.004   5.097   0.919
 6231SOL    HW119592   5.906   5.107   0.900
 6231SOL    HW219593   6.017   5.043   1.002
 6232SOL     OW19594   6.839   1.297   0.835
 6232SOL    HW119595   6.803   1.385   0.806
 6232SOL    HW219596   6.938   1.305   0.850
 6233SOL     OW19597   5.946   0.798   0.488
 6233SOL    HW119598   5.997   0.723   0.530
 6233SOL    HW219599   5.872   0.760   0.431
 6234SOL     OW19600   6.235   1.741   5.407
 6234SOL    HW119601   6.195   1.802   5.476
 6234SOL    HW219602   6.335   1.739   5.419
 6235SOL     OW19603   1.117   0.608   1.548
 6235SOL    HW119604   1.194   0.622   1.609
 6235SOL    HW219605   1.068   0.525   1.573
 6236SOL     OW19606   0.465   3.621   0.644
 6236SOL    HW119607   0.407   3.679   0.701
 6236SOL    HW219608   0.501   3.546   0.699
 6237SOL     OW19609   3.488   6.252   6.974
 6237SOL    HW119610   3.587   6.256   6.962
 6237SOL    HW219611   3.443   6.306   6.903
 6238SOL     OW19612   4.007   4.827   2.797
 6238SOL    HW119613   4.066   4.752   2.827
 6238SOL    HW219614   4.039   4.912   2.838
 6239SOL     OW19615   3.015   6.389   1.902
 6239SOL    HW119616   2.946   6.318   1.920
 6239SOL    HW219617   3.101   6.363   1.946
 6240SOL     OW19618   2.749   2.949   6.464
 6240SOL    HW119619   2.659   2.989   6.481
 6240SOL    HW219620   2.798   3.005   6.398
 6241SOL     OW19621   3.702   0.088   1.821
 6241SOL    HW119622   3.695   0.062   1.725
 6241SOL    HW219623   3.720   0.186   1.827
 6242SOL     OW19624   5.736   1.546   3.376
 6242SOL    HW119625   5.788   1.519   3.295
 6242SOL    HW219626   5.769   1.495   3.455
 6243SOL     OW19627   6.320   6.965   3.815
 6243SOL    HW119628   6.411   6.983   3.779
 6243SOL    HW219629   6.326   6.954   3.915
 6244SOL     OW19630   0.767   2.505   2.598
 6244SOL    HW119631   0.856   2.459   2.594
 6244SOL    HW219632   0.779   2.597   2.635
 6245SOL     OW19633   1.527   4.019   0.381
 6245SOL    HW119634   1.505   3.941   0.323
 6245SOL    HW219635   1.551   4.097   0.323
 6246SOL     OW19636   1.752   2.558   5.682
 6246SOL    HW119637   1.670   2.580   5.736
 6246SOL    HW219638   1.777   2.636   5.626
 6247SOL     OW19639   1.338   6.214   4.600
 6247SOL    HW119640   1.352   6.208   4.501
 6247SOL    HW219641   1.356   6.125   4.642
 6248SOL     OW19642   3.337   3.723   0.312
 6248SOL    HW119643   3.324   3.697   0.408
 6248SOL    HW219644   3.430   3.758   0.299
 6249SOL     OW19645   0.553   3.972   0.861
 6249SOL    HW119646   0.609   3.991   0.779
 6249SOL    HW219647   0.493   4.050   0.878
 6250SOL     OW19648   6.774   5.855   0.320
 6250SOL    HW119649   6.814   5.947   0.315
 6250SOL    HW219650   6.837   5.790   0.278
 6251SOL     OW19651   3.687   5.457   6.681
 6251SOL    HW119652   3.633   5.376   6.703
 6251SOL    HW219653   3.782   5.442   6.707
 6252SOL     OW19654   1.078   6.598   5.921
 6252SOL    HW119655   1.038   6.678   5.875
 6252SOL    HW219656   1.177   6.606   5.921
 6253SOL     OW19657   2.307   4.241   2.961
 6253SOL    HW119658   2.351   4.306   3.023
 6253SOL    HW219659   2.343   4.253   2.869
 6254SOL     OW19660   4.910   1.481   0.424
 6254SOL    HW119661   4.840   1.411   0.437
 6254SOL    HW219662   4.880   1.546   0.355
 6255SOL     OW19663   2.877   0.371   0.980
 6255SOL    HW119664   2.874   0.272   0.997
 6255SOL    HW219665   2.859   0.388   0.884
 6256SOL     OW19666   3.410   5.241   2.519
 6256SOL    HW119667   3.426   5.266   2.423
 6256SOL    HW219668   3.331   5.180   2.524
 6257SOL     OW19669   4.615   2.366   0.277
 6257SOL    HW119670   4.551   2.300   0.238
 6257SOL    HW219671   4.704   2.322   0.291
 6258SOL     OW19672   3.938   6.895   3.756
 6258SOL    HW119673   3.929   6.993   3.774
 6258SOL    HW219674   3.991   6.880   3.673
 6259SOL     OW19675   2.286   2.450   0.969
 6259SOL    HW119676   2.254   2.375   0.912
 6259SOL    HW219677   2.378   2.477   0.940
 6260SOL     OW19678   3.372   5.860   0.408
 6260SOL    HW119679   3.308   5.785   0.429
 6260SOL    HW219680   3.333   5.946   0.440
 6261SOL     OW19681   3.803   0.487   5.907
 6261SOL    HW119682   3.885   0.435   5.885
 6261SOL    HW219683   3.746   0.435   5.971
 6262SOL     OW19684   1.974   5.657   0.680
 6262SOL    HW119685   1.977   5.754   0.655
 6262SOL    HW219686   2.066   5.626   0.705
 6263SOL     OW19687   6.504   0.468   5.606
 6263SOL    HW119688   6.425   0.529   5.611
 6263SOL    HW219689   6.588   0.521   5.620
 6264SOL     OW19690   1.360   6.574   2.122
 6264SOL    HW119691   1.277   6.629   2.130
 6264SOL    HW219692   1.425   6.601   2.193
 6265SOL     OW19693   3.029   4.040   0.762
 6265SOL    HW119694   3.021   3.968   0.693
 6265SOL    HW219695   3.090   4.112   0.727
 6266SOL     OW19696   4.115   0.370   4.546
 6266SOL    HW119697   4.182   0.405   4.612
 6266SOL    HW219698   4.162   0.320   4.474
 6267SOL     OW19699   2.729   0.929   6.515
 6267SOL    HW119700   2.663   0.888   6.578
 6267SOL    HW219701   2.755   0.861   6.446
 6268SOL     OW19702   3.566   6.965   3.630
 6268SOL    HW119703   3.550   0.037   3.611
 6268SOL    HW219704   3.554   6.947   3.727
 6269SOL     OW19705   6.448   6.108   1.660
 6269SOL    HW119706   6.512   6.172   1.617
 6269SOL    HW219707   6.367   6.158   1.691
 6270SOL     OW19708   1.615   0.384   4.764
 6270SOL    HW119709   1.520   0.415   4.760
 6270SOL    HW219710   1.649   0.392   4.858
 6271SOL     OW19711   6.267   2.242   6.427
 6271SOL    HW119712   6.211   2.227   6.509
 6271SOL    HW219713   6.258   2.163   6.366
 6272SOL     OW19714   0.267   2.169   0.133
 6272SOL    HW119715   0.341   2.103   0.120
 6272SOL    HW219716   0.287   2.253   0.083
 6273SOL     OW19717   1.602   5.959   2.789
 6273SOL    HW119718   1.596   6.051   2.827
 6273SOL    HW219719   1.663   5.903   2.845
 6274SOL     OW19720   2.660   5.882   5.886
 6274SOL    HW119721   2.689   5.858   5.979
 6274SOL    HW219722   2.649   5.981   5.879
 6275SOL     OW19723   1.975   6.115   5.468
 6275SOL    HW119724   2.057   6.138   5.417
 6275SOL    HW219725   1.895   6.156   5.424
 6276SOL     OW19726   2.127   4.630   3.238
 6276SOL    HW119727   2.133   4.546   3.185
 6276SOL    HW219728   2.140   4.610   3.335
 6277SOL     OW19729   5.821   3.233   1.661
 6277SOL    HW119730   5.785   3.179   1.585
 6277SOL    HW219731   5.906   3.193   1.694
 6278SOL     OW19732   5.131   6.830   4.336
 6278SOL    HW119733   5.074   6.754   4.303
 6278SOL    HW219734   5.211   6.794   4.384
 6279SOL     OW19735   3.965   0.013   6.483
 6279SOL    HW119736   3.921   7.004   6.567
 6279SOL    HW219737   3.968   6.964   6.416
 6280SOL     OW19738   1.087   2.133   5.261
 6280SOL    HW119739   1.119   2.058   5.319
 6280SOL    HW219740   1.036   2.095   5.184
 6281SOL     OW19741   1.240   5.007   3.332
 6281SOL    HW119742   1.234   5.100   3.296
 6281SOL    HW219743   1.213   5.007   3.428
 6282SOL     OW19744   1.266   6.644   4.732
 6282SOL    HW119745   1.300   6.737   4.748
 6282SOL    HW219746   1.272   6.622   4.635
 6283SOL     OW19747   0.075   2.880   5.513
 6283SOL    HW119748   0.106   2.929   5.595
 6283SOL    HW219749   0.118   2.920   5.432
 6284SOL     OW19750   1.862   5.802   4.816
 6284SOL    HW119751   1.811   5.785   4.900
 6284SOL    HW219752   1.932   5.732   4.804
 6285SOL     OW19753   0.511   3.497   4.498
 6285SOL    HW119754   0.601   3.472   4.461
 6285SOL    HW219755   0.452   3.531   4.424
 6286SOL     OW19756   6.319   1.874   3.166
 6286SOL    HW119757   6.356   1.821   3.090
 6286SOL    HW219758   6.228   1.841   3.188
 6287SOL     OW19759   3.654   5.382   4.196
 6287SOL    HW119760   3.634   5.480   4.193
 6287SOL    HW219761   3.725   5.361   4.129
 6288SOL     OW19762   5.062   4.987   2.578
 6288SOL    HW119763   5.056   4.939   2.491
 6288SOL    HW219764   4.971   5.010   2.610
 6289SOL     OW19765   1.760   4.773   1.816
 6289SOL    HW119766   1.762   4.820   1.728
 6289SOL    HW219767   1.792   4.835   1.887
 6290SOL     OW19768   6.719   4.180   4.157
 6290SOL    HW119769   6.783   4.251   4.127
 6290SOL    HW219770   6.692   4.124   4.079
 6291SOL     OW19771   3.748   2.918   4.972
 6291SOL    HW119772   3.814   2.890   4.902
 6291SOL    HW219773   3.657   2.923   4.930
 6292SOL     OW19774   1.716   2.423   4.089
 6292SOL    HW119775   1.722   2.327   4.116
 6292SOL    HW219776   1.717   2.430   3.989
 6293SOL     OW19777   3.919   0.627   6.892
 6293SOL    HW119778   3.868   0.577   6.822
 6293SOL    HW219779   3.867   0.627   6.977
 6294SOL     OW19780   3.999   4.889   4.761
 6294SOL    HW119781   4.092   4.901   4.798
 6294SOL    HW219782   4.003   4.832   4.679
 6295SOL     OW19783   5.837   5.078   5.688
 6295SOL    HW119784   5.792   5.038   5.768
 6295SOL    HW219785   5.773   5.137   5.640
 6296SOL     OW19786   0.365   6.710   6.219
 6296SOL    HW119787   0.268   6.727   6.202
 6296SOL    HW219788   0.419   6.787   6.185
 6297SOL     OW19789   4.993   6.579   4.431
 6297SOL    HW119790   5.073   6.565   4.491
 6297SOL    HW219791   4.963   6.491   4.395
 6298SOL     OW19792   1.483   2.755   6.555
 6298SOL    HW119793   1.495   2.849   6.585
 6298SOL    HW219794   1.558   2.729   6.494
 6299SOL     OW19795   5.340   1.360   6.929
 6299SOL    HW119796   5.268   1.290   6.927
 6299SOL    HW219797   5.351   1.395   7.022
 6300SOL     OW19798   5.707   0.195   0.449
 6300SOL    HW119799   5.722   0.283   0.494
 6300SOL    HW219800   5.610   0.187   0.425
 6301SOL     OW19801   3.875   0.807   0.278
 6301SOL    HW119802   3.869   0.708   0.263
 6301SOL    HW219803   3.857   0.826   0.375
 6302SOL     OW19804   1.751   0.115   3.639
 6302SOL    HW119805   1.655   0.144   3.638
 6302SOL    HW219806   1.791   0.130   3.549
 6303SOL     OW19807   1.708   1.623   4.168
 6303SOL    HW119808   1.760   1.680   4.104
 6303SOL    HW219809   1.622   1.670   4.192
 6304SOL     OW19810   2.342   1.605   0.972
 6304SOL    HW119811   2.404   1.527   0.983
 6304SOL    HW219812   2.248   1.573   0.972
 6305SOL     OW19813   5.396   6.867   1.627
 6305SOL    HW119814   5.447   6.902   1.706
 6305SOL    HW219815   5.383   6.940   1.560
 6306SOL     OW19816   0.776   3.818   4.222
 6306SOL    HW119817   0.744   3.901   4.175
 6306SOL    HW219818   0.757   3.738   4.165
 6307SOL     OW19819   4.080   4.683   5.735
 6307SOL    HW119820   4.090   4.690   5.835
 6307SOL    HW219821   3.984   4.696   5.711
 6308SOL     OW19822   2.161   2.368   4.655
 6308SOL    HW119823   2.246   2.421   4.659
 6308SOL    HW219824   2.129   2.364   4.561
 6309SOL     OW19825   5.388   4.650   5.166
 6309SOL    HW119826   5.483   4.619   5.172
 6309SOL    HW219827   5.335   4.585   5.111
 6310SOL     OW19828   2.063   5.827   3.275
 6310SOL    HW119829   2.140   5.825   3.211
 6310SOL    HW219830   2.021   5.917   3.273
 6311SOL     OW19831   4.787   0.614   5.937
 6311SOL    HW119832   4.804   0.518   5.962
 6311SOL    HW219833   4.842   0.674   5.996
 6312SOL     OW19834   5.809   5.213   5.224
 6312SOL    HW119835   5.880   5.265   5.272
 6312SOL    HW219836   5.780   5.136   5.281
 6313SOL     OW19837   1.255   6.554   4.457
 6313SOL    HW119838   1.224   6.621   4.389
 6313SOL    HW219839   1.178   6.495   4.482
 6314SOL     OW19840   3.852   6.485   1.885
 6314SOL    HW119841   3.880   6.573   1.846
 6314SOL    HW219842   3.755   6.489   1.909
 6315SOL     OW19843   1.762   2.854   5.813
 6315SOL    HW119844   1.770   2.821   5.719
 6315SOL    HW219845   1.757   2.776   5.875
 6316SOL     OW19846   4.672   1.439   6.643
 6316SOL    HW119847   4.654   1.371   6.714
 6316SOL    HW219848   4.771   1.441   6.623
 6317SOL     OW19849   4.573   5.885   2.915
 6317SOL    HW119850   4.527   5.970   2.888
 6317SOL    HW219851   4.652   5.870   2.856
 6318SOL     OW19852   3.672   1.614   4.505
 6318SOL    HW119853   3.575   1.615   4.480
 6318SOL    HW219854   3.706   1.708   4.508
 6319SOL     OW19855   6.921   1.750   4.026
 6319SOL    HW119856   6.840   1.734   4.083
 6319SOL    HW219857   6.944   1.847   4.026
 6320SOL     OW19858   6.224   5.778   5.112
 6320SOL    HW119859   6.289   5.759   5.039
 6320SOL    HW219860   6.172   5.695   5.132
 6321SOL     OW19861   3.388   3.635   0.964
 6321SOL    HW119862   3.329   3.632   1.045
 6321SOL    HW219863   3.345   3.694   0.894
 6322SOL     OW19864   1.616   2.245   0.410
 6322SOL    HW119865   1.653   2.157   0.440
 6322SOL    HW219866   1.556   2.230   0.331
 6323SOL     OW19867   3.366   2.323   1.360
 6323SOL    HW119868   3.375   2.279   1.270
 6323SOL    HW219869   3.392   2.420   1.352
 6324SOL     OW19870   5.105   0.167   6.609
 6324SOL    HW119871   5.160   0.227   6.668
 6324SOL    HW219872   5.129   0.072   6.627
 6325SOL     OW19873   2.182   2.057   2.602
 6325SOL    HW119874   2.234   2.067   2.687
 6325SOL    HW219875   2.244   2.049   2.525
 6326SOL     OW19876   4.507   5.022   1.803
 6326SOL    HW119877   4.573   4.999   1.875
 6326SOL    HW219878   4.430   5.072   1.844
 6327SOL     OW19879   6.948   0.025   4.798
 6327SOL    HW119880   6.946   0.001   4.701
 6327SOL    HW219881   6.952   6.967   4.853
 6328SOL     OW19882   2.866   3.589   0.984
 6328SOL    HW119883   2.766   3.598   0.992
 6328SOL    HW219884   2.890   3.571   0.889
 6329SOL     OW19885   2.507   2.185   3.501
 6329SOL    HW119886   2.549   2.274   3.515
 6329SOL    HW219887   2.428   2.176   3.561
 6330SOL     OW19888   4.402   1.260   1.036
 6330SOL    HW119889   4.399   1.219   1.127
 6330SOL    HW219890   4.309   1.266   0.999
 6331SOL     OW19891   6.572   2.140   6.585
 6331SOL    HW119892   6.669   2.158   6.573
 6331SOL    HW219893   6.532   2.113   6.497
 6332SOL     OW19894   5.689   3.656   1.679
 6332SOL    HW119895   5.693   3.559   1.654
 6332SOL    HW219896   5.775   3.700   1.652
 6333SOL     OW19897   4.544   5.690   4.998
 6333SOL    HW119898   4.447   5.714   5.010
 6333SOL    HW219899   4.600   5.771   5.013
 6334SOL     OW19900   3.140   0.401   1.376
 6334SOL    HW119901   3.054   0.438   1.341
 6334SOL    HW219902   3.216   0.451   1.336
 6335SOL     OW19903   4.460   1.142   0.148
 6335SOL    HW119904   4.476   1.043   0.150
 6335SOL    HW219905   4.456   1.174   0.053
 6336SOL     OW19906   1.152   1.702   5.690
 6336SOL    HW119907   1.204   1.625   5.652
 6336SOL    HW219908   1.157   1.700   5.790
 6337SOL     OW19909   4.433   3.966   6.529
 6337SOL    HW119910   4.487   3.941   6.609
 6337SOL    HW219911   4.339   3.937   6.542
 6338SOL     OW19912   3.515   1.636   3.831
 6338SOL    HW119913   3.612   1.612   3.829
 6338SOL    HW219914   3.466   1.574   3.893
 6339SOL     OW19915   1.254   3.736   2.517
 6339SOL    HW119916   1.209   3.671   2.456
 6339SOL    HW219917   1.199   3.748   2.600
 6340SOL     OW19918   1.922   4.932   2.580
 6340SOL    HW119919   1.982   4.889   2.512
 6340SOL    HW219920   1.886   5.018   2.543
 6341SOL     OW19921   0.826   4.475   4.348
 6341SOL    HW119922   0.854   4.399   4.290
 6341SOL    HW219923   0.904   4.505   4.403
 6342SOL     OW19924   2.559   1.680   2.084
 6342SOL    HW119925   2.535   1.725   1.998
 6342SOL    HW219926   2.512   1.593   2.091
 6343SOL     OW19927   4.507   2.137   6.084
 6343SOL    HW119928   4.486   2.139   5.986
 6343SOL    HW219929   4.540   2.045   6.109
 6344SOL     OW19930   5.993   3.183   5.469
 6344SOL    HW119931   6.010   3.153   5.375
 6344SOL    HW219932   6.081   3.191   5.517
 6345SOL     OW19933   5.187   2.407   2.293
 6345SOL    HW119934   5.278   2.388   2.328
 6345SOL    HW219935   5.142   2.321   2.266
 6346SOL     OW19936   6.860   4.713   3.822
 6346SOL    HW119937   6.878   4.768   3.740
 6346SOL    HW219938   6.862   4.772   3.903
 6347SOL     OW19939   2.408   0.197   1.067
 6347SOL    HW119940   2.364   0.107   1.067
 6347SOL    HW219941   2.468   0.204   0.987
 6348SOL     OW19942   1.215   4.103   5.128
 6348SOL    HW119943   1.219   4.111   5.028
 6348SOL    HW219944   1.149   4.032   5.153
 6349SOL     OW19945   3.155   0.190   1.078
 6349SOL    HW119946   3.085   0.167   1.146
 6349SOL    HW219947   3.245   0.192   1.122
 6350SOL     OW19948   2.497   4.743   4.242
 6350SOL    HW119949   2.514   4.836   4.209
 6350SOL    HW219950   2.554   4.679   4.191
 6351SOL     OW19951   6.621   3.578   3.283
 6351SOL    HW119952   6.676   3.537   3.357
 6351SOL    HW219953   6.655   3.670   3.264
 6352SOL     OW19954   3.689   5.322   4.937
 6352SOL    HW119955   3.611   5.259   4.936
 6352SOL    HW219956   3.719   5.335   5.032
 6353SOL     OW19957   0.301   0.701   5.721
 6353SOL    HW119958   0.314   0.603   5.735
 6353SOL    HW219959   0.203   0.721   5.714
 6354SOL     OW19960   1.743   5.685   3.501
 6354SOL    HW119961   1.815   5.731   3.553
 6354SOL    HW219962   1.655   5.700   3.545
 6355SOL     OW19963   0.868   5.305   6.509
 6355SOL    HW119964   0.905   5.256   6.588
 6355SOL    HW219965   0.854   5.401   6.533
 6356SOL     OW19966   3.806   5.161   2.513
 6356SOL    HW119967   3.878   5.093   2.501
 6356SOL    HW219968   3.806   5.223   2.435
 6357SOL     OW19969   5.007   3.389   2.188
 6357SOL    HW119970   4.960   3.304   2.165
 6357SOL    HW219971   4.958   3.436   2.261
 6358SOL     OW19972   0.908   2.077   6.525
 6358SOL    HW119973   0.962   1.994   6.538
 6358SOL    HW219974   0.925   2.115   6.434
 6359SOL     OW19975   6.514   6.557   6.270
 6359SOL    HW119976   6.603   6.520   6.243
 6359SOL    HW219977   6.527   6.643   6.319
 6360SOL     OW19978   1.509   4.204   3.939
 6360SOL    HW119979   1.454   4.259   4.002
 6360SOL    HW219980   1.550   4.127   3.989
 6361SOL     OW19981   6.123   6.756   0.769
 6361SOL    HW119982   6.051   6.723   0.830
 6361SOL    HW219983   6.081   6.796   0.687
 6362SOL     OW19984   0.920   6.207   0.892
 6362SOL    HW119985   0.900   6.259   0.975
 6362SOL    HW219986   0.957   6.268   0.822
 6363SOL     OW19987   2.319   4.573   3.709
 6363SOL    HW119988   2.345   4.489   3.661
 6363SOL    HW219989   2.401   4.623   3.736
 6364SOL     OW19990   3.126   1.106   5.848
 6364SOL    HW119991   3.178   1.192   5.845
 6364SOL    HW219992   3.165   1.042   5.782
 6365SOL     OW19993   5.790   0.504   4.027
 6365SOL    HW119994   5.696   0.491   3.996
 6365SOL    HW219995   5.811   0.440   4.101
 6366SOL     OW19996   1.095   6.039   6.314
 6366SOL    HW119997   1.077   5.998   6.225
 6366SOL    HW219998   1.009   6.055   6.362
 6367SOL     OW19999   4.149   0.164   4.916
 6367SOL    HW120000   4.164   0.149   4.818
 6367SOL    HW220001   4.168   0.260   4.938
 6368SOL     OW20002   3.431   4.911   3.799
 6368SOL    HW120003   3.365   4.982   3.776
 6368SOL    HW220004   3.473   4.932   3.888
 6369SOL     OW20005   1.662   4.795   3.759
 6369SOL    HW120006   1.691   4.881   3.801
 6369SOL    HW220007   1.723   4.722   3.788
 6370SOL     OW20008   0.194   3.108   2.862
 6370SOL    HW120009   0.292   3.097   2.871
 6370SOL    HW220010   0.162   3.181   2.923
 6371SOL     OW20011   5.191   3.800   4.058
 6371SOL    HW120012   5.102   3.755   4.060
 6371SOL    HW220013   5.181   3.891   4.017
 6372SOL     OW20014   2.739   0.540   1.772
 6372SOL    HW120015   2.743   0.441   1.789
 6372SOL    HW220016   2.832   0.574   1.759
 6373SOL     OW20017   5.203   4.451   3.138
 6373SOL    HW120018   5.109   4.444   3.103
 6373SOL    HW220019   5.234   4.361   3.169
 6374SOL     OW20020   3.200   4.013   4.691
 6374SOL    HW120021   3.257   4.084   4.733
 6374SOL    HW220022   3.107   4.020   4.728
 6375SOL     OW20023   6.457   1.856   3.600
 6375SOL    HW120024   6.469   1.935   3.540
 6375SOL    HW220025   6.370   1.811   3.580
 6376SOL     OW20026   6.038   2.684   5.310
 6376SOL    HW120027   5.975   2.750   5.270
 6376SOL    HW220028   6.115   2.669   5.249
 6377SOL     OW20029   6.065   1.786   5.185
 6377SOL    HW120030   6.091   1.765   5.279
 6377SOL    HW220031   6.024   1.705   5.143
 6378SOL     OW20032   4.820   5.519   3.921
 6378SOL    HW120033   4.860   5.478   3.839
 6378SOL    HW220034   4.850   5.468   4.002
 6379SOL     OW20035   2.006   4.180   4.512
 6379SOL    HW120036   2.011   4.279   4.519
 6379SOL    HW220037   2.084   4.139   4.559
 6380SOL     OW20038   0.348   1.793   6.336
 6380SOL    HW120039   0.408   1.720   6.367
 6380SOL    HW220040   0.372   1.878   6.382
 6381SOL     OW20041   4.020   3.094   1.992
 6381SOL    HW120042   4.005   3.030   1.917
 6381SOL    HW220043   4.101   3.150   1.972
 6382SOL     OW20044   1.111   1.972   0.848
 6382SOL    HW120045   1.164   2.056   0.834
 6382SOL    HW220046   1.173   1.893   0.850
 6383SOL     OW20047   1.521   1.923   3.217
 6383SOL    HW120048   1.425   1.917   3.189
 6383SOL    HW220049   1.569   1.841   3.186
 6384SOL     OW20050   5.584   3.981   1.180
 6384SOL    HW120051   5.668   3.968   1.232
 6384SOL    HW220052   5.573   4.079   1.159
 6385SOL     OW20053   0.041   4.859   3.576
 6385SOL    HW120054   0.072   4.901   3.491
 6385SOL    HW220055   0.111   4.872   3.646
 6386SOL     OW20056   2.489   4.200   6.525
 6386SOL    HW120057   2.391   4.219   6.535
 6386SOL    HW220058   2.527   4.170   6.612
 6387SOL     OW20059   0.635   1.911   6.591
 6387SOL    HW120060   0.731   1.930   6.569
 6387SOL    HW220061   0.576   1.975   6.542
 6388SOL     OW20062   4.342   4.851   1.086
 6388SOL    HW120063   4.319   4.889   1.176
 6388SOL    HW220064   4.262   4.808   1.046
 6389SOL     OW20065   0.948   5.961   2.310
 6389SOL    HW120066   1.041   5.966   2.348
 6389SOL    HW220067   0.944   5.889   2.240
 6390SOL     OW20068   0.667   2.132   5.193
 6390SOL    HW120069   0.676   2.136   5.093
 6390SOL    HW220070   0.622   2.047   5.218
 6391SOL     OW20071   2.581   6.796   5.717
 6391SOL    HW120072   2.610   6.871   5.777
 6391SOL    HW220073   2.496   6.821   5.672
 6392SOL     OW20074   2.042   6.977   3.226
 6392SOL    HW120075   1.974   6.955   3.295
 6392SOL    HW220076   2.129   6.936   3.251
 6393SOL     OW20077   6.538   6.945   1.495
 6393SOL    HW120078   6.536   0.020   1.497
 6393SOL    HW220079   6.538   6.909   1.589
 6394SOL     OW20080   2.290   4.537   0.833
 6394SOL    HW120081   2.367   4.476   0.850
 6394SOL    HW220082   2.314   4.631   0.857
 6395SOL     OW20083   6.505   2.697   1.845
 6395SOL    HW120084   6.559   2.622   1.807
 6395SOL    HW220085   6.412   2.693   1.809
 6396SOL     OW20086   5.588   3.343   6.394
 6396SOL    HW120087   5.668   3.300   6.353
 6396SOL    HW220088   5.572   3.432   6.352
 6397SOL     OW20089   5.174   2.675   6.592
 6397SOL    HW120090   5.255   2.728   6.569
 6397SOL    HW220091   5.201   2.589   6.635
 6398SOL     OW20092   3.081   0.595   0.365
 6398SOL    HW120093   2.990   0.591   0.406
 6398SOL    HW220094   3.120   0.686   0.381
 6399SOL     OW20095   1.508   5.917   0.026
 6399SOL    HW120096   1.508   5.974   0.108
 6399SOL    HW220097   1.498   5.821   0.053
 6400SOL     OW20098   2.155   6.596   2.360
 6400SOL    HW120099   2.082   6.659   2.385
 6400SOL    HW220100   2.208   6.634   2.285
 6401SOL     OW20101   0.462   4.675   3.621
 6401SOL    HW120102   0.421   4.586   3.601
 6401SOL    HW220103   0.453   4.735   3.542
 6402SOL     OW20104   4.276   1.572   2.530
 6402SOL    HW120105   4.283   1.475   2.505
 6402SOL    HW220106   4.346   1.593   2.599
 6403SOL     OW20107   6.993   6.334   6.229
 6403SOL    HW120108   6.935   6.325   6.148
 6403SOL    HW220109   7.001   6.246   6.275
 6404SOL     OW20110   3.866   1.306   2.453
 6404SOL    HW120111   3.826   1.228   2.500
 6404SOL    HW220112   3.948   1.337   2.502
 6405SOL     OW20113   2.653   0.203   3.721
 6405SOL    HW120114   2.734   0.247   3.761
 6405SOL    HW220115   2.642   0.236   3.627
 6406SOL     OW20116   1.084   2.524   3.378
 6406SOL    HW120117   1.038   2.603   3.337
 6406SOL    HW220118   1.018   2.452   3.394
 6407SOL     OW20119   2.881   6.417   4.226
 6407SOL    HW120120   2.858   6.495   4.284
 6407SOL    HW220121   2.804   6.395   4.167
 6408SOL     OW20122   5.734   1.801   0.214
 6408SOL    HW120123   5.741   1.859   0.295
 6408SOL    HW220124   5.810   1.736   0.213
 6409SOL     OW20125   0.097   4.048   3.084
 6409SOL    HW120126   0.076   4.079   3.177
 6409SOL    HW220127   0.028   3.983   3.054
 6410SOL     OW20128   1.770   1.661   0.428
 6410SOL    HW120129   1.698   1.626   0.489
 6410SOL    HW220130   1.735   1.664   0.335
 6411SOL     OW20131   0.654   2.703   3.270
 6411SOL    HW120132   0.587   2.738   3.336
 6411SOL    HW220133   0.621   2.617   3.232
 6412SOL     OW20134   0.258   2.109   5.197
 6412SOL    HW120135   0.286   2.079   5.288
 6412SOL    HW220136   0.207   2.195   5.204
 6413SOL     OW20137   4.122   4.774   3.685
 6413SOL    HW120138   4.169   4.725   3.758
 6413SOL    HW220139   4.156   4.742   3.596
 6414SOL     OW20140   5.950   1.014   0.873
 6414SOL    HW120141   5.856   1.040   0.895
 6414SOL    HW220142   6.001   0.996   0.958
 6415SOL     OW20143   1.879   2.666   3.353
 6415SOL    HW120144   1.820   2.727   3.300
 6415SOL    HW220145   1.830   2.581   3.374
 6416SOL     OW20146   1.012   1.212   6.734
 6416SOL    HW120147   0.987   1.121   6.700
 6416SOL    HW220148   1.024   1.274   6.656
 6417SOL     OW20149   7.024   4.992   2.231
 6417SOL    HW120150   6.990   4.900   2.212
 6417SOL    HW220151   7.004   5.052   2.154
 6418SOL     OW20152   5.106   4.644   2.180
 6418SOL    HW120153   5.018   4.624   2.138
 6418SOL    HW220154   5.179   4.598   2.129
 6419SOL     OW20155   2.789   4.700   2.776
 6419SOL    HW120156   2.760   4.621   2.721
 6419SOL    HW220157   2.759   4.784   2.731
 6420SOL     OW20158   3.132   3.825   5.407
 6420SOL    HW120159   3.062   3.854   5.473
 6420SOL    HW220160   3.154   3.729   5.422
 6421SOL     OW20161   5.810   0.846   2.474
 6421SOL    HW120162   5.900   0.871   2.438
 6421SOL    HW220163   5.743   0.915   2.447
 6422SOL     OW20164   0.525   0.352   3.540
 6422SOL    HW120165   0.530   0.293   3.459
 6422SOL    HW220166   0.430   0.359   3.570
 6423SOL     OW20167   4.896   5.322   2.689
 6423SOL    HW120168   4.901   5.352   2.785
 6423SOL    HW220169   4.858   5.230   2.686
 6424SOL     OW20170   6.886   5.891   6.134
 6424SOL    HW120171   6.945   5.841   6.198
 6424SOL    HW220172   6.838   5.827   6.075
 6425SOL     OW20173   6.249   5.592   3.013
 6425SOL    HW120174   6.254   5.555   2.919
 6425SOL    HW220175   6.335   5.638   3.035
 6426SOL     OW20176   0.706   4.453   2.949
 6426SOL    HW120177   0.648   4.461   3.029
 6426SOL    HW220178   0.650   4.455   2.866
 6427SOL     OW20179   2.879   2.723   5.962
 6427SOL    HW120180   2.825   2.807   5.957
 6427SOL    HW220181   2.819   2.644   5.958
 6428SOL     OW20182   6.043   2.985   6.618
 6428SOL    HW120183   5.964   3.034   6.655
 6428SOL    HW220184   6.121   2.996   6.679
 6429SOL     OW20185   1.586   1.809   5.770
 6429SOL    HW120186   1.572   1.807   5.671
 6429SOL    HW220187   1.529   1.740   5.813
 6430SOL     OW20188   5.818   0.972   1.899
 6430SOL    HW120189   5.755   1.048   1.884
 6430SOL    HW220190   5.846   0.935   1.810
 6431SOL     OW20191   5.139   6.415   3.502
 6431SOL    HW120192   5.166   6.350   3.573
 6431SOL    HW220193   5.098   6.496   3.545
 6432SOL     OW20194   3.774   3.663   6.604
 6432SOL    HW120195   3.759   3.762   6.596
 6432SOL    HW220196   3.872   3.644   6.593
 6433SOL     OW20197   3.165   4.623   0.821
 6433SOL    HW120198   3.256   4.582   0.830
 6433SOL    HW220199   3.142   4.673   0.905
 6434SOL     OW20200   1.503   3.850   0.167
 6434SOL    HW120201   1.413   3.808   0.178
 6434SOL    HW220202   1.561   3.790   0.111
 6435SOL     OW20203   4.701   6.401   0.112
 6435SOL    HW120204   4.648   6.455   0.177
 6435SOL    HW220205   4.642   6.366   0.040
 6436SOL     OW20206   2.146   3.722   3.423
 6436SOL    HW120207   2.110   3.703   3.332
 6436SOL    HW220208   2.236   3.678   3.432
 6437SOL     OW20209   2.487   1.314   0.999
 6437SOL    HW120210   2.506   1.279   0.907
 6437SOL    HW220211   2.544   1.266   1.065
 6438SOL     OW20212   0.403   4.074   6.366
 6438SOL    HW120213   0.377   4.161   6.409
 6438SOL    HW220214   0.337   4.004   6.389
 6439SOL     OW20215   5.494   1.106   1.253
 6439SOL    HW120216   5.509   1.067   1.344
 6439SOL    HW220217   5.413   1.165   1.255
 6440SOL     OW20218   2.398   2.050   0.172
 6440SOL    HW120219   2.434   2.093   0.089
 6440SOL    HW220220   2.389   2.119   0.244
 6441SOL     OW20221   1.142   6.174   2.163
 6441SOL    HW120222   1.177   6.119   2.238
 6441SOL    HW220223   1.171   6.134   2.076
 6442SOL     OW20224   2.798   0.916   4.139
 6442SOL    HW120225   2.723   0.975   4.168
 6442SOL    HW220226   2.881   0.940   4.190
 6443SOL     OW20227   3.961   2.521   5.911
 6443SOL    HW120228   3.933   2.454   5.843
 6443SOL    HW220229   4.039   2.573   5.876
 6444SOL     OW20230   6.939   2.488   3.746
 6444SOL    HW120231   6.974   2.501   3.654
 6444SOL    HW220232   7.014   2.493   3.812
 6445SOL     OW20233   4.992   3.169   5.517
 6445SOL    HW120234   4.979   3.119   5.602
 6445SOL    HW220235   4.934   3.130   5.446
 6446SOL     OW20236   1.191   0.778   5.985
 6446SOL    HW120237   1.188   0.870   5.947
 6446SOL    HW220238   1.121   0.767   6.054
 6447SOL     OW20239   0.421   5.047   2.610
 6447SOL    HW120240   0.463   5.117   2.668
 6447SOL    HW220241   0.337   5.015   2.653
 6448SOL     OW20242   4.986   5.558   2.888
 6448SOL    HW120243   5.057   5.611   2.842
 6448SOL    HW220244   5.023   5.520   2.973
 6449SOL     OW20245   3.148   4.930   0.713
 6449SOL    HW120246   3.099   4.978   0.786
 6449SOL    HW220247   3.235   4.896   0.748
 6450SOL     OW20248   0.315   3.650   1.492
 6450SOL    HW120249   0.388   3.651   1.423
 6450SOL    HW220250   0.278   3.557   1.499
 6451SOL     OW20251   2.352   6.975   5.045
 6451SOL    HW120252   2.452   6.970   5.038
 6451SOL    HW220253   2.311   6.917   4.974
 6452SOL     OW20254   3.513   6.859   4.624
 6452SOL    HW120255   3.490   6.767   4.593
 6452SOL    HW220256   3.430   6.914   4.633
 6453SOL     OW20257   1.797   6.676   0.932
 6453SOL    HW120258   1.776   6.609   0.861
 6453SOL    HW220259   1.880   6.725   0.908
 6454SOL     OW20260   2.548   1.692   3.284
 6454SOL    HW120261   2.553   1.715   3.381
 6454SOL    HW220262   2.521   1.773   3.232
 6455SOL     OW20263   0.372   2.065   4.077
 6455SOL    HW120264   0.407   2.158   4.064
 6455SOL    HW220265   0.336   2.055   4.170
 6456SOL     OW20266   1.848   0.415   3.479
 6456SOL    HW120267   1.897   0.421   3.566
 6456SOL    HW220268   1.852   0.322   3.445
 6457SOL     OW20269   4.681   2.025   0.277
 6457SOL    HW120270   4.774   2.055   0.300
 6457SOL    HW220271   4.643   1.972   0.353
 6458SOL     OW20272   0.816   0.090   3.480
 6458SOL    HW120273   0.908   0.128   3.489
 6458SOL    HW220274   0.822   7.021   3.446
 6459SOL     OW20275   5.572   5.263   0.452
 6459SOL    HW120276   5.497   5.249   0.388
 6459SOL    HW220277   5.535   5.279   0.544
 6460SOL     OW20278   5.063   5.484   5.939
 6460SOL    HW120279   5.070   5.577   5.976
 6460SOL    HW220280   4.980   5.441   5.974
 6461SOL     OW20281   2.709   4.613   5.311
 6461SOL    HW120282   2.637   4.677   5.285
 6461SOL    HW220283   2.783   4.617   5.243
 6462SOL     OW20284   2.346   2.828   4.854
 6462SOL    HW120285   2.361   2.897   4.924
 6462SOL    HW220286   2.405   2.749   4.871
 6463SOL     OW20287   6.953   3.862   6.626
 6463SOL    HW120288   7.012   3.847   6.705
 6463SOL    HW220289   6.892   3.783   6.614
 6464SOL     OW20290   1.540   4.860   4.467
 6464SOL    HW120291   1.613   4.862   4.535
 6464SOL    HW220292   1.462   4.914   4.501
 6465SOL     OW20293   6.703   2.664   3.303
 6465SOL    HW120294   6.661   2.592   3.357
 6465SOL    HW220295   6.770   2.713   3.359
 6466SOL     OW20296   0.996   1.593   6.655
 6466SOL    HW120297   1.047   1.530   6.596
 6466SOL    HW220298   0.973   1.548   6.741
 6467SOL     OW20299   3.373   0.543   6.605
 6467SOL    HW120300   3.412   0.629   6.640
 6467SOL    HW220301   3.274   0.548   6.610
 6468SOL     OW20302   4.028   6.892   1.581
 6468SOL    HW120303   4.053   6.954   1.656
 6468SOL    HW220304   4.109   6.846   1.547
 6469SOL     OW20305   4.373   0.641   5.120
 6469SOL    HW120306   4.431   0.579   5.067
 6469SOL    HW220307   4.362   0.727   5.071
 6470SOL     OW20308   6.281   4.804   6.627
 6470SOL    HW120309   6.305   4.889   6.673
 6470SOL    HW220310   6.319   4.805   6.534
 6471SOL     OW20311   6.617   6.026   5.280
 6471SOL    HW120312   6.533   6.060   5.323
 6471SOL    HW220313   6.604   6.021   5.181
 6472SOL     OW20314   0.466   4.748   1.101
 6472SOL    HW120315   0.455   4.652   1.077
 6472SOL    HW220316   0.489   4.801   1.020
 6473SOL     OW20317   2.735   1.526   3.998
 6473SOL    HW120318   2.721   1.514   3.900
 6473SOL    HW220319   2.830   1.552   4.015
 6474SOL     OW20320   2.116   4.079   6.106
 6474SOL    HW120321   2.092   4.166   6.062
 6474SOL    HW220322   2.199   4.091   6.159
 6475SOL     OW20323   6.714   5.077   4.095
 6475SOL    HW120324   6.781   5.145   4.065
 6475SOL    HW220325   6.624   5.099   4.057
 6476SOL     OW20326   4.708   3.027   0.895
 6476SOL    HW120327   4.665   3.113   0.921
 6476SOL    HW220328   4.689   2.958   0.965
 6477SOL     OW20329   6.341   4.775   0.989
 6477SOL    HW120330   6.265   4.710   0.993
 6477SOL    HW220331   6.427   4.726   0.975
 6478SOL     OW20332   3.572   6.429   1.910
 6478SOL    HW120333   3.519   6.465   1.833
 6478SOL    HW220334   3.527   6.348   1.947
 6479SOL     OW20335   3.899   6.372   4.033
 6479SOL    HW120336   3.896   6.408   3.939
 6479SOL    HW220337   3.961   6.294   4.037
 6480SOL     OW20338   3.256   2.214   5.675
 6480SOL    HW120339   3.217   2.247   5.761
 6480SOL    HW220340   3.183   2.174   5.619
 6481SOL     OW20341   3.797   1.842   2.125
 6481SOL    HW120342   3.891   1.856   2.154
 6481SOL    HW220343   3.745   1.927   2.139
 6482SOL     OW20344   0.337   0.267   5.996
 6482SOL    HW120345   0.367   0.300   6.086
 6482SOL    HW220346   0.385   0.181   5.975
 6483SOL     OW20347   1.256   5.773   1.385
 6483SOL    HW120348   1.169   5.782   1.337
 6483SOL    HW220349   1.319   5.843   1.352
 6484SOL     OW20350   3.461   0.293   1.687
 6484SOL    HW120351   3.362   0.295   1.698
 6484SOL    HW220352   3.504   0.284   1.777
 6485SOL     OW20353   1.943   4.377   3.306
 6485SOL    HW120354   1.851   4.416   3.306
 6485SOL    HW220355   1.976   4.368   3.212
 6486SOL     OW20356   2.024   4.500   4.611
 6486SOL    HW120357   2.123   4.489   4.616
 6486SOL    HW220358   1.996   4.579   4.666
 6487SOL     OW20359   6.882   6.132   5.345
 6487SOL    HW120360   6.792   6.099   5.319
 6487SOL    HW220361   6.938   6.055   5.377
 6488SOL     OW20362   3.366   5.993   5.609
 6488SOL    HW120363   3.415   5.967   5.692
 6488SOL    HW220364   3.373   6.092   5.596
 6489SOL     OW20365   2.368   2.863   6.615
 6489SOL    HW120366   2.315   2.782   6.641
 6489SOL    HW220367   2.461   2.855   6.652
 6490SOL     OW20368   4.363   1.808   5.938
 6490SOL    HW120369   4.366   1.736   5.869
 6490SOL    HW220370   4.431   1.789   6.009
 6491SOL     OW20371   3.997   1.375   6.565
 6491SOL    HW120372   3.903   1.400   6.590
 6491SOL    HW220373   3.999   1.342   6.471
 6492SOL     OW20374   5.493   5.798   0.033
 6492SOL    HW120375   5.533   5.712   0.065
 6492SOL    HW220376   5.565   5.863   0.010
 6493SOL     OW20377   0.953   5.521   4.772
 6493SOL    HW120378   1.050   5.541   4.760
 6493SOL    HW220379   0.906   5.524   4.684
 6494SOL     OW20380   0.631   1.034   3.306
 6494SOL    HW120381   0.625   0.936   3.325
 6494SOL    HW220382   0.658   1.082   3.389
 6495SOL     OW20383   5.051   6.038   4.527
 6495SOL    HW120384   5.039   6.095   4.609
 6495SOL    HW220385   5.084   5.948   4.555
 6496SOL     OW20386   0.050   0.041   2.412
 6496SOL    HW120387   0.067   0.099   2.332
 6496SOL    HW220388   0.107   6.984   2.407
 6497SOL     OW20389   2.361   2.904   0.473
 6497SOL    HW120390   2.327   2.839   0.405
 6497SOL    HW220391   2.385   2.989   0.428
 6498SOL     OW20392   2.167   4.021   4.220
 6498SOL    HW120393   2.251   4.062   4.256
 6498SOL    HW220394   2.176   4.007   4.121
 6499SOL     OW20395   5.423   2.079   4.782
 6499SOL    HW120396   5.350   2.129   4.828
 6499SOL    HW220397   5.459   2.136   4.707
 6500SOL     OW20398   0.232   4.473   3.629
 6500SOL    HW120399   0.196   4.479   3.536
 6500SOL    HW220400   0.157   4.478   3.694
 6501SOL     OW20401   6.432   2.812   6.805
 6501SOL    HW120402   6.526   2.844   6.809
 6501SOL    HW220403   6.402   2.809   6.710
 6502SOL     OW20404   6.102   3.504   1.659
 6502SOL    HW120405   6.080   3.568   1.732
 6502SOL    HW220406   6.195   3.522   1.626
 6503SOL     OW20407   4.761   1.324   3.700
 6503SOL    HW120408   4.797   1.236   3.671
 6503SOL    HW220409   4.662   1.316   3.714
 6504SOL     OW20410   4.973   6.243   6.071
 6504SOL    HW120411   4.896   6.306   6.076
 6504SOL    HW220412   5.039   6.266   6.143
 6505SOL     OW20413   5.275   5.197   1.677
 6505SOL    HW120414   5.194   5.221   1.623
 6505SOL    HW220415   5.260   5.107   1.718
 6506SOL     OW20416   6.164   3.234   1.777
 6506SOL    HW120417   6.134   3.257   1.870
 6506SOL    HW220418   6.137   3.307   1.714
 6507SOL     OW20419   2.057   5.145   6.005
 6507SOL    HW120420   1.966   5.105   6.017
 6507SOL    HW220421   2.123   5.094   6.060
 6508SOL     OW20422   2.237   0.319   3.111
 6508SOL    HW120423   2.250   0.234   3.059
 6508SOL    HW220424   2.158   0.368   3.074
 6509SOL     OW20425   3.249   1.788   4.298
 6509SOL    HW120426   3.194   1.871   4.310
 6509SOL    HW220427   3.191   1.707   4.302
 6510SOL     OW20428   6.452   4.172   6.920
 6510SOL    HW120429   6.452   4.269   6.945
 6510SOL    HW220430   6.466   4.164   6.821
 6511SOL     OW20431   4.556   0.951   4.579
 6511SOL    HW120432   4.630   0.900   4.537
 6511SOL    HW220433   4.587   0.990   4.665
 6512SOL     OW20434   4.972   6.749   2.109
 6512SOL    HW120435   5.022   6.836   2.103
 6512SOL    HW220436   5.037   6.674   2.123
 6513SOL     OW20437   3.339   4.954   3.171
 6513SOL    HW120438   3.406   5.026   3.191
 6513SOL    HW220439   3.345   4.929   3.075
 6514SOL     OW20440   5.588   1.120   3.738
 6514SOL    HW120441   5.537   1.102   3.821
 6514SOL    HW220442   5.583   1.041   3.677
 6515SOL     OW20443   0.749   4.857   4.165
 6515SOL    HW120444   0.836   4.888   4.126
 6515SOL    HW220445   0.767   4.791   4.238
 6516SOL     OW20446   0.243   3.230   1.918
 6516SOL    HW120447   0.282   3.147   1.877
 6516SOL    HW220448   0.156   3.208   1.960
 6517SOL     OW20449   6.720   0.907   0.251
 6517SOL    HW120450   6.647   0.843   0.226
 6517SOL    HW220451   6.786   0.861   0.309
 6518SOL     OW20452   6.744   0.527   0.041
 6518SOL    HW120453   6.836   0.542   0.076
 6518SOL    HW220454   6.684   0.601   0.072
 6519SOL     OW20455   2.759   2.046   3.642
 6519SOL    HW120456   2.743   2.040   3.543
 6519SOL    HW220457   2.675   2.021   3.691
 6520SOL     OW20458   5.577   5.317   2.141
 6520SOL    HW120459   5.617   5.227   2.121
 6520SOL    HW220460   5.479   5.308   2.155
 6521SOL     OW20461   1.743   2.448   4.483
 6521SOL    HW120462   1.793   2.534   4.473
 6521SOL    HW220463   1.659   2.451   4.429
 6522SOL     OW20464   3.616   4.465   0.018
 6522SOL    HW120465   3.553   4.440   0.091
 6522SOL    HW220466   3.636   4.563   0.023
 6523SOL     OW20467   3.594   0.362   6.538
 6523SOL    HW120468   3.560   0.279   6.493
 6523SOL    HW220469   3.517   0.424   6.557
 6524SOL     OW20470   2.793   3.560   1.887
 6524SOL    HW120471   2.701   3.522   1.884
 6524SOL    HW220472   2.822   3.584   1.794
 6525SOL     OW20473   1.308   3.938   3.694
 6525SOL    HW120474   1.370   4.015   3.712
 6525SOL    HW220475   1.342   3.856   3.740
 6526SOL     OW20476   2.112   0.311   6.457
 6526SOL    HW120477   2.180   0.280   6.523
 6526SOL    HW220478   2.148   0.301   6.364
 6527SOL     OW20479   1.117   2.293   4.692
 6527SOL    HW120480   1.127   2.317   4.789
 6527SOL    HW220481   1.186   2.343   4.639
 6528SOL     OW20482   0.199   1.285   3.944
 6528SOL    HW120483   0.249   1.328   3.869
 6528SOL    HW220484   0.207   1.186   3.937
 6529SOL     OW20485   0.214   1.789   2.964
 6529SOL    HW120486   0.292   1.806   3.024
 6529SOL    HW220487   0.195   1.871   2.910
 6530SOL     OW20488   6.654   3.756   2.130
 6530SOL    HW120489   6.658   3.798   2.039
 6530SOL    HW220490   6.745   3.723   2.155
 6531SOL     OW20491   5.497   3.685   4.695
 6531SOL    HW120492   5.568   3.687   4.765
 6531SOL    HW220493   5.537   3.710   4.607
 6532SOL     OW20494   6.271   0.117   6.917
 6532SOL    HW120495   6.254   0.194   6.978
 6532SOL    HW220496   6.189   0.061   6.909
 6533SOL     OW20497   4.707   5.993   0.873
 6533SOL    HW120498   4.735   5.988   0.777
 6533SOL    HW220499   4.738   5.911   0.921
 6534SOL     OW20500   3.569   4.418   1.131
 6534SOL    HW120501   3.550   4.336   1.186
 6534SOL    HW220502   3.608   4.390   1.043
 6535SOL     OW20503   6.421   3.228   4.061
 6535SOL    HW120504   6.326   3.210   4.036
 6535SOL    HW220505   6.441   3.185   4.149
 6536SOL     OW20506   0.710   2.271   5.803
 6536SOL    HW120507   0.622   2.304   5.770
 6536SOL    HW220508   0.700   2.177   5.836
 6537SOL     OW20509   5.812   5.522   6.852
 6537SOL    HW120510   5.718   5.532   6.822
 6537SOL    HW220511   5.815   5.463   6.933
 6538SOL     OW20512   3.253   4.372   6.860
 6538SOL    HW120513   3.325   4.316   6.900
 6538SOL    HW220514   3.221   4.330   6.775
 6539SOL     OW20515   3.476   0.499   6.028
 6539SOL    HW120516   3.408   0.481   5.957
 6539SOL    HW220517   3.509   0.413   6.065
 6540SOL     OW20518   5.286   1.253   5.303
 6540SOL    HW120519   5.301   1.176   5.365
 6540SOL    HW220520   5.236   1.325   5.350
 6541SOL     OW20521   3.636   1.785   5.047
 6541SOL    HW120522   3.686   1.706   5.083
 6541SOL    HW220523   3.538   1.766   5.048
 6542SOL     OW20524   0.001   4.492   3.790
 6542SOL    HW120525   6.940   4.505   3.740
 6542SOL    HW220526   7.019   4.537   3.880
 6543SOL     OW20527   6.190   3.694   6.420
 6543SOL    HW120528   6.208   3.661   6.513
 6543SOL    HW220529   6.218   3.624   6.354
 6544SOL     OW20530   0.326   6.479   2.722
 6544SOL    HW120531   0.425   6.486   2.731
 6544SOL    HW220532   0.283   6.495   2.811
 6545SOL     OW20533   5.827   2.198   6.470
 6545SOL    HW120534   5.871   2.138   6.403
 6545SOL    HW220535   5.889   2.210   6.548
 6546SOL     OW20536   3.893   3.949   6.939
 6546SOL    HW120537   3.906   4.046   6.960
 6546SOL    HW220538   3.957   3.921   6.867
 6547SOL     OW20539   4.601   1.404   5.496
 6547SOL    HW120540   4.598   1.356   5.409
 6547SOL    HW220541   4.570   1.498   5.484
 6548SOL     OW20542   1.075   3.299   0.495
 6548SOL    HW120543   1.032   3.227   0.440
 6548SOL    HW220544   1.038   3.388   0.468
 6549SOL     OW20545   4.147   1.761   0.774
 6549SOL    HW120546   4.068   1.789   0.718
 6549SOL    HW220547   4.156   1.662   0.771
 6550SOL     OW20548   0.625   6.663   3.842
 6550SOL    HW120549   0.604   6.568   3.865
 6550SOL    HW220550   0.566   6.724   3.895
 6551SOL     OW20551   1.854   4.605   2.146
 6551SOL    HW120552   1.915   4.661   2.090
 6551SOL    HW220553   1.903   4.573   2.228
 6552SOL     OW20554   2.334   0.123   5.288
 6552SOL    HW120555   2.355   0.082   5.199
 6552SOL    HW220556   2.420   0.142   5.337
 6553SOL     OW20557   0.929   1.500   2.958
 6553SOL    HW120558   1.012   1.460   2.995
 6553SOL    HW220559   0.899   1.446   2.879
 6554SOL     OW20560   6.087   1.070   5.367
 6554SOL    HW120561   6.092   1.110   5.459
 6554SOL    HW220562   6.020   0.997   5.366
 6555SOL     OW20563   0.422   2.299   1.929
 6555SOL    HW120564   0.432   2.395   1.954
 6555SOL    HW220565   0.326   2.274   1.932
 6556SOL     OW20566   4.704   4.551   5.233
 6556SOL    HW120567   4.794   4.532   5.272
 6556SOL    HW220568   4.698   4.647   5.206
 6557SOL     OW20569   3.624   5.615   1.606
 6557SOL    HW120570   3.665   5.689   1.660
 6557SOL    HW220571   3.682   5.597   1.527
 6558SOL     OW20572   6.497   4.931   0.156
 6558SOL    HW120573   6.435   4.889   0.222
 6558SOL    HW220574   6.445   4.992   0.096
 6559SOL     OW20575   6.371   4.201   6.625
 6559SOL    HW120576   6.292   4.147   6.597
 6559SOL    HW220577   6.379   4.282   6.567
 6560SOL     OW20578   4.114   4.095   1.440
 6560SOL    HW120579   4.166   4.180   1.451
 6560SOL    HW220580   4.068   4.095   1.351
 6561SOL     OW20581   3.750   4.091   2.212
 6561SOL    HW120582   3.676   4.093   2.145
 6561SOL    HW220583   3.828   4.143   2.177
 6562SOL     OW20584   5.639   4.635   6.980
 6562SOL    HW120585   5.690   4.720   6.992
 6562SOL    HW220586   5.543   4.655   6.964
 6563SOL     OW20587   0.208   6.172   0.284
 6563SOL    HW120588   0.290   6.227   0.267
 6563SOL    HW220589   0.140   6.228   0.331
 6564SOL     OW20590   0.108   4.195   2.240
 6564SOL    HW120591   0.060   4.113   2.209
 6564SOL    HW220592   0.108   4.199   2.340
 6565SOL     OW20593   6.753   2.344   4.194
 6565SOL    HW120594   6.750   2.296   4.106
 6565SOL    HW220595   6.818   2.299   4.254
 6566SOL     OW20596   2.517   6.163   2.481
 6566SOL    HW120597   2.491   6.216   2.401
 6566SOL    HW220598   2.440   6.104   2.508
 6567SOL     OW20599   3.913   2.693   0.982
 6567SOL    HW120600   3.845   2.761   0.954
 6567SOL    HW220601   3.898   2.608   0.931
 6568SOL     OW20602   4.661   6.646   3.132
 6568SOL    HW120603   4.629   6.740   3.140
 6568SOL    HW220604   4.712   6.635   3.046
 6569SOL     OW20605   2.950   4.073   0.436
 6569SOL    HW120606   2.959   4.171   0.452
 6569SOL    HW220607   2.974   4.053   0.341
 6570SOL     OW20608   4.114   6.553   2.041
 6570SOL    HW120609   4.124   6.645   2.077
 6570SOL    HW220610   4.073   6.557   1.950
 6571SOL     OW20611   2.589   5.653   2.083
 6571SOL    HW120612   2.598   5.610   1.994
 6571SOL    HW220613   2.680   5.667   2.122
 6572SOL     OW20614   6.918   5.709   5.655
 6572SOL    HW120615   6.863   5.633   5.689
 6572SOL    HW220616   6.868   5.757   5.583
 6573SOL     OW20617   2.177   1.615   2.118
 6573SOL    HW120618   2.185   1.714   2.122
 6573SOL    HW220619   2.164   1.578   2.210
 6574SOL     OW20620   2.788   6.211   2.437
 6574SOL    HW120621   2.816   6.278   2.369
 6574SOL    HW220622   2.690   6.222   2.456
 6575SOL     OW20623   0.881   0.996   2.392
 6575SOL    HW120624   0.880   1.067   2.462
 6575SOL    HW220625   0.920   0.912   2.429
 6576SOL     OW20626   1.522   6.384   6.701
 6576SOL    HW120627   1.576   6.304   6.728
 6576SOL    HW220628   1.513   6.387   6.602
 6577SOL     OW20629   1.190   2.562   3.665
 6577SOL    HW120630   1.137   2.517   3.593
 6577SOL    HW220631   1.181   2.509   3.750
 6578SOL     OW20632   0.784   4.415   2.594
 6578SOL    HW120633   0.877   4.379   2.595
 6578SOL    HW220634   0.719   4.339   2.594
 6579SOL     OW20635   6.959   3.560   4.870
 6579SOL    HW120636   6.934   3.502   4.793
 6579SOL    HW220637   6.882   3.618   4.895
 6580SOL     OW20638   6.911   1.617   1.210
 6580SOL    HW120639   6.827   1.583   1.167
 6580SOL    HW220640   6.989   1.566   1.175
 6581SOL     OW20641   2.952   1.302   6.532
 6581SOL    HW120642   2.867   1.352   6.513
 6581SOL    HW220643   2.971   1.303   6.630
 6582SOL     OW20644   1.522   1.112   1.938
 6582SOL    HW120645   1.557   1.206   1.933
 6582SOL    HW220646   1.564   1.057   1.866
 6583SOL     OW20647   4.539   0.283   5.016
 6583SOL    HW120648   4.444   0.264   5.041
 6583SOL    HW220649   4.600   0.250   5.088
 6584SOL     OW20650   4.945   1.746   6.588
 6584SOL    HW120651   4.884   1.716   6.661
 6584SOL    HW220652   5.040   1.740   6.619
 6585SOL     OW20653   6.620   0.492   6.662
 6585SOL    HW120654   6.696   0.508   6.725
 6585SOL    HW220655   6.534   0.492   6.712
 6586SOL     OW20656   6.407   2.113   6.044
 6586SOL    HW120657   6.492   2.166   6.048
 6586SOL    HW220658   6.413   2.047   5.969
 6587SOL     OW20659   2.709   6.228   4.852
 6587SOL    HW120660   2.700   6.311   4.798
 6587SOL    HW220661   2.618   6.198   4.883
 6588SOL     OW20662   1.667   3.798   1.500
 6588SOL    HW120663   1.614   3.855   1.563
 6588SOL    HW220664   1.616   3.788   1.414
 6589SOL     OW20665   4.655   0.567   0.162
 6589SOL    HW120666   4.633   0.523   0.075
 6589SOL    HW220667   4.664   0.496   0.233
 6590SOL     OW20668   1.146   1.047   5.818
 6590SOL    HW120669   1.096   1.055   5.905
 6590SOL    HW220670   1.090   0.996   5.753
 6591SOL     OW20671   4.862   6.250   2.480
 6591SOL    HW120672   4.897   6.316   2.546
 6591SOL    HW220673   4.880   6.282   2.387
 6592SOL     OW20674   5.810   6.707   4.141
 6592SOL    HW120675   5.878   6.639   4.169
 6592SOL    HW220676   5.802   6.777   4.211
 6593SOL     OW20677   2.456   1.707   3.887
 6593SOL    HW120678   2.530   1.696   3.953
 6593SOL    HW220679   2.384   1.764   3.928
 6594SOL     OW20680   3.715   1.335   0.071
 6594SOL    HW120681   3.739   1.385   7.012
 6594SOL    HW220682   3.780   1.260   0.084
 6595SOL     OW20683   0.798   2.992   0.976
 6595SOL    HW120684   0.724   2.926   0.992
 6595SOL    HW220685   0.825   3.034   1.062
 6596SOL     OW20686   2.971   6.895   4.636
 6596SOL    HW120687   2.872   6.877   4.638
 6596SOL    HW220688   2.995   6.935   4.547
 6597SOL     OW20689   1.559   6.150   3.453
 6597SOL    HW120690   1.473   6.196   3.475
 6597SOL    HW220691   1.631   6.218   3.444
 6598SOL     OW20692   0.579   6.909   4.519
 6598SOL    HW120693   0.636   6.928   4.599
 6598SOL    HW220694   0.636   6.878   4.443
 6599SOL     OW20695   3.628   6.064   5.438
 6599SOL    HW120696   3.539   6.109   5.445
 6599SOL    HW220697   3.691   6.123   5.388
 6600SOL     OW20698   4.905   5.132   6.095
 6600SOL    HW120699   4.965   5.128   6.015
 6600SOL    HW220700   4.813   5.159   6.067
 6601SOL     OW20701   0.841   1.591   5.953
 6601SOL    HW120702   0.784   1.672   5.966
 6601SOL    HW220703   0.783   1.513   5.930
 6602SOL     OW20704   0.232   1.456   2.056
 6602SOL    HW120705   0.229   1.540   2.110
 6602SOL    HW220706   0.295   1.391   2.099
 6603SOL     OW20707   0.684   2.777   4.306
 6603SOL    HW120708   0.701   2.744   4.213
 6603SOL    HW220709   0.673   2.699   4.368
 6604SOL     OW20710   2.657   6.654   0.793
 6604SOL    HW120711   2.745   6.608   0.804
 6604SOL    HW220712   2.595   6.625   0.865
 6605SOL     OW20713   5.742   4.669   1.537
 6605SOL    HW120714   5.656   4.705   1.502
 6605SOL    HW220715   5.745   4.570   1.522
 6606SOL     OW20716   5.989   6.822   2.331
 6606SOL    HW120717   6.010   6.901   2.389
 6606SOL    HW220718   6.046   6.745   2.357
 6607SOL     OW20719   1.967   2.187   2.204
 6607SOL    HW120720   1.918   2.101   2.192
 6607SOL    HW220721   1.941   2.229   2.291
 6608SOL     OW20722   4.885   5.723   2.056
 6608SOL    HW120723   4.883   5.701   2.153
 6608SOL    HW220724   4.859   5.642   2.003
 6609SOL     OW20725   4.900   0.828   6.100
 6609SOL    HW120726   4.867   0.896   6.165
 6609SOL    HW220727   4.978   0.866   6.049
 6610SOL     OW20728   2.722   1.470   6.482
 6610SOL    HW120729   2.650   1.532   6.512
 6610SOL    HW220730   2.772   1.511   6.406
 6611SOL     OW20731   6.187   2.862   4.229
 6611SOL    HW120732   6.110   2.903   4.180
 6611SOL    HW220733   6.160   2.843   4.323
 6612SOL     OW20734   6.764   2.196   0.036
 6612SOL    HW120735   6.704   2.119   0.061
 6612SOL    HW220736   6.852   2.160   0.003
 6613SOL     OW20737   6.272   6.080   4.733
 6613SOL    HW120738   6.279   6.180   4.732
 6613SOL    HW220739   6.308   6.043   4.648
 6614SOL     OW20740   5.800   6.261   6.908
 6614SOL    HW120741   5.735   6.331   6.938
 6614SOL    HW220742   5.880   6.262   6.967
 6615SOL     OW20743   0.744   4.703   3.415
 6615SOL    HW120744   0.765   4.686   3.512
 6615SOL    HW220745   0.819   4.669   3.358
 6616SOL     OW20746   4.245   1.256   5.716
 6616SOL    HW120747   4.318   1.194   5.686
 6616SOL    HW220748   4.165   1.245   5.655
 6617SOL     OW20749   3.499   5.161   3.494
 6617SOL    HW120750   3.575   5.135   3.435
 6617SOL    HW220751   3.533   5.182   3.586
 6618SOL     OW20752   1.290   3.532   2.914
 6618SOL    HW120753   1.254   3.572   2.830
 6618SOL    HW220754   1.337   3.603   2.967
 6619SOL     OW20755   6.549   0.121   4.947
 6619SOL    HW120756   6.627   0.136   4.887
 6619SOL    HW220757   6.574   0.144   5.041
 6620SOL     OW20758   2.095   2.576   5.732
 6620SOL    HW120759   2.059   2.492   5.693
 6620SOL    HW220760   2.144   2.627   5.662
 6621SOL     OW20761   1.975   3.381   6.707
 6621SOL    HW120762   1.960   3.294   6.659
 6621SOL    HW220763   1.890   3.433   6.708
 6622SOL     OW20764   5.282   6.320   1.870
 6622SOL    HW120765   5.312   6.278   1.785
 6622SOL    HW220766   5.347   6.297   1.943
 6623SOL     OW20767   2.703   3.759   0.444
 6623SOL    HW120768   2.651   3.800   0.370
 6623SOL    HW220769   2.790   3.725   0.408
 6624SOL     OW20770   1.858   0.422   4.608
 6624SOL    HW120771   1.794   0.427   4.685
 6624SOL    HW220772   1.941   0.375   4.638
 6625SOL     OW20773   5.584   1.706   5.944
 6625SOL    HW120774   5.506   1.643   5.939
 6625SOL    HW220775   5.659   1.661   5.992
 6626SOL     OW20776   4.131   4.809   5.314
 6626SOL    HW120777   4.225   4.841   5.302
 6626SOL    HW220778   4.129   4.710   5.311
 6627SOL     OW20779   2.585   1.058   5.801
 6627SOL    HW120780   2.546   1.034   5.890
 6627SOL    HW220781   2.685   1.063   5.808
 6628SOL     OW20782   4.689   4.357   4.555
 6628SOL    HW120783   4.688   4.314   4.464
 6628SOL    HW220784   4.779   4.398   4.571
 6629SOL     OW20785   3.088   5.666   6.682
 6629SOL    HW120786   3.028   5.672   6.602
 6629SOL    HW220787   3.059   5.734   6.750
 6630SOL     OW20788   3.444   1.392   1.314
 6630SOL    HW120789   3.543   1.403   1.311
 6630SOL    HW220790   3.405   1.458   1.378
 6631SOL     OW20791   3.639   0.460   2.356
 6631SOL    HW120792   3.721   0.492   2.403
 6631SOL    HW220793   3.578   0.415   2.421
 6632SOL     OW20794   0.537   6.058   1.636
 6632SOL    HW120795   0.505   6.052   1.730
 6632SOL    HW220796   0.475   6.115   1.583
 6633SOL     OW20797   0.871   3.905   5.752
 6633SOL    HW120798   0.940   3.864   5.693
 6633SOL    HW220799   0.799   3.837   5.771
 6634SOL     OW20800   6.141   2.847   4.494
 6634SOL    HW120801   6.145   2.762   4.546
 6634SOL    HW220802   6.191   2.918   4.544
 6635SOL     OW20803   3.877   4.864   3.199
 6635SOL    HW120804   3.963   4.902   3.164
 6635SOL    HW220805   3.886   4.844   3.296
 6636SOL     OW20806   3.758   1.479   5.486
 6636SOL    HW120807   3.817   1.459   5.564
 6636SOL    HW220808   3.749   1.578   5.475
 6637SOL     OW20809   1.640   0.367   5.968
 6637SOL    HW120810   1.728   0.319   5.967
 6637SOL    HW220811   1.630   0.419   5.883
 6638SOL     OW20812   3.409   4.185   4.777
 6638SOL    HW120813   3.487   4.145   4.825
 6638SOL    HW220814   3.404   4.283   4.795
 6639SOL     OW20815   5.431   5.319   6.316
 6639SOL    HW120816   5.514   5.356   6.357
 6639SOL    HW220817   5.402   5.379   6.241
 6640SOL     OW20818   0.630   1.375   5.142
 6640SOL    HW120819   0.675   1.399   5.056
 6640SOL    HW220820   0.546   1.324   5.123
 6641SOL     OW20821   1.991   2.554   0.214
 6641SOL    HW120822   2.065   2.549   0.146
 6641SOL    HW220823   1.915   2.497   0.185
 6642SOL     OW20824   2.771   5.415   6.843
 6642SOL    HW120825   2.868   5.408   6.868
 6642SOL    HW220826   2.763   5.466   6.758
 6643SOL     OW20827   6.885   5.227   6.667
 6643SOL    HW120828   6.942   5.147   6.684
 6643SOL    HW220829   6.791   5.207   6.697
 6644SOL     OW20830   3.036   4.947   2.057
 6644SOL    HW120831   2.965   4.881   2.035
 6644SOL    HW220832   3.035   5.021   1.989
 6645SOL     OW20833   6.911   5.159   0.437
 6645SOL    HW120834   6.992   5.099   0.433
 6645SOL    HW220835   6.868   5.162   0.347
 6646SOL     OW20836   3.946   6.966   4.265
 6646SOL    HW120837   3.890   6.993   4.187
 6646SOL    HW220838   3.887   6.929   4.337
 6647SOL     OW20839   4.283   0.572   2.330
 6647SOL    HW120840   4.319   0.611   2.245
 6647SOL    HW220841   4.359   0.550   2.391
 6648SOL     OW20842   3.359   5.757   2.773
 6648SOL    HW120843   3.341   5.816   2.852
 6648SOL    HW220844   3.277   5.705   2.750
 6649SOL     OW20845   5.258   1.066   0.034
 6649SOL    HW120846   5.214   1.060   6.969
 6649SOL    HW220847   5.352   1.035   0.027
 6650SOL     OW20848   3.241   1.565   4.885
 6650SOL    HW120849   3.302   1.485   4.877
 6650SOL    HW220850   3.296   1.648   4.881
 6651SOL     OW20851   1.723   1.810   6.362
 6651SOL    HW120852   1.754   1.843   6.273
 6651SOL    HW220853   1.781   1.847   6.434
 6652SOL     OW20854   6.287   4.915   0.377
 6652SOL    HW120855   6.242   4.967   0.450
 6652SOL    HW220856   6.232   4.834   0.356
 6653SOL     OW20857   3.580   2.863   2.254
 6653SOL    HW120858   3.480   2.868   2.250
 6653SOL    HW220859   3.615   2.817   2.172
 6654SOL     OW20860   1.837   2.862   1.388
 6654SOL    HW120861   1.772   2.916   1.442
 6654SOL    HW220862   1.927   2.866   1.432
 6655SOL     OW20863   2.452   6.970   1.952
 6655SOL    HW120864   2.456   0.013   1.877
 6655SOL    HW220865   2.359   6.967   1.988
 6656SOL     OW20866   6.092   1.818   1.985
 6656SOL    HW120867   6.164   1.855   1.926
 6656SOL    HW220868   6.010   1.801   1.931
 6657SOL     OW20869   5.979   5.994   6.024
 6657SOL    HW120870   5.881   6.003   6.037
 6657SOL    HW220871   6.022   5.968   6.111
 6658SOL     OW20872   6.208   1.365   4.628
 6658SOL    HW120873   6.236   1.454   4.591
 6658SOL    HW220874   6.116   1.373   4.667
 6659SOL     OW20875   1.974   2.381   0.675
 6659SOL    HW120876   1.953   2.358   0.580
 6659SOL    HW220877   2.062   2.342   0.700
 6660SOL     OW20878   0.941   5.904   0.443
 6660SOL    HW120879   0.848   5.922   0.411
 6660SOL    HW220880   0.950   5.808   0.469
 6661SOL     OW20881   0.995   6.011   3.966
 6661SOL    HW120882   1.058   6.079   4.005
 6661SOL    HW220883   1.048   5.939   3.920
 6662SOL     OW20884   1.123   1.197   6.979
 6662SOL    HW120885   1.090   1.103   6.993
 6662SOL    HW220886   1.072   1.239   6.904
 6663SOL     OW20887   0.013   4.981   3.307
 6663SOL    HW120888   6.979   5.045   3.357
 6663SOL    HW220889   6.989   4.949   3.225
 6664SOL     OW20890   1.941   6.845   0.539
 6664SOL    HW120891   1.998   6.766   0.517
 6664SOL    HW220892   1.934   6.855   0.638
 6665SOL     OW20893   1.215   0.263   3.117
 6665SOL    HW120894   1.176   0.296   3.203
 6665SOL    HW220895   1.315   0.261   3.125
 6666SOL     OW20896   5.345   0.204   6.029
 6666SOL    HW120897   5.359   0.270   5.955
 6666SOL    HW220898   5.412   0.130   6.020
 6667SOL     OW20899   0.019   5.129   6.162
 6667SOL    HW120900   6.994   5.116   6.248
 6667SOL    HW220901   0.010   5.225   6.133
 6668SOL     OW20902   6.069   5.986   2.000
 6668SOL    HW120903   5.980   6.029   2.016
 6668SOL    HW220904   6.140   6.057   1.998
 6669SOL     OW20905   2.246   3.016   3.754
 6669SOL    HW120906   2.207   2.978   3.838
 6669SOL    HW220907   2.213   3.109   3.741
 6670SOL     OW20908   3.642   2.102   5.424
 6670SOL    HW120909   3.631   2.068   5.517
 6670SOL    HW220910   3.560   2.154   5.397
 6671SOL     OW20911   5.417   5.464   1.294
 6671SOL    HW120912   5.328   5.509   1.290
 6671SOL    HW220913   5.474   5.494   1.218
 6672SOL     OW20914   0.480   2.316   5.658
 6672SOL    HW120915   0.403   2.277   5.709
 6672SOL    HW220916   0.447   2.350   5.569
 6673SOL     OW20917   5.114   6.224   3.295
 6673SOL    HW120918   5.130   6.279   3.377
 6673SOL    HW220919   5.098   6.284   3.217
 6674SOL     OW20920   0.662   4.740   5.710
 6674SOL    HW120921   0.735   4.783   5.763
 6674SOL    HW220922   0.631   4.657   5.757
 6675SOL     OW20923   4.416   4.019   1.704
 6675SOL    HW120924   4.325   3.992   1.673
 6675SOL    HW220925   4.409   4.103   1.758
 6676SOL     OW20926   0.332   4.329   5.803
 6676SOL    HW120927   0.259   4.316   5.736
 6676SOL    HW220928   0.299   4.385   5.878
 6677SOL     OW20929   0.336   1.707   6.886
 6677SOL    HW120930   0.336   1.782   6.952
 6677SOL    HW220931   0.290   1.736   6.802
 6678SOL     OW20932   2.508   2.518   6.986
 6678SOL    HW120933   2.470   2.473   6.905
 6678SOL    HW220934   2.449   2.594   7.013
 6679SOL     OW20935   2.857   1.860   3.811
 6679SOL    HW120936   2.839   1.938   3.751
 6679SOL    HW220937   2.811   1.874   3.898
 6680SOL     OW20938   4.926   6.574   6.293
 6680SOL    HW120939   4.978   6.491   6.276
 6680SOL    HW220940   4.883   6.605   6.208
 6681SOL     OW20941   4.553   5.460   0.263
 6681SOL    HW120942   4.651   5.441   0.258
 6681SOL    HW220943   4.521   5.491   0.174
 6682SOL     OW20944   1.403   4.438   2.947
 6682SOL    HW120945   1.471   4.496   2.903
 6682SOL    HW220946   1.318   4.489   2.959
 6683SOL     OW20947   5.358   2.920   5.575
 6683SOL    HW120948   5.407   2.856   5.515
 6683SOL    HW220949   5.409   2.931   5.660
 6684SOL     OW20950   3.109   6.460   0.709
 6684SOL    HW120951   3.126   6.541   0.766
 6684SOL    HW220952   3.176   6.389   0.730
 6685SOL     OW20953   5.915   2.613   5.855
 6685SOL    HW120954   5.952   2.530   5.813
 6685SOL    HW220955   5.819   2.597   5.879
 6686SOL     OW20956   5.253   6.187   4.371
 6686SOL    HW120957   5.215   6.214   4.283
 6686SOL    HW220958   5.191   6.122   4.416
 6687SOL     OW20959   6.903   2.502   1.321
 6687SOL    HW120960   6.993   2.478   1.358
 6687SOL    HW220961   6.914   2.554   1.237
 6688SOL     OW20962   6.696   4.616   2.282
 6688SOL    HW120963   6.601   4.637   2.303
 6688SOL    HW220964   6.699   4.533   2.225
 6689SOL     OW20965   3.856   3.621   0.350
 6689SOL    HW120966   3.927   3.571   0.400
 6689SOL    HW220967   3.787   3.653   0.415
 6690SOL     OW20968   2.745   1.593   0.752
 6690SOL    HW120969   2.658   1.572   0.707
 6690SOL    HW220970   2.728   1.615   0.848
 6691SOL     OW20971   2.701   6.353   1.481
 6691SOL    HW120972   2.672   6.445   1.454
 6691SOL    HW220973   2.625   6.290   1.470
 6692SOL     OW20974   3.517   4.153   5.566
 6692SOL    HW120975   3.616   4.144   5.553
 6692SOL    HW220976   3.476   4.191   5.483
 6693SOL     OW20977   4.068   3.519   5.894
 6693SOL    HW120978   4.045   3.584   5.966
 6693SOL    HW220979   4.168   3.511   5.888
 6694SOL     OW20980   5.095   6.115   0.552
 6694SOL    HW120981   5.100   6.037   0.614
 6694SOL    HW220982   5.115   6.199   0.603
 6695SOL     OW20983   2.731   2.147   6.170
 6695SOL    HW120984   2.687   2.137   6.081
 6695SOL    HW220985   2.812   2.203   6.161
 6696SOL     OW20986   1.289   2.908   0.356
 6696SOL    HW120987   1.364   2.874   0.413
 6696SOL    HW220988   1.278   3.007   0.370
 6697SOL     OW20989   5.128   2.730   3.009
 6697SOL    HW120990   5.227   2.715   3.017
 6697SOL    HW220991   5.094   2.681   2.929
 6698SOL     OW20992   2.809   2.533   0.593
 6698SOL    HW120993   2.766   2.449   0.626
 6698SOL    HW220994   2.738   2.601   0.573
 6699SOL     OW20995   3.055   4.971   6.412
 6699SOL    HW120996   3.081   4.881   6.375
 6699SOL    HW220997   3.043   5.036   6.337
 6700SOL     OW20998   6.603   6.179   1.200
 6700SOL    HW120999   6.629   6.165   1.296
 6700SOL    HW221000   6.684   6.177   1.142
 6701SOL     OW21001   6.042   2.964   0.765
 6701SOL    HW121002   6.015   3.060   0.773
 6701SOL    HW221003   6.132   2.950   0.806
 6702SOL     OW21004   2.746   2.331   1.045
 6702SOL    HW121005   2.683   2.266   1.001
 6702SOL    HW221006   2.798   2.284   1.116
 6703SOL     OW21007   6.320   1.250   0.322
 6703SOL    HW121008   6.364   1.339   0.336
 6703SOL    HW221009   6.262   1.255   0.240
 6704SOL     OW21010   4.328   2.307   2.559
 6704SOL    HW121011   4.269   2.276   2.484
 6704SOL    HW221012   4.389   2.234   2.586
 6705SOL     OW21013   6.898   2.729   2.115
 6705SOL    HW121014   6.994   2.729   2.142
 6705SOL    HW221015   6.854   2.813   2.146
 6706SOL     OW21016   1.044   3.880   0.878
 6706SOL    HW121017   1.008   3.972   0.861
 6706SOL    HW221018   1.078   3.841   0.792
 6707SOL     OW21019   0.052   6.037   4.053
 6707SOL    HW121020   0.125   6.043   3.985
 6707SOL    HW221021   0.091   6.047   4.144
 6708SOL     OW21022   1.223   5.579   2.593
 6708SOL    HW121023   1.177   5.509   2.539
 6708SOL    HW221024   1.316   5.593   2.558
 6709SOL     OW21025   3.424   6.216   1.750
 6709SOL    HW121026   3.337   6.166   1.749
 6709SOL    HW221027   3.495   6.157   1.788
 6710SOL     OW21028   2.860   1.591   5.711
 6710SOL    HW121029   2.935   1.656   5.716
 6710SOL    HW221030   2.880   1.522   5.641
 6711SOL     OW21031   5.384   4.864   6.563
 6711SOL    HW121032   5.374   4.927   6.486
 6711SOL    HW221033   5.407   4.773   6.528
 6712SOL     OW21034   4.813   5.729   0.238
 6712SOL    HW121035   4.756   5.762   0.163
 6712SOL    HW221036   4.866   5.650   0.206
 6713SOL     OW21037   1.952   1.931   1.971
 6713SOL    HW121038   2.013   1.865   2.013
 6713SOL    HW221039   2.006   2.001   1.924
 6714SOL     OW21040   5.661   0.232   6.284
 6714SOL    HW121041   5.722   0.182   6.347
 6714SOL    HW221042   5.567   0.201   6.298
 6715SOL     OW21043   0.433   0.591   6.810
 6715SOL    HW121044   0.523   0.555   6.785
 6715SOL    HW221045   0.362   0.535   6.768
 6716SOL     OW21046   0.315   5.884   2.494
 6716SOL    HW121047   0.244   5.833   2.543
 6716SOL    HW221048   0.295   5.881   2.396
 6717SOL     OW21049   4.459   3.167   0.316
 6717SOL    HW121050   4.466   3.265   0.338
 6717SOL    HW221051   4.496   3.151   0.224
 6718SOL     OW21052   3.977   6.541   6.183
 6718SOL    HW121053   3.979   6.507   6.277
 6718SOL    HW221054   4.070   6.542   6.146
 6719SOL     OW21055   0.692   7.023   5.698
 6719SOL    HW121056   0.671   7.011   5.601
 6719SOL    HW221057   0.675   0.093   5.725
 6720SOL     OW21058   1.221   6.013   2.401
 6720SOL    HW121059   1.307   6.035   2.448
 6720SOL    HW221060   1.179   5.933   2.443
 6721SOL     OW21061   6.469   6.865   4.912
 6721SOL    HW121062   6.476   6.964   4.908
 6721SOL    HW221063   6.429   6.831   4.827
 6722SOL     OW21064   5.623   3.386   1.553
 6722SOL    HW121065   5.640   3.302   1.604
 6722SOL    HW221066   5.665   3.380   1.463
 6723SOL     OW21067   2.172   6.465   3.007
 6723SOL    HW121068   2.239   6.515   2.954
 6723SOL    HW221069   2.212   6.379   3.038
 6724SOL     OW21070   1.142   3.140   5.995
 6724SOL    HW121071   1.105   3.119   6.086
 6724SOL    HW221072   1.169   3.054   5.951
 6725SOL     OW21073   0.808   4.029   1.733
 6725SOL    HW121074   0.797   4.010   1.831
 6725SOL    HW221075   0.719   4.050   1.693
 6726SOL     OW21076   0.778   2.363   4.792
 6726SOL    HW121077   0.865   2.382   4.746
 6726SOL    HW221078   0.782   2.394   4.887
 6727SOL     OW21079   6.292   3.570   5.652
 6727SOL    HW121080   6.214   3.631   5.666
 6727SOL    HW221081   6.372   3.623   5.626
 6728SOL     OW21082   5.096   1.472   4.488
 6728SOL    HW121083   5.102   1.396   4.423
 6728SOL    HW221084   5.000   1.495   4.503
 6729SOL     OW21085   7.000   1.074   2.475
 6729SOL    HW121086   6.977   1.082   2.378
 6729SOL    HW221087   6.935   1.127   2.529
 6730SOL     OW21088   1.592   6.765   6.320
 6730SOL    HW121089   1.651   6.684   6.321
 6730SOL    HW221090   1.530   6.762   6.398
 6731SOL     OW21091   1.425   4.666   0.805
 6731SOL    HW121092   1.446   4.625   0.894
 6731SOL    HW221093   1.393   4.760   0.817
 6732SOL     OW21094   4.056   5.493   6.454
 6732SOL    HW121095   4.153   5.517   6.450
 6732SOL    HW221096   4.024   5.472   6.362
 6733SOL     OW21097   3.787   5.111   0.140
 6733SOL    HW121098   3.848   5.179   0.180
 6733SOL    HW221099   3.735   5.153   0.065
 6734SOL     OW21100   7.018   3.231   5.496
 6734SOL    HW121101   0.002   3.331   5.494
 6734SOL    HW221102   6.991   3.198   5.406
 6735SOL     OW21103   0.506   5.391   5.246
 6735SOL    HW121104   0.522   5.403   5.148
 6735SOL    HW221105   0.577   5.440   5.298
 6736SOL     OW21106   1.985   3.437   0.484
 6736SOL    HW121107   2.063   3.424   0.423
 6736SOL    HW221108   1.915   3.490   0.437
 6737SOL     OW21109   1.846   2.749   0.812
 6737SOL    HW121110   1.861   2.817   0.884
 6737SOL    HW221111   1.920   2.755   0.745
 6738SOL     OW21112   2.078   3.341   2.212
 6738SOL    HW121113   2.060   3.402   2.289
 6738SOL    HW221114   2.147   3.381   2.152
 6739SOL     OW21115   3.366   5.114   6.196
 6739SOL    HW121116   3.290   5.165   6.235
 6739SOL    HW221117   3.371   5.131   6.098
 6740SOL     OW21118   1.803   1.599   4.438
 6740SOL    HW121119   1.815   1.587   4.340
 6740SOL    HW221120   1.811   1.696   4.461
 6741SOL     OW21121   4.860   1.327   5.709
 6741SOL    HW121122   4.934   1.270   5.674
 6741SOL    HW221123   4.783   1.326   5.644
 6742SOL     OW21124   0.339   5.636   2.690
 6742SOL    HW121125   0.388   5.641   2.777
 6742SOL    HW221126   0.350   5.545   2.650
 6743SOL     OW21127   3.992   4.109   0.241
 6743SOL    HW121128   4.031   4.135   0.152
 6743SOL    HW221129   3.925   4.178   0.269
 6744SOL     OW21130   4.778   5.723   5.640
 6744SOL    HW121131   4.871   5.713   5.606
 6744SOL    HW221132   4.717   5.741   5.562
 6745SOL     OW21133   0.981   6.386   2.134
 6745SOL    HW121134   0.998   6.437   2.218
 6745SOL    HW221135   1.004   6.290   2.148
 6746SOL     OW21136   0.986   1.146   2.846
 6746SOL    HW121137   0.925   1.220   2.875
 6746SOL    HW221138   0.932   1.065   2.823
 6747SOL     OW21139   5.333   0.020   4.526
 6747SOL    HW121140   5.329   7.014   4.621
 6747SOL    HW221141   5.391   6.981   4.474
 6748SOL     OW21142   1.159   0.563   3.040
 6748SOL    HW121143   1.094   0.611   3.098
 6748SOL    HW221144   1.155   0.465   3.059
 6749SOL     OW21145   3.055   6.202   0.368
 6749SOL    HW121146   2.968   6.176   0.410
 6749SOL    HW221147   3.091   6.284   0.413
 6750SOL     OW21148   3.852   1.118   4.477
 6750SOL    HW121149   3.902   1.173   4.544
 6750SOL    HW221150   3.916   1.086   4.406
 6751SOL     OW21151   3.787   1.568   3.857
 6751SOL    HW121152   3.767   1.470   3.859
 6751SOL    HW221153   3.831   1.594   3.943
 6752SOL     OW21154   6.305   2.999   2.579
 6752SOL    HW121155   6.393   2.987   2.533
 6752SOL    HW221156   6.258   3.079   2.541
 6753SOL     OW21157   4.777   1.044   6.501
 6753SOL    HW121158   4.720   0.969   6.469
 6753SOL    HW221159   4.779   1.117   6.432
 6754SOL     OW21160   6.355   1.613   6.124
 6754SOL    HW121161   6.424   1.683   6.110
 6754SOL    HW221162   6.338   1.601   6.222
 6755SOL     OW21163   4.348   2.085   3.544
 6755SOL    HW121164   4.369   2.135   3.627
 6755SOL    HW221165   4.273   2.130   3.495
 6756SOL     OW21166   4.808   4.131   4.679
 6756SOL    HW121167   4.730   4.175   4.635
 6756SOL    HW221168   4.818   4.038   4.644
 6757SOL     OW21169   4.851   6.633   0.585
 6757SOL    HW121170   4.810   6.612   0.674
 6757SOL    HW221171   4.783   6.618   0.513
 6758SOL     OW21172   5.462   3.746   1.769
 6758SOL    HW121173   5.478   3.785   1.859
 6758SOL    HW221174   5.548   3.710   1.733
 6759SOL     OW21175   0.787   3.520   4.414
 6759SOL    HW121176   0.833   3.506   4.326
 6759SOL    HW221177   0.839   3.585   4.469
 6760SOL     OW21178   6.598   5.334   4.365
 6760SOL    HW121179   6.675   5.272   4.379
 6760SOL    HW221180   6.512   5.283   4.372
 6761SOL     OW21181   5.529   2.222   6.242
 6761SOL    HW121182   5.476   2.261   6.318
 6761SOL    HW221183   5.471   2.218   6.160
 6762SOL     OW21184   0.077   5.658   3.288
 6762SOL    HW121185   0.161   5.616   3.253
 6762SOL    HW221186   0.095   5.752   3.315
 6763SOL     OW21187   6.844   6.121   3.973
 6763SOL    HW121188   6.841   6.217   4.002
 6763SOL    HW221189   6.933   6.082   3.997
 6764SOL     OW21190   2.864   4.615   6.336
 6764SOL    HW121191   2.931   4.687   6.315
 6764SOL    HW221192   2.859   4.551   6.259
 6765SOL     OW21193   5.575   5.512   3.532
 6765SOL    HW121194   5.479   5.534   3.516
 6765SOL    HW221195   5.581   5.424   3.580
 6766SOL     OW21196   3.062   6.348   6.678
 6766SOL    HW121197   2.968   6.380   6.666
 6766SOL    HW221198   3.121   6.393   6.611
 6767SOL     OW21199   0.188   2.570   1.038
 6767SOL    HW121200   0.172   2.491   0.979
 6767SOL    HW221201   0.220   2.539   1.128
 6768SOL     OW21202   1.286   0.427   3.647
 6768SOL    HW121203   1.322   0.518   3.627
 6768SOL    HW221204   1.197   0.416   3.602
 6769SOL     OW21205   2.957   1.152   5.102
 6769SOL    HW121206   3.007   1.171   5.017
 6769SOL    HW221207   2.896   1.074   5.087
 6770SOL     OW21208   6.947   2.084   3.765
 6770SOL    HW121209   7.015   2.155   3.783
 6770SOL    HW221210   6.985   1.994   3.790
 6771SOL     OW21211   3.867   2.144   3.783
 6771SOL    HW121212   3.901   2.059   3.823
 6771SOL    HW221213   3.776   2.130   3.746
 6772SOL     OW21214   5.438   1.812   2.276
 6772SOL    HW121215   5.524   1.858   2.295
 6772SOL    HW221216   5.425   1.737   2.341
 6773SOL     OW21217   6.998   6.549   1.224
 6773SOL    HW121218   7.021   6.643   1.202
 6773SOL    HW221219   6.930   6.547   1.298
 6774SOL     OW21220   1.623   2.495   5.392
 6774SOL    HW121221   1.530   2.533   5.388
 6774SOL    HW221222   1.664   2.515   5.481
 6775SOL     OW21223   0.899   1.946   3.541
 6775SOL    HW121224   0.838   2.024   3.529
 6775SOL    HW221225   0.907   1.924   3.638
 6776SOL     OW21226   3.879   3.517   2.087
 6776SOL    HW121227   3.854   3.554   1.998
 6776SOL    HW221228   3.865   3.418   2.088
 6777SOL     OW21229   4.547   4.957   0.952
 6777SOL    HW121230   4.617   4.952   1.024
 6777SOL    HW221231   4.459   4.929   0.990
 6778SOL     OW21232   5.805   3.373   2.579
 6778SOL    HW121233   5.894   3.401   2.616
 6778SOL    HW221234   5.745   3.453   2.574
 6779SOL     OW21235   5.476   4.238   5.980
 6779SOL    HW121236   5.472   4.209   5.884
 6779SOL    HW221237   5.548   4.187   6.027
 6780SOL     OW21238   2.039   3.625   2.894
 6780SOL    HW121239   2.028   3.547   2.832
 6780SOL    HW221240   1.948   3.661   2.918
 6781SOL     OW21241   6.761   1.261   3.592
 6781SOL    HW121242   6.683   1.321   3.575
 6781SOL    HW221243   6.763   1.235   3.689
 6782SOL     OW21244   0.876   1.311   3.455
 6782SOL    HW121245   0.970   1.325   3.486
 6782SOL    HW221246   0.825   1.261   3.525
 6783SOL     OW21247   1.055   3.837   5.002
 6783SOL    HW121248   1.008   3.920   5.031
 6783SOL    HW221249   1.025   3.760   5.059
 6784SOL     OW21250   2.462   3.625   1.668
 6784SOL    HW121251   2.398   3.702   1.669
 6784SOL    HW221252   2.437   3.560   1.740
 6785SOL     OW21253   5.676   4.991   5.403
 6785SOL    HW121254   5.703   4.895   5.405
 6785SOL    HW221255   5.684   5.031   5.494
 6786SOL     OW21256   6.632   2.558   0.602
 6786SOL    HW121257   6.600   2.639   0.651
 6786SOL    HW221258   6.607   2.566   0.505
 6787SOL     OW21259   3.638   2.334   0.987
 6787SOL    HW121260   3.539   2.338   1.003
 6787SOL    HW221261   3.668   2.238   0.988
 6788SOL     OW21262   0.564   3.681   2.497
 6788SOL    HW121263   0.496   3.609   2.484
 6788SOL    HW221264   0.620   3.660   2.577
 6789SOL     OW21265   6.639   4.443   4.359
 6789SOL    HW121266   6.635   4.343   4.355
 6789SOL    HW221267   6.704   4.472   4.429
 6790SOL     OW21268   0.288   4.837   5.859
 6790SOL    HW121269   0.371   4.885   5.831
 6790SOL    HW221270   0.273   4.851   5.957
 6791SOL     OW21271   4.668   1.788   3.344
 6791SOL    HW121272   4.682   1.751   3.252
 6791SOL    HW221273   4.700   1.721   3.411
 6792SOL     OW21274   4.174   6.594   5.379
 6792SOL    HW121275   4.253   6.644   5.416
 6792SOL    HW221276   4.175   6.599   5.280
 6793SOL     OW21277   2.979   2.216   6.883
 6793SOL    HW121278   2.965   2.253   6.974
 6793SOL    HW221279   3.077   2.204   6.867
 6794SOL     OW21280   4.732   0.934   5.699
 6794SOL    HW121281   4.779   0.995   5.762
 6794SOL    HW221282   4.647   0.902   5.740
 6795SOL     OW21283   1.352   0.772   1.070
 6795SOL    HW121284   1.446   0.793   1.095
 6795SOL    HW221285   1.298   0.758   1.152
 6796SOL     OW21286   5.679   1.310   1.671
 6796SOL    HW121287   5.698   1.285   1.766
 6796SOL    HW221288   5.583   1.291   1.650
 6797SOL     OW21289   6.435   2.855   1.574
 6797SOL    HW121290   6.513   2.914   1.555
 6797SOL    HW221291   6.452   2.763   1.539
 6798SOL     OW21292   5.306   0.213   1.923
 6798SOL    HW121293   5.254   0.197   2.007
 6798SOL    HW221294   5.273   0.296   1.879
 6799SOL     OW21295   5.696   0.552   3.056
 6799SOL    HW121296   5.654   0.641   3.075
 6799SOL    HW221297   5.791   0.566   3.027
 6800SOL     OW21298   1.488   1.462   0.877
 6800SOL    HW121299   1.530   1.371   0.889
 6800SOL    HW221300   1.535   1.510   0.804
 6801SOL     OW21301   1.419   6.429   4.749
 6801SOL    HW121302   1.351   6.502   4.749
 6801SOL    HW221303   1.385   6.351   4.696
 6802SOL     OW21304   3.555   5.925   0.808
 6802SOL    HW121305   3.543   5.998   0.875
 6802SOL    HW221306   3.468   5.907   0.763
 6803SOL     OW21307   4.716   4.731   6.572
 6803SOL    HW121308   4.759   4.647   6.538
 6803SOL    HW221309   4.781   4.807   6.565
 6804SOL     OW21310   2.857   5.146   2.865
 6804SOL    HW121311   2.874   5.056   2.907
 6804SOL    HW221312   2.932   5.208   2.890
 6805SOL     OW21313   0.334   4.614   5.704
 6805SOL    HW121314   0.309   4.700   5.750
 6805SOL    HW221315   0.411   4.572   5.753
 6806SOL     OW21316   6.857   1.129   4.078
 6806SOL    HW121317   6.809   1.200   4.129
 6806SOL    HW221318   6.934   1.095   4.132
 6807SOL     OW21319   3.529   2.896   3.879
 6807SOL    HW121320   3.566   2.911   3.971
 6807SOL    HW221321   3.605   2.882   3.815
 6808SOL     OW21322   5.285   1.194   5.013
 6808SOL    HW121323   5.287   1.245   5.099
 6808SOL    HW221324   5.253   1.254   4.939
 6809SOL     OW21325   6.021   4.348   1.611
 6809SOL    HW121326   6.065   4.333   1.523
 6809SOL    HW221327   6.036   4.443   1.640
 6810SOL     OW21328   3.258   1.001   3.170
 6810SOL    HW121329   3.208   1.048   3.097
 6810SOL    HW221330   3.196   0.940   3.219
 6811SOL     OW21331   6.603   2.299   2.367
 6811SOL    HW121332   6.546   2.288   2.448
 6811SOL    HW221333   6.554   2.354   2.299
 6812SOL     OW21334   3.430   3.601   4.683
 6812SOL    HW121335   3.393   3.521   4.730
 6812SOL    HW221336   3.356   3.650   4.637
 6813SOL     OW21337   4.950   3.502   1.901
 6813SOL    HW121338   4.916   3.414   1.869
 6813SOL    HW221339   4.988   3.492   1.993
 6814SOL     OW21340   4.237   1.515   5.982
 6814SOL    HW121341   4.270   1.604   6.014
 6814SOL    HW221342   4.299   1.443   6.014
 6815SOL     OW21343   1.666   5.128   6.827
 6815SOL    HW121344   1.747   5.095   6.780
 6815SOL    HW221345   1.643   5.067   6.903
 6816SOL     OW21346   6.631   1.652   4.571
 6816SOL    HW121347   6.584   1.585   4.513
 6816SOL    HW221348   6.586   1.656   4.660
 6817SOL     OW21349   3.062   1.972   3.238
 6817SOL    HW121350   2.990   1.934   3.180
 6817SOL    HW221351   3.021   2.021   3.315
 6818SOL     OW21352   2.201   6.542   6.108
 6818SOL    HW121353   2.149   6.458   6.101
 6818SOL    HW221354   2.178   6.590   6.192
 6819SOL     OW21355   4.883   6.070   2.789
 6819SOL    HW121356   4.884   6.032   2.696
 6819SOL    HW221357   4.976   6.075   2.824
 6820SOL     OW21358   1.333   6.107   1.409
 6820SOL    HW121359   1.374   6.078   1.496
 6820SOL    HW221360   1.398   6.165   1.360
 6821SOL     OW21361   4.447   2.343   5.529
 6821SOL    HW121362   4.425   2.382   5.440
 6821SOL    HW221363   4.481   2.415   5.589
 6822SOL     OW21364   6.901   2.497   6.749
 6822SOL    HW121365   6.811   2.453   6.755
 6822SOL    HW221366   6.895   2.576   6.688
 6823SOL     OW21367   5.162   3.302   6.664
 6823SOL    HW121368   5.138   3.275   6.757
 6823SOL    HW221369   5.179   3.221   6.608
 6824SOL     OW21370   1.382   1.783   6.804
 6824SOL    HW121371   1.434   1.698   6.813
 6824SOL    HW221372   1.365   1.802   6.708
 6825SOL     OW21373   6.560   6.228   0.675
 6825SOL    HW121374   6.597   6.219   0.767
 6825SOL    HW221375   6.464   6.198   0.675
 6826SOL     OW21376   0.487   3.086   2.888
 6826SOL    HW121377   0.510   3.041   2.802
 6826SOL    HW221378   0.531   3.038   2.964
 6827SOL     OW21379   5.215   5.241   5.574
 6827SOL    HW121380   5.191   5.199   5.486
 6827SOL    HW221381   5.157   5.322   5.589
 6828SOL     OW21382   3.111   1.634   2.648
 6828SOL    HW121383   3.204   1.604   2.625
 6828SOL    HW221384   3.108   1.734   2.647
 6829SOL     OW21385   5.037   6.836   5.070
 6829SOL    HW121386   5.025   6.820   4.972
 6829SOL    HW221387   4.997   6.924   5.095
 6830SOL     OW21388   5.943   1.268   3.085
 6830SOL    HW121389   5.929   1.169   3.092
 6830SOL    HW221390   6.029   1.286   3.036
 6831SOL     OW21391   1.213   1.085   5.517
 6831SOL    HW121392   1.311   1.089   5.496
 6831SOL    HW221393   1.200   1.091   5.616
 6832SOL     OW21394   2.791   2.564   0.072
 6832SOL    HW121395   2.708   2.537   0.121
 6832SOL    HW221396   2.828   2.648   0.111
 6833SOL     OW21397   3.718   5.603   6.089
 6833SOL    HW121398   3.802   5.600   6.036
 6833SOL    HW221399   3.696   5.697   6.114
 6834SOL     OW21400   4.751   0.057   0.589
 6834SOL    HW121401   4.760   0.156   0.585
 6834SOL    HW221402   4.654   0.032   0.593
 6835SOL     OW21403   3.628   1.362   4.154
 6835SOL    HW121404   3.725   1.378   4.136
 6835SOL    HW221405   3.618   1.314   4.241
 6836SOL     OW21406   1.905   4.334   6.874
 6836SOL    HW121407   1.985   4.278   6.851
 6836SOL    HW221408   1.935   4.417   6.921
 6837SOL     OW21409   1.240   1.240   2.685
 6837SOL    HW121410   1.152   1.216   2.646
 6837SOL    HW221411   1.255   1.188   2.769
 6838SOL     OW21412   2.918   4.207   5.226
 6838SOL    HW121413   2.874   4.206   5.316
 6838SOL    HW221414   2.903   4.295   5.182
 6839SOL     OW21415   5.144   2.219   3.667
 6839SOL    HW121416   5.214   2.154   3.698
 6839SOL    HW221417   5.131   2.209   3.568
 6840SOL     OW21418   2.716   6.833   4.555
 6840SOL    HW121419   2.765   6.756   4.514
 6840SOL    HW221420   2.659   6.878   4.486
 6841SOL     OW21421   3.916   4.881   1.911
 6841SOL    HW121422   3.828   4.839   1.894
 6841SOL    HW221423   3.989   4.824   1.873
 6842SOL     OW21424   0.893   3.059   6.970
 6842SOL    HW121425   0.951   2.980   6.992
 6842SOL    HW221426   0.809   3.028   6.927
 6843SOL     OW21427   4.704   1.663   1.989
 6843SOL    HW121428   4.738   1.752   1.957
 6843SOL    HW221429   4.615   1.675   2.033
 6844SOL     OW21430   4.958   5.556   4.431
 6844SOL    HW121431   4.906   5.487   4.381
 6844SOL    HW221432   4.898   5.607   4.492
 6845SOL     OW21433   4.782   4.231   2.448
 6845SOL    HW121434   4.766   4.254   2.352
 6845SOL    HW221435   4.764   4.134   2.462
 6846SOL     OW21436   3.816   3.369   1.335
 6846SOL    HW121437   3.826   3.314   1.252
 6846SOL    HW221438   3.722   3.403   1.342
 6847SOL     OW21439   5.012   3.894   1.919
 6847SOL    HW121440   5.104   3.911   1.884
 6847SOL    HW221441   4.955   3.854   1.847
 6848SOL     OW21442   1.093   4.866   4.440
 6848SOL    HW121443   1.142   4.829   4.362
 6848SOL    HW221444   0.996   4.843   4.433
 6849SOL     OW21445   3.564   5.905   4.383
 6849SOL    HW121446   3.619   5.844   4.440
 6849SOL    HW221447   3.473   5.916   4.423
 6850SOL     OW21448   5.584   2.445   3.015
 6850SOL    HW121449   5.638   2.475   2.936
 6850SOL    HW221450   5.610   2.499   3.095
 6851SOL     OW21451   1.104   4.855   5.335
 6851SOL    HW121452   1.060   4.944   5.342
 6851SOL    HW221453   1.188   4.855   5.389
 6852SOL     OW21454   1.052   4.042   1.378
 6852SOL    HW121455   1.033   4.139   1.363
 6852SOL    HW221456   1.150   4.029   1.390
 6853SOL     OW21457   6.989   4.889   6.699
 6853SOL    HW121458   6.894   4.875   6.670
 6853SOL    HW221459   0.026   4.846   6.633
 6854SOL     OW21460   6.121   1.159   5.632
 6854SOL    HW121461   6.158   1.090   5.695
 6854SOL    HW221462   6.059   1.219   5.682
 6855SOL     OW21463   3.440   6.942   2.668
 6855SOL    HW121464   3.403   0.010   2.663
 6855SOL    HW221465   3.439   6.911   2.763
 6856SOL     OW21466   5.476   4.369   5.418
 6856SOL    HW121467   5.416   4.290   5.408
 6856SOL    HW221468   5.424   4.445   5.458
 6857SOL     OW21469   3.378   1.121   6.546
 6857SOL    HW121470   3.297   1.122   6.488
 6857SOL    HW221471   3.400   1.215   6.575
 6858SOL     OW21472   3.668   2.862   4.500
 6858SOL    HW121473   3.725   2.912   4.435
 6858SOL    HW221474   3.693   2.890   4.593
 6859SOL     OW21475   1.513   6.952   1.114
 6859SOL    HW121476   1.475   6.952   1.022
 6859SOL    HW221477   1.550   6.861   1.134
 6860SOL     OW21478   6.012   5.071   1.530
 6860SOL    HW121479   6.058   5.119   1.605
 6860SOL    HW221480   6.070   5.072   1.449
 6861SOL     OW21481   5.370   4.351   0.970
 6861SOL    HW121482   5.367   4.404   0.886
 6861SOL    HW221483   5.446   4.285   0.965
 6862SOL     OW21484   2.690   4.970   5.004
 6862SOL    HW121485   2.774   4.923   5.031
 6862SOL    HW221486   2.712   5.061   4.968
 6863SOL     OW21487   5.850   1.433   5.368
 6863SOL    HW121488   5.874   1.431   5.271
 6863SOL    HW221489   5.907   1.501   5.415
 6864SOL     OW21490   3.618   6.064   4.171
 6864SOL    HW121491   3.585   6.006   4.246
 6864SOL    HW221492   3.661   6.008   4.101
 6865SOL     OW21493   6.510   4.862   3.573
 6865SOL    HW121494   6.478   4.782   3.623
 6865SOL    HW221495   6.604   4.846   3.542
 6866SOL     OW21496   6.762   4.477   1.961
 6866SOL    HW121497   6.785   4.498   1.866
 6866SOL    HW221498   6.845   4.448   2.009
 6867SOL     OW21499   1.135   4.258   0.903
 6867SOL    HW121500   1.117   4.341   0.956
 6867SOL    HW221501   1.207   4.276   0.836
 6868SOL     OW21502   1.719   5.889   5.300
 6868SOL    HW121503   1.800   5.848   5.342
 6868SOL    HW221504   1.653   5.914   5.371
 6869SOL     OW21505   5.421   2.917   5.231
 6869SOL    HW121506   5.424   2.848   5.303
 6869SOL    HW221507   5.514   2.945   5.206
 6870SOL     OW21508   6.285   3.698   2.911
 6870SOL    HW121509   6.315   3.609   2.876
 6870SOL    HW221510   6.191   3.716   2.881
 6871SOL     OW21511   6.226   4.977   2.101
 6871SOL    HW121512   6.198   4.895   2.150
 6871SOL    HW221513   6.288   4.952   2.027
 6872SOL     OW21514   2.220   3.933   1.081
 6872SOL    HW121515   2.223   3.837   1.110
 6872SOL    HW221516   2.215   3.992   1.161
 6873SOL     OW21517   6.434   3.193   5.650
 6873SOL    HW121518   6.431   3.156   5.557
 6873SOL    HW221519   6.384   3.132   5.712
 6874SOL     OW21520   0.655   3.584   3.322
 6874SOL    HW121521   0.698   3.517   3.383
 6874SOL    HW221522   0.624   3.538   3.239
 6875SOL     OW21523   1.695   2.415   3.832
 6875SOL    HW121524   1.610   2.458   3.801
 6875SOL    HW221525   1.699   2.322   3.797
 6876SOL     OW21526   3.420   5.547   6.711
 6876SOL    HW121527   3.511   5.509   6.693
 6876SOL    HW221528   3.387   5.595   6.630
 6877SOL     OW21529   2.886   4.325   0.062
 6877SOL    HW121530   2.869   4.230   0.036
 6877SOL    HW221531   2.826   4.385   0.010
 6878SOL     OW21532   1.902   1.597   5.618
 6878SOL    HW121533   1.953   1.681   5.635
 6878SOL    HW221534   1.863   1.601   5.526
 6879SOL     OW21535   0.596   2.309   0.429
 6879SOL    HW121536   0.669   2.251   0.394
 6879SOL    HW221537   0.627   2.358   0.511
 6880SOL     OW21538   2.059   3.431   5.283
 6880SOL    HW121539   2.121   3.357   5.256
 6880SOL    HW221540   1.985   3.438   5.217
 6881SOL     OW21541   6.878   4.766   2.139
 6881SOL    HW121542   6.813   4.792   2.067
 6881SOL    HW221543   6.830   4.726   2.216
 6882SOL     OW21544   2.030   0.502   5.862
 6882SOL    HW121545   2.057   0.417   5.817
 6882SOL    HW221546   1.963   0.550   5.804
 6883SOL     OW21547   3.523   0.693   0.610
 6883SOL    HW121548   3.428   0.691   0.641
 6883SOL    HW221549   3.525   0.704   0.511
 6884SOL     OW21550   2.167   3.972   3.910
 6884SOL    HW121551   2.225   4.053   3.900
 6884SOL    HW221552   2.153   3.930   3.820
 6885SOL     OW21553   2.752   5.404   4.129
 6885SOL    HW121554   2.796   5.385   4.041
 6885SOL    HW221555   2.823   5.417   4.199
 6886SOL     OW21556   6.504   0.782   2.071
 6886SOL    HW121557   6.530   0.782   2.168
 6886SOL    HW221558   6.581   0.751   2.016
 6887SOL     OW21559   5.085   0.123   5.362
 6887SOL    HW121560   5.165   0.069   5.336
 6887SOL    HW221561   5.112   0.191   5.431
 6888SOL     OW21562   5.971   6.717   6.259
 6888SOL    HW121563   6.065   6.685   6.250
 6888SOL    HW221564   5.966   6.788   6.330
 6889SOL     OW21565   1.341   2.596   5.361
 6889SOL    HW121566   1.351   2.616   5.458
 6889SOL    HW221567   1.250   2.560   5.343
 6890SOL     OW21568   2.146   6.659   0.570
 6890SOL    HW121569   2.214   6.618   0.631
 6890SOL    HW221570   2.189   6.734   0.519
 6891SOL     OW21571   1.952   3.678   4.918
 6891SOL    HW121572   2.030   3.716   4.968
 6891SOL    HW221573   1.981   3.597   4.868
 6892SOL     OW21574   4.317   0.468   4.702
 6892SOL    HW121575   4.386   0.535   4.673
 6892SOL    HW221576   4.352   0.376   4.689
 6893SOL     OW21577   5.458   6.580   2.093
 6893SOL    HW121578   5.388   6.624   2.149
 6893SOL    HW221579   5.415   6.513   2.033
 6894SOL     OW21580   6.135   5.747   1.009
 6894SOL    HW121581   6.079   5.812   0.957
 6894SOL    HW221582   6.151   5.784   1.101
 6895SOL     OW21583   3.088   5.013   0.041
 6895SOL    HW121584   3.048   5.057   6.986
 6895SOL    HW221585   3.184   4.992   0.023
 6896SOL     OW21586   3.730   6.720   3.846
 6896SOL    HW121587   3.664   6.787   3.881
 6896SOL    HW221588   3.816   6.767   3.825
 6897SOL     OW21589   2.837   3.443   6.998
 6897SOL    HW121590   2.843   3.349   0.008
 6897SOL    HW221591   2.779   3.497   0.034
 6898SOL     OW21592   4.027   1.418   2.243
 6898SOL    HW121593   3.951   1.389   2.300
 6898SOL    HW221594   3.992   1.461   2.160
 6899SOL     OW21595   4.873   0.033   6.930
 6899SOL    HW121596   4.968   0.004   6.943
 6899SOL    HW221597   4.818   6.979   6.900
 6900SOL     OW21598   6.394   0.349   6.079
 6900SOL    HW121599   6.455   0.405   6.134
 6900SOL    HW221600   6.360   0.273   6.135
 6901SOL     OW21601   0.234   0.449   6.678
 6901SOL    HW121602   0.161   0.388   6.706
 6901SOL    HW221603   0.252   0.438   6.580
 6902SOL     OW21604   0.026   6.449   0.726
 6902SOL    HW121605   0.060   6.360   0.757
 6902SOL    HW221606   0.097   6.518   0.739
 6903SOL     OW21607   3.357   3.539   6.628
 6903SOL    HW121608   3.407   3.507   6.708
 6903SOL    HW221609   3.294   3.467   6.598
 6904SOL     OW21610   0.155   1.081   3.307
 6904SOL    HW121611   0.187   1.145   3.237
 6904SOL    HW221612   0.090   1.126   3.367
 6905SOL     OW21613   6.398   6.248   6.936
 6905SOL    HW121614   6.331   6.314   6.901
 6905SOL    HW221615   6.411   6.262   0.009
 6906SOL     OW21616   4.130   1.102   4.004
 6906SOL    HW121617   4.111   1.078   4.099
 6906SOL    HW221618   4.173   1.192   4.000
 6907SOL     OW21619   4.068   2.327   0.426
 6907SOL    HW121620   4.114   2.283   0.503
 6907SOL    HW221621   4.102   2.420   0.415
 6908SOL     OW21622   0.933   6.886   5.465
 6908SOL    HW121623   0.927   6.787   5.448
 6908SOL    HW221624   1.025   6.908   5.498
 6909SOL     OW21625   4.580   4.674   1.152
 6909SOL    HW121626   4.585   4.598   1.087
 6909SOL    HW221627   4.507   4.736   1.125
 6910SOL     OW21628   6.672   2.203   2.965
 6910SOL    HW121629   6.687   2.301   2.976
 6910SOL    HW221630   6.685   2.177   2.869
 6911SOL     OW21631   3.964   0.715   2.957
 6911SOL    HW121632   4.007   0.701   3.046
 6911SOL    HW221633   3.931   0.809   2.951
 6912SOL     OW21634   5.047   4.645   1.818
 6912SOL    HW121635   5.144   4.621   1.811
 6912SOL    HW221636   4.995   4.564   1.845
 6913SOL     OW21637   4.813   4.112   5.344
 6913SOL    HW121638   4.729   4.058   5.332
 6913SOL    HW221639   4.891   4.058   5.312
 6914SOL     OW21640   5.903   5.757   0.104
 6914SOL    HW121641   5.840   5.770   0.181
 6914SOL    HW221642   5.995   5.786   0.132
 6915SOL     OW21643   0.308   5.023   1.662
 6915SOL    HW121644   0.402   5.056   1.654
 6915SOL    HW221645   0.283   5.017   1.759
 6916SOL     OW21646   6.425   3.921   6.673
 6916SOL    HW121647   6.507   3.887   6.719
 6916SOL    HW221648   6.437   4.018   6.651
 6917SOL     OW21649   3.942   5.295   6.920
 6917SOL    HW121650   3.956   5.360   6.844
 6917SOL    HW221651   3.878   5.334   6.986
 6918SOL     OW21652   0.360   4.030   4.642
 6918SOL    HW121653   0.434   4.088   4.607
 6918SOL    HW221654   0.335   4.060   4.734
 6919SOL     OW21655   1.711   5.534   2.481
 6919SOL    HW121656   1.688   5.519   2.385
 6919SOL    HW221657   1.707   5.448   2.531
 6920SOL     OW21658   5.092   5.030   5.716
 6920SOL    HW121659   5.149   5.091   5.661
 6920SOL    HW221660   5.132   5.019   5.807
 6921SOL     OW21661   5.249   5.687   3.252
 6921SOL    HW121662   5.287   5.685   3.159
 6921SOL    HW221663   5.177   5.756   3.257
 6922SOL     OW21664   1.833   5.920   0.111
 6922SOL    HW121665   1.776   6.002   0.106
 6922SOL    HW221666   1.831   5.874   0.022
 6923SOL     OW21667   5.530   6.707   3.749
 6923SOL    HW121668   5.605   6.689   3.813
 6923SOL    HW221669   5.559   6.776   3.683
 6924SOL     OW21670   0.870   3.798   6.190
 6924SOL    HW121671   0.771   3.783   6.186
 6924SOL    HW221672   0.917   3.709   6.188
 6925SOL     OW21673   4.130   5.983   4.207
 6925SOL    HW121674   4.157   6.051   4.138
 6925SOL    HW221675   4.044   6.012   4.250
 6926SOL     OW21676   3.364   3.143   2.828
 6926SOL    HW121677   3.443   3.137   2.766
 6926SOL    HW221678   3.350   3.239   2.854
 6927SOL     OW21679   5.671   2.805   6.413
 6927SOL    HW121680   5.594   2.758   6.458
 6927SOL    HW221681   5.665   2.791   6.315
 6928SOL     OW21682   5.877   0.024   0.365
 6928SOL    HW121683   5.839   6.961   0.333
 6928SOL    HW221684   5.804   0.079   0.405
 6929SOL     OW21685   4.695   5.855   0.465
 6929SOL    HW121686   4.595   5.858   0.457
 6929SOL    HW221687   4.735   5.838   0.375
 6930SOL     OW21688   0.192   6.838   1.391
 6930SOL    HW121689   0.146   6.847   1.303
 6930SOL    HW221690   0.167   6.914   1.450
 6931SOL     OW21691   1.021   0.895   1.899
 6931SOL    HW121692   1.031   0.957   1.821
 6931SOL    HW221693   0.924   0.885   1.921
 6932SOL     OW21694   3.741   1.006   0.153
 6932SOL    HW121695   3.794   0.929   0.190
 6932SOL    HW221696   3.736   1.078   0.223
 6933SOL     OW21697   3.396   6.195   4.837
 6933SOL    HW121698   3.486   6.179   4.876
 6933SOL    HW221699   3.399   6.178   4.738
 6934SOL     OW21700   5.144   3.767   6.059
 6934SOL    HW121701   5.195   3.849   6.031
 6934SOL    HW221702   5.064   3.757   6.001
 6935SOL     OW21703   3.900   6.752   2.742
 6935SOL    HW121704   3.978   6.702   2.779
 6935SOL    HW221705   3.816   6.714   2.781
 6936SOL     OW21706   6.457   2.304   2.597
 6936SOL    HW121707   6.437   2.371   2.669
 6936SOL    HW221708   6.383   2.237   2.592
 6937SOL     OW21709   6.069   6.672   0.493
 6937SOL    HW121710   6.153   6.664   0.439
 6937SOL    HW221711   6.051   6.768   0.512
 6938SOL     OW21712   5.232   3.919   5.455
 6938SOL    HW121713   5.174   3.935   5.375
 6938SOL    HW221714   5.188   3.854   5.517
 6939SOL     OW21715   0.231   4.637   2.994
 6939SOL    HW121716   0.194   4.703   3.059
 6939SOL    HW221717   0.198   4.545   3.018
 6940SOL     OW21718   4.572   1.366   0.535
 6940SOL    HW121719   4.568   1.465   0.526
 6940SOL    HW221720   4.590   1.342   0.631
 6941SOL     OW21721   4.042   3.159   3.043
 6941SOL    HW121722   4.048   3.150   3.142
 6941SOL    HW221723   3.999   3.077   3.005
 6942SOL     OW21724   6.886   2.880   1.244
 6942SOL    HW121725   6.899   2.807   1.177
 6942SOL    HW221726   6.889   2.969   1.198
 6943SOL     OW21727   5.248   6.484   6.719
 6943SOL    HW121728   5.243   6.427   6.801
 6943SOL    HW221729   5.156   6.514   6.694
 6944SOL     OW21730   1.273   4.358   5.210
 6944SOL    HW121731   1.224   4.271   5.201
 6944SOL    HW221732   1.365   4.340   5.246
 6945SOL     OW21733   5.706   2.829   6.749
 6945SOL    HW121734   5.752   2.913   6.719
 6945SOL    HW221735   5.759   2.788   6.823
 6946SOL     OW21736   6.270   5.566   2.301
 6946SOL    HW121737   6.275   5.478   2.348
 6946SOL    HW221738   6.306   5.637   2.361
 6947SOL     OW21739   4.071   6.864   4.896
 6947SOL    HW121740   3.986   6.917   4.905
 6947SOL    HW221741   4.146   6.914   4.940
 6948SOL     OW21742   5.571   0.523   0.279
 6948SOL    HW121743   5.662   0.497   0.244
 6948SOL    HW221744   5.528   0.586   0.214
 6949SOL     OW21745   5.300   6.563   3.792
 6949SOL    HW121746   5.331   6.468   3.788
 6949SOL    HW221747   5.375   6.623   3.763
 6950SOL     OW21748   2.314   6.873   3.273
 6950SOL    HW121749   2.392   6.926   3.308
 6950SOL    HW221750   2.314   6.783   3.315
 6951SOL     OW21751   6.191   6.212   6.136
 6951SOL    HW121752   6.210   6.286   6.071
 6951SOL    HW221753   6.102   6.171   6.114
 6952SOL     OW21754   7.011   5.237   3.462
 6952SOL    HW121755   0.055   5.188   3.515
 6952SOL    HW221756   0.011   5.333   3.456
 6953SOL     OW21757   4.871   0.379   6.304
 6953SOL    HW121758   4.943   0.313   6.325
 6953SOL    HW221759   4.860   0.441   6.382
 6954SOL     OW21760   0.925   4.261   4.195
 6954SOL    HW121761   0.953   4.281   4.101
 6954SOL    HW221762   0.996   4.206   4.240
 6955SOL     OW21763   6.863   0.396   1.950
 6955SOL    HW121764   6.921   0.314   1.946
 6955SOL    HW221765   6.768   0.368   1.960
 6956SOL     OW21766   4.039   6.185   2.795
 6956SOL    HW121767   4.043   6.086   2.805
 6956SOL    HW221768   4.127   6.225   2.820
 6957SOL     OW21769   6.880   4.786   1.478
 6957SOL    HW121770   6.841   4.871   1.444
 6957SOL    HW221771   6.947   4.807   1.550
 6958SOL     OW21772   2.754   3.535   5.482
 6958SOL    HW121773   2.832   3.485   5.520
 6958SOL    HW221774   2.780   3.577   5.396
 6959SOL     OW21775   2.049   1.394   5.014
 6959SOL    HW121776   2.055   1.400   4.915
 6959SOL    HW221777   2.114   1.326   5.047
 6960SOL     OW21778   0.479   5.335   0.361
 6960SOL    HW121779   0.506   5.431   0.361
 6960SOL    HW221780   0.524   5.288   0.438
 6961SOL     OW21781   0.142   2.577   4.209
 6961SOL    HW121782   0.121   2.515   4.285
 6961SOL    HW221783   0.231   2.618   4.224
 6962SOL     OW21784   5.320   5.220   2.769
 6962SOL    HW121785   5.315   5.137   2.714
 6962SOL    HW221786   5.337   5.299   2.710
 6963SOL     OW21787   0.589   5.813   0.551
 6963SOL    HW121788   0.657   5.794   0.622
 6963SOL    HW221789   0.510   5.859   0.592
 6964SOL     OW21790   5.153   4.729   4.721
 6964SOL    HW121791   5.241   4.729   4.768
 6964SOL    HW221792   5.114   4.637   4.724
 6965SOL     OW21793   0.588   3.833   6.221
 6965SOL    HW121794   0.541   3.813   6.136
 6965SOL    HW221795   0.566   3.763   6.289
 6966SOL     OW21796   5.789   2.807   2.818
 6966SOL    HW121797   5.846   2.834   2.895
 6966SOL    HW221798   5.700   2.851   2.825
 6967SOL     OW21799   1.583   1.613   5.273
 6967SOL    HW121800   1.601   1.677   5.198
 6967SOL    HW221801   1.541   1.530   5.237
 6968SOL     OW21802   3.173   6.396   2.517
 6968SOL    HW121803   3.255   6.426   2.565
 6968SOL    HW221804   3.100   6.463   2.531
 6969SOL     OW21805   3.879   1.717   1.678
 6969SOL    HW121806   3.856   1.784   1.608
 6969SOL    HW221807   3.796   1.683   1.722
 6970SOL     OW21808   4.613   4.093   0.510
 6970SOL    HW121809   4.526   4.136   0.486
 6970SOL    HW221810   4.630   4.104   0.608
 6971SOL     OW21811   6.419   3.945   2.164
 6971SOL    HW121812   6.401   3.965   2.261
 6971SOL    HW221813   6.508   3.899   2.156
 6972SOL     OW21814   5.942   5.151   4.177
 6972SOL    HW121815   6.030   5.123   4.139
 6972SOL    HW221816   5.944   5.142   4.276
 6973SOL     OW21817   1.182   3.862   4.662
 6973SOL    HW121818   1.167   3.764   4.646
 6973SOL    HW221819   1.227   3.875   4.750
 6974SOL     OW21820   3.391   2.903   3.487
 6974SOL    HW121821   3.407   2.804   3.481
 6974SOL    HW221822   3.392   2.931   3.583
 6975SOL     OW21823   3.211   6.445   5.734
 6975SOL    HW121824   3.214   6.375   5.806
 6975SOL    HW221825   3.124   6.495   5.740
 6976SOL     OW21826   3.961   4.220   5.815
 6976SOL    HW121827   3.945   4.315   5.841
 6976SOL    HW221828   3.898   4.194   5.741
 6977SOL     OW21829   5.144   2.212   1.739
 6977SOL    HW121830   5.121   2.213   1.836
 6977SOL    HW221831   5.109   2.295   1.696
 6978SOL     OW21832   6.267   1.801   1.310
 6978SOL    HW121833   6.187   1.819   1.367
 6978SOL    HW221834   6.331   1.878   1.320
 6979SOL     OW21835   1.156   4.715   1.340
 6979SOL    HW121836   1.133   4.805   1.379
 6979SOL    HW221837   1.121   4.643   1.400
 6980SOL     OW21838   1.566   0.248   4.110
 6980SOL    HW121839   1.652   0.298   4.098
 6980SOL    HW221840   1.568   0.200   4.198
 6981SOL     OW21841   2.249   3.086   6.812
 6981SOL    HW121842   2.248   3.068   6.714
 6981SOL    HW221843   2.215   3.006   6.861
 6982SOL     OW21844   1.530   1.543   3.896
 6982SOL    HW121845   1.599   1.598   3.944
 6982SOL    HW221846   1.574   1.466   3.852
 6983SOL     OW21847   6.001   2.336   3.366
 6983SOL    HW121848   6.090   2.310   3.403
 6983SOL    HW221849   6.001   2.328   3.267
 6984SOL     OW21850   2.428   1.917   4.909
 6984SOL    HW121851   2.374   1.994   4.943
 6984SOL    HW221852   2.516   1.914   4.955
 6985SOL     OW21853   3.632   5.372   2.664
 6985SOL    HW121854   3.587   5.459   2.684
 6985SOL    HW221855   3.601   5.338   2.575
 6986SOL     OW21856   1.632   6.301   6.315
 6986SOL    HW121857   1.554   6.350   6.354
 6986SOL    HW221858   1.705   6.366   6.294
 6987SOL     OW21859   1.075   1.847   6.642
 6987SOL    HW121860   1.069   1.748   6.653
 6987SOL    HW221861   1.169   1.873   6.620
 6988SOL     OW21862   6.176   0.828   4.785
 6988SOL    HW121863   6.206   0.922   4.800
 6988SOL    HW221864   6.237   0.784   4.719
 6989SOL     OW21865   0.760   3.149   3.842
 6989SOL    HW121866   0.813   3.231   3.862
 6989SOL    HW221867   0.697   3.168   3.766
 6990SOL     OW21868   5.207   1.799   0.113
 6990SOL    HW121869   5.135   1.729   0.113
 6990SOL    HW221870   5.296   1.755   0.123
 6991SOL     OW21871   2.285   4.650   4.380
 6991SOL    HW121872   2.364   4.657   4.319
 6991SOL    HW221873   2.286   4.726   4.445
 6992SOL     OW21874   6.245   6.061   5.065
 6992SOL    HW121875   6.259   6.064   4.966
 6992SOL    HW221876   6.208   5.973   5.092
 6993SOL     OW21877   6.418   6.821   2.485
 6993SOL    HW121878   6.408   6.921   2.489
 6993SOL    HW221879   6.343   6.783   2.431
 6994SOL     OW21880   0.796   3.151   4.890
 6994SOL    HW121881   0.798   3.096   4.807
 6994SOL    HW221882   0.889   3.165   4.923
 6995SOL     OW21883   6.249   5.450   4.888
 6995SOL    HW121884   6.222   5.530   4.834
 6995SOL    HW221885   6.321   5.400   4.841
 6996SOL     OW21886   1.998   1.068   4.995
 6996SOL    HW121887   2.011   0.972   5.019
 6996SOL    HW221888   2.070   1.123   5.037
 6997SOL     OW21889   5.288   6.035   5.338
 6997SOL    HW121890   5.299   6.124   5.293
 6997SOL    HW221891   5.371   6.013   5.389
 6998SOL     OW21892   1.859   2.255   1.538
 6998SOL    HW121893   1.925   2.313   1.587
 6998SOL    HW221894   1.843   2.292   1.447
 6999SOL     OW21895   2.273   2.056   6.781
 6999SOL    HW121896   2.239   2.044   6.688
 6999SOL    HW221897   2.312   1.970   6.814
 7000SOL     OW21898   6.950   5.977   2.637
 7000SOL    HW121899   7.001   6.049   2.685
 7000SOL    HW221900   6.887   5.933   2.701
 7001SOL     OW21901   2.419   3.024   5.730
 7001SOL    HW121902   2.430   3.122   5.747
 7001SOL    HW221903   2.348   3.010   5.661
 7002SOL     OW21904   2.643   4.711   3.043
 7002SOL    HW121905   2.686   4.708   2.953
 7002SOL    HW221906   2.553   4.754   3.036
 7003SOL     OW21907   3.944   6.309   6.957
 7003SOL    HW121908   4.044   6.316   6.966
 7003SOL    HW221909   3.917   6.213   6.960
 7004SOL     OW21910   2.031   4.937   1.766
 7004SOL    HW121911   2.111   4.992   1.742
 7004SOL    HW221912   1.998   4.888   1.685
 7005SOL     OW21913   0.572   6.376   5.875
 7005SOL    HW121914   0.580   6.276   5.878
 7005SOL    HW221915   0.613   6.410   5.791
 7006SOL     OW21916   6.017   5.104   4.464
 7006SOL    HW121917   6.117   5.105   4.468
 7006SOL    HW221918   5.980   5.158   4.540
 7007SOL     OW21919   5.120   6.840   2.900
 7007SOL    HW121920   5.144   6.936   2.881
 7007SOL    HW221921   5.044   6.813   2.841
 7008SOL     OW21922   2.302   5.932   4.542
 7008SOL    HW121923   2.266   5.961   4.453
 7008SOL    HW221924   2.308   5.832   4.544
 7009SOL     OW21925   5.855   5.395   2.449
 7009SOL    HW121926   5.938   5.339   2.447
 7009SOL    HW221927   5.775   5.337   2.433
 7010SOL     OW21928   4.105   3.703   6.091
 7010SOL    HW121929   4.053   3.733   6.170
 7010SOL    HW221930   4.199   3.684   6.118
 7011SOL     OW21931   1.789   0.746   5.986
 7011SOL    HW121932   1.807   0.819   6.052
 7011SOL    HW221933   1.862   0.744   5.917
 7012SOL     OW21934   2.429   1.066   2.077
 7012SOL    HW121935   2.418   0.995   2.008
 7012SOL    HW221936   2.478   1.144   2.039
 7013SOL     OW21937   0.049   6.356   1.058
 7013SOL    HW121938   0.032   6.433   1.119
 7013SOL    HW221939   0.145   6.330   1.061
 7014SOL     OW21940   4.544   3.280   0.919
 7014SOL    HW121941   4.467   3.233   0.963
 7014SOL    HW221942   4.594   3.333   0.987
 7015SOL     OW21943   5.753   4.517   2.054
 7015SOL    HW121944   5.725   4.437   2.001
 7015SOL    HW221945   5.694   4.595   2.031
 7016SOL     OW21946   3.797   4.887   2.185
 7016SOL    HW121947   3.762   4.803   2.145
 7016SOL    HW221948   3.785   4.963   2.120
 7017SOL     OW21949   2.340   0.475   2.009
 7017SOL    HW121950   2.268   0.406   2.011
 7017SOL    HW221951   2.387   0.477   2.097
 7018SOL     OW21952   6.368   4.240   4.695
 7018SOL    HW121953   6.321   4.261   4.609
 7018SOL    HW221954   6.300   4.222   4.766
 7019SOL     OW21955   3.333   4.597   6.556
 7019SOL    HW121956   3.348   4.662   6.630
 7019SOL    HW221957   3.292   4.514   6.592
 7020SOL     OW21958   6.595   6.574   6.607
 7020SOL    HW121959   6.687   6.599   6.577
 7020SOL    HW221960   6.572   6.623   6.690
 7021SOL     OW21961   2.029   1.255   5.566
 7021SOL    HW121962   2.112   1.296   5.603
 7021SOL    HW221963   1.968   1.327   5.532
 7022SOL     OW21964   4.688   4.388   0.748
 7022SOL    HW121965   4.597   4.352   0.727
 7022SOL    HW221966   4.731   4.331   0.819
 7023SOL     OW21967   0.697   2.150   3.568
 7023SOL    HW121968   0.651   2.216   3.509
 7023SOL    HW221969   0.639   2.128   3.646
 7024SOL     OW21970   1.201   5.384   5.943
 7024SOL    HW121971   1.198   5.421   5.851
 7024SOL    HW221972   1.184   5.285   5.940
 7025SOL     OW21973   3.080   1.460   0.155
 7025SOL    HW121974   3.055   1.453   0.252
 7025SOL    HW221975   3.093   1.368   0.118
 7026SOL     OW21976   2.826   1.643   2.039
 7026SOL    HW121977   2.727   1.658   2.035
 7026SOL    HW221978   2.851   1.617   2.133
 7027SOL     OW21979   3.109   5.247   2.875
 7027SOL    HW121980   3.180   5.198   2.824
 7027SOL    HW221981   3.088   5.333   2.829
 7028SOL     OW21982   6.127   6.826   4.398
 7028SOL    HW121983   6.196   6.756   4.381
 7028SOL    HW221984   6.168   6.903   4.446
 7029SOL     OW21985   4.076   6.678   6.854
 7029SOL    HW121986   4.146   6.748   6.841
 7029SOL    HW221987   3.994   6.703   6.802
 7030SOL     OW21988   6.482   2.419   5.882
 7030SOL    HW121989   6.512   2.359   5.956
 7030SOL    HW221990   6.550   2.492   5.869
 7031SOL     OW21991   2.128   5.599   3.616
 7031SOL    HW121992   2.198   5.556   3.560
 7031SOL    HW221993   2.069   5.529   3.656
 7032SOL     OW21994   3.540   6.908   3.894
 7032SOL    HW121995   3.441   6.908   3.878
 7032SOL    HW221996   3.565   6.989   3.946
 7033SOL     OW21997   6.723   1.645   3.097
 7033SOL    HW121998   6.755   1.576   3.162
 7033SOL    HW221999   6.676   1.718   3.145
 7034SOL     OW22000   6.381   0.350   2.556
 7034SOL    HW122001   6.473   0.343   2.518
 7034SOL    HW222002   6.386   0.368   2.654
 7035SOL     OW22003   1.496   6.779   1.980
 7035SOL    HW122004   1.449   6.690   1.984
 7035SOL    HW222005   1.452   6.842   2.044
 7036SOL     OW22006   6.973   0.627   1.520
 7036SOL    HW122007   6.950   0.557   1.452
 7036SOL    HW222008   6.891   0.652   1.571
 7037SOL     OW22009   0.915   0.229   6.227
 7037SOL    HW122010   0.923   0.136   6.190
 7037SOL    HW222011   1.004   0.274   6.223
 7038SOL     OW22012   1.634   3.785   4.216
 7038SOL    HW122013   1.717   3.735   4.194
 7038SOL    HW222014   1.626   3.794   4.316
 7039SOL     OW22015   2.869   6.031   0.724
 7039SOL    HW122016   2.835   6.027   0.630
 7039SOL    HW222017   2.834   6.114   0.768
 7040SOL     OW22018   4.942   2.494   5.187
 7040SOL    HW122019   4.846   2.466   5.189
 7040SOL    HW222020   4.958   2.556   5.111
 7041SOL     OW22021   0.821   1.747   2.956
 7041SOL    HW122022   0.728   1.712   2.969
 7041SOL    HW222023   0.884   1.670   2.945
 7042SOL     OW22024   5.529   5.591   6.801
 7042SOL    HW122025   5.567   5.617   6.712
 7042SOL    HW222026   5.437   5.628   6.810
 7043SOL     OW22027   2.212   2.858   3.051
 7043SOL    HW122028   2.158   2.798   3.110
 7043SOL    HW222029   2.284   2.902   3.106
 7044SOL     OW22030   5.173   4.759   3.362
 7044SOL    HW122031   5.221   4.822   3.422
 7044SOL    HW222032   5.235   4.726   3.291
 7045SOL     OW22033   4.613   5.937   2.326
 7045SOL    HW122034   4.659   5.874   2.388
 7045SOL    HW222035   4.672   6.016   2.308
 7046SOL     OW22036   3.613   2.127   3.696
 7046SOL    HW122037   3.587   2.042   3.741
 7046SOL    HW222038   3.532   2.167   3.651
 7047SOL     OW22039   1.167   2.320   3.093
 7047SOL    HW122040   1.262   2.300   3.069
 7047SOL    HW222041   1.144   2.276   3.180
 7048SOL     OW22042   6.962   5.619   1.463
 7048SOL    HW122043   6.896   5.547   1.484
 7048SOL    HW222044   7.009   5.598   1.377
 7049SOL     OW22045   2.307   1.246   0.578
 7049SOL    HW122046   2.338   1.191   0.500
 7049SOL    HW222047   2.386   1.282   0.627
 7050SOL     OW22048   3.504   4.097   3.296
 7050SOL    HW122049   3.433   4.156   3.336
 7050SOL    HW222050   3.583   4.094   3.358
 7051SOL     OW22051   0.160   0.982   0.830
 7051SOL    HW122052   0.109   1.022   0.906
 7051SOL    HW222053   0.247   0.946   0.863
 7052SOL     OW22054   6.125   2.374   4.135
 7052SOL    HW122055   6.187   2.444   4.171
 7052SOL    HW222056   6.085   2.405   4.049
 7053SOL     OW22057   1.036   3.166   5.034
 7053SOL    HW122058   0.980   3.217   5.099
 7053SOL    HW222059   1.108   3.117   5.084
 7054SOL     OW22060   0.957   6.123   1.471
 7054SOL    HW122061   1.011   6.138   1.553
 7054SOL    HW222062   1.015   6.084   1.399
 7055SOL     OW22063   3.988   6.420   5.482
 7055SOL    HW122064   4.063   6.484   5.464
 7055SOL    HW222065   4.008   6.331   5.440
 7056SOL     OW22066   5.441   5.873   3.376
 7056SOL    HW122067   5.477   5.886   3.283
 7056SOL    HW222068   5.370   5.803   3.375
 7057SOL     OW22069   1.371   5.120   3.771
 7057SOL    HW122070   1.456   5.121   3.824
 7057SOL    HW222071   1.347   5.026   3.749
 7058SOL     OW22072   6.149   5.469   6.522
 7058SOL    HW122073   6.064   5.455   6.573
 7058SOL    HW222074   6.128   5.514   6.435
 7059SOL     OW22075   0.450   0.758   3.225
 7059SOL    HW122076   0.396   0.701   3.164
 7059SOL    HW222077   0.460   0.712   3.313
 7060SOL     OW22078   3.112   6.821   1.557
 7060SOL    HW122079   3.075   6.729   1.574
 7060SOL    HW222080   3.113   6.873   1.643
 7061SOL     OW22081   0.504   2.526   3.929
 7061SOL    HW122082   0.528   2.623   3.933
 7061SOL    HW222083   0.531   2.488   3.841
 7062SOL     OW22084   5.305   1.261   6.124
 7062SOL    HW122085   5.316   1.177   6.178
 7062SOL    HW222086   5.391   1.311   6.122
 7063SOL     OW22087   0.172   0.296   1.026
 7063SOL    HW122088   0.226   0.296   0.941
 7063SOL    HW222089   0.223   0.342   1.098
 7064SOL     OW22090   4.197   2.323   2.009
 7064SOL    HW122091   4.183   2.365   1.919
 7064SOL    HW222092   4.111   2.283   2.041
 7065SOL     OW22093   4.412   3.749   0.287
 7065SOL    HW122094   4.475   3.819   0.252
 7065SOL    HW222095   4.400   3.763   0.385
 7066SOL     OW22096   4.464   0.790   0.815
 7066SOL    HW122097   4.469   0.877   0.767
 7066SOL    HW222098   4.422   0.804   0.905
 7067SOL     OW22099   1.544   1.825   5.480
 7067SOL    HW122100   1.542   1.909   5.425
 7067SOL    HW222101   1.581   1.750   5.425
 7068SOL     OW22102   0.824   3.985   3.842
 7068SOL    HW122103   0.755   4.012   3.775
 7068SOL    HW222104   0.913   4.020   3.814
 7069SOL     OW22105   5.916   2.664   4.332
 7069SOL    HW122106   5.960   2.585   4.375
 7069SOL    HW222107   5.946   2.672   4.237
 7070SOL     OW22108   6.903   6.389   5.258
 7070SOL    HW122109   6.860   6.386   5.168
 7070SOL    HW222110   6.889   6.302   5.305
 7071SOL     OW22111   1.254   6.293   6.283
 7071SOL    HW122112   1.311   6.286   6.201
 7071SOL    HW222113   1.199   6.211   6.292
 7072SOL     OW22114   0.271   6.069   6.150
 7072SOL    HW122115   0.286   6.157   6.196
 7072SOL    HW222116   0.174   6.049   6.147
 7073SOL     OW22117   5.803   0.154   4.656
 7073SOL    HW122118   5.864   0.232   4.644
 7073SOL    HW222119   5.711   0.187   4.678
 7074SOL     OW22120   4.180   2.643   1.527
 7074SOL    HW122121   4.223   2.582   1.461
 7074SOL    HW222122   4.116   2.591   1.583
 7075SOL     OW22123   1.122   5.673   5.874
 7075SOL    HW122124   1.109   5.602   5.943
 7075SOL    HW222125   1.142   5.630   5.786
 7076SOL     OW22126   3.882   2.458   6.851
 7076SOL    HW122127   3.945   2.536   6.853
 7076SOL    HW222128   3.798   2.484   6.804
 7077SOL     OW22129   2.101   4.763   5.661
 7077SOL    HW122130   2.152   4.737   5.743
 7077SOL    HW222131   2.004   4.740   5.674
 7078SOL     OW22132   6.232   0.565   1.758
 7078SOL    HW122133   6.322   0.522   1.757
 7078SOL    HW222134   6.220   0.616   1.843
 7079SOL     OW22135   6.821   6.636   5.334
 7079SOL    HW122136   6.866   6.552   5.304
 7079SOL    HW222137   6.860   6.714   5.285
 7080SOL     OW22138   3.513   2.117   4.225
 7080SOL    HW122139   3.437   2.140   4.286
 7080SOL    HW222140   3.582   2.189   4.230
 7081SOL     OW22141   3.052   0.567   6.247
 7081SOL    HW122142   3.149   0.577   6.270
 7081SOL    HW222143   3.031   0.622   6.166
 7082SOL     OW22144   5.961   5.013   6.822
 7082SOL    HW122145   5.973   5.001   6.723
 7082SOL    HW222146   6.012   5.094   6.852
 7083SOL     OW22147   3.435   0.812   6.682
 7083SOL    HW122148   3.495   0.880   6.640
 7083SOL    HW222149   3.341   0.848   6.684
 7084SOL     OW22150   0.387   6.763   5.907
 7084SOL    HW122151   0.288   6.777   5.900
 7084SOL    HW222152   0.405   6.675   5.951
 7085SOL     OW22153   1.878   1.453   2.672
 7085SOL    HW122154   1.947   1.525   2.684
 7085SOL    HW222155   1.795   1.492   2.632
 7086SOL     OW22156   4.932   0.802   5.562
 7086SOL    HW122157   4.872   0.830   5.636
 7086SOL    HW222158   4.915   0.707   5.539
 7087SOL     OW22159   6.090   4.240   3.909
 7087SOL    HW122160   6.175   4.289   3.888
 7087SOL    HW222161   6.025   4.251   3.833
 7088SOL     OW22162   5.336   2.617   3.284
 7088SOL    HW122163   5.369   2.635   3.191
 7088SOL    HW222164   5.249   2.663   3.299
 7089SOL     OW22165   3.561   2.031   5.711
 7089SOL    HW122166   3.463   2.047   5.703
 7089SOL    HW222167   3.578   1.953   5.772
 7090SOL     OW22168   2.300   1.137   6.251
 7090SOL    HW122169   2.215   1.142   6.198
 7090SOL    HW222170   2.301   1.054   6.306
 7091SOL     OW22171   0.027   2.062   0.073
 7091SOL    HW122172   0.105   2.123   0.086
 7091SOL    HW222173   7.002   2.052   0.160
 7092SOL     OW22174   4.476   2.740   6.247
 7092SOL    HW122175   4.562   2.755   6.199
 7092SOL    HW222176   4.407   2.707   6.183
 7093SOL     OW22177   3.286   3.659   3.316
 7093SOL    HW122178   3.186   3.655   3.307
 7093SOL    HW222179   3.323   3.720   3.246
 7094SOL     OW22180   0.579   5.623   6.242
 7094SOL    HW122181   0.521   5.693   6.200
 7094SOL    HW222182   0.540   5.594   6.329
 7095SOL     OW22183   3.596   2.861   6.475
 7095SOL    HW122184   3.571   2.895   6.384
 7095SOL    HW222185   3.665   2.921   6.515
 7096SOL     OW22186   6.581   0.392   4.030
 7096SOL    HW122187   6.486   0.382   3.999
 7096SOL    HW222188   6.643   0.370   3.955
 7097SOL     OW22189   6.081   1.016   1.470
 7097SOL    HW122190   6.025   1.094   1.499
 7097SOL    HW222191   6.177   1.044   1.468
 7098SOL     OW22192   0.827   0.444   4.031
 7098SOL    HW122193   0.744   0.416   3.982
 7098SOL    HW222194   0.801   0.477   4.122
 7099SOL     OW22195   2.860   0.465   4.911
 7099SOL    HW122196   2.933   0.465   4.979
 7099SOL    HW222197   2.848   0.372   4.876
 7100SOL     OW22198   5.722   3.313   1.307
 7100SOL    HW122199   5.695   3.220   1.331
 7100SOL    HW222200   5.821   3.319   1.301
 7101SOL     OW22201   2.070   0.579   4.846
 7101SOL    HW122202   2.008   0.630   4.787
 7101SOL    HW222203   2.132   0.524   4.791
 7102SOL     OW22204   4.829   1.040   1.013
 7102SOL    HW122205   4.788   0.949   1.011
 7102SOL    HW222206   4.810   1.083   1.101
 7103SOL     OW22207   4.147   5.146   1.006
 7103SOL    HW122208   4.119   5.051   0.994
 7103SOL    HW222209   4.237   5.149   1.050
 7104SOL     OW22210   1.310   3.498   5.122
 7104SOL    HW122211   1.234   3.562   5.136
 7104SOL    HW222212   1.397   3.545   5.135
 7105SOL     OW22213   2.621   2.668   5.493
 7105SOL    HW122214   2.550   2.622   5.547
 7105SOL    HW222215   2.657   2.745   5.545
 7106SOL     OW22216   3.080   3.119   3.016
 7106SOL    HW122217   3.091   3.085   2.923
 7106SOL    HW222218   2.983   3.113   3.042
 7107SOL     OW22219   3.579   0.696   0.333
 7107SOL    HW122220   3.543   0.769   0.273
 7107SOL    HW222221   3.514   0.620   0.334
 7108SOL     OW22222   4.296   6.326   2.509
 7108SOL    HW122223   4.291   6.239   2.558
 7108SOL    HW222224   4.367   6.320   2.439
 7109SOL     OW22225   3.934   6.818   6.265
 7109SOL    HW122226   3.972   6.851   6.178
 7109SOL    HW222227   3.958   6.722   6.277
 7110SOL     OW22228   4.324   6.048   3.642
 7110SOL    HW122229   4.390   6.093   3.702
 7110SOL    HW222230   4.258   5.997   3.698
 7111SOL     OW22231   2.335   1.980   4.656
 7111SOL    HW122232   2.402   1.948   4.723
 7111SOL    HW222233   2.248   1.998   4.702
 7112SOL     OW22234   2.441   6.071   3.794
 7112SOL    HW122235   2.506   6.118   3.735
 7112SOL    HW222236   2.476   5.980   3.816
 7113SOL     OW22237   2.967   3.936   4.831
 7113SOL    HW122238   2.947   3.987   4.915
 7113SOL    HW222239   2.920   3.848   4.833
 7114SOL     OW22240   3.868   6.774   1.371
 7114SOL    HW122241   3.925   6.833   1.427
 7114SOL    HW222242   3.816   6.712   1.430
 7115SOL     OW22243   5.515   2.949   2.419
 7115SOL    HW122244   5.445   2.989   2.359
 7115SOL    HW222245   5.592   2.919   2.364
 7116SOL     OW22246   5.224   3.509   3.473
 7116SOL    HW122247   5.251   3.486   3.566
 7116SOL    HW222248   5.266   3.444   3.409
 7117SOL     OW22249   0.335   6.774   4.526
 7117SOL    HW122250   0.417   6.808   4.480
 7117SOL    HW222251   0.260   6.838   4.511
 7118SOL     OW22252   3.180   4.284   0.722
 7118SOL    HW122253   3.106   4.326   0.774
 7118SOL    HW222254   3.248   4.353   0.698
 7119SOL     OW22255   5.465   1.949   3.407
 7119SOL    HW122256   5.477   1.891   3.327
 7119SOL    HW222257   5.368   1.967   3.422
 7120SOL     OW22258   4.357   1.905   2.411
 7120SOL    HW122259   4.443   1.857   2.430
 7120SOL    HW222260   4.295   1.894   2.489
 7121SOL     OW22261   2.596   0.152   2.300
 7121SOL    HW122262   2.660   0.207   2.353
 7121SOL    HW222263   2.508   0.198   2.295
 7122SOL     OW22264   6.897   0.911   5.581
 7122SOL    HW122265   6.836   0.852   5.528
 7122SOL    HW222266   6.866   1.006   5.574
 7123SOL     OW22267   2.654   4.933   1.782
 7123SOL    HW122268   2.702   4.961   1.699
 7123SOL    HW222269   2.589   4.860   1.760
 7124SOL     OW22270   0.214   2.950   0.747
 7124SOL    HW122271   0.225   3.047   0.725
 7124SOL    HW222272   0.245   2.933   0.840
 7125SOL     OW22273   6.326   6.598   1.112
 7125SOL    HW122274   6.390   6.593   1.189
 7125SOL    HW222275   6.336   6.516   1.055
 7126SOL     OW22276   3.480   4.755   6.850
 7126SOL    HW122277   3.518   4.663   6.841
 7126SOL    HW222278   3.381   4.751   6.843
 7127SOL     OW22279   2.583   6.286   4.511
 7127SOL    HW122280   2.647   6.268   4.436
 7127SOL    HW222281   2.563   6.201   4.559
 7128SOL     OW22282   2.298   5.837   0.167
 7128SOL    HW122283   2.262   5.746   0.187
 7128SOL    HW222284   2.260   5.870   0.081
 7129SOL     OW22285   3.005   0.292   0.505
 7129SOL    HW122286   2.946   0.302   0.585
 7129SOL    HW222287   2.956   0.242   0.433
 7130SOL     OW22288   3.504   4.645   5.325
 7130SOL    HW122289   3.514   4.635   5.425
 7130SOL    HW222290   3.409   4.664   5.303
 7131SOL     OW22291   2.569   1.536   0.400
 7131SOL    HW122292   2.632   1.566   0.328
 7131SOL    HW222293   2.476   1.534   0.363
 7132SOL     OW22294   3.353   4.025   0.386
 7132SOL    HW122295   3.365   3.946   0.326
 7132SOL    HW222296   3.293   4.092   0.342
 7133SOL     OW22297   4.756   5.810   3.870
 7133SOL    HW122298   4.774   5.842   3.776
 7133SOL    HW222299   4.782   5.714   3.878
 7134SOL     OW22300   5.799   6.095   2.043
 7134SOL    HW122301   5.776   6.191   2.028
 7134SOL    HW222302   5.808   6.077   2.141
 7135SOL     OW22303   2.340   2.421   3.428
 7135SOL    HW122304   2.391   2.507   3.418
 7135SOL    HW222305   2.390   2.347   3.384
 7136SOL     OW22306   1.590   2.610   0.837
 7136SOL    HW122307   1.668   2.671   0.829
 7136SOL    HW222308   1.620   2.515   0.826
 7137SOL     OW22309   4.698   0.751   6.666
 7137SOL    HW122310   4.665   0.809   6.592
 7137SOL    HW222311   4.774   0.796   6.713
 7138SOL     OW22312   1.631   2.915   0.235
 7138SOL    HW122313   1.581   2.964   0.164
 7138SOL    HW222314   1.566   2.873   0.299
 7139SOL     OW22315   5.019   3.988   2.787
 7139SOL    HW122316   4.979   3.929   2.717
 7139SOL    HW222317   5.095   4.040   2.748
 7140SOL     OW22318   5.544   3.414   4.779
 7140SOL    HW122319   5.614   3.480   4.752
 7140SOL    HW222320   5.484   3.396   4.701
 7141SOL     OW22321   2.921   5.956   1.387
 7141SOL    HW122322   2.913   5.864   1.349
 7141SOL    HW222323   3.017   5.975   1.408
 7142SOL     OW22324   4.452   0.053   3.220
 7142SOL    HW122325   4.354   0.042   3.236
 7142SOL    HW222326   4.467   0.135   3.165
 7143SOL     OW22327   1.878   2.763   6.331
 7143SOL    HW122328   1.881   2.858   6.298
 7143SOL    HW222329   1.791   2.721   6.305
 7144SOL     OW22330   1.827   1.473   3.638
 7144SOL    HW122331   1.793   1.430   3.721
 7144SOL    HW222332   1.843   1.403   3.569
 7145SOL     OW22333   4.633   6.566   6.287
 7145SOL    HW122334   4.650   6.506   6.208
 7145SOL    HW222335   4.697   6.541   6.360
 7146SOL     OW22336   2.215   0.521   6.753
 7146SOL    HW122337   2.214   0.569   6.841
 7146SOL    HW222338   2.122   0.513   6.718
 7147SOL     OW22339   6.430   6.352   3.199
 7147SOL    HW122340   6.446   6.372   3.296
 7147SOL    HW222341   6.516   6.325   3.156
 7148SOL     OW22342   7.008   6.669   0.904
 7148SOL    HW122343   0.074   6.628   0.895
 7148SOL    HW222344   6.938   6.603   0.878
 7149SOL     OW22345   6.364   6.729   2.942
 7149SOL    HW122346   6.368   6.664   3.017
 7149SOL    HW222347   6.399   6.687   2.859
 7150SOL     OW22348   4.339   2.016   1.897
 7150SOL    HW122349   4.337   2.024   1.997
 7150SOL    HW222350   4.381   2.097   1.858
 7151SOL     OW22351   1.725   6.469   0.668
 7151SOL    HW122352   1.673   6.460   0.583
 7151SOL    HW222353   1.823   6.472   0.646
 7152SOL     OW22354   0.364   1.650   4.838
 7152SOL    HW122355   0.391   1.565   4.884
 7152SOL    HW222356   0.362   1.725   4.904
 7153SOL     OW22357   3.234   6.207   3.312
 7153SOL    HW122358   3.140   6.226   3.283
 7153SOL    HW222359   3.252   6.108   3.306
 7154SOL     OW22360   4.215   6.896   4.477
 7154SOL    HW122361   4.128   6.899   4.427
 7154SOL    HW222362   4.290   6.909   4.412
 7155SOL     OW22363   2.564   4.916   1.460
 7155SOL    HW122364   2.550   4.907   1.361
 7155SOL    HW222365   2.615   4.836   1.494
 7156SOL     OW22366   0.421   3.794   4.782
 7156SOL    HW122367   0.351   3.751   4.838
 7156SOL    HW222368   0.381   3.868   4.728
 7157SOL     OW22369   6.111   4.572   0.996
 7157SOL    HW122370   6.118   4.473   0.995
 7157SOL    HW222371   6.052   4.603   0.921
 7158SOL     OW22372   1.134   6.953   2.729
 7158SOL    HW122373   1.102   6.992   2.815
 7158SOL    HW222374   1.199   6.879   2.748
 7159SOL     OW22375   0.388   4.000   2.740
 7159SOL    HW122376   0.391   3.966   2.834
 7159SOL    HW222377   0.460   4.067   2.725
 7160SOL     OW22378   6.003   0.351   3.340
 7160SOL    HW122379   6.028   0.405   3.420
 7160SOL    HW222380   5.912   0.311   3.354
 7161SOL     OW22381   3.243   4.023   5.008
 7161SOL    HW122382   3.184   4.008   4.929
 7161SOL    HW222383   3.339   4.018   4.980
 7162SOL     OW22384   2.139   5.654   5.791
 7162SOL    HW122385   2.113   5.709   5.871
 7162SOL    HW222386   2.109   5.560   5.804
 7163SOL     OW22387   2.817   6.497   3.017
 7163SOL    HW122388   2.846   6.588   2.987
 7163SOL    HW222389   2.890   6.431   3.000
 7164SOL     OW22390   1.850   1.071   3.904
 7164SOL    HW122391   1.948   1.088   3.914
 7164SOL    HW222392   1.809   1.057   3.994
 7165SOL     OW22393   0.033   1.760   1.390
 7165SOL    HW122394   0.121   1.799   1.363
 7165SOL    HW222395   7.009   1.728   1.309
 7166SOL     OW22396   5.933   3.014   0.261
 7166SOL    HW122397   6.002   3.077   0.224
 7166SOL    HW222398   5.853   3.066   0.290
 7167SOL     OW22399   5.229   3.622   4.682
 7167SOL    HW122400   5.317   3.662   4.659
 7167SOL    HW222401   5.240   3.525   4.701
 7168SOL     OW22402   1.568   2.542   4.273
 7168SOL    HW122403   1.610   2.633   4.278
 7168SOL    HW222404   1.620   2.485   4.209
 7169SOL     OW22405   0.223   3.617   4.906
 7169SOL    HW122406   0.133   3.574   4.909
 7169SOL    HW222407   0.294   3.547   4.907
 7170SOL     OW22408   4.437   6.414   3.670
 7170SOL    HW122409   4.356   6.428   3.614
 7170SOL    HW222410   4.518   6.406   3.612
 7171SOL     OW22411   5.551   4.442   6.167
 7171SOL    HW122412   5.517   4.376   6.101
 7171SOL    HW222413   5.524   4.415   6.259
 7172SOL     OW22414   1.345   0.481   5.568
 7172SOL    HW122415   1.383   0.406   5.623
 7172SOL    HW222416   1.283   0.535   5.624
 7173SOL     OW22417   0.366   4.838   5.427
 7173SOL    HW122418   0.355   4.900   5.349
 7173SOL    HW222419   0.447   4.781   5.413
 7174SOL     OW22420   0.916   4.916   6.596
 7174SOL    HW122421   0.850   4.859   6.646
 7174SOL    HW222422   0.988   4.945   6.658
 7175SOL     OW22423   5.566   3.998   0.050
 7175SOL    HW122424   5.585   4.020   0.145
 7175SOL    HW222425   5.511   4.071   0.009
 7176SOL     OW22426   1.142   5.741   3.410
 7176SOL    HW122427   1.241   5.731   3.417
 7176SOL    HW222428   1.120   5.800   3.332
 7177SOL     OW22429   2.421   6.450   4.124
 7177SOL    HW122430   2.399   6.493   4.211
 7177SOL    HW222431   2.415   6.518   4.051
 7178SOL     OW22432   2.235   3.581   5.962
 7178SOL    HW122433   2.283   3.669   5.959
 7178SOL    HW222434   2.202   3.558   5.871
 7179SOL     OW22435   1.873   3.448   5.083
 7179SOL    HW122436   1.937   3.466   5.009
 7179SOL    HW222437   1.786   3.494   5.066
 7180SOL     OW22438   1.665   5.066   6.151
 7180SOL    HW122439   1.741   5.099   6.208
 7180SOL    HW222440   1.653   4.968   6.166
 7181SOL     OW22441   2.222   5.542   0.758
 7181SOL    HW122442   2.218   5.485   0.840
 7181SOL    HW222443   2.252   5.486   0.680
 7182SOL     OW22444   1.908   3.369   5.738
 7182SOL    HW122445   1.913   3.356   5.837
 7182SOL    HW222446   1.920   3.281   5.692
 7183SOL     OW22447   1.552   5.615   0.897
 7183SOL    HW122448   1.593   5.705   0.881
 7183SOL    HW222449   1.485   5.622   0.971
 7184SOL     OW22450   0.797   0.363   3.062
 7184SOL    HW122451   0.798   0.277   3.114
 7184SOL    HW222452   0.841   0.349   2.974
 7185SOL     OW22453   5.369   1.103   5.545
 7185SOL    HW122454   5.301   1.030   5.539
 7185SOL    HW222455   5.450   1.077   5.493
 7186SOL     OW22456   6.955   0.055   6.573
 7186SOL    HW122457   6.894   0.051   6.495
 7186SOL    HW222458   7.002   6.992   6.584
 7187SOL     OW22459   3.258   4.627   0.561
 7187SOL    HW122460   3.194   4.621   0.485
 7187SOL    HW222461   3.210   4.610   0.647
 7188SOL     OW22462   6.065   6.938   0.558
 7188SOL    HW122463   6.147   6.982   0.595
 7188SOL    HW222464   5.999   7.008   0.532
 7189SOL     OW22465   6.334   0.855   6.331
 7189SOL    HW122466   6.289   0.941   6.354
 7189SOL    HW222467   6.418   0.873   6.279
 7190SOL     OW22468   6.582   4.024   2.657
 7190SOL    HW122469   6.551   3.949   2.715
 7190SOL    HW222470   6.598   4.105   2.713
 7191SOL     OW22471   0.839   4.014   2.816
 7191SOL    HW122472   0.751   4.041   2.856
 7191SOL    HW222473   0.833   4.022   2.717
 7192SOL     OW22474   3.480   5.093   5.405
 7192SOL    HW122475   3.575   5.092   5.435
 7192SOL    HW222476   3.420   5.092   5.485
 7193SOL     OW22477   2.378   1.826   3.048
 7193SOL    HW122478   2.302   1.883   3.078
 7193SOL    HW222479   2.464   1.868   3.077
 7194SOL     OW22480   2.994   2.199   0.781
 7194SOL    HW122481   3.031   2.119   0.734
 7194SOL    HW222482   3.046   2.280   0.754
 7195SOL     OW22483   0.254   5.434   6.267
 7195SOL    HW122484   0.330   5.459   6.327
 7195SOL    HW222485   0.264   5.339   6.239
 7196SOL     OW22486   3.547   4.266   1.807
 7196SOL    HW122487   3.544   4.262   1.907
 7196SOL    HW222488   3.628   4.316   1.779
 7197SOL     OW22489   0.058   2.171   6.114
 7197SOL    HW122490   0.145   2.218   6.099
 7197SOL    HW222491   7.014   2.208   6.052
 7198SOL     OW22492   0.640   1.123   5.941
 7198SOL    HW122493   0.670   1.211   5.977
 7198SOL    HW222494   0.587   1.139   5.857
 7199SOL     OW22495   2.085   0.665   2.023
 7199SOL    HW122496   2.149   0.720   2.076
 7199SOL    HW222497   2.131   0.582   1.990
 7200SOL     OW22498   2.177   2.116   0.415
 7200SOL    HW122499   2.138   2.204   0.439
 7200SOL    HW222500   2.131   2.081   0.333
 7201SOL     OW22501   1.271   5.340   3.925
 7201SOL    HW122502   1.354   5.382   3.962
 7201SOL    HW222503   1.296   5.262   3.867
 7202SOL     OW22504   4.238   0.375   6.119
 7202SOL    HW122505   4.295   0.424   6.052
 7202SOL    HW222506   4.187   0.441   6.173
 7203SOL     OW22507   0.310   2.016   0.905
 7203SOL    HW122508   0.250   1.947   0.944
 7203SOL    HW222509   0.405   1.990   0.921
 7204SOL     OW22510   6.537   6.928   5.196
 7204SOL    HW122511   6.591   7.011   5.184
 7204SOL    HW222512   6.527   6.882   5.108
 7205SOL     OW22513   1.904   5.618   3.256
 7205SOL    HW122514   1.960   5.700   3.269
 7205SOL    HW222515   1.831   5.616   3.325
 7206SOL     OW22516   2.360   0.222   1.319
 7206SOL    HW122517   2.387   0.244   1.225
 7206SOL    HW222518   2.261   0.234   1.329
 7207SOL     OW22519   3.769   6.592   1.524
 7207SOL    HW122520   3.784   6.648   1.606
 7207SOL    HW222521   3.754   6.497   1.551
 7208SOL     OW22522   4.401   6.039   4.024
 7208SOL    HW122523   4.401   5.940   4.037
 7208SOL    HW222524   4.448   6.061   3.938
 7209SOL     OW22525   3.541   3.214   1.932
 7209SOL    HW122526   3.536   3.136   1.870
 7209SOL    HW222527   3.573   3.294   1.881
 7210SOL     OW22528   4.510   0.151   3.971
 7210SOL    HW122529   4.545   0.236   3.931
 7210SOL    HW222530   4.560   0.073   3.933
 7211SOL     OW22531   2.601   5.685   4.056
 7211SOL    HW122532   2.628   5.730   4.141
 7211SOL    HW222533   2.633   5.590   4.056
 7212SOL     OW22534   0.730   6.082   3.651
 7212SOL    HW122535   0.734   6.165   3.706
 7212SOL    HW222536   0.775   6.097   3.563
 7213SOL     OW22537   6.325   0.038   6.646
 7213SOL    HW122538   6.336   6.969   6.680
 7213SOL    HW222539   6.324   0.101   6.723
 7214SOL     OW22540   1.385   5.977   4.715
 7214SOL    HW122541   1.435   5.994   4.801
 7214SOL    HW222542   1.317   5.905   4.730
 7215SOL     OW22543   0.614   3.062   4.041
 7215SOL    HW122544   0.672   3.114   3.978
 7215SOL    HW222545   0.659   3.056   4.130
 7216SOL     OW22546   1.984   6.223   0.123
 7216SOL    HW122547   2.028   6.136   0.150
 7216SOL    HW222548   1.886   6.217   0.140
 7217SOL     OW22549   2.051   4.561   2.325
 7217SOL    HW122550   2.148   4.546   2.307
 7217SOL    HW222551   2.014   4.483   2.376
 7218SOL     OW22552   4.541   2.728   5.248
 7218SOL    HW122553   4.568   2.780   5.329
 7218SOL    HW222554   4.582   2.769   5.166
 7219SOL     OW22555   5.448   6.373   4.190
 7219SOL    HW122556   5.491   6.317   4.119
 7219SOL    HW222557   5.349   6.366   4.183
 7220SOL     OW22558   0.481   5.683   4.090
 7220SOL    HW122559   0.552   5.672   4.159
 7220SOL    HW222560   0.520   5.727   4.009
 7221SOL     OW22561   5.592   4.986   4.848
 7221SOL    HW122562   5.496   5.012   4.837
 7221SOL    HW222563   5.598   4.888   4.865
 7222SOL     OW22564   6.203   0.239   1.958
 7222SOL    HW122565   6.105   0.255   1.961
 7222SOL    HW222566   6.236   0.255   1.864
 7223SOL     OW22567   2.927   2.012   1.549
 7223SOL    HW122568   2.913   2.082   1.619
 7223SOL    HW222569   2.985   1.939   1.586
 7224SOL     OW22570   5.395   2.103   4.477
 7224SOL    HW122571   5.343   2.044   4.415
 7224SOL    HW222572   5.485   2.064   4.493
 7225SOL     OW22573   1.391   5.937   6.185
 7225SOL    HW122574   1.302   5.942   6.230
 7225SOL    HW222575   1.460   5.908   6.250
 7226SOL     OW22576   0.952   0.880   0.456
 7226SOL    HW122577   0.891   0.898   0.533
 7226SOL    HW222578   0.913   0.920   0.373
 7227SOL     OW22579   0.457   2.308   0.732
 7227SOL    HW122580   0.447   2.224   0.678
 7227SOL    HW222581   0.441   2.288   0.828
 7228SOL     OW22582   0.219   0.954   2.227
 7228SOL    HW122583   0.141   0.907   2.269
 7228SOL    HW222584   0.187   1.040   2.185
 7229SOL     OW22585   1.156   0.521   4.607
 7229SOL    HW122586   1.095   0.595   4.578
 7229SOL    HW222587   1.121   0.480   4.691
 7230SOL     OW22588   5.067   5.745   4.860
 7230SOL    HW122589   5.007   5.806   4.809
 7230SOL    HW222590   5.021   5.657   4.875
 7231SOL     OW22591   4.606   6.676   6.966
 7231SOL    HW122592   4.680   6.696   0.006
 7231SOL    HW222593   4.641   6.617   6.893
 7232SOL     OW22594   4.605   5.077   3.631
 7232SOL    HW122595   4.638   5.120   3.715
 7232SOL    HW222596   4.522   5.026   3.650
 7233SOL     OW22597   0.360   2.276   4.498
 7233SOL    HW122598   0.311   2.351   4.453
 7233SOL    HW222599   0.450   2.309   4.527
 7234SOL     OW22600   5.651   2.645   3.185
 7234SOL    HW122601   5.734   2.686   3.148
 7234SOL    HW222602   5.603   2.713   3.240
 7235SOL     OW22603   6.412   4.348   2.961
 7235SOL    HW122604   6.410   4.446   2.945
 7235SOL    HW222605   6.357   4.326   3.042
 7236SOL     OW22606   3.231   1.379   2.809
 7236SOL    HW122607   3.189   1.465   2.778
 7236SOL    HW222608   3.285   1.340   2.734
 7237SOL     OW22609   6.360   6.459   5.517
 7237SOL    HW122610   6.272   6.474   5.472
 7237SOL    HW222611   6.429   6.520   5.478
 7238SOL     OW22612   2.169   2.103   1.020
 7238SOL    HW122613   2.242   2.117   1.087
 7238SOL    HW222614   2.088   2.154   1.049
 7239SOL     OW22615   2.587   1.231   3.916
 7239SOL    HW122616   2.623   1.252   4.007
 7239SOL    HW222617   2.649   1.167   3.870
 7240SOL     OW22618   2.254   3.999   6.576
 7240SOL    HW122619   2.228   4.095   6.570
 7240SOL    HW222620   2.295   3.981   6.666
 7241SOL     OW22621   3.472   0.471   6.869
 7241SOL    HW122622   3.488   0.392   6.927
 7241SOL    HW222623   3.400   0.448   6.802
 7242SOL     OW22624   6.766   5.199   0.188
 7242SOL    HW122625   6.827   5.224   0.112
 7242SOL    HW222626   6.705   5.126   0.159
 7243SOL     OW22627   0.566   4.423   6.105
 7243SOL    HW122628   0.548   4.330   6.136
 7243SOL    HW222629   0.664   4.443   6.114
 7244SOL     OW22630   4.974   1.222   1.337
 7244SOL    HW122631   4.923   1.257   1.415
 7244SOL    HW222632   4.943   1.268   1.253
 7245SOL     OW22633   0.750   1.842   4.881
 7245SOL    HW122634   0.671   1.793   4.917
 7245SOL    HW222635   0.738   1.940   4.895
 7246SOL     OW22636   5.940   6.825   4.746
 7246SOL    HW122637   6.003   6.899   4.773
 7246SOL    HW222638   5.868   6.863   4.689
 7247SOL     OW22639   3.076   6.624   3.355
 7247SOL    HW122640   3.105   6.595   3.263
 7247SOL    HW222641   3.107   6.718   3.372
 7248SOL     OW22642   3.947   1.003   2.942
 7248SOL    HW122643   3.853   1.017   2.973
 7248SOL    HW222644   3.953   1.019   2.844
 7249SOL     OW22645   5.702   5.048   1.853
 7249SOL    HW122646   5.628   5.022   1.915
 7249SOL    HW222647   5.754   4.967   1.827
 7250SOL     OW22648   3.649   5.351   5.915
 7250SOL    HW122649   3.743   5.326   5.940
 7250SOL    HW222650   3.596   5.370   5.997
 7251SOL     OW22651   0.207   6.365   5.242
 7251SOL    HW122652   0.132   6.368   5.177
 7251SOL    HW222653   0.264   6.447   5.231
 7252SOL     OW22654   3.481   3.228   3.922
 7252SOL    HW122655   3.455   3.279   3.840
 7252SOL    HW222656   3.570   3.184   3.907
 7253SOL     OW22657   1.687   0.174   0.445
 7253SOL    HW122658   1.752   0.226   0.500
 7253SOL    HW222659   1.604   0.156   0.498
 7254SOL     OW22660   4.620   4.845   5.153
 7254SOL    HW122661   4.526   4.878   5.158
 7254SOL    HW222662   4.670   4.871   5.236
 7255SOL     OW22663   3.325   3.797   1.751
 7255SOL    HW122664   3.253   3.818   1.817
 7255SOL    HW222665   3.293   3.817   1.658
 7256SOL     OW22666   5.186   5.004   4.305
 7256SOL    HW122667   5.134   4.951   4.372
 7256SOL    HW222668   5.277   5.025   4.341
 7257SOL     OW22669   5.701   2.905   3.368
 7257SOL    HW122670   5.715   2.921   3.465
 7257SOL    HW222671   5.788   2.880   3.325
 7258SOL     OW22672   3.953   0.842   3.585
 7258SOL    HW122673   3.897   0.922   3.565
 7258SOL    HW222674   3.941   0.815   3.680
 7259SOL     OW22675   3.550   4.172   1.266
 7259SOL    HW122676   3.526   4.112   1.342
 7259SOL    HW222677   3.617   4.126   1.208
 7260SOL     OW22678   3.314   1.998   3.140
 7260SOL    HW122679   3.225   2.015   3.183
 7260SOL    HW222680   3.352   2.085   3.109
 7261SOL     OW22681   3.037   2.736   1.164
 7261SOL    HW122682   3.004   2.750   1.257
 7261SOL    HW222683   3.018   2.642   1.135
 7262SOL     OW22684   5.993   2.683   4.076
 7262SOL    HW122685   5.916   2.645   4.024
 7262SOL    HW222686   6.072   2.693   4.015
 7263SOL     OW22687   0.289   5.692   1.992
 7263SOL    HW122688   0.337   5.625   2.048
 7263SOL    HW222689   0.327   5.692   1.900
 7264SOL     OW22690   6.767   1.635   6.792
 7264SOL    HW122691   6.726   1.711   6.841
 7264SOL    HW222692   6.761   1.552   6.848
 7265SOL     OW22693   5.528   4.969   6.041
 7265SOL    HW122694   5.467   4.971   5.962
 7265SOL    HW222695   5.519   4.881   6.087
 7266SOL     OW22696   4.186   0.684   0.754
 7266SOL    HW122697   4.269   0.727   0.791
 7266SOL    HW222698   4.115   0.683   0.825
 7267SOL     OW22699   6.691   4.771   5.032
 7267SOL    HW122700   6.610   4.822   5.003
 7267SOL    HW222701   6.694   4.767   5.132
 7268SOL     OW22702   4.301   4.978   3.354
 7268SOL    HW122703   4.301   5.007   3.450
 7268SOL    HW222704   4.392   4.991   3.315
 7269SOL     OW22705   0.119   6.236   1.652
 7269SOL    HW122706   0.040   6.287   1.619
 7269SOL    HW222707   0.088   6.154   1.700
 7270SOL     OW22708   1.353   2.436   3.418
 7270SOL    HW122709   1.385   2.370   3.350
 7270SOL    HW222710   1.258   2.459   3.400
 7271SOL     OW22711   0.676   4.983   3.363
 7271SOL    HW122712   0.768   5.022   3.356
 7271SOL    HW222713   0.683   4.885   3.379
 7272SOL     OW22714   6.127   3.421   2.136
 7272SOL    HW122715   6.071   3.346   2.100
 7272SOL    HW222716   6.174   3.390   2.219
 7273SOL     OW22717   6.065   4.281   2.098
 7273SOL    HW122718   6.094   4.275   2.002
 7273SOL    HW222719   6.056   4.378   2.124
 7274SOL     OW22720   0.152   6.491   6.366
 7274SOL    HW122721   0.075   6.455   6.313
 7274SOL    HW222722   0.127   6.579   6.405
 7275SOL     OW22723   6.701   0.696   0.965
 7275SOL    HW122724   6.790   0.723   1.002
 7275SOL    HW222725   6.656   0.776   0.925
 7276SOL     OW22726   3.117   1.383   3.636
 7276SOL    HW122727   3.153   1.317   3.569
 7276SOL    HW222728   3.182   1.457   3.649
 7277SOL     OW22729   5.434   1.017   4.839
 7277SOL    HW122730   5.525   1.058   4.829
 7277SOL    HW222731   5.378   1.075   4.899
 7278SOL     OW22732   3.555   2.144   3.188
 7278SOL    HW122733   3.648   2.177   3.206
 7278SOL    HW222734   3.535   2.149   3.090
 7279SOL     OW22735   4.508   3.862   6.919
 7279SOL    HW122736   4.579   3.928   6.893
 7279SOL    HW222737   4.420   3.909   6.923
 7280SOL     OW22738   5.831   2.410   5.369
 7280SOL    HW122739   5.741   2.445   5.397
 7280SOL    HW222740   5.893   2.487   5.351
 7281SOL     OW22741   3.396   0.091   0.787
 7281SOL    HW122742   3.313   0.142   0.812
 7281SOL    HW222743   3.469   0.113   0.851
 7282SOL     OW22744   6.506   5.669   1.690
 7282SOL    HW122745   6.588   5.722   1.674
 7282SOL    HW222746   6.494   5.653   1.788
 7283SOL     OW22747   2.818   6.715   2.195
 7283SOL    HW122748   2.768   6.801   2.196
 7283SOL    HW222749   2.870   6.708   2.109
 7284SOL     OW22750   6.749   2.715   3.769
 7284SOL    HW122751   6.771   2.782   3.839
 7284SOL    HW222752   6.810   2.636   3.778
 7285SOL     OW22753   4.819   3.373   1.398
 7285SOL    HW122754   4.913   3.338   1.396
 7285SOL    HW222755   4.790   3.386   1.493
 7286SOL     OW22756   0.537   1.546   0.823
 7286SOL    HW122757   0.603   1.579   0.755
 7286SOL    HW222758   0.537   1.446   0.823
 7287SOL     OW22759   6.783   2.951   3.929
 7287SOL    HW122760   6.805   2.988   3.839
 7287SOL    HW222761   6.824   3.009   4.000
 7288SOL     OW22762   1.767   2.947   2.172
 7288SOL    HW122763   1.778   2.880   2.245
 7288SOL    HW222764   1.787   2.903   2.084
 7289SOL     OW22765   5.611   3.155   2.224
 7289SOL    HW122766   5.542   3.226   2.241
 7289SOL    HW222767   5.621   3.099   2.307
 7290SOL     OW22768   3.490   0.778   5.193
 7290SOL    HW122769   3.423   0.833   5.243
 7290SOL    HW222770   3.486   0.684   5.224
 7291SOL     OW22771   3.987   0.188   0.613
 7291SOL    HW122772   3.965   0.106   0.560
 7291SOL    HW222773   4.005   0.163   0.708
 7292SOL     OW22774   1.594   6.490   3.666
 7292SOL    HW122775   1.602   6.398   3.706
 7292SOL    HW222776   1.610   6.558   3.737
 7293SOL     OW22777   1.452   1.295   6.133
 7293SOL    HW122778   1.405   1.208   6.150
 7293SOL    HW222779   1.531   1.279   6.074
 7294SOL     OW22780   3.369   4.656   1.509
 7294SOL    HW122781   3.435   4.581   1.517
 7294SOL    HW222782   3.283   4.621   1.472
 7295SOL     OW22783   6.355   4.431   1.825
 7295SOL    HW122784   6.302   4.346   1.819
 7295SOL    HW222785   6.362   4.471   1.734
 7296SOL     OW22786   3.604   5.069   3.043
 7296SOL    HW122787   3.626   5.075   3.140
 7296SOL    HW222788   3.646   4.987   3.005
 7297SOL     OW22789   3.066   6.288   2.215
 7297SOL    HW122790   3.026   6.353   2.280
 7297SOL    HW222791   3.123   6.336   2.150
 7298SOL     OW22792   4.860   6.173   0.170
 7298SOL    HW122793   4.836   6.270   0.168
 7298SOL    HW222794   4.864   6.143   0.265
 7299SOL     OW22795   1.077   1.979   0.288
 7299SOL    HW122796   1.102   1.917   0.214
 7299SOL    HW222797   1.054   1.927   0.370
 7300SOL     OW22798   0.822   4.931   1.765
 7300SOL    HW122799   0.909   4.954   1.721
 7300SOL    HW222800   0.779   4.855   1.717
 7301SOL     OW22801   6.988   0.423   5.742
 7301SOL    HW122802   7.016   0.347   5.683
 7301SOL    HW222803   6.889   0.436   5.736
 7302SOL     OW22804   6.506   1.781   5.436
 7302SOL    HW122805   6.570   1.726   5.490
 7302SOL    HW222806   6.507   1.876   5.468
 7303SOL     OW22807   3.272   1.239   6.784
 7303SOL    HW122808   3.294   1.164   6.721
 7303SOL    HW222809   3.305   1.216   6.876
 7304SOL     OW22810   2.454   5.183   1.558
 7304SOL    HW122811   2.486   5.098   1.516
 7304SOL    HW222812   2.371   5.164   1.612
 7305SOL     OW22813   5.397   2.499   0.955
 7305SOL    HW122814   5.302   2.520   0.934
 7305SOL    HW222815   5.428   2.553   1.033
 7306SOL     OW22816   3.587   1.345   1.760
 7306SOL    HW122817   3.532   1.420   1.797
 7306SOL    HW222818   3.657   1.319   1.827
 7307SOL     OW22819   3.695   6.559   2.137
 7307SOL    HW122820   3.630   6.502   2.086
 7307SOL    HW222821   3.780   6.508   2.151
 7308SOL     OW22822   6.648   1.259   2.795
 7308SOL    HW122823   6.711   1.300   2.861
 7308SOL    HW222824   6.577   1.324   2.771
 7309SOL     OW22825   2.296   6.202   2.983
 7309SOL    HW122826   2.210   6.158   2.958
 7309SOL    HW222827   2.340   6.238   2.900
 7310SOL     OW22828   1.107   3.370   6.782
 7310SOL    HW122829   1.171   3.357   6.706
 7310SOL    HW222830   1.101   3.467   6.804
 7311SOL     OW22831   0.802   0.404   0.520
 7311SOL    HW122832   0.880   0.424   0.461
 7311SOL    HW222833   0.759   0.490   0.549
 7312SOL     OW22834   0.324   1.417   4.985
 7312SOL    HW122835   0.239   1.453   5.023
 7312SOL    HW222836   0.307   1.328   4.942
 7313SOL     OW22837   2.545   1.166   0.749
 7313SOL    HW122838   2.491   1.082   0.751
 7313SOL    HW222839   2.641   1.145   0.771
 7314SOL     OW22840   0.530   4.083   6.935
 7314SOL    HW122841   0.463   4.010   6.947
 7314SOL    HW222842   0.622   4.045   6.933
 7315SOL     OW22843   6.549   5.047   2.245
 7315SOL    HW122844   6.625   5.109   2.263
 7315SOL    HW222845   6.469   5.100   2.217
 7316SOL     OW22846   3.347   1.879   6.107
 7316SOL    HW122847   3.366   1.973   6.080
 7316SOL    HW222848   3.431   1.836   6.141
 7317SOL     OW22849   3.712   1.651   1.925
 7317SOL    HW122850   3.618   1.621   1.939
 7317SOL    HW222851   3.730   1.730   1.984
 7318SOL     OW22852   3.761   6.874   1.944
 7318SOL    HW122853   3.822   6.883   2.023
 7318SOL    HW222854   3.742   6.965   1.906
 7319SOL     OW22855   0.051   2.926   6.276
 7319SOL    HW122856   0.116   2.880   6.215
 7319SOL    HW222857   6.984   2.919   6.238
 7320SOL     OW22858   6.699   4.229   1.179
 7320SOL    HW122859   6.709   4.327   1.197
 7320SOL    HW222860   6.749   4.177   1.248
 7321SOL     OW22861   1.404   6.612   6.140
 7321SOL    HW122862   1.320   6.609   6.195
 7321SOL    HW222863   1.474   6.663   6.190
 7322SOL     OW22864   0.936   2.721   3.221
 7322SOL    HW122865   0.842   2.716   3.254
 7322SOL    HW222866   0.936   2.745   3.124
 7323SOL     OW22867   2.651   1.545   1.401
 7323SOL    HW122868   2.586   1.519   1.329
 7323SOL    HW222869   2.742   1.553   1.362
 7324SOL     OW22870   6.304   4.328   2.249
 7324SOL    HW122871   6.217   4.291   2.216
 7324SOL    HW222872   6.378   4.263   2.230
 7325SOL     OW22873   3.031   0.595   5.612
 7325SOL    HW122874   2.938   0.626   5.632
 7325SOL    HW222875   3.083   0.590   5.698
 7326SOL     OW22876   4.127   0.259   6.574
 7326SOL    HW122877   4.111   0.356   6.557
 7326SOL    HW222878   4.044   0.207   6.555
 7327SOL     OW22879   5.923   4.169   3.686
 7327SOL    HW122880   5.949   4.073   3.688
 7327SOL    HW222881   5.842   4.180   3.628
 7328SOL     OW22882   4.505   5.458   5.863
 7328SOL    HW122883   4.474   5.375   5.818
 7328SOL    HW222884   4.480   5.456   5.960
 7329SOL     OW22885   0.561   2.672   0.452
 7329SOL    HW122886   0.518   2.762   0.464
 7329SOL    HW222887   0.658   2.678   0.476
 7330SOL     OW22888   3.188   2.874   0.967
 7330SOL    HW122889   3.123   2.830   1.028
 7330SOL    HW222890   3.195   2.971   0.990
 7331SOL     OW22891   4.585   0.285   1.941
 7331SOL    HW122892   4.491   0.262   1.968
 7331SOL    HW222893   4.641   0.202   1.944
 7332SOL     OW22894   4.064   4.196   7.021
 7332SOL    HW122895   3.989   4.258   0.018
 7332SOL    HW222896   4.117   4.233   6.945
 7333SOL     OW22897   5.943   3.368   3.217
 7333SOL    HW122898   5.863   3.310   3.227
 7333SOL    HW222899   6.026   3.314   3.233
 7334SOL     OW22900   2.948   5.886   6.004
 7334SOL    HW122901   2.955   5.985   5.990
 7334SOL    HW222902   2.883   5.867   6.077
 7335SOL     OW22903   0.179   3.363   2.954
 7335SOL    HW122904   0.093   3.380   2.905
 7335SOL    HW222905   0.203   3.444   3.007
 7336SOL     OW22906   2.121   6.317   1.094
 7336SOL    HW122907   2.070   6.364   1.165
 7336SOL    HW222908   2.070   6.321   1.008
 7337SOL     OW22909   3.279   2.669   1.414
 7337SOL    HW122910   3.186   2.703   1.403
 7337SOL    HW222911   3.328   2.679   1.327
 7338SOL     OW22912   5.808   2.578   1.391
 7338SOL    HW122913   5.804   2.478   1.392
 7338SOL    HW222914   5.715   2.615   1.393
 7339SOL     OW22915   0.196   6.545   5.555
 7339SOL    HW122916   0.192   6.644   5.539
 7339SOL    HW222917   0.188   6.497   5.469
 7340SOL     OW22918   3.997   1.050   6.542
 7340SOL    HW122919   3.950   1.138   6.544
 7340SOL    HW222920   3.966   0.994   6.619
 7341SOL     OW22921   1.729   5.230   4.502
 7341SOL    HW122922   1.703   5.247   4.597
 7341SOL    HW222923   1.683   5.295   4.442
 7342SOL     OW22924   6.700   0.066   0.629
 7342SOL    HW122925   6.730   0.027   0.716
 7342SOL    HW222926   6.755   0.027   0.555
 7343SOL     OW22927   5.736   4.065   1.824
 7343SOL    HW122928   5.715   3.993   1.890
 7343SOL    HW222929   5.677   4.055   1.744
 7344SOL     OW22930   1.854   0.006   6.737
 7344SOL    HW122931   1.856   6.946   6.790
 7344SOL    HW222932   1.813   7.013   6.648
 7345SOL     OW22933   4.309   4.795   5.927
 7345SOL    HW122934   4.366   4.777   6.007
 7345SOL    HW222935   4.230   4.851   5.954
 7346SOL     OW22936   4.260   4.017   0.942
 7346SOL    HW122937   4.317   4.018   1.025
 7346SOL    HW222938   4.165   4.002   0.968
 7347SOL     OW22939   0.016   2.466   2.030
 7347SOL    HW122940   6.983   2.503   1.957
 7347SOL    HW222941   6.983   2.435   2.106
 7348SOL     OW22942   1.776   4.051   3.510
 7348SOL    HW122943   1.807   3.980   3.446
 7348SOL    HW222944   1.842   4.060   3.584
 7349SOL     OW22945   3.693   1.695   0.902
 7349SOL    HW122946   3.618   1.750   0.866
 7349SOL    HW222947   3.683   1.685   1.001
 7350SOL     OW22948   0.484   2.797   3.965
 7350SOL    HW122949   0.449   2.831   3.877
 7350SOL    HW222950   0.573   2.839   3.984
 7351SOL     OW22951   4.104   4.496   6.818
 7351SOL    HW122952   4.141   4.452   6.736
 7351SOL    HW222953   4.157   4.578   6.838
 7352SOL     OW22954   1.517   1.840   3.841
 7352SOL    HW122955   1.447   1.777   3.805
 7352SOL    HW222956   1.542   1.905   3.770
 7353SOL     OW22957   0.638   1.649   5.252
 7353SOL    HW122958   0.567   1.579   5.258
 7353SOL    HW222959   0.693   1.634   5.170
 7354SOL     OW22960   0.564   0.710   6.370
 7354SOL    HW122961   0.482   0.723   6.426
 7354SOL    HW222962   0.615   0.631   6.403
 7355SOL     OW22963   1.552   5.838   1.199
 7355SOL    HW122964   1.565   5.922   1.146
 7355SOL    HW222965   1.636   5.784   1.197
 7356SOL     OW22966   4.954   2.527   6.498
 7356SOL    HW122967   5.038   2.561   6.539
 7356SOL    HW222968   4.921   2.449   6.550
 7357SOL     OW22969   4.705   1.034   1.306
 7357SOL    HW122970   4.771   1.024   1.380
 7357SOL    HW222971   4.709   0.953   1.247
 7358SOL     OW22972   2.658   2.106   2.430
 7358SOL    HW122973   2.693   2.189   2.388
 7358SOL    HW222974   2.692   2.099   2.524
 7359SOL     OW22975   3.473   2.919   1.102
 7359SOL    HW122976   3.469   2.837   1.159
 7359SOL    HW222977   3.410   2.909   1.025
 7360SOL     OW22978   2.210   2.334   5.532
 7360SOL    HW122979   2.133   2.311   5.591
 7360SOL    HW222980   2.184   2.408   5.470
 7361SOL     OW22981   4.704   6.412   1.857
 7361SOL    HW122982   4.661   6.483   1.801
 7361SOL    HW222983   4.747   6.344   1.797
 7362SOL     OW22984   0.598   6.594   4.885
 7362SOL    HW122985   0.518   6.632   4.840
 7362SOL    HW222986   0.658   6.669   4.915
 7363SOL     OW22987   4.627   1.768   0.086
 7363SOL    HW122988   4.612   1.840   0.154
 7363SOL    HW222989   4.672   1.807   0.006
 7364SOL     OW22990   4.069   6.505   1.521
 7364SOL    HW122991   3.970   6.524   1.524
 7364SOL    HW222992   4.086   6.428   1.460
 7365SOL     OW22993   2.488   6.587   2.454
 7365SOL    HW122994   2.443   6.498   2.454
 7365SOL    HW222995   2.526   6.605   2.545
 7366SOL     OW22996   1.565   5.403   0.449
 7366SOL    HW122997   1.603   5.316   0.416
 7366SOL    HW222998   1.475   5.418   0.408
 7367SOL     OW22999   4.583   3.714   0.908
 7367SOL    HW123000   4.561   3.794   0.963
 7367SOL    HW223001   4.499   3.662   0.889
 7368SOL     OW23002   3.290   3.112   4.086
 7368SOL    HW123003   3.200   3.108   4.044
 7368SOL    HW223004   3.352   3.165   4.027
 7369SOL     OW23005   5.358   3.674   0.620
 7369SOL    HW123006   5.265   3.701   0.594
 7369SOL    HW223007   5.415   3.665   0.538
 7370SOL     OW23008   2.070   0.633   6.353
 7370SOL    HW123009   2.141   0.573   6.390
 7370SOL    HW223010   2.033   0.594   6.268
 7371SOL     OW23011   3.100   5.467   4.038
 7371SOL    HW123012   3.183   5.509   4.075
 7371SOL    HW223013   3.022   5.527   4.054
 7372SOL     OW23014   3.170   0.172   5.422
 7372SOL    HW123015   3.267   0.164   5.447
 7372SOL    HW223016   3.125   0.237   5.482
 7373SOL     OW23017   4.542   1.412   3.536
 7373SOL    HW123018   4.520   1.337   3.598
 7373SOL    HW223019   4.502   1.497   3.570
 7374SOL     OW23020   2.199   2.793   5.536
 7374SOL    HW123021   2.186   2.877   5.587
 7374SOL    HW223022   2.295   2.784   5.509
 7375SOL     OW23023   1.361   2.170   4.085
 7375SOL    HW123024   1.313   2.247   4.041
 7375SOL    HW223025   1.433   2.137   4.023
 7376SOL     OW23026   3.164   2.598   6.994
 7376SOL    HW123027   3.191   2.643   0.054
 7376SOL    HW223028   3.219   2.516   6.981
 7377SOL     OW23029   4.456   5.326   1.921
 7377SOL    HW123030   4.407   5.245   1.952
 7377SOL    HW223031   4.528   5.348   1.987
 7378SOL     OW23032   6.969   1.934   4.421
 7378SOL    HW123033   6.894   1.870   4.401
 7378SOL    HW223034   7.018   1.903   4.503
 7379SOL     OW23035   4.088   1.649   2.748
 7379SOL    HW123036   4.187   1.657   2.737
 7379SOL    HW223037   4.054   1.727   2.800
 7380SOL     OW23038   0.307   3.342   5.691
 7380SOL    HW123039   0.375   3.356   5.762
 7380SOL    HW223040   0.346   3.366   5.602
 7381SOL     OW23041   4.906   2.956   2.384
 7381SOL    HW123042   4.994   2.909   2.376
 7381SOL    HW223043   4.846   2.905   2.446
 7382SOL     OW23044   6.940   5.175   4.548
 7382SOL    HW123045   6.871   5.238   4.583
 7382SOL    HW223046   6.899   5.085   4.533
 7383SOL     OW23047   6.873   6.739   2.524
 7383SOL    HW123048   6.968   6.711   2.543
 7383SOL    HW223049   6.840   6.691   2.443
 7384SOL     OW23050   5.075   1.031   1.817
 7384SOL    HW123051   5.051   0.975   1.896
 7384SOL    HW223052   4.996   1.038   1.756
 7385SOL     OW23053   3.803   5.923   2.313
 7385SOL    HW123054   3.744   5.999   2.289
 7385SOL    HW223055   3.790   5.900   2.410
 7386SOL     OW23056   0.653   2.651   5.291
 7386SOL    HW123057   0.622   2.566   5.249
 7386SOL    HW223058   0.656   2.641   5.390
 7387SOL     OW23059   4.776   6.307   4.833
 7387SOL    HW123060   4.839   6.302   4.909
 7387SOL    HW223061   4.728   6.395   4.835
 7388SOL     OW23062   0.160   5.821   3.689
 7388SOL    HW123063   0.071   5.794   3.653
 7388SOL    HW223064   0.200   5.745   3.741
 7389SOL     OW23065   1.609   4.827   6.600
 7389SOL    HW123066   1.625   4.773   6.683
 7389SOL    HW223067   1.528   4.792   6.553
 7390SOL     OW23068   1.327   1.868   6.550
 7390SOL    HW123069   1.345   1.819   6.464
 7390SOL    HW223070   1.381   1.953   6.551
 7391SOL     OW23071   4.900   3.772   5.267
 7391SOL    HW123072   4.812   3.733   5.240
 7391SOL    HW223073   4.964   3.699   5.291
 7392SOL     OW23074   2.493   6.172   6.343
 7392SOL    HW123075   2.541   6.204   6.262
 7392SOL    HW223076   2.554   6.177   6.422
 7393SOL     OW23077   5.756   5.658   1.638
 7393SOL    HW123078   5.737   5.653   1.736
 7393SOL    HW223079   5.826   5.727   1.621
 7394SOL     OW23080   3.145   2.700   6.306
 7394SOL    HW123081   3.125   2.787   6.351
 7394SOL    HW223082   3.230   2.708   6.253
 7395SOL     OW23083   0.946   0.963   6.994
 7395SOL    HW123084   0.872   0.896   7.000
 7395SOL    HW223085   0.994   0.968   0.057
 7396SOL     OW23086   1.421   1.060   6.887
 7396SOL    HW123087   1.367   0.984   6.921
 7396SOL    HW223088   1.399   1.143   6.939
 7397SOL     OW23089   6.350   5.222   4.292
 7397SOL    HW123090   6.271   5.271   4.330
 7397SOL    HW223091   6.367   5.254   4.198
 7398SOL     OW23092   3.405   4.970   4.276
 7398SOL    HW123093   3.425   4.876   4.249
 7398SOL    HW223094   3.356   4.970   4.363
 7399SOL     OW23095   0.522   3.705   5.341
 7399SOL    HW123096   0.470   3.760   5.276
 7399SOL    HW223097   0.485   3.717   5.433
 7400SOL     OW23098   3.222   4.233   0.202
 7400SOL    HW123099   3.235   4.176   0.121
 7400SOL    HW223100   3.124   4.243   0.220
 7401SOL     OW23101   0.602   1.231   3.572
 7401SOL    HW123102   0.655   1.146   3.572
 7401SOL    HW223103   0.505   1.209   3.561
 7402SOL     OW23104   2.079   6.766   4.304
 7402SOL    HW123105   2.009   6.759   4.376
 7402SOL    HW223106   2.135   6.684   4.304
 7403SOL     OW23107   1.869   3.266   3.079
 7403SOL    HW123108   1.813   3.264   3.162
 7403SOL    HW223109   1.955   3.313   3.098
 7404SOL     OW23110   2.428   6.471   1.408
 7404SOL    HW123111   2.516   6.503   1.376
 7404SOL    HW223112   2.412   6.377   1.375
 7405SOL     OW23113   1.002   5.111   4.686
 7405SOL    HW123114   0.932   5.048   4.719
 7405SOL    HW223115   0.990   5.127   4.588
 7406SOL     OW23116   1.715   3.837   2.571
 7406SOL    HW123117   1.799   3.848   2.518
 7406SOL    HW223118   1.657   3.768   2.529
 7407SOL     OW23119   0.376   6.699   4.791
 7407SOL    HW123120   0.352   6.755   4.712
 7407SOL    HW223121   0.313   6.622   4.799
 7408SOL     OW23122   1.013   4.315   4.995
 7408SOL    HW123123   1.005   4.267   4.908
 7408SOL    HW223124   1.053   4.405   4.981
 7409SOL     OW23125   0.310   0.817   4.545
 7409SOL    HW123126   0.329   0.754   4.469
 7409SOL    HW223127   0.345   0.778   4.630
 7410SOL     OW23128   6.756   5.064   0.768
 7410SOL    HW123129   6.829   4.996   0.763
 7410SOL    HW223130   6.719   5.079   0.676
 7411SOL     OW23131   3.005   6.963   4.379
 7411SOL    HW123132   2.995   6.863   4.380
 7411SOL    HW223133   3.101   6.987   4.367
 7412SOL     OW23134   3.837   1.235   0.972
 7412SOL    HW123135   3.868   1.288   1.051
 7412SOL    HW223136   3.870   1.279   0.888
 7413SOL     OW23137   0.317   4.810   3.988
 7413SOL    HW123138   0.334   4.906   4.013
 7413SOL    HW223139   0.372   4.750   4.046
 7414SOL     OW23140   6.940   0.162   2.628
 7414SOL    HW123141   6.975   0.081   2.579
 7414SOL    HW223142   6.861   0.135   2.683
 7415SOL     OW23143   0.486   3.749   2.995
 7415SOL    HW123144   0.539   3.760   2.911
 7415SOL    HW223145   0.522   3.673   3.048
 7416SOL     OW23146   3.614   0.524   3.654
 7416SOL    HW123147   3.595   0.580   3.735
 7416SOL    HW223148   3.674   0.449   3.680
 7417SOL     OW23149   1.575   6.976   6.808
 7417SOL    HW123150   1.551   0.003   6.726
 7417SOL    HW223151   1.577   6.878   6.786
 7418SOL     OW23152   3.765   4.886   1.005
 7418SOL    HW123153   3.766   4.804   0.948
 7418SOL    HW223154   3.693   4.948   0.972
 7419SOL     OW23155   6.585   2.021   4.835
 7419SOL    HW123156   6.552   1.978   4.751
 7419SOL    HW223157   6.677   1.988   4.855
 7420SOL     OW23158   6.301   6.447   2.741
 7420SOL    HW123159   6.361   6.519   2.705
 7420SOL    HW223160   6.348   6.399   2.815
 7421SOL     OW23161   3.318   2.951   2.158
 7421SOL    HW123162   3.343   2.892   2.082
 7421SOL    HW223163   3.281   3.037   2.123
 7422SOL     OW23164   0.199   3.470   2.598
 7422SOL    HW123165   0.230   3.491   2.691
 7422SOL    HW223166   0.271   3.496   2.533
 7423SOL     OW23167   7.008   3.790   6.276
 7423SOL    HW123168   6.908   3.783   6.279
 7423SOL    HW223169   0.010   3.886   6.280
 7424SOL     OW23170   6.119   1.496   4.134
 7424SOL    HW123171   6.079   1.583   4.105
 7424SOL    HW223172   6.190   1.469   4.069
 7425SOL     OW23173   4.220   4.858   6.585
 7425SOL    HW123174   4.227   4.821   6.678
 7425SOL    HW223175   4.303   4.835   6.535
 7426SOL     OW23176   0.956   1.985   6.857
 7426SOL    HW123177   1.021   2.060   6.863
 7426SOL    HW223178   0.988   1.917   6.791
 7427SOL     OW23179   2.943   6.181   5.002
 7427SOL    HW123180   2.858   6.196   4.950
 7427SOL    HW223181   3.021   6.198   4.942
 7428SOL     OW23182   3.130   1.193   5.305
 7428SOL    HW123183   3.084   1.176   5.218
 7428SOL    HW223184   3.074   1.158   5.380
 7429SOL     OW23185   6.201   0.138   3.346
 7429SOL    HW123186   6.127   0.204   3.332
 7429SOL    HW223187   6.163   0.049   3.370
 7430SOL     OW23188   6.906   4.656   6.173
 7430SOL    HW123189   6.942   4.748   6.189
 7430SOL    HW223190   6.972   4.603   6.120
 7431SOL     OW23191   0.307   3.906   1.897
 7431SOL    HW123192   0.363   3.982   1.864
 7431SOL    HW223193   0.326   3.890   1.994
 7432SOL     OW23194   0.456   6.961   3.585
 7432SOL    HW123195   0.475   6.930   3.492
 7432SOL    HW223196   0.542   6.971   3.635
 7433SOL     OW23197   6.543   5.540   0.389
 7433SOL    HW123198   6.633   5.521   0.349
 7433SOL    HW223199   6.545   5.520   0.487
 7434SOL     OW23200   4.239   0.972   6.471
 7434SOL    HW123201   4.142   0.994   6.484
 7434SOL    HW223202   4.279   0.945   6.559
 7435SOL     OW23203   3.372   6.385   6.768
 7435SOL    HW123204   3.280   6.356   6.744
 7435SOL    HW223205   3.439   6.332   6.714
 7436SOL     OW23206   6.612   2.922   6.358
 7436SOL    HW123207   6.540   2.855   6.371
 7436SOL    HW223208   6.678   2.888   6.290
 7437SOL     OW23209   0.008   5.497   0.049
 7437SOL    HW123210   0.021   5.500   6.974
 7437SOL    HW223211   6.978   5.417   0.072
 7438SOL     OW23212   0.820   4.513   0.600
 7438SOL    HW123213   0.877   4.482   0.523
 7438SOL    HW223214   0.879   4.539   0.676
 7439SOL     OW23215   2.306   6.926   4.345
 7439SOL    HW123216   2.292   6.939   4.443
 7439SOL    HW223217   2.220   6.896   4.303
 7440SOL     OW23218   0.765   3.009   4.623
 7440SOL    HW123219   0.725   2.990   4.533
 7440SOL    HW223220   0.819   3.093   4.618
 7441SOL     OW23221   5.842   6.801   4.388
 7441SOL    HW123222   5.941   6.811   4.378
 7441SOL    HW223223   5.822   6.718   4.440
 7442SOL     OW23224   0.780   0.954   6.175
 7442SOL    HW123225   0.755   0.974   6.269
 7442SOL    HW223226   0.705   0.980   6.114
 7443SOL     OW23227   0.524   1.633   1.060
 7443SOL    HW123228   0.523   1.607   0.964
 7443SOL    HW223229   0.435   1.673   1.084
 7444SOL     OW23230   0.137   3.320   5.069
 7444SOL    HW123231   0.109   3.253   5.000
 7444SOL    HW223232   0.056   3.348   5.122
 7445SOL     OW23233   3.863   0.963   1.066
 7445SOL    HW123234   3.823   1.048   1.032
 7445SOL    HW223235   3.872   0.968   1.166
 7446SOL     OW23236   5.371   4.640   6.932
 7446SOL    HW123237   5.308   4.698   6.881
 7446SOL    HW223238   5.336   4.625   7.024
 7447SOL     OW23239   2.643   3.752   6.746
 7447SOL    HW123240   2.648   3.701   6.660
 7447SOL    HW223241   2.619   3.689   6.820
 7448SOL     OW23242   5.304   6.142   6.118
 7448SOL    HW123243   5.272   6.154   6.023
 7448SOL    HW223244   5.376   6.208   6.137
 7449SOL     OW23245   5.103   2.687   2.094
 7449SOL    HW123246   5.050   2.752   2.039
 7449SOL    HW223247   5.043   2.645   2.162
 7450SOL     OW23248   5.416   2.541   4.666
 7450SOL    HW123249   5.346   2.513   4.600
 7450SOL    HW223250   5.376   2.603   4.733
 7451SOL     OW23251   1.515   0.263   3.629
 7451SOL    HW123252   1.422   0.297   3.644
 7451SOL    HW223253   1.581   0.335   3.649
 7452SOL     OW23254   0.750   6.815   4.976
 7452SOL    HW123255   0.850   6.814   4.966
 7452SOL    HW223256   0.727   6.816   5.073
 7453SOL     OW23257   5.355   5.770   5.543
 7453SOL    HW123258   5.364   5.671   5.537
 7453SOL    HW223259   5.415   5.813   5.476
 7454SOL     OW23260   1.317   3.220   1.889
 7454SOL    HW123261   1.282   3.291   1.950
 7454SOL    HW223262   1.281   3.131   1.916
 7455SOL     OW23263   0.081   1.462   1.636
 7455SOL    HW123264   0.037   1.552   1.636
 7455SOL    HW223265   0.145   1.457   1.559
 7456SOL     OW23266   1.114   2.016   4.777
 7456SOL    HW123267   1.031   1.983   4.730
 7456SOL    HW223268   1.157   2.087   4.721
 7457SOL     OW23269   4.122   0.719   6.034
 7457SOL    HW123270   4.199   0.762   6.080
 7457SOL    HW223271   4.036   0.757   6.068
 7458SOL     OW23272   1.392   0.482   6.769
 7458SOL    HW123273   1.382   0.420   6.847
 7458SOL    HW223274   1.487   0.514   6.765
 7459SOL     OW23275   4.734   6.992   0.295
 7459SOL    HW123276   4.677   7.020   0.372
 7459SOL    HW223277   4.828   6.978   0.326
 7460SOL     OW23278   1.771   4.525   0.889
 7460SOL    HW123279   1.867   4.523   0.916
 7460SOL    HW223280   1.761   4.585   0.809
 7461SOL     OW23281   5.118   1.565   5.876
 7461SOL    HW123282   5.029   1.551   5.834
 7461SOL    HW223283   5.115   1.535   5.972
 7462SOL     OW23284   1.845   2.843   1.938
 7462SOL    HW123285   1.909   2.771   1.967
 7462SOL    HW223286   1.869   2.873   1.846
 7463SOL     OW23287   3.818   4.189   1.471
 7463SOL    HW123288   3.832   4.094   1.499
 7463SOL    HW223289   3.722   4.203   1.447
 7464SOL     OW23290   3.449   6.423   6.338
 7464SOL    HW123291   3.473   6.520   6.338
 7464SOL    HW223292   3.524   6.370   6.300
 7465SOL     OW23293   1.769   0.778   0.750
 7465SOL    HW123294   1.867   0.762   0.762
 7465SOL    HW223295   1.721   0.756   0.836
 7466SOL     OW23296   0.333   0.811   6.957
 7466SOL    HW123297   0.397   0.814   0.010
 7466SOL    HW223298   0.365   0.744   6.891
 7467SOL     OW23299   6.660   1.898   0.957
 7467SOL    HW123300   6.644   1.995   0.976
 7467SOL    HW223301   6.613   1.842   1.026
 7468SOL     OW23302   5.414   2.364   2.442
 7468SOL    HW123303   5.403   2.426   2.520
 7468SOL    HW223304   5.509   2.368   2.410
 7469SOL     OW23305   0.594   0.233   0.409
 7469SOL    HW123306   0.664   0.294   0.445
 7469SOL    HW223307   0.594   0.148   0.461
 7470SOL     OW23308   0.263   3.139   3.717
 7470SOL    HW123309   0.290   3.217   3.661
 7470SOL    HW223310   0.202   3.170   3.791
 7471SOL     OW23311   6.375   0.080   4.300
 7471SOL    HW123312   6.377   0.037   4.210
 7471SOL    HW223313   6.373   0.009   4.370
 7472SOL     OW23314   5.531   6.644   4.206
 7472SOL    HW123315   5.467   6.577   4.169
 7472SOL    HW223316   5.623   6.623   4.175
 7473SOL     OW23317   0.523   4.573   3.293
 7473SOL    HW123318   0.580   4.623   3.358
 7473SOL    HW223319   0.434   4.619   3.285
 7474SOL     OW23320   2.458   0.832   5.036
 7474SOL    HW123321   2.543   0.849   5.087
 7474SOL    HW223322   2.380   0.844   5.097
 7475SOL     OW23323   3.533   1.712   2.293
 7475SOL    HW123324   3.607   1.771   2.327
 7475SOL    HW223325   3.563   1.617   2.294
 7476SOL     OW23326   4.056   6.490   4.237
 7476SOL    HW123327   4.060   6.590   4.233
 7476SOL    HW223328   4.006   6.455   4.158
 7477SOL     OW23329   5.250   1.678   3.982
 7477SOL    HW123330   5.298   1.598   3.946
 7477SOL    HW223331   5.200   1.653   4.065
 7478SOL     OW23332   3.964   4.098   6.116
 7478SOL    HW123333   3.900   4.023   6.100
 7478SOL    HW223334   3.917   4.175   6.158
 7479SOL     OW23335   4.178   2.732   1.032
 7479SOL    HW123336   4.086   2.693   1.033
 7479SOL    HW223337   4.225   2.703   0.949
 7480SOL     OW23338   6.218   4.868   1.655
 7480SOL    HW123339   6.140   4.929   1.671
 7480SOL    HW223340   6.285   4.880   1.729
 7481SOL     OW23341   5.512   5.359   1.632
 7481SOL    HW123342   5.459   5.275   1.616
 7481SOL    HW223343   5.456   5.424   1.685
 7482SOL     OW23344   4.597   1.769   2.480
 7482SOL    HW123345   4.628   1.677   2.507
 7482SOL    HW223346   4.628   1.788   2.387
 7483SOL     OW23347   4.460   2.087   5.055
 7483SOL    HW123348   4.404   2.113   5.134
 7483SOL    HW223349   4.402   2.045   4.985
 7484SOL     OW23350   6.853   6.937   2.229
 7484SOL    HW123351   6.792   6.996   2.176
 7484SOL    HW223352   6.896   6.991   2.302
 7485SOL     OW23353   2.876   5.856   5.507
 7485SOL    HW123354   2.951   5.905   5.551
 7485SOL    HW223355   2.914   5.786   5.447
 7486SOL     OW23356   2.531   0.069   5.632
 7486SOL    HW123357   2.451   0.016   5.604
 7486SOL    HW223358   2.537   0.152   5.577
 7487SOL     OW23359   2.268   6.383   2.516
 7487SOL    HW123360   2.224   6.301   2.478
 7487SOL    HW223361   2.234   6.464   2.469
 7488SOL     OW23362   1.853   6.725   4.841
 7488SOL    HW123363   1.906   6.646   4.873
 7488SOL    HW223364   1.806   6.701   4.756
 7489SOL     OW23365   4.964   2.606   5.446
 7489SOL    HW123366   4.955   2.572   5.352
 7489SOL    HW223367   4.873   2.607   5.489
 7490SOL     OW23368   1.160   1.573   1.249
 7490SOL    HW123369   1.203   1.560   1.338
 7490SOL    HW223370   1.170   1.668   1.220
 7491SOL     OW23371   0.482   4.683   6.667
 7491SOL    HW123372   0.514   4.637   6.585
 7491SOL    HW223373   0.435   4.768   6.642
 7492SOL     OW23374   2.737   1.174   4.804
 7492SOL    HW123375   2.740   1.273   4.818
 7492SOL    HW223376   2.719   1.155   4.707
 7493SOL     OW23377   6.017   4.528   6.313
 7493SOL    HW123378   6.025   4.597   6.386
 7493SOL    HW223379   6.008   4.437   6.355
 7494SOL     OW23380   6.273   1.056   2.714
 7494SOL    HW123381   6.333   1.075   2.636
 7494SOL    HW223382   6.325   1.068   2.799
 7495SOL     OW23383   2.240   1.599   0.665
 7495SOL    HW123384   2.215   1.563   0.755
 7495SOL    HW223385   2.159   1.639   0.622
 7496SOL     OW23386   0.692   3.404   6.138
 7496SOL    HW123387   0.617   3.444   6.190
 7496SOL    HW223388   0.778   3.446   6.167
 7497SOL     OW23389   2.613   4.939   1.077
 7497SOL    HW123390   2.533   4.991   1.048
 7497SOL    HW223391   2.686   4.949   1.010
 7498SOL     OW23392   1.772   0.882   4.479
 7498SOL    HW123393   1.765   0.981   4.465
 7498SOL    HW223394   1.683   0.840   4.459
 7499SOL     OW23395   5.942   1.081   3.369
 7499SOL    HW123396   5.899   1.026   3.298
 7499SOL    HW223397   5.959   1.024   3.450
 7500SOL     OW23398   4.004   6.446   3.294
 7500SOL    HW123399   4.043   6.361   3.328
 7500SOL    HW223400   4.076   6.515   3.285
 7501SOL     OW23401   6.967   4.295   4.330
 7501SOL    HW123402   6.952   4.351   4.248
 7501SOL    HW223403   6.991   4.354   4.407
 7502SOL     OW23404   1.230   0.775   5.266
 7502SOL    HW123405   1.163   0.706   5.292
 7502SOL    HW223406   1.189   0.866   5.272
 7503SOL     OW23407   2.228   1.845   0.123
 7503SOL    HW123408   2.293   1.914   0.154
 7503SOL    HW223409   2.215   1.777   0.195
 7504SOL     OW23410   3.251   0.258   3.575
 7504SOL    HW123411   3.321   0.243   3.505
 7504SOL    HW223412   3.164   0.277   3.530
 7505SOL     OW23413   2.313   0.608   5.311
 7505SOL    HW123414   2.392   0.600   5.251
 7505SOL    HW223415   2.242   0.543   5.282
 7506SOL     OW23416   4.027   0.098   2.439
 7506SOL    HW123417   3.995   0.145   2.521
 7506SOL    HW223418   4.089   0.158   2.388
 7507SOL     OW23419   0.135   0.678   0.945
 7507SOL    HW123420   0.170   0.684   0.851
 7507SOL    HW223421   0.212   0.682   1.009
 7508SOL     OW23422   5.506   0.362   2.169
 7508SOL    HW123423   5.560   0.330   2.247
 7508SOL    HW223424   5.444   0.435   2.198
 7509SOL     OW23425   5.553   4.122   0.894
 7509SOL    HW123426   5.514   4.142   0.804
 7509SOL    HW223427   5.569   4.024   0.903
 7510SOL     OW23428   2.859   4.202   5.487
 7510SOL    HW123429   2.878   4.104   5.483
 7510SOL    HW223430   2.803   4.222   5.567
 7511SOL     OW23431   1.355   0.709   3.550
 7511SOL    HW123432   1.374   0.700   3.452
 7511SOL    HW223433   1.260   0.739   3.563
 7512SOL     OW23434   3.140   4.496   1.451
 7512SOL    HW123435   3.121   4.476   1.355
 7512SOL    HW223436   3.071   4.559   1.487
 7513SOL     OW23437   1.646   2.080   1.571
 7513SOL    HW123438   1.634   2.059   1.668
 7513SOL    HW223439   1.708   2.158   1.561
 7514SOL     OW23440   3.121   5.653   2.662
 7514SOL    HW123441   3.050   5.723   2.669
 7514SOL    HW223442   3.078   5.562   2.660
 7515SOL     OW23443   1.822   6.349   2.176
 7515SOL    HW123444   1.920   6.334   2.188
 7515SOL    HW223445   1.772   6.267   2.202
 7516SOL     OW23446   0.156   5.850   4.333
 7516SOL    HW123447   0.094   5.928   4.344
 7516SOL    HW223448   0.229   5.874   4.268
 7517SOL     OW23449   6.592   3.429   1.539
 7517SOL    HW123450   6.684   3.467   1.525
 7517SOL    HW223451   6.570   3.366   1.464
 7518SOL     OW23452   3.931   5.900   3.740
 7518SOL    HW123453   3.912   5.998   3.747
 7518SOL    HW223454   3.870   5.858   3.673
 7519SOL     OW23455   0.219   6.780   3.335
 7519SOL    HW123456   0.317   6.780   3.351
 7519SOL    HW223457   0.178   6.700   3.379
 7520SOL     OW23458   3.166   6.931   1.842
 7520SOL    HW123459   3.171   6.889   1.932
 7520SOL    HW223460   3.214   7.019   1.844
 7521SOL     OW23461   4.430   4.449   5.901
 7521SOL    HW123462   4.379   4.484   5.822
 7521SOL    HW223463   4.409   4.352   5.914
 7522SOL     OW23464   3.050   0.853   6.399
 7522SOL    HW123465   2.978   0.793   6.365
 7522SOL    HW223466   3.090   0.814   6.482
 7523SOL     OW23467   5.140   0.558   5.784
 7523SOL    HW123468   5.070   0.506   5.736
 7523SOL    HW223469   5.196   0.496   5.840
 7524SOL     OW23470   0.944   2.557   6.577
 7524SOL    HW123471   0.910   2.478   6.628
 7524SOL    HW223472   0.986   2.526   6.492
 7525SOL     OW23473   2.558   6.949   6.855
 7525SOL    HW123474   2.512   6.893   6.924
 7525SOL    HW223475   2.650   6.974   6.887
 7526SOL     OW23476   3.775   2.969   2.431
 7526SOL    HW123477   3.856   2.979   2.374
 7526SOL    HW223478   3.703   2.924   2.379
 7527SOL     OW23479   4.098   5.897   3.407
 7527SOL    HW123480   4.106   5.799   3.386
 7527SOL    HW223481   4.164   5.920   3.479
 7528SOL     OW23482   3.959   2.047   6.627
 7528SOL    HW123483   4.023   2.108   6.674
 7528SOL    HW223484   4.006   1.961   6.605
 7529SOL     OW23485   6.076   1.087   4.543
 7529SOL    HW123486   6.113   0.995   4.532
 7529SOL    HW223487   6.150   1.154   4.530
 7530SOL     OW23488   6.148   3.883   2.353
 7530SOL    HW123489   6.053   3.882   2.321
 7530SOL    HW223490   6.187   3.791   2.345
 7531SOL     OW23491   4.087   1.988   4.150
 7531SOL    HW123492   4.062   2.068   4.204
 7531SOL    HW223493   4.169   1.946   4.187
 7532SOL     OW23494   5.435   5.640   1.501
 7532SOL    HW123495   5.435   5.572   1.427
 7532SOL    HW223496   5.412   5.596   1.587
 7533SOL     OW23497   2.222   0.654   3.092
 7533SOL    HW123498   2.154   0.582   3.081
 7533SOL    HW223499   2.236   0.700   3.004
 7534SOL     OW23500   3.666   6.802   5.397
 7534SOL    HW123501   3.719   6.726   5.358
 7534SOL    HW223502   3.575   6.804   5.355
 7535SOL     OW23503   2.654   0.794   5.693
 7535SOL    HW123504   2.724   0.811   5.623
 7535SOL    HW223505   2.594   0.874   5.700
 7536SOL     OW23506   5.659   4.816   4.542
 7536SOL    HW123507   5.633   4.877   4.616
 7536SOL    HW223508   5.747   4.844   4.504
 7537SOL     OW23509   2.328   5.683   4.805
 7537SOL    HW123510   2.328   5.778   4.834
 7537SOL    HW223511   2.244   5.638   4.835
 7538SOL     OW23512   3.486   2.752   1.705
 7538SOL    HW123513   3.389   2.766   1.682
 7538SOL    HW223514   3.537   2.729   1.622
 7539SOL     OW23515   2.401   2.732   4.453
 7539SOL    HW123516   2.492   2.716   4.415
 7539SOL    HW223517   2.338   2.753   4.379
 7540SOL     OW23518   2.533   0.471   5.629
 7540SOL    HW123519   2.529   0.563   5.668
 7540SOL    HW223520   2.510   0.403   5.699
 7541SOL     OW23521   6.730   3.467   4.620
 7541SOL    HW123522   6.677   3.398   4.670
 7541SOL    HW223523   6.827   3.448   4.632
 7542SOL     OW23524   0.723   6.090   6.945
 7542SOL    HW123525   0.658   6.069   7.018
 7542SOL    HW223526   0.778   6.009   6.926
 7543SOL     OW23527   4.149   2.368   0.761
 7543SOL    HW123528   4.143   2.269   0.747
 7543SOL    HW223529   4.208   2.386   0.840
 7544SOL     OW23530   0.657   2.431   3.701
 7544SOL    HW123531   0.589   2.402   3.634
 7544SOL    HW223532   0.733   2.366   3.703
 7545SOL     OW23533   5.699   6.537   2.922
 7545SOL    HW123534   5.628   6.566   2.858
 7545SOL    HW223535   5.782   6.589   2.907
 7546SOL     OW23536   4.347   1.338   1.491
 7546SOL    HW123537   4.430   1.283   1.484
 7546SOL    HW223538   4.368   1.433   1.467
 7547SOL     OW23539   4.325   6.745   0.936
 7547SOL    HW123540   4.352   6.829   0.888
 7547SOL    HW223541   4.346   6.666   0.878
 7548SOL     OW23542   3.068   1.975   0.620
 7548SOL    HW123543   3.045   1.878   0.610
 7548SOL    HW223544   3.025   2.027   0.547
 7549SOL     OW23545   5.759   1.868   1.248
 7549SOL    HW123546   5.836   1.807   1.227
 7549SOL    HW223547   5.680   1.813   1.274
 7550SOL     OW23548   2.351   4.461   1.957
 7550SOL    HW123549   2.344   4.366   1.925
 7550SOL    HW223550   2.423   4.508   1.906
 7551SOL     OW23551   4.903   4.405   6.898
 7551SOL    HW123552   4.856   4.484   6.936
 7551SOL    HW223553   4.931   4.343   6.972
 7552SOL     OW23554   2.043   5.685   4.086
 7552SOL    HW123555   1.970   5.619   4.068
 7552SOL    HW223556   2.063   5.736   4.003
 7553SOL     OW23557   4.369   4.949   5.196
 7553SOL    HW123558   4.369   5.024   5.129
 7553SOL    HW223559   4.392   4.985   5.286
 7554SOL     OW23560   4.960   0.274   0.706
 7554SOL    HW123561   4.993   0.344   0.770
 7554SOL    HW223562   5.035   0.212   0.683
 7555SOL     OW23563   1.863   5.105   4.777
 7555SOL    HW123564   1.920   5.162   4.718
 7555SOL    HW223565   1.921   5.043   4.829
 7556SOL     OW23566   0.675   2.559   5.564
 7556SOL    HW123567   0.597   2.539   5.624
 7556SOL    HW223568   0.720   2.474   5.539
 7557SOL     OW23569   5.445   3.017   6.350
 7557SOL    HW123570   5.529   3.049   6.393
 7557SOL    HW223571   5.439   2.917   6.359
 7558SOL     OW23572   2.626   2.449   3.262
 7558SOL    HW123573   2.592   2.357   3.241
 7558SOL    HW223574   2.679   2.445   3.347
 7559SOL     OW23575   6.464   5.767   0.894
 7559SOL    HW123576   6.433   5.830   0.965
 7559SOL    HW223577   6.426   5.794   0.806
 7560SOL     OW23578   5.591   6.302   0.183
 7560SOL    HW123579   5.639   6.385   0.155
 7560SOL    HW223580   5.637   6.222   0.144
 7561SOL     OW23581   0.894   3.145   0.759
 7561SOL    HW123582   0.840   3.092   0.824
 7561SOL    HW223583   0.984   3.166   0.799
 7562SOL     OW23584   5.615   6.404   4.820
 7562SOL    HW123585   5.648   6.499   4.815
 7562SOL    HW223586   5.528   6.397   4.771
 7563SOL     OW23587   2.809   6.505   1.070
 7563SOL    HW123588   2.841   6.490   0.977
 7563SOL    HW223589   2.756   6.426   1.100
 7564SOL     OW23590   4.905   1.442   2.825
 7564SOL    HW123591   4.810   1.437   2.857
 7564SOL    HW223592   4.918   1.375   2.752
 7565SOL     OW23593   5.021   4.864   6.932
 7565SOL    HW123594   5.035   4.804   6.854
 7565SOL    HW223595   5.109   4.885   6.974
 7566SOL     OW23596   0.790   5.095   3.071
 7566SOL    HW123597   0.827   5.008   3.039
 7566SOL    HW223598   0.691   5.097   3.056
 7567SOL     OW23599   2.041   2.746   4.915
 7567SOL    HW123600   2.032   2.647   4.906
 7567SOL    HW223601   2.135   2.773   4.894
 7568SOL     OW23602   5.641   6.348   3.574
 7568SOL    HW123603   5.723   6.354   3.630
 7568SOL    HW223604   5.632   6.255   3.538
 7569SOL     OW23605   4.084   4.613   6.497
 7569SOL    HW123606   4.083   4.586   6.401
 7569SOL    HW223607   4.083   4.713   6.503
 7570SOL     OW23608   5.412   4.831   5.649
 7570SOL    HW123609   5.430   4.787   5.561
 7570SOL    HW223610   5.412   4.930   5.637
 7571SOL     OW23611   5.319   4.979   2.659
 7571SOL    HW123612   5.367   4.892   2.648
 7571SOL    HW223613   5.232   4.976   2.609
 7572SOL     OW23614   4.842   0.652   3.395
 7572SOL    HW123615   4.849   0.650   3.495
 7572SOL    HW223616   4.933   0.659   3.355
 7573SOL     OW23617   6.060   6.239   4.466
 7573SOL    HW123618   6.018   6.300   4.533
 7573SOL    HW223619   6.092   6.156   4.513
 7574SOL     OW23620   6.807   0.839   4.867
 7574SOL    HW123621   6.821   0.846   4.768
 7574SOL    HW223622   6.888   0.874   4.915
 7575SOL     OW23623   4.468   0.163   5.978
 7575SOL    HW123624   4.450   0.257   6.006
 7575SOL    HW223625   4.566   0.146   5.980
 7576SOL     OW23626   6.034   5.784   0.496
 7576SOL    HW123627   5.952   5.728   0.503
 7576SOL    HW223628   6.089   5.753   0.418
 7577SOL     OW23629   6.819   6.960   5.462
 7577SOL    HW123630   6.769   6.949   5.376
 7577SOL    HW223631   6.757   6.940   5.538
 7578SOL     OW23632   2.414   5.962   3.434
 7578SOL    HW123633   2.496   6.012   3.409
 7578SOL    HW223634   2.335   6.003   3.388
 7579SOL     OW23635   4.598   1.899   2.230
 7579SOL    HW123636   4.536   1.844   2.175
 7579SOL    HW223637   4.582   1.996   2.212
 7580SOL     OW23638   1.331   4.310   4.146
 7580SOL    HW123639   1.390   4.275   4.218
 7580SOL    HW223640   1.332   4.410   4.148
 7581SOL     OW23641   5.130   0.718   1.228
 7581SOL    HW123642   5.141   0.816   1.213
 7581SOL    HW223643   5.218   0.677   1.251
 7582SOL     OW23644   2.958   0.975   0.184
 7582SOL    HW123645   2.880   0.961   0.123
 7582SOL    HW223646   2.930   1.031   0.262
 7583SOL     OW23647   6.345   3.353   1.244
 7583SOL    HW123648   6.414   3.391   1.182
 7583SOL    HW223649   6.267   3.320   1.192
 7584SOL     OW23650   2.957   6.912   0.795
 7584SOL    HW123651   2.913   6.876   0.877
 7584SOL    HW223652   3.050   6.876   0.788
 7585SOL     OW23653   1.547   3.278   6.093
 7585SOL    HW123654   1.555   3.362   6.040
 7585SOL    HW223655   1.632   3.225   6.085
 7586SOL     OW23656   3.356   0.883   3.422
 7586SOL    HW123657   3.413   0.909   3.500
 7586SOL    HW223658   3.408   0.898   3.338
 7587SOL     OW23659   3.476   1.401   6.532
 7587SOL    HW123660   3.420   1.424   6.452
 7587SOL    HW223661   3.452   1.462   6.607
 7588SOL     OW23662   0.886   3.344   2.274
 7588SOL    HW123663   0.841   3.378   2.357
 7588SOL    HW223664   0.830   3.367   2.194
 7589SOL     OW23665   6.101   6.813   1.104
 7589SOL    HW123666   6.071   6.727   1.063
 7589SOL    HW223667   6.198   6.808   1.126
 7590SOL     OW23668   2.890   1.833   6.726
 7590SOL    HW123669   2.813   1.810   6.785
 7590SOL    HW223670   2.859   1.893   6.652
 7591SOL     OW23671   6.555   4.827   0.475
 7591SOL    HW123672   6.459   4.843   0.450
 7591SOL    HW223673   6.599   4.914   0.496
 7592SOL     OW23674   6.839   4.309   6.884
 7592SOL    HW123675   6.798   4.319   6.794
 7592SOL    HW223676   6.774   4.340   6.954
 7593SOL     OW23677   4.815   2.389   0.768
 7593SOL    HW123678   4.729   2.390   0.718
 7593SOL    HW223679   4.866   2.473   0.748
 7594SOL     OW23680   0.197   4.583   2.156
 7594SOL    HW123681   0.260   4.540   2.091
 7594SOL    HW223682   0.230   4.569   2.249
 7595SOL     OW23683   6.904   2.322   5.942
 7595SOL    HW123684   6.841   2.314   5.865
 7595SOL    HW223685   6.929   2.418   5.955
 7596SOL     OW23686   4.171   5.512   3.051
 7596SOL    HW123687   4.182   5.443   3.123
 7596SOL    HW223688   4.247   5.577   3.055
 7597SOL     OW23689   2.828   5.766   1.875
 7597SOL    HW123690   2.738   5.724   1.861
 7597SOL    HW223691   2.882   5.709   1.937
 7598SOL     OW23692   0.007   1.359   2.774
 7598SOL    HW123693   6.947   1.348   2.827
 7598SOL    HW223694   0.045   1.269   2.752
 7599SOL     OW23695   5.720   1.830   3.456
 7599SOL    HW123696   5.626   1.865   3.448
 7599SOL    HW223697   5.720   1.731   3.441
 7600SOL     OW23698   1.774   0.796   2.615
 7600SOL    HW123699   1.795   0.717   2.672
 7600SOL    HW223700   1.694   0.776   2.558
 7601SOL     OW23701   2.071   5.801   2.824
 7601SOL    HW123702   2.145   5.756   2.776
 7601SOL    HW223703   1.983   5.771   2.786
 7602SOL     OW23704   1.477   4.419   6.425
 7602SOL    HW123705   1.567   4.385   6.397
 7602SOL    HW223706   1.416   4.420   6.346
 7603SOL     OW23707   0.939   5.500   6.048
 7603SOL    HW123708   0.873   5.428   6.028
 7603SOL    HW223709   1.005   5.467   6.116
 7604SOL     OW23710   2.333   4.266   4.291
 7604SOL    HW123711   2.374   4.334   4.352
 7604SOL    HW223712   2.360   4.284   4.197
 7605SOL     OW23713   0.969   6.340   0.464
 7605SOL    HW123714   1.015   6.423   0.494
 7605SOL    HW223715   0.904   6.363   0.391
 7606SOL     OW23716   0.004   2.835   3.626
 7606SOL    HW123717   6.935   2.806   3.643
 7606SOL    HW223718   0.065   2.790   3.692
 7607SOL     OW23719   4.660   6.281   0.499
 7607SOL    HW123720   4.746   6.232   0.487
 7607SOL    HW223721   4.621   6.260   0.589
 7608SOL     OW23722   3.321   4.151   2.679
 7608SOL    HW123723   3.315   4.248   2.652
 7608SOL    HW223724   3.281   4.094   2.607
 7609SOL     OW23725   0.277   4.073   3.497
 7609SOL    HW123726   0.317   4.046   3.584
 7609SOL    HW223727   0.328   4.151   3.460
 7610SOL     OW23728   6.345   6.824   6.758
 7610SOL    HW123729   6.398   6.783   6.832
 7610SOL    HW223730   6.256   6.778   6.752
 7611SOL     OW23731   0.769   2.085   0.404
 7611SOL    HW123732   0.735   2.011   0.347
 7611SOL    HW223733   0.840   2.050   0.466
 7612SOL     OW23734   5.273   2.708   4.846
 7612SOL    HW123735   5.174   2.710   4.865
 7612SOL    HW223736   5.316   2.787   4.890
 7613SOL     OW23737   5.828   2.742   1.616
 7613SOL    HW123738   5.731   2.764   1.615
 7613SOL    HW223739   5.848   2.677   1.543
 7614SOL     OW23740   5.213   2.891   1.677
 7614SOL    HW123741   5.133   2.856   1.628
 7614SOL    HW223742   5.230   2.834   1.757
 7615SOL     OW23743   4.576   3.867   6.314
 7615SOL    HW123744   4.536   3.914   6.393
 7615SOL    HW223745   4.589   3.771   6.336
 7616SOL     OW23746   0.011   4.527   4.499
 7616SOL    HW123747   6.994   4.584   4.428
 7616SOL    HW223748   0.110   4.540   4.498
 7617SOL     OW23749   3.022   5.668   3.003
 7617SOL    HW123750   3.039   5.754   3.051
 7617SOL    HW223751   2.944   5.680   2.941
 7618SOL     OW23752   0.712   2.326   6.873
 7618SOL    HW123753   0.691   2.232   6.846
 7618SOL    HW223754   0.782   2.363   6.811
 7619SOL     OW23755   5.587   3.295   5.509
 7619SOL    HW123756   5.498   3.263   5.479
 7619SOL    HW223757   5.647   3.309   5.430
 7620SOL     OW23758   3.629   5.276   6.989
 7620SOL    HW123759   3.558   5.330   0.010
 7620SOL    HW223760   3.604   5.262   6.893
 7621SOL     OW23761   0.383   1.858   0.657
 7621SOL    HW123762   0.355   1.809   0.740
 7621SOL    HW223763   0.355   1.954   0.665
 7622SOL     OW23764   4.940   5.107   1.888
 7622SOL    HW123765   4.908   5.061   1.804
 7622SOL    HW223766   5.024   5.064   1.919
 7623SOL     OW23767   4.586   4.800   6.805
 7623SOL    HW123768   4.630   4.769   6.721
 7623SOL    HW223769   4.596   4.899   6.814
 7624SOL     OW23770   0.058   2.469   4.696
 7624SOL    HW123771   0.031   2.519   4.614
 7624SOL    HW223772   7.004   2.420   4.733
 7625SOL     OW23773   4.570   0.719   1.515
 7625SOL    HW123774   4.549   0.811   1.549
 7625SOL    HW223775   4.497   0.656   1.543
 7626SOL     OW23776   6.758   6.384   4.306
 7626SOL    HW123777   6.844   6.337   4.325
 7626SOL    HW223778   6.747   6.395   4.207
 7627SOL     OW23779   5.084   2.957   6.755
 7627SOL    HW123780   5.004   2.899   6.738
 7627SOL    HW223781   5.132   2.974   6.668
 7628SOL     OW23782   3.786   0.767   1.940
 7628SOL    HW123783   3.850   0.693   1.958
 7628SOL    HW223784   3.719   0.739   1.871
 7629SOL     OW23785   6.756   0.032   2.775
 7629SOL    HW123786   6.772   7.020   2.867
 7629SOL    HW223787   6.696   6.994   2.725
 7630SOL     OW23788   5.859   6.735   1.673
 7630SOL    HW123789   5.807   6.799   1.729
 7630SOL    HW223790   5.886   6.779   1.587
 7631SOL     OW23791   0.751   0.983   5.174
 7631SOL    HW123792   0.740   1.011   5.079
 7631SOL    HW223793   0.704   1.048   5.234
 7632SOL     OW23794   3.609   2.425   1.681
 7632SOL    HW123795   3.518   2.449   1.715
 7632SOL    HW223796   3.662   2.383   1.755
 7633SOL     OW23797   4.172   2.587   0.421
 7633SOL    HW123798   4.104   2.604   0.493
 7633SOL    HW223799   4.146   2.636   0.338
 7634SOL     OW23800   0.868   1.628   2.681
 7634SOL    HW123801   0.878   1.698   2.752
 7634SOL    HW223802   0.773   1.622   2.652
 7635SOL     OW23803   2.760   6.375   5.126
 7635SOL    HW123804   2.780   6.288   5.082
 7635SOL    HW223805   2.744   6.445   5.056
 7636SOL     OW23806   1.680   2.230   3.506
 7636SOL    HW123807   1.703   2.187   3.419
 7636SOL    HW223808   1.646   2.160   3.569
 7637SOL     OW23809   2.625   6.525   2.722
 7637SOL    HW123810   2.703   6.575   2.686
 7637SOL    HW223811   2.639   6.506   2.820
 7638SOL     OW23812   3.788   5.805   1.708
 7638SOL    HW123813   3.759   5.884   1.654
 7638SOL    HW223814   3.779   5.826   1.805
 7639SOL     OW23815   1.462   2.204   0.637
 7639SOL    HW123816   1.383   2.211   0.575
 7639SOL    HW223817   1.546   2.218   0.586
 7640SOL     OW23818   3.075   1.845   0.318
 7640SOL    HW123819   3.073   1.820   0.221
 7640SOL    HW223820   2.996   1.901   0.341
 7641SOL     OW23821   0.811   4.619   1.739
 7641SOL    HW123822   0.851   4.599   1.828
 7641SOL    HW223823   0.721   4.575   1.732
 7642SOL     OW23824   2.487   1.833   2.324
 7642SOL    HW123825   2.542   1.910   2.357
 7642SOL    HW223826   2.529   1.794   2.242
 7643SOL     OW23827   4.998   2.666   4.110
 7643SOL    HW123828   5.092   2.637   4.093
 7643SOL    HW223829   4.974   2.739   4.046
 7644SOL     OW23830   5.799   2.250   2.146
 7644SOL    HW123831   5.876   2.199   2.184
 7644SOL    HW223832   5.832   2.333   2.101
 7645SOL     OW23833   4.469   4.025   5.413
 7645SOL    HW123834   4.420   4.085   5.349
 7645SOL    HW223835   4.448   3.930   5.392
 7646SOL     OW23836   2.255   2.459   2.179
 7646SOL    HW123837   2.202   2.401   2.118
 7646SOL    HW223838   2.248   2.424   2.273
 7647SOL     OW23839   0.043   3.499   2.338
 7647SOL    HW123840   0.104   3.461   2.269
 7647SOL    HW223841   0.069   3.465   2.428
 7648SOL     OW23842   3.245   1.212   3.484
 7648SOL    HW123843   3.216   1.122   3.451
 7648SOL    HW223844   3.305   1.255   3.417
 7649SOL     OW23845   1.164   1.373   3.055
 7649SOL    HW123846   1.160   1.274   3.051
 7649SOL    HW223847   1.221   1.407   2.981
 7650SOL     OW23848   5.024   2.763   1.285
 7650SOL    HW123849   4.977   2.721   1.362
 7650SOL    HW223850   5.116   2.724   1.276
 7651SOL     OW23851   2.404   6.642   5.387
 7651SOL    HW123852   2.339   6.709   5.353
 7651SOL    HW223853   2.359   6.583   5.454
 7652SOL     OW23854   6.738   3.907   3.918
 7652SOL    HW123855   6.823   3.885   3.965
 7652SOL    HW223856   6.661   3.893   3.980
 7653SOL     OW23857   2.699   1.350   0.530
 7653SOL    HW123858   2.645   1.337   0.613
 7653SOL    HW223859   2.653   1.416   0.470
 7654SOL     OW23860   5.317   3.435   4.106
 7654SOL    HW123861   5.227   3.441   4.149
 7654SOL    HW223862   5.319   3.494   4.025
 7655SOL     OW23863   3.454   0.136   3.384
 7655SOL    HW123864   3.512   0.191   3.324
 7655SOL    HW223865   3.416   0.060   3.332
 7656SOL     OW23866   1.870   5.043   6.353
 7656SOL    HW123867   1.892   4.948   6.329
 7656SOL    HW223868   1.954   5.096   6.359
 7657SOL     OW23869   2.845   2.250   3.237
 7657SOL    HW123870   2.917   2.222   3.300
 7657SOL    HW223871   2.886   2.282   3.152
 7658SOL     OW23872   3.762   6.578   5.795
 7658SOL    HW123873   3.765   6.659   5.736
 7658SOL    HW223874   3.767   6.496   5.737
 7659SOL     OW23875   5.682   5.673   6.558
 7659SOL    HW123876   5.615   5.738   6.523
 7659SOL    HW223877   5.773   5.697   6.525
 7660SOL     OW23878   0.429   6.874   3.906
 7660SOL    HW123879   0.348   6.855   3.850
 7660SOL    HW223880   0.440   6.972   3.917
 7661SOL     OW23881   5.649   2.754   4.756
 7661SOL    HW123882   5.595   2.672   4.739
 7661SOL    HW223883   5.716   2.766   4.683
 7662SOL     OW23884   0.561   2.186   2.430
 7662SOL    HW123885   0.603   2.183   2.339
 7662SOL    HW223886   0.473   2.233   2.424
 7663SOL     OW23887   0.033   6.754   6.213
 7663SOL    HW123888   7.003   6.779   6.133
 7663SOL    HW223889   7.002   6.697   6.274
 7664SOL     OW23890   3.886   0.625   2.208
 7664SOL    HW123891   3.934   0.667   2.285
 7664SOL    HW223892   3.790   0.609   2.233
 7665SOL     OW23893   4.824   0.039   4.957
 7665SOL    HW123894   4.812   0.055   4.859
 7665SOL    HW223895   4.766   6.987   4.985
 7666SOL     OW23896   1.372   6.941   1.424
 7666SOL    HW123897   1.332   6.852   1.442
 7666SOL    HW223898   1.464   6.945   1.462
 7667SOL     OW23899   4.453   5.960   1.999
 7667SOL    HW123900   4.510   6.037   2.028
 7667SOL    HW223901   4.365   5.964   2.047
 7668SOL     OW23902   3.272   4.235   1.232
 7668SOL    HW123903   3.359   4.215   1.278
 7668SOL    HW223904   3.273   4.194   1.141
 7669SOL     OW23905   5.785   1.678   6.133
 7669SOL    HW123906   5.805   1.747   6.202
 7669SOL    HW223907   5.861   1.613   6.127
 7670SOL     OW23908   1.108   4.637   6.438
 7670SOL    HW123909   1.090   4.573   6.363
 7670SOL    HW223910   1.089   4.730   6.408
 7671SOL     OW23911   4.512   0.646   4.580
 7671SOL    HW123912   4.518   0.573   4.512
 7671SOL    HW223913   4.600   0.653   4.629
 7672SOL     OW23914   6.177   6.604   3.430
 7672SOL    HW123915   6.088   6.575   3.395
 7672SOL    HW223916   6.195   6.557   3.516
 7673SOL     OW23917   1.899   5.108   6.990
 7673SOL    HW123918   1.814   5.147   0.001
 7673SOL    HW223919   1.969   5.108   0.036
 7674SOL     OW23920   6.173   2.263   3.715
 7674SOL    HW123921   6.190   2.281   3.618
 7674SOL    HW223922   6.112   2.333   3.752
 7675SOL     OW23923   4.958   0.045   2.455
 7675SOL    HW123924   4.998   0.137   2.450
 7675SOL    HW223925   4.863   0.048   2.422
 7676SOL     OW23926   1.712   2.013   0.535
 7676SOL    HW123927   1.803   2.020   0.574
 7676SOL    HW223928   1.653   1.960   0.596
 7677SOL     OW23929   0.356   4.200   2.170
 7677SOL    HW123930   0.400   4.152   2.246
 7677SOL    HW223931   0.256   4.191   2.178
 7678SOL     OW23932   2.271   1.604   5.273
 7678SOL    HW123933   2.330   1.545   5.217
 7678SOL    HW223934   2.310   1.612   5.365
 7679SOL     OW23935   2.106   6.120   5.903
 7679SOL    HW123936   2.204   6.109   5.889
 7679SOL    HW223937   2.057   6.085   5.824
 7680SOL     OW23938   1.709   1.978   0.220
 7680SOL    HW123939   1.632   1.922   0.191
 7680SOL    HW223940   1.720   1.971   0.319
 7681SOL     OW23941   2.740   6.787   0.187
 7681SOL    HW123942   2.766   6.774   0.092
 7681SOL    HW223943   2.823   6.799   0.243
 7682SOL     OW23944   3.570   0.731   1.772
 7682SOL    HW123945   3.514   0.649   1.759
 7682SOL    HW223946   3.548   0.797   1.700
 7683SOL     OW23947   6.720   2.068   3.587
 7683SOL    HW123948   6.748   2.006   3.514
 7683SOL    HW223949   6.796   2.081   3.651
 7684SOL     OW23950   4.026   2.035   1.146
 7684SOL    HW123951   3.990   1.947   1.177
 7684SOL    HW223952   4.108   2.020   1.090
 7685SOL     OW23953   3.057   3.606   6.869
 7685SOL    HW123954   2.970   3.559   6.880
 7685SOL    HW223955   3.117   3.551   6.811
 7686SOL     OW23956   5.416   7.008   2.874
 7686SOL    HW123957   5.471   7.013   2.957
 7686SOL    HW223958   5.376   0.073   2.855
 7687SOL     OW23959   6.104   5.026   5.333
 7687SOL    HW123960   6.106   5.079   5.418
 7687SOL    HW223961   6.154   5.076   5.262
 7688SOL     OW23962   0.390   6.881   5.560
 7688SOL    HW123963   0.313   6.899   5.498
 7688SOL    HW223964   0.404   6.959   5.620
 7689SOL     OW23965   5.134   6.056   2.886
 7689SOL    HW123966   5.219   6.105   2.906
 7689SOL    HW223967   5.153   5.984   2.818
 7690SOL     OW23968   6.437   5.214   0.781
 7690SOL    HW123969   6.420   5.116   0.795
 7690SOL    HW223970   6.440   5.233   0.683
 7691SOL     OW23971   5.321   2.969   4.073
 7691SOL    HW123972   5.284   3.022   4.150
 7691SOL    HW223973   5.246   2.931   4.019
 7692SOL     OW23974   1.221   6.710   1.833
 7692SOL    HW123975   1.285   6.671   1.767
 7692SOL    HW223976   1.267   6.780   1.887
 7693SOL     OW23977   3.408   0.133   1.455
 7693SOL    HW123978   3.382   0.157   1.548
 7693SOL    HW223979   3.507   0.134   1.446
 7694SOL     OW23980   0.217   4.187   3.919
 7694SOL    HW123981   0.207   4.183   4.019
 7694SOL    HW223982   0.274   4.265   3.895
 7695SOL     OW23983   3.945   6.443   0.291
 7695SOL    HW123984   3.928   6.367   0.354
 7695SOL    HW223985   3.863   6.462   0.238
 7696SOL     OW23986   6.816   1.488   4.284
 7696SOL    HW123987   6.899   1.433   4.296
 7696SOL    HW223988   6.802   1.507   4.187
 7697SOL     OW23989   2.781   0.272   1.782
 7697SOL    HW123990   2.693   0.229   1.803
 7697SOL    HW223991   2.801   0.261   1.685
 7698SOL     OW23992   6.931   2.019   4.076
 7698SOL    HW123993   6.868   2.070   4.018
 7698SOL    HW223994   6.886   1.994   4.161
 7699SOL     OW23995   3.616   5.627   0.176
 7699SOL    HW123996   3.678   5.650   0.101
 7699SOL    HW223997   3.665   5.635   0.263
 7700SOL     OW23998   5.047   6.237   4.731
 7700SOL    HW123999   4.954   6.272   4.724
 7700SOL    HW224000   5.069   6.219   4.827
 7701SOL     OW24001   6.938   1.614   6.576
 7701SOL    HW124002   6.878   1.633   6.653
 7701SOL    HW224003   7.019   1.672   6.581
 7702SOL     OW24004   2.850   6.481   6.105
 7702SOL    HW124005   2.806   6.568   6.081
 7702SOL    HW224006   2.921   6.460   6.037
 7703SOL     OW24007   6.497   0.667   5.284
 7703SOL    HW124008   6.487   0.589   5.222
 7703SOL    HW224009   6.408   0.690   5.324
 7704SOL     OW24010   5.485   4.724   5.417
 7704SOL    HW124011   5.452   4.712   5.323
 7704SOL    HW224012   5.584   4.712   5.419
 7705SOL     OW24013   3.933   4.766   6.134
 7705SOL    HW124014   3.880   4.803   6.211
 7705SOL    HW224015   3.901   4.806   6.049
 7706SOL     OW24016   4.704   2.065   4.924
 7706SOL    HW124017   4.775   2.081   4.992
 7706SOL    HW224018   4.614   2.083   4.965
 7707SOL     OW24019   1.268   5.809   6.621
 7707SOL    HW124020   1.196   5.789   6.555
 7707SOL    HW224021   1.228   5.825   6.711
 7708SOL     OW24022   5.822   6.939   5.370
 7708SOL    HW124023   5.844   0.011   5.357
 7708SOL    HW224024   5.843   6.889   5.286
 7709SOL     OW24025   5.741   4.408   1.485
 7709SOL    HW124026   5.789   4.379   1.568
 7709SOL    HW224027   5.789   4.372   1.405
 7710SOL     OW24028   4.085   0.743   1.007
 7710SOL    HW124029   4.164   0.804   1.007
 7710SOL    HW224030   4.006   0.790   1.045
 7711SOL     OW24031   6.233   5.873   5.384
 7711SOL    HW124032   6.278   5.961   5.397
 7711SOL    HW224033   6.248   5.841   5.290
 7712SOL     OW24034   5.525   4.951   2.043
 7712SOL    HW124035   5.425   4.951   2.039
 7712SOL    HW224036   5.556   4.981   2.133
 7713SOL     OW24037   1.482   4.995   0.410
 7713SOL    HW124038   1.474   4.917   0.348
 7713SOL    HW224039   1.405   5.058   0.394
 7714SOL     OW24040   6.498   4.927   5.303
 7714SOL    HW124041   6.575   4.865   5.320
 7714SOL    HW224042   6.517   5.015   5.346
 7715SOL     OW24043   4.983   2.159   0.237
 7715SOL    HW124044   4.931   2.191   0.316
 7715SOL    HW224045   5.063   2.107   0.268
 7716SOL     OW24046   6.357   4.353   3.864
 7716SOL    HW124047   6.402   4.377   3.950
 7716SOL    HW224048   6.410   4.284   3.816
 7717SOL     OW24049   1.733   1.027   4.911
 7717SOL    HW124050   1.819   1.064   4.947
 7717SOL    HW224051   1.750   0.939   4.866
 7718SOL     OW24052   1.889   1.895   3.329
 7718SOL    HW124053   1.826   1.973   3.328
 7718SOL    HW224054   1.905   1.865   3.235
 7719SOL     OW24055   0.146   3.471   4.463
 7719SOL    HW124056   0.176   3.395   4.405
 7719SOL    HW224057   0.065   3.513   4.423
 7720SOL     OW24058   0.409   6.973   0.573
 7720SOL    HW124059   0.314   6.991   0.546
 7720SOL    HW224060   0.459   6.935   0.495
 7721SOL     OW24061   1.039   5.016   2.424
 7721SOL    HW124062   1.126   5.005   2.376
 7721SOL    HW224063   1.056   5.031   2.522
 7722SOL     OW24064   0.421   5.696   3.294
 7722SOL    HW124065   0.509   5.742   3.281
 7722SOL    HW224066   0.347   5.760   3.273
 7723SOL     OW24067   6.386   3.697   7.010
 7723SOL    HW124068   6.444   3.637   6.955
 7723SOL    HW224069   6.428   3.710   0.075
 7724SOL     OW24070   2.531   4.220   1.673
 7724SOL    HW124071   2.477   4.274   1.609
 7724SOL    HW224072   2.627   4.222   1.645
 7725SOL     OW24073   5.055   3.183   3.773
 7725SOL    HW124074   4.982   3.159   3.837
 7725SOL    HW224075   5.144   3.158   3.812
 7726SOL     OW24076   1.024   6.420   5.013
 7726SOL    HW124077   1.025   6.358   4.934
 7726SOL    HW224078   0.990   6.370   5.093
 7727SOL     OW24079   6.929   0.730   2.947
 7727SOL    HW124080   7.009   0.770   2.902
 7727SOL    HW224081   6.954   0.643   2.990
 7728SOL     OW24082   1.141   5.282   3.257
 7728SOL    HW124083   1.217   5.339   3.225
 7728SOL    HW224084   1.097   5.326   3.335
 7729SOL     OW24085   6.095   3.276   0.442
 7729SOL    HW124086   6.033   3.305   0.369
 7729SOL    HW224087   6.046   3.215   0.505
 7730SOL     OW24088   5.627   5.627   1.909
 7730SOL    HW124089   5.611   5.716   1.952
 7730SOL    HW224090   5.700   5.579   1.958
 7731SOL     OW24091   6.869   1.074   0.653
 7731SOL    HW124092   6.959   1.084   0.610
 7731SOL    HW224093   6.848   1.155   0.707
 7732SOL     OW24094   4.571   6.184   0.750
 7732SOL    HW124095   4.518   6.256   0.796
 7732SOL    HW224096   4.591   6.112   0.816
 7733SOL     OW24097   3.817   6.966   2.354
 7733SOL    HW124098   3.835   6.872   2.384
 7733SOL    HW224099   3.898   7.023   2.373
 7734SOL     OW24100   2.592   4.903   3.590
 7734SOL    HW124101   2.571   4.988   3.639
 7734SOL    HW224102   2.685   4.908   3.554
 7735SOL     OW24103   4.734   6.155   6.274
 7735SOL    HW124104   4.693   6.160   6.365
 7735SOL    HW224105   4.785   6.069   6.265
 7736SOL     OW24106   4.256   3.945   6.902
 7736SOL    HW124107   4.195   3.945   6.982
 7736SOL    HW224108   4.255   4.036   6.860
 7737SOL     OW24109   4.115   0.983   2.200
 7737SOL    HW124110   4.043   0.990   2.132
 7737SOL    HW224111   4.147   0.889   2.206
 7738SOL     OW24112   1.859   5.568   6.675
 7738SOL    HW124113   1.788   5.609   6.732
 7738SOL    HW224114   1.821   5.491   6.624
 7739SOL     OW24115   0.636   1.834   2.203
 7739SOL    HW124116   0.725   1.790   2.216
 7739SOL    HW224117   0.650   1.929   2.176
 7740SOL     OW24118   1.857   0.673   3.401
 7740SOL    HW124119   1.850   0.576   3.425
 7740SOL    HW224120   1.843   0.728   3.483
 7741SOL     OW24121   1.145   5.816   4.783
 7741SOL    HW124122   1.125   5.761   4.703
 7741SOL    HW224123   1.083   5.894   4.787
 7742SOL     OW24124   5.946   2.171   3.091
 7742SOL    HW124125   5.991   2.131   3.012
 7742SOL    HW224126   5.937   2.103   3.163
 7743SOL     OW24127   4.897   1.701   6.322
 7743SOL    HW124128   4.891   1.723   6.420
 7743SOL    HW224129   4.848   1.615   6.305
 7744SOL     OW24130   1.029   6.250   3.674
 7744SOL    HW124131   1.056   6.158   3.645
 7744SOL    HW224132   1.048   6.261   3.771
 7745SOL     OW24133   2.871   0.875   5.543
 7745SOL    HW124134   2.887   0.886   5.445
 7745SOL    HW224135   2.901   0.957   5.591
 7746SOL     OW24136   1.852   6.412   0.334
 7746SOL    HW124137   1.798   6.494   0.313
 7746SOL    HW224138   1.893   6.377   0.250
 7747SOL     OW24139   4.329   5.610   1.646
 7747SOL    HW124140   4.391   5.648   1.578
 7747SOL    HW224141   4.375   5.610   1.736
 7748SOL     OW24142   3.658   3.524   5.502
 7748SOL    HW124143   3.673   3.429   5.473
 7748SOL    HW224144   3.565   3.534   5.538
 7749SOL     OW24145   2.801   2.848   5.594
 7749SOL    HW124146   2.872   2.781   5.573
 7749SOL    HW224147   2.759   2.880   5.510
 7750SOL     OW24148   6.673   6.540   1.620
 7750SOL    HW124149   6.579   6.509   1.607
 7750SOL    HW224150   6.691   6.556   1.717
 7751SOL     OW24151   1.609   1.571   2.155
 7751SOL    HW124152   1.676   1.502   2.126
 7751SOL    HW224153   1.562   1.540   2.237
 7752SOL     OW24154   4.947   6.881   5.655
 7752SOL    HW124155   5.024   6.833   5.613
 7752SOL    HW224156   4.913   6.951   5.591
 7753SOL     OW24157   2.457   1.477   4.835
 7753SOL    HW124158   2.416   1.395   4.794
 7753SOL    HW224159   2.427   1.485   4.930
 7754SOL     OW24160   3.667   6.333   1.147
 7754SOL    HW124161   3.747   6.388   1.170
 7754SOL    HW224162   3.585   6.390   1.149
 7755SOL     OW24163   1.265   2.233   5.831
 7755SOL    HW124164   1.334   2.161   5.842
 7755SOL    HW224165   1.228   2.258   5.921
 7756SOL     OW24166   2.953   6.579   1.650
 7756SOL    HW124167   2.875   6.620   1.602
 7756SOL    HW224168   2.920   6.505   1.709
 7757SOL     OW24169   6.602   5.017   1.511
 7757SOL    HW124170   6.553   4.932   1.526
 7757SOL    HW224171   6.536   5.092   1.501
 7758SOL     OW24172   1.349   6.660   5.867
 7758SOL    HW124173   1.412   6.699   5.800
 7758SOL    HW224174   1.383   6.677   5.959
 7759SOL     OW24175   2.554   1.232   5.582
 7759SOL    HW124176   2.500   1.165   5.633
 7759SOL    HW224177   2.598   1.294   5.646
 7760SOL     OW24178   5.312   2.124   2.325
 7760SOL    HW124179   5.320   2.203   2.386
 7760SOL    HW224180   5.222   2.125   2.282
 7761SOL     OW24181   6.848   5.984   4.742
 7761SOL    HW124182   6.797   5.958   4.660
 7761SOL    HW224183   6.926   5.922   4.755
 7762SOL     OW24184   1.996   0.066   3.739
 7762SOL    HW124185   2.051   0.149   3.748
 7762SOL    HW224186   1.900   0.091   3.722
 7763SOL     OW24187   2.479   6.794   6.439
 7763SOL    HW124188   2.431   6.858   6.378
 7763SOL    HW224189   2.543   6.739   6.385
 7764SOL     OW24190   3.163   4.056   6.066
 7764SOL    HW124191   3.165   4.099   6.156
 7764SOL    HW224192   3.256   4.034   6.037
 7765SOL     OW24193   6.294   3.158   5.229
 7765SOL    HW124194   6.326   3.241   5.183
 7765SOL    HW224195   6.359   3.131   5.300
 7766SOL     OW24196   6.819   4.114   0.756
 7766SOL    HW124197   6.868   4.200   0.769
 7766SOL    HW224198   6.745   4.108   0.823
 7767SOL     OW24199   4.590   6.537   2.278
 7767SOL    HW124200   4.663   6.598   2.247
 7767SOL    HW224201   4.529   6.517   2.201
 7768SOL     OW24202   4.886   4.559   3.773
 7768SOL    HW124203   4.801   4.508   3.787
 7768SOL    HW224204   4.917   4.547   3.678
 7769SOL     OW24205   4.084   1.455   4.697
 7769SOL    HW124206   4.003   1.477   4.752
 7769SOL    HW224207   4.164   1.501   4.735
 7770SOL     OW24208   6.985   3.395   4.660
 7770SOL    HW124209   6.981   3.295   4.660
 7770SOL    HW224210   0.041   3.425   4.609
 7771SOL     OW24211   2.755   1.388   6.127
 7771SOL    HW124212   2.804   1.301   6.131
 7771SOL    HW224213   2.658   1.373   6.148
 7772SOL     OW24214   5.391   0.164   1.071
 7772SOL    HW124215   5.336   0.083   1.051
 7772SOL    HW224216   5.408   0.215   0.987
 7773SOL     OW24217   2.304   5.653   5.563
 7773SOL    HW124218   2.400   5.642   5.589
 7773SOL    HW224219   2.250   5.676   5.644
 7774SOL     OW24220   4.717   2.581   4.404
 7774SOL    HW124221   4.661   2.617   4.330
 7774SOL    HW224222   4.804   2.631   4.407
 7775SOL     OW24223   4.028   6.767   0.107
 7775SOL    HW124224   4.107   6.767   0.168
 7775SOL    HW224225   4.056   6.732   0.017
 7776SOL     OW24226   0.934   6.416   6.580
 7776SOL    HW124227   0.988   6.332   6.575
 7776SOL    HW224228   0.947   6.459   6.669
 7777SOL     OW24229   6.632   5.433   5.126
 7777SOL    HW124230   6.681   5.456   5.210
 7777SOL    HW224231   6.534   5.446   5.139
 7778SOL     OW24232   5.805   4.180   2.194
 7778SOL    HW124233   5.745   4.224   2.126
 7778SOL    HW224234   5.900   4.200   2.172
 7779SOL     OW24235   2.712   0.959   2.467
 7779SOL    HW124236   2.722   0.859   2.475
 7779SOL    HW224237   2.616   0.984   2.481
 7780SOL     OW24238   0.882   5.617   5.735
 7780SOL    HW124239   0.798   5.668   5.751
 7780SOL    HW224240   0.946   5.632   5.811
 7781SOL     OW24241   0.940   3.543   0.513
 7781SOL    HW124242   0.905   3.485   0.586
 7781SOL    HW224243   0.942   3.638   0.544
 7782SOL     OW24244   5.486   5.333   3.986
 7782SOL    HW124245   5.414   5.295   3.928
 7782SOL    HW224246   5.540   5.398   3.933
 7783SOL     OW24247   0.651   0.082   6.090
 7783SOL    HW124248   0.664   0.180   6.079
 7783SOL    HW224249   0.737   0.035   6.071
 7784SOL     OW24250   2.972   2.612   1.699
 7784SOL    HW124251   2.950   2.575   1.790
 7784SOL    HW224252   3.068   2.594   1.679
 7785SOL     OW24253   1.446   6.513   4.250
 7785SOL    HW124254   1.378   6.506   4.322
 7785SOL    HW224255   1.460   6.424   4.208
 7786SOL     OW24256   4.284   0.875   6.702
 7786SOL    HW124257   4.265   0.924   6.787
 7786SOL    HW224258   4.251   0.781   6.710
 7787SOL     OW24259   1.450   3.267   0.234
 7787SOL    HW124260   1.470   3.265   0.332
 7787SOL    HW224261   1.359   3.306   0.220
 7788SOL     OW24262   1.258   6.072   1.933
 7788SOL    HW124263   1.195   6.043   1.861
 7788SOL    HW224264   1.267   6.171   1.932
 7789SOL     OW24265   3.033   6.804   6.696
 7789SOL    HW124266   2.934   6.797   6.683
 7789SOL    HW224267   3.053   6.811   6.794
 7790SOL     OW24268   6.382   4.982   2.664
 7790SOL    HW124269   6.329   4.940   2.739
 7790SOL    HW224270   6.378   4.923   2.584
 7791SOL     OW24271   2.782   5.694   2.462
 7791SOL    HW124272   2.797   5.601   2.496
 7791SOL    HW224273   2.795   5.695   2.363
 7792SOL     OW24274   1.054   0.261   2.900
 7792SOL    HW124275   1.108   0.251   2.817
 7792SOL    HW224276   1.113   0.249   2.980
 7793SOL     OW24277   4.805   0.737   0.290
 7793SOL    HW124278   4.836   0.794   0.214
 7793SOL    HW224279   4.726   0.683   0.261
 7794SOL     OW24280   0.530   5.254   1.900
 7794SOL    HW124281   0.527   5.271   1.999
 7794SOL    HW224282   0.482   5.327   1.853
 7795SOL     OW24283   3.253   5.498   5.675
 7795SOL    HW124284   3.341   5.451   5.674
 7795SOL    HW224285   3.236   5.540   5.586
 7796SOL     OW24286   3.001   2.661   5.541
 7796SOL    HW124287   2.980   2.625   5.450
 7796SOL    HW224288   2.989   2.589   5.609
 7797SOL     OW24289   0.833   5.637   1.540
 7797SOL    HW124290   0.750   5.692   1.531
 7797SOL    HW224291   0.862   5.605   1.449
 7798SOL     OW24292   1.590   1.094   2.627
 7798SOL    HW124293   1.624   1.000   2.632
 7798SOL    HW224294   1.567   1.127   2.719
 7799SOL     OW24295   2.232   5.303   3.243
 7799SOL    HW124296   2.286   5.385   3.259
 7799SOL    HW224297   2.279   5.223   3.281
 7800SOL     OW24298   0.231   5.919   3.288
 7800SOL    HW124299   0.212   5.959   3.377
 7800SOL    HW224300   0.293   5.978   3.236
 7801SOL     OW24301   1.696   1.097   3.422
 7801SOL    HW124302   1.747   1.182   3.440
 7801SOL    HW224303   1.653   1.103   3.332
 7802SOL     OW24304   6.912   3.638   7.011
 7802SOL    HW124305   6.836   3.616   6.949
 7802SOL    HW224306   6.981   3.691   6.962
 7803SOL     OW24307   4.708   1.867   6.841
 7803SOL    HW124308   4.650   1.935   6.795
 7803SOL    HW224309   4.774   1.914   6.899
 7804SOL     OW24310   3.842   2.107   4.775
 7804SOL    HW124311   3.759   2.158   4.797
 7804SOL    HW224312   3.919   2.143   4.827
 7805SOL     OW24313   4.893   3.731   2.673
 7805SOL    HW124314   4.834   3.660   2.636
 7805SOL    HW224315   4.970   3.747   2.611
 7806SOL     OW24316   6.597   1.571   6.519
 7806SOL    HW124317   6.647   1.653   6.491
 7806SOL    HW224318   6.595   1.566   6.619
 7807SOL     OW24319   0.991   3.933   5.268
 7807SOL    HW124320   0.952   3.882   5.345
 7807SOL    HW224321   0.936   4.015   5.251
 7808SOL     OW24322   5.172   3.911   3.181
 7808SOL    HW124323   5.213   4.001   3.170
 7808SOL    HW224324   5.203   3.851   3.108
 7809SOL     OW24325   5.320   4.918   4.606
 7809SOL    HW124326   5.346   4.990   4.671
 7809SOL    HW224327   5.240   4.869   4.641
 7810SOL     OW24328   3.518   6.606   4.865
 7810SOL    HW124329   3.580   6.684   4.857
 7810SOL    HW224330   3.544   6.549   4.943
 7811SOL     OW24331   1.873   5.581   2.751
 7811SOL    HW124332   1.883   5.522   2.831
 7811SOL    HW224333   1.809   5.539   2.687
 7812SOL     OW24334   2.384   3.200   5.347
 7812SOL    HW124335   2.309   3.239   5.294
 7812SOL    HW224336   2.453   3.162   5.286
 7813SOL     OW24337   4.535   2.811   1.187
 7813SOL    HW124338   4.634   2.811   1.170
 7813SOL    HW224339   4.500   2.718   1.174
 7814SOL     OW24340   0.022   3.573   2.870
 7814SOL    HW124341   0.010   3.646   2.803
 7814SOL    HW224342   0.077   3.606   2.946
 7815SOL     OW24343   5.454   2.298   5.262
 7815SOL    HW124344   5.487   2.204   5.249
 7815SOL    HW224345   5.360   2.295   5.296
 7816SOL     OW24346   0.507   2.532   5.989
 7816SOL    HW124347   0.599   2.559   6.019
 7816SOL    HW224348   0.494   2.560   5.894
 7817SOL     OW24349   4.668   3.683   5.595
 7817SOL    HW124350   4.681   3.596   5.548
 7817SOL    HW224351   4.614   3.744   5.537
 7818SOL     OW24352   4.918   1.001   2.805
 7818SOL    HW124353   4.962   0.920   2.767
 7818SOL    HW224354   4.820   0.984   2.817
 7819SOL     OW24355   0.153   3.416   3.405
 7819SOL    HW124356   0.209   3.358   3.345
 7819SOL    HW224357   0.211   3.487   3.446
 7820SOL     OW24358   2.079   0.926   5.639
 7820SOL    HW124359   2.033   0.997   5.585
 7820SOL    HW224360   2.173   0.955   5.659
 7821SOL     OW24361   5.229   5.796   0.493
 7821SOL    HW124362   5.232   5.769   0.589
 7821SOL    HW224363   5.179   5.727   0.441
 7822SOL     OW24364   1.109   1.675   5.990
 7822SOL    HW124365   1.168   1.603   6.028
 7822SOL    HW224366   1.013   1.649   6.003
 7823SOL     OW24367   1.466   4.178   6.242
 7823SOL    HW124368   1.552   4.141   6.207
 7823SOL    HW224369   1.435   4.252   6.182
 7824SOL     OW24370   6.236   0.449   4.706
 7824SOL    HW124371   6.286   0.534   4.720
 7824SOL    HW224372   6.240   0.423   4.610
 7825SOL     OW24373   2.100   2.729   1.468
 7825SOL    HW124374   2.166   2.787   1.516
 7825SOL    HW224375   2.120   2.731   1.370
 7826SOL     OW24376   4.930   2.034   6.533
 7826SOL    HW124377   4.898   2.060   6.442
 7826SOL    HW224378   4.920   1.936   6.546
 7827SOL     OW24379   3.271   5.009   1.227
 7827SOL    HW124380   3.367   4.994   1.206
 7827SOL    HW224381   3.261   5.092   1.282
 7828SOL     OW24382   0.319   5.172   0.603
 7828SOL    HW124383   0.300   5.109   0.528
 7828SOL    HW224384   0.308   5.266   0.571
 7829SOL     OW24385   1.919   3.197   1.334
 7829SOL    HW124386   1.991   3.179   1.401
 7829SOL    HW224387   1.831   3.202   1.379
 7830SOL     OW24388   5.522   3.836   5.985
 7830SOL    HW124389   5.437   3.881   6.013
 7830SOL    HW224390   5.503   3.743   5.955
 7831SOL     OW24391   1.259   5.105   0.258
 7831SOL    HW124392   1.279   5.186   0.202
 7831SOL    HW224393   1.232   5.029   0.198
 7832SOL     OW24394   3.516   0.794   4.537
 7832SOL    HW124395   3.507   0.727   4.463
 7832SOL    HW224396   3.613   0.809   4.556
 7833SOL     OW24397   0.525   1.159   0.611
 7833SOL    HW124398   0.467   1.135   0.532
 7833SOL    HW224399   0.550   1.076   0.660
 7834SOL     OW24400   0.294   1.403   2.546
 7834SOL    HW124401   0.279   1.463   2.624
 7834SOL    HW224402   0.378   1.429   2.499
 7835SOL     OW24403   2.327   2.606   5.149
 7835SOL    HW124404   2.357   2.670   5.220
 7835SOL    HW224405   2.377   2.624   5.065
 7836SOL     OW24406   3.339   0.830   5.939
 7836SOL    HW124407   3.300   0.816   6.030
 7836SOL    HW224408   3.264   0.834   5.872
 7837SOL     OW24409   6.651   6.190   1.465
 7837SOL    HW124410   6.608   6.279   1.476
 7837SOL    HW224411   6.735   6.186   1.520
 7838SOL     OW24412   4.393   6.307   6.533
 7838SOL    HW124413   4.361   6.380   6.594
 7838SOL    HW224414   4.361   6.325   6.440
 7839SOL     OW24415   6.605   4.313   4.821
 7839SOL    HW124416   6.654   4.238   4.863
 7839SOL    HW224417   6.521   4.278   4.778
 7840SOL     OW24418   4.881   3.806   3.783
 7840SOL    HW124419   4.855   3.863   3.861
 7840SOL    HW224420   4.852   3.850   3.698
 7841SOL     OW24421   5.763   1.559   6.400
 7841SOL    HW124422   5.809   1.546   6.312
 7841SOL    HW224423   5.827   1.597   6.466
 7842SOL     OW24424   1.400   1.069   3.345
 7842SOL    HW124425   1.449   1.035   3.425
 7842SOL    HW224426   1.374   1.165   3.360
 7843SOL     OW24427   5.784   4.804   1.761
 7843SOL    HW124428   5.792   4.763   1.670
 7843SOL    HW224429   5.735   4.741   1.821
 7844SOL     OW24430   4.497   0.614   3.750
 7844SOL    HW124431   4.505   0.691   3.814
 7844SOL    HW224432   4.515   0.528   3.798
 7845SOL     OW24433   0.541   0.888   4.214
 7845SOL    HW124434   0.582   0.845   4.134
 7845SOL    HW224435   0.470   0.952   4.184
 7846SOL     OW24436   2.126   0.329   1.678
 7846SOL    HW124437   2.215   0.368   1.657
 7846SOL    HW224438   2.132   0.229   1.674
 7847SOL     OW24439   0.540   2.102   1.165
 7847SOL    HW124440   0.559   2.069   1.258
 7847SOL    HW224441   0.545   2.025   1.101
 7848SOL     OW24442   3.156   4.465   1.180
 7848SOL    HW124443   3.208   4.386   1.213
 7848SOL    HW224444   3.216   4.543   1.169
 7849SOL     OW24445   5.585   3.793   4.451
 7849SOL    HW124446   5.489   3.776   4.429
 7849SOL    HW224447   5.598   3.890   4.470
 7850SOL     OW24448   0.595   0.641   3.736
 7850SOL    HW124449   0.676   0.586   3.755
 7850SOL    HW224450   0.604   0.683   3.645
 7851SOL     OW24451   6.741   6.778   0.778
 7851SOL    HW124452   6.815   6.841   0.803
 7851SOL    HW224453   6.781   6.689   0.756
 7852SOL     OW24454   3.174   6.545   6.464
 7852SOL    HW124455   3.176   6.641   6.492
 7852SOL    HW224456   3.264   6.519   6.429
 7853SOL     OW24457   3.960   1.762   1.277
 7853SOL    HW124458   3.973   1.722   1.186
 7853SOL    HW224459   4.047   1.760   1.326
 7854SOL     OW24460   3.578   4.674   0.753
 7854SOL    HW124461   3.570   4.711   0.660
 7854SOL    HW224462   3.637   4.593   0.752
 7855SOL     OW24463   4.502   5.754   6.064
 7855SOL    HW124464   4.451   5.668   6.067
 7855SOL    HW224465   4.576   5.747   5.997
 7856SOL     OW24466   6.123   4.988   4.043
 7856SOL    HW124467   6.190   4.960   4.111
 7856SOL    HW224468   6.156   4.963   3.952
 7857SOL     OW24469   6.850   2.503   5.611
 7857SOL    HW124470   6.943   2.471   5.625
 7857SOL    HW224471   6.842   2.598   5.642
 7858SOL     OW24472   4.951   5.210   3.452
 7858SOL    HW124473   4.886   5.146   3.411
 7858SOL    HW224474   5.000   5.165   3.527
 7859SOL     OW24475   6.619   4.251   6.069
 7859SOL    HW124476   6.650   4.261   5.975
 7859SOL    HW224477   6.525   4.217   6.069
 7860SOL     OW24478   4.030   5.996   2.571
 7860SOL    HW124479   3.944   6.046   2.582
 7860SOL    HW224480   4.010   5.900   2.550
 7861SOL     OW24481   4.310   5.461   2.286
 7861SOL    HW124482   4.398   5.429   2.320
 7861SOL    HW224483   4.253   5.491   2.363
 7862SOL     OW24484   3.132   4.286   1.633
 7862SOL    HW124485   3.074   4.308   1.712
 7862SOL    HW224486   3.123   4.357   1.564
 7863SOL     OW24487   0.257   6.033   3.864
 7863SOL    HW124488   0.336   5.990   3.907
 7863SOL    HW224489   0.228   5.980   3.785
 7864SOL     OW24490   6.850   6.100   5.953
 7864SOL    HW124491   6.890   6.191   5.941
 7864SOL    HW224492   6.914   6.041   6.001
 7865SOL     OW24493   4.665   6.723   4.071
 7865SOL    HW124494   4.587   6.726   4.009
 7865SOL    HW224495   4.652   6.649   4.137
 7866SOL     OW24496   2.331   2.099   1.223
 7866SOL    HW124497   2.416   2.060   1.259
 7866SOL    HW224498   2.255   2.074   1.283
 7867SOL     OW24499   5.763   5.060   2.643
 7867SOL    HW124500   5.788   4.967   2.614
 7867SOL    HW224501   5.664   5.071   2.636
 7868SOL     OW24502   5.345   6.781   2.658
 7868SOL    HW124503   5.281   6.804   2.584
 7868SOL    HW224504   5.319   6.829   2.741
 7869SOL     OW24505   6.391   3.706   0.793
 7869SOL    HW124506   6.349   3.656   0.869
 7869SOL    HW224507   6.483   3.669   0.776
 7870SOL     OW24508   5.425   6.305   3.794
 7870SOL    HW124509   5.464   6.264   3.877
 7870SOL    HW224510   5.499   6.334   3.734
 7871SOL     OW24511   5.861   4.251   2.943
 7871SOL    HW124512   5.919   4.273   2.865
 7871SOL    HW224513   5.917   4.242   3.025
 7872SOL     OW24514   1.069   4.312   1.668
 7872SOL    HW124515   0.986   4.318   1.722
 7872SOL    HW224516   1.147   4.294   1.727
 7873SOL     OW24517   5.679   0.086   5.586
 7873SOL    HW124518   5.673   0.010   5.650
 7873SOL    HW224519   5.701   0.052   5.495
 7874SOL     OW24520   5.677   1.224   0.192
 7874SOL    HW124521   5.714   1.156   0.256
 7874SOL    HW224522   5.655   1.308   0.242
 7875SOL     OW24523   3.825   3.381   6.683
 7875SOL    HW124524   3.778   3.412   6.600
 7875SOL    HW224525   3.771   3.310   6.728
 7876SOL     OW24526   0.091   6.631   4.674
 7876SOL    HW124527   0.039   6.629   4.588
 7876SOL    HW224528   0.151   6.551   4.677
 7877SOL     OW24529   0.749   3.001   2.380
 7877SOL    HW124530   0.830   3.024   2.325
 7877SOL    HW224531   0.668   3.002   2.322
 7878SOL     OW24532   4.659   4.836   3.781
 7878SOL    HW124533   4.638   4.745   3.744
 7878SOL    HW224534   4.575   4.888   3.792
 7879SOL     OW24535   4.630   6.251   3.205
 7879SOL    HW124536   4.708   6.304   3.238
 7879SOL    HW224537   4.565   6.236   3.279
 7880SOL     OW24538   0.138   5.960   1.331
 7880SOL    HW124539   0.237   5.957   1.318
 7880SOL    HW224540   0.094   5.890   1.274
 7881SOL     OW24541   6.459   3.420   4.916
 7881SOL    HW124542   6.383   3.377   4.964
 7881SOL    HW224543   6.445   3.519   4.912
 7882SOL     OW24544   1.898   2.606   3.791
 7882SOL    HW124545   1.925   2.658   3.873
 7882SOL    HW224546   1.828   2.540   3.817
 7883SOL     OW24547   1.822   0.316   1.369
 7883SOL    HW124548   1.742   0.258   1.355
 7883SOL    HW224549   1.801   0.384   1.440
 7884SOL     OW24550   1.209   4.215   3.825
 7884SOL    HW124551   1.260   4.299   3.841
 7884SOL    HW224552   1.218   4.154   3.903
 7885SOL     OW24553   5.509   6.034   2.776
 7885SOL    HW124554   5.575   5.965   2.805
 7885SOL    HW224555   5.558   6.115   2.743
 7886SOL     OW24556   4.803   3.615   1.046
 7886SOL    HW124557   4.732   3.645   0.982
 7886SOL    HW224558   4.872   3.686   1.056
 7887SOL     OW24559   3.404   2.795   5.168
 7887SOL    HW124560   3.373   2.714   5.218
 7887SOL    HW224561   3.498   2.816   5.194
 7888SOL     OW24562   0.395   0.428   4.922
 7888SOL    HW124563   0.464   0.373   4.969
 7888SOL    HW224564   0.375   0.387   4.833
 7889SOL     OW24565   0.485   5.228   6.548
 7889SOL    HW124566   0.553   5.208   6.476
 7889SOL    HW224567   0.522   5.201   6.637
 7890SOL     OW24568   0.798   3.410   4.141
 7890SOL    HW124569   0.833   3.389   4.050
 7890SOL    HW224570   0.864   3.380   4.210
 7891SOL     OW24571   0.935   3.651   4.598
 7891SOL    HW124572   0.958   3.611   4.687
 7891SOL    HW224573   0.910   3.747   4.610
 7892SOL     OW24574   1.180   2.090   4.442
 7892SOL    HW124575   1.084   2.119   4.440
 7892SOL    HW224576   1.198   2.028   4.365
 7893SOL     OW24577   5.758   6.013   2.321
 7893SOL    HW124578   5.678   5.995   2.377
 7893SOL    HW224579   5.799   6.100   2.348
 7894SOL     OW24580   3.180   0.847   0.431
 7894SOL    HW124581   3.105   0.902   0.393
 7894SOL    HW224582   3.267   0.879   0.393
 7895SOL     OW24583   3.841   6.355   4.714
 7895SOL    HW124584   3.864   6.422   4.784
 7895SOL    HW224585   3.890   6.377   4.629
 7896SOL     OW24586   5.419   2.941   1.505
 7896SOL    HW124587   5.343   2.916   1.565
 7896SOL    HW224588   5.388   3.009   1.439
 7897SOL     OW24589   3.132   3.209   6.857
 7897SOL    HW124590   3.034   3.223   6.846
 7897SOL    HW224591   3.152   3.111   6.858
 7898SOL     OW24592   4.354   0.245   3.721
 7898SOL    HW124593   4.297   0.172   3.761
 7898SOL    HW224594   4.445   0.210   3.702
 7899SOL     OW24595   5.705   6.680   2.084
 7899SOL    HW124596   5.618   6.636   2.108
 7899SOL    HW224597   5.697   6.722   1.994
 7900SOL     OW24598   0.649   3.798   0.533
 7900SOL    HW124599   0.589   3.725   0.567
 7900SOL    HW224600   0.634   3.810   0.435
 7901SOL     OW24601   5.112   0.797   5.871
 7901SOL    HW124602   5.034   0.854   5.843
 7901SOL    HW224603   5.099   0.704   5.836
 7902SOL     OW24604   6.640   6.159   3.631
 7902SOL    HW124605   6.701   6.086   3.663
 7902SOL    HW224606   6.669   6.246   3.670
 7903SOL     OW24607   4.496   1.985   3.128
 7903SOL    HW124608   4.562   1.969   3.200
 7903SOL    HW224609   4.403   1.974   3.165
 7904SOL     OW24610   5.901   0.502   3.665
 7904SOL    HW124611   5.995   0.482   3.638
 7904SOL    HW224612   5.869   0.584   3.616
 7905SOL     OW24613   6.020   1.808   0.730
 7905SOL    HW124614   6.021   1.885   0.665
 7905SOL    HW224615   5.938   1.814   0.787
 7906SOL     OW24616   1.183   5.670   0.701
 7906SOL    HW124617   1.168   5.708   0.792
 7906SOL    HW224618   1.188   5.570   0.707
 7907SOL     OW24619   5.958   1.000   3.104
 7907SOL    HW124620   5.899   0.954   3.038
 7907SOL    HW224621   6.041   0.945   3.118
 7908SOL     OW24622   1.140   1.382   6.519
 7908SOL    HW124623   1.124   1.331   6.435
 7908SOL    HW224624   1.236   1.372   6.547
 7909SOL     OW24625   4.780   4.176   3.624
 7909SOL    HW124626   4.871   4.136   3.625
 7909SOL    HW224627   4.759   4.211   3.533
 7910SOL     OW24628   1.726   3.570   1.094
 7910SOL    HW124629   1.739   3.472   1.083
 7910SOL    HW224630   1.766   3.600   1.181
 7911SOL     OW24631   0.756   4.035   1.462
 7911SOL    HW124632   0.840   4.003   1.506
 7911SOL    HW224633   0.780   4.094   1.384
 7912SOL     OW24634   5.167   4.174   0.708
 7912SOL    HW124635   5.181   4.087   0.754
 7912SOL    HW224636   5.169   4.248   0.776
 7913SOL     OW24637   1.551   4.538   1.039
 7913SOL    HW124638   1.622   4.533   0.970
 7913SOL    HW224639   1.526   4.446   1.069
 7914SOL     OW24640   0.351   4.401   0.753
 7914SOL    HW124641   0.451   4.394   0.751
 7914SOL    HW224642   0.324   4.491   0.719
 7915SOL     OW24643   4.572   1.889   2.731
 7915SOL    HW124644   4.514   1.834   2.791
 7915SOL    HW224645   4.598   1.834   2.651
 7916SOL     OW24646   0.692   6.825   5.248
 7916SOL    HW124647   0.728   6.912   5.281
 7916SOL    HW224648   0.632   6.786   5.317
 7917SOL     OW24649   4.236   2.877   5.387
 7917SOL    HW124650   4.143   2.910   5.370
 7917SOL    HW224651   4.290   2.951   5.428
 7918SOL     OW24652   0.320   1.011   5.061
 7918SOL    HW124653   0.237   0.958   5.078
 7918SOL    HW224654   0.396   0.949   5.040
 7919SOL     OW24655   1.074   4.796   1.895
 7919SOL    HW124656   1.155   4.767   1.947
 7919SOL    HW224657   0.991   4.763   1.941
 7920SOL     OW24658   5.292   0.627   1.706
 7920SOL    HW124659   5.324   0.703   1.762
 7920SOL    HW224660   5.259   0.662   1.618
 7921SOL     OW24661   5.628   0.428   1.743
 7921SOL    HW124662   5.720   0.400   1.716
 7921SOL    HW224663   5.609   0.396   1.836
 7922SOL     OW24664   0.448   6.323   0.225
 7922SOL    HW124665   0.434   6.395   0.157
 7922SOL    HW224666   0.491   6.362   0.306
 7923SOL     OW24667   3.568   1.746   6.218
 7923SOL    HW124668   3.564   1.656   6.262
 7923SOL    HW224669   3.662   1.764   6.188
 7924SOL     OW24670   4.654   0.333   1.670
 7924SOL    HW124671   4.628   0.266   1.739
 7924SOL    HW224672   4.745   0.369   1.691
 7925SOL     OW24673   1.299   6.980   0.920
 7925SOL    HW124674   1.242   0.036   0.929
 7925SOL    HW224675   1.278   6.916   0.994
 7926SOL     OW24676   4.929   1.389   6.564
 7926SOL    HW124677   4.925   1.334   6.481
 7926SOL    HW224678   5.025   1.409   6.585
 7927SOL     OW24679   4.693   0.046   1.808
 7927SOL    HW124680   4.663   0.017   1.717
 7927SOL    HW224681   4.646   7.018   1.877
 7928SOL     OW24682   0.272   1.696   3.560
 7928SOL    HW124683   0.255   1.781   3.610
 7928SOL    HW224684   0.252   1.709   3.463
 7929SOL     OW24685   3.785   3.832   6.107
 7929SOL    HW124686   3.843   3.785   6.041
 7929SOL    HW224687   3.690   3.830   6.076
 7930SOL     OW24688   3.675   5.468   6.393
 7930SOL    HW124689   3.721   5.457   6.481
 7930SOL    HW224690   3.739   5.447   6.319
 7931SOL     OW24691   3.950   2.876   0.612
 7931SOL    HW124692   3.926   2.924   0.528
 7931SOL    HW224693   4.046   2.849   0.609
 7932SOL     OW24694   1.098   4.839   0.730
 7932SOL    HW124695   1.192   4.832   0.762
 7932SOL    HW224696   1.053   4.918   0.771
 7933SOL     OW24697   6.815   0.079   6.035
 7933SOL    HW124698   6.902   0.096   5.989
 7933SOL    HW224699   6.785   0.162   6.082
 7934SOL     OW24700   1.488   4.797   7.011
 7934SOL    HW124701   1.512   4.894   7.018
 7934SOL    HW224702   1.394   4.789   6.977
 7935SOL     OW24703   5.344   5.714   2.183
 7935SOL    HW124704   5.351   5.627   2.134
 7935SOL    HW224705   5.266   5.765   2.148
 7936SOL     OW24706   2.990   5.463   3.253
 7936SOL    HW124707   3.054   5.524   3.207
 7936SOL    HW224708   3.019   5.368   3.240
 7937SOL     OW24709   1.840   5.793   4.266
 7937SOL    HW124710   1.849   5.724   4.337
 7937SOL    HW224711   1.912   5.780   4.198
 7938SOL     OW24712   5.470   5.728   5.114
 7938SOL    HW124713   5.504   5.821   5.099
 7938SOL    HW224714   5.405   5.704   5.042
 7939SOL     OW24715   1.409   1.627   5.877
 7939SOL    HW124716   1.376   1.559   5.943
 7939SOL    HW224717   1.394   1.594   5.784
 7940SOL     OW24718   3.291   1.886   2.744
 7940SOL    HW124719   3.332   1.918   2.658
 7940SOL    HW224720   3.359   1.835   2.796
 7941SOL     OW24721   5.232   6.563   2.839
 7941SOL    HW124722   5.176   6.645   2.850
 7941SOL    HW224723   5.298   6.578   2.765
 7942SOL     OW24724   1.240   3.082   3.219
 7942SOL    HW124725   1.243   3.070   3.120
 7942SOL    HW224726   1.238   3.180   3.240
 7943SOL     OW24727   0.720   4.307   5.788
 7943SOL    HW124728   0.673   4.219   5.798
 7943SOL    HW224729   0.816   4.296   5.812
 7944SOL     OW24730   0.512   2.800   1.692
 7944SOL    HW124731   0.512   2.704   1.665
 7944SOL    HW224732   0.593   2.845   1.655
 7945SOL     OW24733   6.568   5.452   2.571
 7945SOL    HW124734   6.595   5.544   2.597
 7945SOL    HW224735   6.489   5.424   2.626
 7946SOL     OW24736   3.526   6.689   5.928
 7946SOL    HW124737   3.607   6.657   5.878
 7946SOL    HW224738   3.522   6.789   5.925
 7947SOL     OW24739   2.343   2.107   5.490
 7947SOL    HW124740   2.299   2.195   5.508
 7947SOL    HW224741   2.299   2.063   5.413
 7948SOL     OW24742   0.954   5.385   0.704
 7948SOL    HW124743   1.053   5.386   0.707
 7948SOL    HW224744   0.922   5.298   0.666
 7949SOL     OW24745   4.568   4.247   6.156
 7949SOL    HW124746   4.550   4.160   6.109
 7949SOL    HW224747   4.636   4.299   6.104
 7950SOL     OW24748   4.720   5.897   4.462
 7950SOL    HW124749   4.710   5.959   4.539
 7950SOL    HW224750   4.643   5.909   4.399
 7951SOL     OW24751   2.126   5.193   2.040
 7951SOL    HW124752   2.117   5.094   2.029
 7951SOL    HW224753   2.209   5.224   1.994
 7952SOL     OW24754   0.007   3.384   7.018
 7952SOL    HW124755   7.012   3.383   6.920
 7952SOL    HW224756   6.979   3.457   0.038
 7953SOL     OW24757   4.437   2.267   1.881
 7953SOL    HW124758   4.368   2.268   1.953
 7953SOL    HW224759   4.433   2.352   1.829
 7954SOL     OW24760   3.798   4.188   6.333
 7954SOL    HW124761   3.757   4.277   6.314
 7954SOL    HW224762   3.728   4.117   6.324
 7955SOL     OW24763   2.271   1.409   6.893
 7955SOL    HW124764   2.328   1.345   6.842
 7955SOL    HW224765   2.190   1.432   6.840
 7956SOL     OW24766   5.371   1.525   1.737
 7956SOL    HW124767   5.362   1.440   1.685
 7956SOL    HW224768   5.435   1.511   1.813
 7957SOL     OW24769   2.005   1.139   0.088
 7957SOL    HW124770   2.059   1.221   0.105
 7957SOL    HW224771   2.001   1.084   0.171
 7958SOL     OW24772   5.434   4.138   5.706
 7958SOL    HW124773   5.463   4.047   5.677
 7958SOL    HW224774   5.335   4.145   5.701
 7959SOL     OW24775   5.346   6.956   0.012
 7959SOL    HW124776   5.254   6.993   0.021
 7959SOL    HW224777   5.398   6.974   0.095
 7960SOL     OW24778   1.349   1.229   5.748
 7960SOL    HW124779   1.427   1.169   5.761
 7960SOL    HW224780   1.267   1.186   5.786
 7961SOL     OW24781   6.206   0.141   0.662
 7961SOL    HW124782   6.209   0.235   0.628
 7961SOL    HW224783   6.289   0.121   0.713
 7962SOL     OW24784   0.381   1.776   5.752
 7962SOL    HW124785   0.433   1.861   5.739
 7962SOL    HW224786   0.366   1.761   5.849
 7963SOL     OW24787   6.370   5.601   4.080
 7963SOL    HW124788   6.303   5.553   4.137
 7963SOL    HW224789   6.462   5.575   4.109
 7964SOL     OW24790   6.002   2.936   2.335
 7964SOL    HW124791   6.097   2.907   2.345
 7964SOL    HW224792   5.959   2.938   2.426
 7965SOL     OW24793   4.053   2.236   6.308
 7965SOL    HW124794   4.097   2.280   6.387
 7965SOL    HW224795   4.103   2.260   6.225
 7966SOL     OW24796   3.735   2.679   5.903
 7966SOL    HW124797   3.830   2.648   5.909
 7966SOL    HW224798   3.703   2.672   5.808
 7967SOL     OW24799   1.887   5.700   1.918
 7967SOL    HW124800   1.855   5.775   1.859
 7967SOL    HW224801   1.965   5.732   1.972
 7968SOL     OW24802   6.429   2.221   4.806
 7968SOL    HW124803   6.495   2.148   4.819
 7968SOL    HW224804   6.436   2.287   4.881
 7969SOL     OW24805   5.466   6.292   1.018
 7969SOL    HW124806   5.510   6.331   0.937
 7969SOL    HW224807   5.530   6.293   1.095
 7970SOL     OW24808   6.258   3.628   2.354
 7970SOL    HW124809   6.227   3.534   2.365
 7970SOL    HW224810   6.342   3.629   2.299
 7971SOL     OW24811   3.147   1.310   1.320
 7971SOL    HW124812   3.247   1.315   1.324
 7971SOL    HW224813   3.120   1.221   1.283
 7972SOL     OW24814   3.301   3.448   1.755
 7972SOL    HW124815   3.395   3.438   1.787
 7972SOL    HW224816   3.256   3.520   1.809
 7973SOL     OW24817   5.404   4.195   4.742
 7973SOL    HW124818   5.390   4.097   4.750
 7973SOL    HW224819   5.432   4.232   4.831
 7974SOL     OW24820   6.221   0.951   5.833
 7974SOL    HW124821   6.220   1.018   5.907
 7974SOL    HW224822   6.139   0.894   5.838
 7975SOL     OW24823   5.129   0.271   1.144
 7975SOL    HW124824   5.219   0.228   1.157
 7975SOL    HW224825   5.079   0.221   1.073
 7976SOL     OW24826   1.197   0.233   6.196
 7976SOL    HW124827   1.274   0.291   6.221
 7976SOL    HW224828   1.208   0.143   6.239
 7977SOL     OW24829   4.365   5.857   2.424
 7977SOL    HW124830   4.449   5.881   2.375
 7977SOL    HW224831   4.286   5.895   2.376
 7978SOL     OW24832   0.176   2.609   6.221
 7978SOL    HW124833   0.205   2.649   6.308
 7978SOL    HW224834   0.168   2.681   6.152
 7979SOL     OW24835   1.806   4.755   5.518
 7979SOL    HW124836   1.803   4.848   5.555
 7979SOL    HW224837   1.849   4.756   5.428
 7980SOL     OW24838   2.790   5.073   6.628
 7980SOL    HW124839   2.846   5.154   6.647
 7980SOL    HW224840   2.798   5.049   6.531
 7981SOL     OW24841   0.590   5.071   1.684
 7981SOL    HW124842   0.663   5.010   1.716
 7981SOL    HW224843   0.561   5.129   1.760
 7982SOL     OW24844   1.350   1.865   6.055
 7982SOL    HW124845   1.293   1.801   6.004
 7982SOL    HW224846   1.380   1.822   6.140
 7983SOL     OW24847   6.583   2.140   1.045
 7983SOL    HW124848   6.619   2.199   1.117
 7983SOL    HW224849   6.484   2.128   1.058
 7984SOL     OW24850   0.298   1.541   0.499
 7984SOL    HW124851   0.301   1.603   0.577
 7984SOL    HW224852   0.390   1.511   0.476
 7985SOL     OW24853   2.463   1.692   4.690
 7985SOL    HW124854   2.461   1.605   4.738
 7985SOL    HW224855   2.470   1.767   4.757
 7986SOL     OW24856   2.987   0.714   6.025
 7986SOL    HW124857   2.957   0.799   6.068
 7986SOL    HW224858   2.911   0.673   5.975
 7987SOL     OW24859   1.859   3.070   0.535
 7987SOL    HW124860   1.942   3.038   0.582
 7987SOL    HW224861   1.885   3.112   0.448
 7988SOL     OW24862   1.295   0.809   2.575
 7988SOL    HW124863   1.313   0.804   2.673
 7988SOL    HW224864   1.246   0.894   2.554
 7989SOL     OW24865   2.584   3.204   0.149
 7989SOL    HW124866   2.530   3.275   0.104
 7989SOL    HW224867   2.552   3.194   0.244
 7990SOL     OW24868   2.670   5.346   4.649
 7990SOL    HW124869   2.607   5.422   4.663
 7990SOL    HW224870   2.624   5.276   4.594
 7991SOL     OW24871   6.101   1.862   3.864
 7991SOL    HW124872   6.043   1.873   3.784
 7991SOL    HW224873   6.055   1.803   3.931
 7992SOL     OW24874   1.516   0.463   0.425
 7992SOL    HW124875   1.463   0.403   0.485
 7992SOL    HW224876   1.487   0.558   0.439
 7993SOL     OW24877   0.247   0.113   1.439
 7993SOL    HW124878   0.285   0.022   1.422
 7993SOL    HW224879   0.232   0.125   1.538
 7994SOL     OW24880   4.500   0.535   3.094
 7994SOL    HW124881   4.564   0.611   3.093
 7994SOL    HW224882   4.459   0.525   3.185
 7995SOL     OW24883   6.007   5.249   3.191
 7995SOL    HW124884   5.927   5.283   3.240
 7995SOL    HW224885   6.078   5.223   3.257
 7996SOL     OW24886   3.680   6.128   4.724
 7996SOL    HW124887   3.742   6.201   4.694
 7996SOL    HW224888   3.599   6.128   4.666
 7997SOL     OW24889   6.794   1.751   0.257
 7997SOL    HW124890   6.777   1.835   0.308
 7997SOL    HW224891   6.878   1.707   0.291
 7998SOL     OW24892   3.563   6.870   6.681
 7998SOL    HW124893   3.485   6.889   6.622
 7998SOL    HW224894   3.554   6.779   6.721
 7999SOL     OW24895   0.947   1.102   6.002
 7999SOL    HW124896   0.884   1.066   6.070
 7999SOL    HW224897   0.898   1.160   5.938
 8000SOL     OW24898   5.518   6.578   6.153
 8000SOL    HW124899   5.605   6.618   6.124
 8000SOL    HW224900   5.476   6.529   6.077
 8001SOL     OW24901   4.179   5.974   1.589
 8001SOL    HW124902   4.276   5.987   1.609
 8001SOL    HW224903   4.138   5.913   1.657
 8002SOL     OW24904   0.733   0.473   5.798
 8002SOL    HW124905   0.827   0.480   5.832
 8002SOL    HW224906   0.683   0.555   5.823
 8003SOL     OW24907   2.203   5.494   1.742
 8003SOL    HW124908   2.224   5.493   1.840
 8003SOL    HW224909   2.107   5.519   1.729
 8004SOL     OW24910   1.831   3.877   3.319
 8004SOL    HW124911   1.829   3.799   3.381
 8004SOL    HW224912   1.793   3.850   3.230
 8005SOL     OW24913   2.167   0.132   3.495
 8005SOL    HW124914   2.175   0.055   3.558
 8005SOL    HW224915   2.161   0.218   3.546
 8006SOL     OW24916   2.536   6.094   5.204
 8006SOL    HW124917   2.505   6.018   5.262
 8006SOL    HW224918   2.579   6.164   5.261
 8007SOL     OW24919   6.111   1.725   6.380
 8007SOL    HW124920   6.105   1.769   6.470
 8007SOL    HW224921   6.193   1.669   6.375
 8008SOL     OW24922   3.568   5.958   6.561
 8008SOL    HW124923   3.629   5.886   6.528
 8008SOL    HW224924   3.476   5.944   6.524
 8009SOL     OW24925   4.637   0.802   0.514
 8009SOL    HW124926   4.697   0.758   0.447
 8009SOL    HW224927   4.649   0.758   0.603
 8010SOL     OW24928   2.330   2.127   5.061
 8010SOL    HW124929   2.238   2.125   5.100
 8010SOL    HW224930   2.397   2.119   5.134
 8011SOL     OW24931   3.626   2.023   1.272
 8011SOL    HW124932   3.653   2.084   1.346
 8011SOL    HW224933   3.526   2.017   1.269
 8012SOL     OW24934   1.440   2.770   6.999
 8012SOL    HW124935   1.442   2.869   7.017
 8012SOL    HW224936   1.519   2.744   6.943
 8013SOL     OW24937   1.664   4.383   3.378
 8013SOL    HW124938   1.579   4.345   3.341
 8013SOL    HW224939   1.704   4.319   3.443
 8014SOL     OW24940   2.127   0.335   4.663
 8014SOL    HW124941   2.150   0.237   4.659
 8014SOL    HW224942   2.207   0.386   4.693
 8015SOL     OW24943   1.918   0.465   6.130
 8015SOL    HW124944   1.828   0.508   6.132
 8015SOL    HW224945   1.959   0.478   6.039
 8016SOL     OW24946   4.211   1.159   5.090
 8016SOL    HW124947   4.271   1.090   5.130
 8016SOL    HW224948   4.126   1.164   5.142
 8017SOL     OW24949   6.599   6.905   0.036
 8017SOL    HW124950   6.650   6.846   0.098
 8017SOL    HW224951   6.516   6.937   0.082
 8018SOL     OW24952   3.081   2.878   0.413
 8018SOL    HW124953   3.097   2.966   0.369
 8018SOL    HW224954   3.160   2.853   0.469
 8019SOL     OW24955   1.851   4.439   1.283
 8019SOL    HW124956   1.859   4.352   1.333
 8019SOL    HW224957   1.890   4.429   1.192
 8020SOL     OW24958   6.507   0.068   6.380
 8020SOL    HW124959   6.506   0.166   6.402
 8020SOL    HW224960   6.496   0.015   6.464
 8021SOL     OW24961   1.626   3.167   1.845
 8021SOL    HW124962   1.599   3.200   1.754
 8021SOL    HW224963   1.561   3.201   1.913
 8022SOL     OW24964   5.955   0.542   1.762
 8022SOL    HW124965   6.055   0.542   1.757
 8022SOL    HW224966   5.920   0.459   1.719
 8023SOL     OW24967   5.916   4.494   2.460
 8023SOL    HW124968   5.827   4.448   2.463
 8023SOL    HW224969   5.974   4.460   2.533
 8024SOL     OW24970   1.056   4.906   6.371
 8024SOL    HW124971   1.129   4.974   6.373
 8024SOL    HW224972   1.008   4.906   6.458
 8025SOL     OW24973   1.775   5.684   1.231
 8025SOL    HW124974   1.873   5.701   1.219
 8025SOL    HW224975   1.753   5.591   1.202
 8026SOL     OW24976   6.706   4.498   1.241
 8026SOL    HW124977   6.723   4.533   1.333
 8026SOL    HW224978   6.683   4.573   1.180
 8027SOL     OW24979   3.349   6.967   5.836
 8027SOL    HW124980   3.433   6.988   5.785
 8027SOL    HW224981   3.270   6.981   5.777
 8028SOL     OW24982   3.562   5.045   4.948
 8028SOL    HW124983   3.502   5.043   4.868
 8028SOL    HW224984   3.506   5.037   5.031
 8029SOL     OW24985   5.295   2.437   2.044
 8029SOL    HW124986   5.206   2.443   2.001
 8029SOL    HW224987   5.287   2.460   2.141
 8030SOL     OW24988   5.956   5.314   1.176
 8030SOL    HW124989   5.907   5.228   1.159
 8030SOL    HW224990   5.928   5.383   1.109
 8031SOL     OW24991   6.856   6.512   2.779
 8031SOL    HW124992   6.942   6.560   2.799
 8031SOL    HW224993   6.856   6.481   2.684
 8032SOL     OW24994   5.204   3.732   1.573
 8032SOL    HW124995   5.282   3.789   1.548
 8032SOL    HW224996   5.167   3.688   1.491
 8033SOL     OW24997   4.629   3.018   0.077
 8033SOL    HW124998   4.585   3.071   0.005
 8033SOL    HW224999   4.679   2.941   0.036
 8034SOL     OW25000   4.974   6.949   5.932
 8034SOL    HW125001   5.038   6.898   5.989
 8034SOL    HW225002   4.979   6.915   5.838
 8035SOL     OW25003   5.038   1.895   2.144
 8035SOL    HW125004   5.009   1.837   2.220
 8035SOL    HW225005   5.132   1.874   2.119
 8036SOL     OW25006   6.548   3.515   3.663
 8036SOL    HW125007   6.608   3.595   3.675
 8036SOL    HW225008   6.459   3.533   3.705
 8037SOL     OW25009   1.305   3.591   6.936
 8037SOL    HW125010   1.390   3.540   6.929
 8037SOL    HW225011   1.254   3.582   6.850
 8038SOL     OW25012   4.295   6.772   3.022
 8038SOL    HW125013   4.377   6.826   3.008
 8038SOL    HW225014   4.307   6.681   2.983
 8039SOL     OW25015   6.777   1.747   4.386
 8039SOL    HW125016   6.734   1.742   4.476
 8039SOL    HW225017   6.776   1.657   4.343
 8040SOL     OW25018   1.476   6.420   6.999
 8040SOL    HW125019   1.488   6.370   6.913
 8040SOL    HW225020   1.418   6.366   0.036
 8041SOL     OW25021   3.360   1.010   2.692
 8041SOL    HW125022   3.331   0.914   2.695
 8041SOL    HW225023   3.363   1.046   2.785
 8042SOL     OW25024   4.532   4.035   5.700
 8042SOL    HW125025   4.517   4.050   5.603
 8042SOL    HW225026   4.516   4.121   5.750
 8043SOL     OW25027   3.644   4.931   0.287
 8043SOL    HW125028   3.700   4.984   0.223
 8043SOL    HW225029   3.552   4.971   0.292
 8044SOL     OW25030   3.631   3.588   0.560
 8044SOL    HW125031   3.704   3.641   0.602
 8044SOL    HW225032   3.546   3.641   0.562
 8045SOL     OW25033   6.060   2.351   2.360
 8045SOL    HW125034   6.071   2.407   2.442
 8045SOL    HW225035   6.008   2.268   2.383
 8046SOL     OW25036   0.627   4.475   2.228
 8046SOL    HW125037   0.645   4.413   2.151
 8046SOL    HW225038   0.545   4.445   2.276
 8047SOL     OW25039   3.527   6.210   6.628
 8047SOL    HW125040   3.544   6.112   6.620
 8047SOL    HW225041   3.499   6.246   6.539
 8048SOL     OW25042   3.067   2.318   0.281
 8048SOL    HW125043   3.005   2.323   0.203
 8048SOL    HW225044   3.045   2.391   0.346
 8049SOL     OW25045   0.709   6.815   0.459
 8049SOL    HW125046   0.701   6.754   0.538
 8049SOL    HW225047   0.619   6.833   0.421
 8050SOL     OW25048   1.999   3.517   4.000
 8050SOL    HW125049   2.014   3.579   4.077
 8050SOL    HW225050   1.908   3.532   3.962
 8051SOL     OW25051   5.119   6.216   4.987
 8051SOL    HW125052   5.156   6.295   5.036
 8051SOL    HW225053   5.148   6.132   5.032
 8052SOL     OW25054   2.854   2.209   1.285
 8052SOL    HW125055   2.874   2.122   1.330
 8052SOL    HW225056   2.891   2.284   1.340
 8053SOL     OW25057   3.153   2.865   5.266
 8053SOL    HW125058   3.204   2.887   5.183
 8053SOL    HW225059   3.184   2.777   5.302
 8054SOL     OW25060   0.021   4.086   4.615
 8054SOL    HW125061   0.068   4.081   4.526
 8054SOL    HW225062   0.030   3.998   4.661
 8055SOL     OW25063   6.735   0.614   5.618
 8055SOL    HW125064   6.728   0.687   5.550
 8055SOL    HW225065   6.784   0.647   5.698
 8056SOL     OW25066   3.187   0.693   4.888
 8056SOL    HW125067   3.286   0.709   4.891
 8056SOL    HW225068   3.150   0.733   4.804
 8057SOL     OW25069   2.456   2.539   2.859
 8057SOL    HW125070   2.527   2.531   2.788
 8057SOL    HW225071   2.418   2.449   2.879
 8058SOL     OW25072   2.831   6.661   2.626
 8058SOL    HW125073   2.821   6.738   2.563
 8058SOL    HW225074   2.922   6.665   2.668
 8059SOL     OW25075   2.674   1.148   5.339
 8059SOL    HW125076   2.611   1.169   5.414
 8059SOL    HW225077   2.723   1.231   5.314
 8060SOL     OW25078   0.532   2.273   6.146
 8060SOL    HW125079   0.464   2.252   6.217
 8060SOL    HW225080   0.513   2.364   6.107
 8061SOL     OW25081   0.868   0.228   2.321
 8061SOL    HW125082   0.904   0.316   2.290
 8061SOL    HW225083   0.892   0.214   2.417
 8062SOL     OW25084   4.094   5.310   4.335
 8062SOL    HW125085   4.127   5.355   4.251
 8062SOL    HW225086   4.139   5.351   4.414
 8063SOL     OW25087   2.592   0.956   3.455
 8063SOL    HW125088   2.526   1.024   3.485
 8063SOL    HW225089   2.608   0.966   3.357
 8064SOL     OW25090   5.839   2.260   0.294
 8064SOL    HW125091   5.773   2.284   0.365
 8064SOL    HW225092   5.798   2.193   0.231
 8065SOL     OW25093   2.558   6.504   4.669
 8065SOL    HW125094   2.577   6.432   4.603
 8065SOL    HW225095   2.500   6.574   4.628
 8066SOL     OW25096   6.439   6.876   5.431
 8066SOL    HW125097   6.342   6.855   5.415
 8066SOL    HW225098   6.474   6.929   5.353
 8067SOL     OW25099   5.120   2.170   2.990
 8067SOL    HW125100   5.090   2.254   3.035
 8067SOL    HW225101   5.058   2.095   3.014
 8068SOL     OW25102   0.381   4.939   1.264
 8068SOL    HW125103   0.465   4.985   1.293
 8068SOL    HW225104   0.403   4.871   1.194
 8069SOL     OW25105   2.155   4.823   1.303
 8069SOL    HW125106   2.100   4.901   1.275
 8069SOL    HW225107   2.133   4.799   1.397
 8070SOL     OW25108   3.752   3.166   0.352
 8070SOL    HW125109   3.770   3.201   0.260
 8070SOL    HW225110   3.824   3.102   0.377
 8071SOL     OW25111   2.955   6.637   5.483
 8071SOL    HW125112   2.891   6.601   5.550
 8071SOL    HW225113   2.947   6.585   5.398
 8072SOL     OW25114   3.400   1.515   1.056
 8072SOL    HW125115   3.462   1.586   1.089
 8072SOL    HW225116   3.382   1.450   1.130
 8073SOL     OW25117   3.534   5.677   5.483
 8073SOL    HW125118   3.437   5.702   5.479
 8073SOL    HW225119   3.580   5.707   5.400
 8074SOL     OW25120   2.963   1.712   0.653
 8074SOL    HW125121   3.000   1.652   0.583
 8074SOL    HW225122   2.887   1.667   0.699
 8075SOL     OW25123   6.509   6.989   0.435
 8075SOL    HW125124   6.515   6.894   0.465
 8075SOL    HW225125   6.558   0.023   0.500
 8076SOL     OW25126   6.211   6.595   5.094
 8076SOL    HW125127   6.278   6.657   5.051
 8076SOL    HW225128   6.122   6.610   5.052
 8077SOL     OW25129   3.003   6.085   2.729
 8077SOL    HW125130   2.922   6.142   2.743
 8077SOL    HW225131   2.976   5.995   2.697
 8078SOL     OW25132   0.927   2.050   1.269
 8078SOL    HW125133   0.874   2.048   1.354
 8078SOL    HW225134   0.918   1.961   1.223
 8079SOL     OW25135   6.593   1.249   3.249
 8079SOL    HW125136   6.575   1.275   3.344
 8079SOL    HW225137   6.680   1.201   3.244
 8080SOL     OW25138   1.185   1.936   2.733
 8080SOL    HW125139   1.229   2.012   2.684
 8080SOL    HW225140   1.190   1.952   2.831
 8081SOL     OW25141   6.134   5.679   6.289
 8081SOL    HW125142   6.147   5.626   6.206
 8081SOL    HW225143   6.167   5.772   6.275
 8082SOL     OW25144   3.149   0.735   2.286
 8082SOL    HW125145   3.173   0.824   2.249
 8082SOL    HW225146   3.232   0.682   2.302
 8083SOL     OW25147   5.215   2.435   4.090
 8083SOL    HW125148   5.161   2.373   4.032
 8083SOL    HW225149   5.295   2.467   4.040
 8084SOL     OW25150   2.789   0.423   6.862
 8084SOL    HW125151   2.791   0.325   6.843
 8084SOL    HW225152   2.699   0.449   6.897
 8085SOL     OW25153   5.827   5.681   2.486
 8085SOL    HW125154   5.823   5.584   2.461
 8085SOL    HW225155   5.878   5.731   2.417
 8086SOL     OW25156   6.770   0.689   1.684
 8086SOL    HW125157   6.771   0.673   1.783
 8086SOL    HW225158   6.778   0.787   1.666
 8087SOL     OW25159   1.319   0.368   0.248
 8087SOL    HW125160   1.408   0.403   0.278
 8087SOL    HW225161   1.330   0.277   0.208
 8088SOL     OW25162   5.905   0.741   0.766
 8088SOL    HW125163   5.815   0.703   0.790
 8088SOL    HW225164   5.906   0.838   0.787
 8089SOL     OW25165   4.949   2.832   6.999
 8089SOL    HW125166   4.931   2.918   6.951
 8089SOL    HW225167   4.937   2.845   0.072
 8090SOL     OW25168   4.084   0.989   5.740
 8090SOL    HW125169   4.079   1.052   5.818
 8090SOL    HW225170   4.072   0.895   5.772
 8091SOL     OW25171   1.614   3.514   5.049
 8091SOL    HW125172   1.590   3.586   4.984
 8091SOL    HW225173   1.592   3.544   5.141
 8092SOL     OW25174   5.272   1.944   5.009
 8092SOL    HW125175   5.303   1.850   5.021
 8092SOL    HW225176   5.200   1.946   4.940
 8093SOL     OW25177   3.117   5.304   3.666
 8093SOL    HW125178   3.190   5.347   3.613
 8093SOL    HW225179   3.063   5.244   3.606
 8094SOL     OW25180   0.131   2.864   4.656
 8094SOL    HW125181   0.157   2.959   4.673
 8094SOL    HW225182   0.087   2.857   4.567
 8095SOL     OW25183   0.488   4.227   5.101
 8095SOL    HW125184   0.490   4.149   5.163
 8095SOL    HW225185   0.419   4.293   5.131
 8096SOL     OW25186   2.468   0.641   1.803
 8096SOL    HW125187   2.437   0.581   1.876
 8096SOL    HW225188   2.568   0.632   1.793
 8097SOL     OW25189   4.656   6.876   5.051
 8097SOL    HW125190   4.562   6.869   5.017
 8097SOL    HW225191   4.669   6.811   5.126
 8098SOL     OW25192   2.161   6.433   3.659
 8098SOL    HW125193   2.126   6.527   3.655
 8098SOL    HW225194   2.253   6.430   3.619
 8099SOL     OW25195   4.604   6.463   4.188
 8099SOL    HW125196   4.669   6.405   4.238
 8099SOL    HW225197   4.523   6.410   4.164
 8100SOL     OW25198   6.464   0.942   6.746
 8100SOL    HW125199   6.440   0.870   6.681
 8100SOL    HW225200   6.408   0.934   6.828
 8101SOL     OW25201   1.903   5.877   1.421
 8101SOL    HW125202   1.987   5.929   1.407
 8101SOL    HW225203   1.829   5.918   1.367
 8102SOL     OW25204   0.614   3.473   3.072
 8102SOL    HW125205   0.704   3.434   3.052
 8102SOL    HW225206   0.549   3.442   3.003
 8103SOL     OW25207   3.256   6.961   1.360
 8103SOL    HW125208   3.205   6.919   1.436
 8103SOL    HW225209   3.340   7.002   1.395
 8104SOL     OW25210   1.702   0.853   6.480
 8104SOL    HW125211   1.704   0.941   6.527
 8104SOL    HW225212   1.776   0.795   6.515
 8105SOL     OW25213   6.806   3.125   2.780
 8105SOL    HW125214   6.856   3.212   2.783
 8105SOL    HW225215   6.795   3.090   2.873
 8106SOL     OW25216   3.281   5.324   3.418
 8106SOL    HW125217   3.316   5.408   3.378
 8106SOL    HW225218   3.358   5.264   3.442
 8107SOL     OW25219   1.247   5.518   3.713
 8107SOL    HW125220   1.156   5.532   3.673
 8107SOL    HW225221   1.243   5.447   3.782
 8108SOL     OW25222   6.836   2.893   0.014
 8108SOL    HW125223   6.834   2.840   0.099
 8108SOL    HW225224   6.925   2.881   6.994
 8109SOL     OW25225   6.919   3.329   6.528
 8109SOL    HW125226   6.828   3.289   6.524
 8109SOL    HW225227   6.987   3.263   6.497
 8110SOL     OW25228   4.064   5.720   2.521
 8110SOL    HW125229   4.148   5.725   2.576
 8110SOL    HW225230   4.012   5.639   2.549
 8111SOL     OW25231   5.045   1.101   4.681
 8111SOL    HW125232   5.024   1.036   4.608
 8111SOL    HW225233   4.972   1.169   4.688
 8112SOL     OW25234   2.070   3.328   4.510
 8112SOL    HW125235   2.043   3.322   4.414
 8112SOL    HW225236   2.039   3.246   4.558
 8113SOL     OW25237   0.597   3.842   1.103
 8113SOL    HW125238   0.683   3.793   1.106
 8113SOL    HW225239   0.573   3.863   1.009
 8114SOL     OW25240   2.141   3.674   2.549
 8114SOL    HW125241   2.157   3.732   2.629
 8114SOL    HW225242   2.171   3.722   2.467
 8115SOL     OW25243   3.875   6.751   6.665
 8115SOL    HW125244   3.812   6.693   6.612
 8115SOL    HW225245   3.832   6.839   6.684
 8116SOL     OW25246   4.059   5.236   0.335
 8116SOL    HW125247   4.101   5.154   0.375
 8116SOL    HW225248   4.125   5.311   0.336
 8117SOL     OW25249   1.425   0.647   3.299
 8117SOL    HW125250   1.512   0.598   3.299
 8117SOL    HW225251   1.365   0.611   3.227
 8118SOL     OW25252   5.167   4.180   5.780
 8118SOL    HW125253   5.109   4.174   5.698
 8118SOL    HW225254   5.140   4.259   5.834
 8119SOL     OW25255   5.515   6.300   6.259
 8119SOL    HW125256   5.453   6.291   6.337
 8119SOL    HW225257   5.557   6.391   6.260
 8120SOL     OW25258   3.381   4.497   0.942
 8120SOL    HW125259   3.433   4.497   1.027
 8120SOL    HW225260   3.424   4.434   0.877
 8121SOL     OW25261   0.639   4.977   1.371
 8121SOL    HW125262   0.585   5.051   1.412
 8121SOL    HW225263   0.660   4.909   1.441
 8122SOL     OW25264   0.225   4.439   2.714
 8122SOL    HW125265   0.159   4.509   2.686
 8122SOL    HW225266   0.177   4.355   2.739
 8123SOL     OW25267   6.854   2.089   6.667
 8123SOL    HW125268   6.856   2.028   6.747
 8123SOL    HW225269   6.917   2.165   6.683
 8124SOL     OW25270   4.880   5.976   1.917
 8124SOL    HW125271   4.911   5.894   1.965
 8124SOL    HW225272   4.954   6.044   1.916
 8125SOL     OW25273   1.540   1.966   3.558
 8125SOL    HW125274   1.448   2.002   3.540
 8125SOL    HW225275   1.546   1.873   3.521
 8126SOL     OW25276   5.382   4.664   3.210
 8126SOL    HW125277   5.403   4.721   3.131
 8126SOL    HW225278   5.329   4.584   3.180
 8127SOL     OW25279   2.537   3.355   6.225
 8127SOL    HW125280   2.593   3.325   6.148
 8127SOL    HW225281   2.596   3.396   6.295
 8128SOL     OW25282   2.759   2.324   2.320
 8128SOL    HW125283   2.797   2.316   2.228
 8128SOL    HW225284   2.691   2.397   2.322
 8129SOL     OW25285   3.889   1.236   5.911
 8129SOL    HW125286   3.910   1.306   5.980
 8129SOL    HW225287   3.886   1.146   5.954
 8130SOL     OW25288   0.775   4.369   6.559
 8130SOL    HW125289   0.696   4.394   6.503
 8130SOL    HW225290   0.768   4.272   6.585
 8131SOL     OW25291   2.406   1.982   1.475
 8131SOL    HW125292   2.308   1.964   1.480
 8131SOL    HW225293   2.423   2.079   1.494
 8132SOL     OW25294   5.307   6.863   5.048
 8132SOL    HW125295   5.374   6.799   5.009
 8132SOL    HW225296   5.222   6.814   5.067
 8133SOL     OW25297   3.034   5.302   2.257
 8133SOL    HW125298   3.028   5.401   2.252
 8133SOL    HW225299   3.099   5.269   2.188
 8134SOL     OW25300   0.177   1.864   6.709
 8134SOL    HW125301   0.119   1.871   6.628
 8134SOL    HW225302   0.240   1.941   6.712
 8135SOL     OW25303   2.791   0.533   1.401
 8135SOL    HW125304   2.708   0.563   1.448
 8135SOL    HW225305   2.771   0.515   1.305
 8136SOL     OW25306   4.453   5.365   2.963
 8136SOL    HW125307   4.552   5.350   2.960
 8136SOL    HW225308   4.432   5.452   2.919
 8137SOL     OW25309   2.869   1.666   5.189
 8137SOL    HW125310   2.871   1.766   5.203
 8137SOL    HW225311   2.793   1.643   5.129
 8138SOL     OW25312   5.230   1.219   0.944
 8138SOL    HW125313   5.237   1.311   0.906
 8138SOL    HW225314   5.217   1.225   1.043
 8139SOL     OW25315   0.102   0.630   1.740
 8139SOL    HW125316   0.070   0.719   1.773
 8139SOL    HW225317   0.041   0.598   1.667
 8140SOL     OW25318   5.789   0.314   6.074
 8140SOL    HW125319   5.744   0.283   6.158
 8140SOL    HW225320   5.868   0.370   6.096
 8141SOL     OW25321   4.428   5.211   4.773
 8141SOL    HW125322   4.380   5.162   4.700
 8141SOL    HW225323   4.522   5.179   4.778
 8142SOL     OW25324   0.225   5.147   0.015
 8142SOL    HW125325   0.125   5.137   0.010
 8142SOL    HW225326   0.248   5.218   0.081
 8143SOL     OW25327   5.637   4.356   0.546
 8143SOL    HW125328   5.704   4.282   0.533
 8143SOL    HW225329   5.660   4.408   0.629
 8144SOL     OW25330   6.351   6.421   6.652
 8144SOL    HW125331   6.355   6.350   6.581
 8144SOL    HW225332   6.411   6.497   6.626
 8145SOL     OW25333   5.260   6.159   1.140
 8145SOL    HW125334   5.164   6.159   1.113
 8145SOL    HW225335   5.314   6.212   1.073
 8146SOL     OW25336   4.023   0.678   4.670
 8146SOL    HW125337   4.111   0.658   4.627
 8146SOL    HW225338   3.961   0.601   4.656
 8147SOL     OW25339   6.030   2.143   1.793
 8147SOL    HW125340   6.060   2.231   1.832
 8147SOL    HW225341   6.026   2.150   1.694
 8148SOL     OW25342   5.307   4.518   1.506
 8148SOL    HW125343   5.354   4.514   1.418
 8148SOL    HW225344   5.210   4.534   1.491
 8149SOL     OW25345   2.399   5.806   2.209
 8149SOL    HW125346   2.425   5.791   2.304
 8149SOL    HW225347   2.481   5.806   2.152
 8150SOL     OW25348   0.317   4.539   6.839
 8150SOL    HW125349   0.391   4.594   6.801
 8150SOL    HW225350   0.252   4.515   6.767
 8151SOL     OW25351   6.286   2.274   1.657
 8151SOL    HW125352   6.215   2.313   1.716
 8151SOL    HW225353   6.364   2.244   1.712
 8152SOL     OW25354   0.501   1.946   2.849
 8152SOL    HW125355   0.561   1.943   2.769
 8152SOL    HW225356   0.526   1.873   2.912
 8153SOL     OW25357   3.277   0.523   2.536
 8153SOL    HW125358   3.336   0.447   2.563
 8153SOL    HW225359   3.203   0.488   2.479
 8154SOL     OW25360   2.991   5.815   3.827
 8154SOL    HW125361   2.985   5.766   3.913
 8154SOL    HW225362   2.970   5.912   3.841
 8155SOL     OW25363   2.245   3.842   1.667
 8155SOL    HW125364   2.203   3.753   1.651
 8155SOL    HW225365   2.228   3.901   1.588
 8156SOL     OW25366   4.967   6.965   6.263
 8156SOL    HW125367   4.985   6.879   6.311
 8156SOL    HW225368   4.872   6.992   6.277
 8157SOL     OW25369   5.754   5.157   6.588
 8157SOL    HW125370   5.717   5.173   6.497
 8157SOL    HW225371   5.818   5.229   6.612
 8158SOL     OW25372   0.127   5.037   1.323
 8158SOL    HW125373   0.203   4.987   1.283
 8158SOL    HW225374   0.045   5.024   1.267
 8159SOL     OW25375   2.380   6.270   2.729
 8159SOL    HW125376   2.454   6.235   2.673
 8159SOL    HW225377   2.317   6.324   2.673
 8160SOL     OW25378   4.787   1.437   2.185
 8160SOL    HW125379   4.770   1.478   2.096
 8160SOL    HW225380   4.863   1.372   2.178
 8161SOL     OW25381   5.046   1.291   0.142
 8161SOL    HW125382   5.058   1.279   0.240
 8161SOL    HW225383   5.075   1.207   0.094
 8162SOL     OW25384   6.747   6.427   6.181
 8162SOL    HW125385   6.809   6.418   6.259
 8162SOL    HW225386   6.715   6.336   6.153
 8163SOL     OW25387   2.643   3.581   5.754
 8163SOL    HW125388   2.656   3.548   5.660
 8163SOL    HW225389   2.583   3.661   5.753
 8164SOL     OW25390   6.235   3.407   0.655
 8164SOL    HW125391   6.209   3.392   0.559
 8164SOL    HW225392   6.183   3.484   0.691
 8165SOL     OW25393   1.165   4.989   6.664
 8165SOL    HW125394   1.246   4.997   6.722
 8165SOL    HW225395   1.177   5.043   6.581
 8166SOL     OW25396   2.302   1.224   2.289
 8166SOL    HW125397   2.266   1.161   2.357
 8166SOL    HW225398   2.337   1.172   2.211
 8167SOL     OW25399   5.907   1.298   4.192
 8167SOL    HW125400   5.976   1.370   4.188
 8167SOL    HW225401   5.863   1.289   4.102
 8168SOL     OW25402   3.168   1.680   3.149
 8168SOL    HW125403   3.145   1.758   3.090
 8168SOL    HW225404   3.153   1.705   3.244
 8169SOL     OW25405   5.051   3.231   1.453
 8169SOL    HW125406   5.096   3.250   1.541
 8169SOL    HW225407   5.019   3.136   1.452
 8170SOL     OW25408   1.481   5.635   2.592
 8170SOL    HW125409   1.560   5.599   2.541
 8170SOL    HW225410   1.500   5.629   2.690
 8171SOL     OW25411   1.078   1.590   0.031
 8171SOL    HW125412   1.054   1.510   7.000
 8171SOL    HW225413   1.037   1.579   0.122
 8172SOL     OW25414   0.749   0.830   1.911
 8172SOL    HW125415   0.770   0.739   1.875
 8172SOL    HW225416   0.668   0.825   1.969
 8173SOL     OW25417   3.555   1.859   0.316
 8173SOL    HW125418   3.613   1.897   0.387
 8173SOL    HW225419   3.460   1.884   0.333
 8174SOL     OW25420   4.881   1.873   0.402
 8174SOL    HW125421   4.963   1.924   0.424
 8174SOL    HW225422   4.809   1.896   0.467
 8175SOL     OW25423   0.156   2.653   5.619
 8175SOL    HW125424   0.125   2.724   5.555
 8175SOL    HW225425   0.106   2.568   5.602
 8176SOL     OW25426   2.622   5.469   2.275
 8176SOL    HW125427   2.577   5.380   2.278
 8176SOL    HW225428   2.587   5.522   2.198
 8177SOL     OW25429   1.828   6.442   4.273
 8177SOL    HW125430   1.787   6.526   4.310
 8177SOL    HW225431   1.923   6.460   4.245
 8178SOL     OW25432   1.936   6.766   6.826
 8178SOL    HW125433   2.021   6.814   6.846
 8178SOL    HW225434   1.952   6.667   6.830
 8179SOL     OW25435   3.510   2.843   0.065
 8179SOL    HW125436   3.465   2.827   7.002
 8179SOL    HW225437   3.512   2.942   0.084
 8180SOL     OW25438   6.662   0.339   4.534
 8180SOL    HW125439   6.650   0.276   4.610
 8180SOL    HW225440   6.604   0.310   4.457
 8181SOL     OW25441   1.995   1.238   2.511
 8181SOL    HW125442   1.920   1.222   2.446
 8181SOL    HW225443   1.972   1.315   2.570
 8182SOL     OW25444   3.933   1.800   6.909
 8182SOL    HW125445   3.912   1.855   6.829
 8182SOL    HW225446   3.848   1.767   6.950
 8183SOL     OW25447   0.588   2.420   5.162
 8183SOL    HW125448   0.640   2.336   5.177
 8183SOL    HW225449   0.524   2.407   5.086
 8184SOL     OW25450   5.704   1.415   5.819
 8184SOL    HW125451   5.754   1.501   5.816
 8184SOL    HW225452   5.639   1.411   5.742
 8185SOL     OW25453   3.381   0.503   0.244
 8185SOL    HW125454   3.354   0.502   0.148
 8185SOL    HW225455   3.302   0.527   0.301
 8186SOL     OW25456   2.873   6.019   6.604
 8186SOL    HW125457   2.849   5.980   6.693
 8186SOL    HW225458   2.968   6.051   6.607
 8187SOL     OW25459   1.832   2.205   4.871
 8187SOL    HW125460   1.829   2.197   4.971
 8187SOL    HW225461   1.817   2.300   4.844
 8188SOL     OW25462   5.591   1.929   2.558
 8188SOL    HW125463   5.511   1.910   2.616
 8188SOL    HW225464   5.575   2.013   2.506
 8189SOL     OW25465   5.259   3.966   1.869
 8189SOL    HW125466   5.308   3.954   1.956
 8189SOL    HW225467   5.325   3.984   1.796
 8190SOL     OW25468   5.233   5.808   4.306
 8190SOL    HW125469   5.195   5.808   4.398
 8190SOL    HW225470   5.180   5.746   4.248
 8191SOL     OW25471   2.715   5.438   3.697
 8191SOL    HW125472   2.798   5.431   3.753
 8191SOL    HW225473   2.672   5.348   3.691
 8192SOL     OW25474   2.782   5.754   0.044
 8192SOL    HW125475   2.806   5.813   0.120
 8192SOL    HW225476   2.813   5.661   0.062
 8193SOL     OW25477   6.580   0.241   4.255
 8193SOL    HW125478   6.542   0.306   4.190
 8193SOL    HW225479   6.515   0.166   4.270
 8194SOL     OW25480   6.034   2.646   0.031
 8194SOL    HW125481   6.034   2.596   0.117
 8194SOL    HW225482   6.117   2.702   0.025
 8195SOL     OW25483   0.535   0.892   0.758
 8195SOL    HW125484   0.523   0.879   0.857
 8195SOL    HW225485   0.496   0.813   0.710
 8196SOL     OW25486   3.791   6.838   5.640
 8196SOL    HW125487   3.726   6.844   5.565
 8196SOL    HW225488   3.885   6.842   5.605
 8197SOL     OW25489   5.403   1.512   5.914
 8197SOL    HW125490   5.311   1.511   5.875
 8197SOL    HW225491   5.455   1.434   5.878
 8198SOL     OW25492   3.211   0.006   2.264
 8198SOL    HW125493   3.153   6.958   2.229
 8198SOL    HW225494   3.307   7.009   2.245
 8199SOL     OW25495   6.874   4.027   0.501
 8199SOL    HW125496   6.832   4.083   0.572
 8199SOL    HW225497   6.891   4.083   0.420
 8200SOL     OW25498   4.414   4.037   1.175
 8200SOL    HW125499   4.405   3.938   1.168
 8200SOL    HW225500   4.444   4.061   1.268
 8201SOL     OW25501   5.377   0.830   4.646
 8201SOL    HW125502   5.390   0.884   4.563
 8201SOL    HW225503   5.420   0.876   4.723
 8202SOL     OW25504   1.195   5.807   4.362
 8202SOL    HW125505   1.175   5.764   4.274
 8202SOL    HW225506   1.271   5.872   4.351
 8203SOL     OW25507   4.750   3.463   0.234
 8203SOL    HW125508   4.669   3.441   0.289
 8203SOL    HW225509   4.726   3.532   0.165
 8204SOL     OW25510   3.372   5.488   1.075
 8204SOL    HW125511   3.457   5.441   1.101
 8204SOL    HW225512   3.390   5.545   0.995
 8205SOL     OW25513   6.090   4.659   1.960
 8205SOL    HW125514   6.170   4.609   1.927
 8205SOL    HW225515   6.067   4.626   2.052
 8206SOL     OW25516   3.116   2.235   5.436
 8206SOL    HW125517   3.047   2.171   5.403
 8206SOL    HW225518   3.129   2.308   5.369
 8207SOL     OW25519   3.709   4.855   5.376
 8207SOL    HW125520   3.634   4.791   5.362
 8207SOL    HW225521   3.782   4.835   5.311
 8208SOL     OW25522   2.320   6.665   1.549
 8208SOL    HW125523   2.389   6.699   1.613
 8208SOL    HW225524   2.359   6.593   1.492
 8209SOL     OW25525   0.889   1.323   5.206
 8209SOL    HW125526   0.890   1.224   5.212
 8209SOL    HW225527   0.795   1.356   5.197
 8210SOL     OW25528   3.452   0.741   6.938
 8210SOL    HW125529   3.490   0.649   6.927
 8210SOL    HW225530   3.435   0.782   6.849
 8211SOL     OW25531   3.594   4.166   4.276
 8211SOL    HW125532   3.681   4.153   4.323
 8211SOL    HW225533   3.523   4.188   4.344
 8212SOL     OW25534   3.243   0.700   0.666
 8212SOL    HW125535   3.232   0.741   0.575
 8212SOL    HW225536   3.241   0.600   0.658
 8213SOL     OW25537   4.781   5.002   3.386
 8213SOL    HW125538   4.768   5.018   3.484
 8213SOL    HW225539   4.692   4.986   3.343
 8214SOL     OW25540   2.111   5.954   3.875
 8214SOL    HW125541   2.037   6.007   3.833
 8214SOL    HW225542   2.168   5.914   3.802
 8215SOL     OW25543   4.274   5.429   0.274
 8215SOL    HW125544   4.255   5.381   0.188
 8215SOL    HW225545   4.373   5.432   0.289
 8216SOL     OW25546   5.512   0.013   3.121
 8216SOL    HW125547   5.543   0.103   3.090
 8216SOL    HW225548   5.415   0.018   3.144
 8217SOL     OW25549   2.172   4.166   2.212
 8217SOL    HW125550   2.268   4.184   2.188
 8217SOL    HW225551   2.144   4.079   2.173
 8218SOL     OW25552   1.550   0.182   4.593
 8218SOL    HW125553   1.454   0.172   4.617
 8218SOL    HW225554   1.592   0.253   4.649
 8219SOL     OW25555   2.889   4.499   1.089
 8219SOL    HW125556   2.879   4.598   1.074
 8219SOL    HW225557   2.981   4.480   1.123
 8220SOL     OW25558   3.384   4.232   5.337
 8220SOL    HW125559   3.458   4.205   5.275
 8220SOL    HW225560   3.303   4.177   5.319
 8221SOL     OW25561   6.023   4.161   3.207
 8221SOL    HW125562   6.048   4.202   3.294
 8221SOL    HW225563   6.009   4.063   3.220
 8222SOL     OW25564   5.594   2.182   0.467
 8222SOL    HW125565   5.589   2.229   0.379
 8222SOL    HW225566   5.643   2.240   0.533
 8223SOL     OW25567   6.787   4.861   5.635
 8223SOL    HW125568   6.841   4.900   5.710
 8223SOL    HW225569   6.831   4.882   5.548
 8224SOL     OW25570   4.240   1.936   0.994
 8224SOL    HW125571   4.319   1.895   1.039
 8224SOL    HW225572   4.213   1.879   0.916
 8225SOL     OW25573   4.373   0.008   0.804
 8225SOL    HW125574   4.430   0.089   0.792
 8225SOL    HW225575   4.287   0.034   0.847
 8226SOL     OW25576   3.633   0.413   0.166
 8226SOL    HW125577   3.562   0.458   0.220
 8226SOL    HW225578   3.609   0.316   0.154
 8227SOL     OW25579   6.170   1.304   2.442
 8227SOL    HW125580   6.264   1.272   2.432
 8227SOL    HW225581   6.121   1.245   2.507
 8228SOL     OW25582   0.558   1.106   5.448
 8228SOL    HW125583   0.576   1.115   5.545
 8228SOL    HW225584   0.619   1.166   5.396
 8229SOL     OW25585   4.359   4.429   1.027
 8229SOL    HW125586   4.390   4.513   0.982
 8229SOL    HW225587   4.423   4.355   1.006
 8230SOL     OW25588   4.219   0.001   5.405
 8230SOL    HW125589   4.129   6.987   5.384
 8230SOL    HW225590   4.236   7.022   5.504
 8231SOL     OW25591   3.297   1.795   2.396
 8231SOL    HW125592   3.317   1.776   2.492
 8231SOL    HW225593   3.382   1.791   2.343
 8232SOL     OW25594   5.594   1.271   2.148
 8232SOL    HW125595   5.539   1.354   2.157
 8232SOL    HW225596   5.581   1.213   2.228
 8233SOL     OW25597   0.946   0.188   5.845
 8233SOL    HW125598   1.025   0.249   5.842
 8233SOL    HW225599   0.876   0.221   5.782
 8234SOL     OW25600   3.363   3.262   0.222
 8234SOL    HW125601   3.424   3.329   0.265
 8234SOL    HW225602   3.307   3.308   0.152
 8235SOL     OW25603   6.898   4.593   0.122
 8235SOL    HW125604   6.940   4.611   0.033
 8235SOL    HW225605   6.820   4.531   0.110
 8236SOL     OW25606   0.052   6.097   5.744
 8236SOL    HW125607   6.994   6.118   5.796
 8236SOL    HW225608   0.118   6.172   5.754
 8237SOL     OW25609   4.441   5.464   6.125
 8237SOL    HW125610   4.515   5.488   6.188
 8237SOL    HW225611   4.361   5.434   6.178
 8238SOL     OW25612   1.301   5.620   6.921
 8238SOL    HW125613   1.228   5.553   6.912
 8238SOL    HW225614   1.263   5.712   6.911
 8239SOL     OW25615   0.282   1.185   4.867
 8239SOL    HW125616   0.240   1.127   4.797
 8239SOL    HW225617   0.299   1.131   4.949
 8240SOL     OW25618   2.925   3.332   3.175
 8240SOL    HW125619   3.005   3.349   3.117
 8240SOL    HW225620   2.877   3.419   3.192
 8241SOL     OW25621   1.037   3.277   0.005
 8241SOL    HW125622   0.976   3.201   7.010
 8241SOL    HW225623   1.075   3.313   6.944
 8242SOL     OW25624   1.035   3.480   4.776
 8242SOL    HW125625   0.948   3.476   4.824
 8242SOL    HW225626   1.100   3.418   4.820
 8243SOL     OW25627   0.545   4.518   5.841
 8243SOL    HW125628   0.587   4.447   5.784
 8243SOL    HW225629   0.526   4.481   5.932
 8244SOL     OW25630   1.129   0.899   3.504
 8244SOL    HW125631   1.193   0.960   3.457
 8244SOL    HW225632   1.065   0.953   3.558
 8245SOL     OW25633   4.621   2.058   3.434
 8245SOL    HW125634   4.523   2.050   3.451
 8245SOL    HW225635   4.655   1.972   3.396
 8246SOL     OW25636   1.129   4.107   6.133
 8246SOL    HW125637   1.088   4.125   6.222
 8246SOL    HW225638   1.060   4.067   6.072
 8247SOL     OW25639   3.316   5.205   3.824
 8247SOL    HW125640   3.237   5.221   3.764
 8247SOL    HW225641   3.284   5.181   3.916
 8248SOL     OW25642   1.379   6.190   4.323
 8248SOL    HW125643   1.381   6.117   4.254
 8248SOL    HW225644   1.471   6.225   4.338
 8249SOL     OW25645   2.344   1.669   5.540
 8249SOL    HW125646   2.356   1.618   5.624
 8249SOL    HW225647   2.270   1.735   5.550
 8250SOL     OW25648   3.068   1.571   0.934
 8250SOL    HW125649   2.999   1.639   0.911
 8250SOL    HW225650   3.153   1.592   0.885
 8251SOL     OW25651   6.290   1.864   4.181
 8251SOL    HW125652   6.259   1.958   4.170
 8251SOL    HW225653   6.284   1.816   4.094
 8252SOL     OW25654   2.499   1.903   6.469
 8252SOL    HW125655   2.422   1.960   6.497
 8252SOL    HW225656   2.582   1.959   6.464
 8253SOL     OW25657   3.917   5.747   6.453
 8253SOL    HW125658   3.945   5.651   6.449
 8253SOL    HW225659   3.819   5.754   6.431
 8254SOL     OW25660   6.102   4.934   6.014
 8254SOL    HW125661   6.076   4.862   5.949
 8254SOL    HW225662   6.020   4.982   6.044
 8255SOL     OW25663   1.036   6.785   6.178
 8255SOL    HW125664   0.937   6.778   6.191
 8255SOL    HW225665   1.079   6.697   6.197
 8256SOL     OW25666   6.922   6.709   3.067
 8256SOL    HW125667   6.977   6.743   3.144
 8256SOL    HW225668   6.983   6.687   2.991
 8257SOL     OW25669   5.990   4.091   4.223
 8257SOL    HW125670   5.944   4.104   4.135
 8257SOL    HW225671   5.958   4.160   4.288
 8258SOL     OW25672   5.759   2.622   1.023
 8258SOL    HW125673   5.692   2.601   0.952
 8258SOL    HW225674   5.785   2.718   1.019
 8259SOL     OW25675   3.924   1.870   4.672
 8259SOL    HW125676   3.862   1.858   4.595
 8259SOL    HW225677   3.890   1.943   4.731
 8260SOL     OW25678   1.539   6.509   0.455
 8260SOL    HW125679   1.572   6.572   0.384
 8260SOL    HW225680   1.489   6.560   0.525
 8261SOL     OW25681   5.698   6.602   3.316
 8261SOL    HW125682   5.684   6.699   3.300
 8261SOL    HW225683   5.632   6.569   3.383
 8262SOL     OW25684   0.311   5.045   0.370
 8262SOL    HW125685   0.399   5.000   0.355
 8262SOL    HW225686   0.297   5.116   0.300
 8263SOL     OW25687   6.891   2.722   6.553
 8263SOL    HW125688   6.937   2.776   6.623
 8263SOL    HW225689   6.846   2.783   6.488
 8264SOL     OW25690   1.640   6.985   1.586
 8264SOL    HW125691   1.734   6.962   1.610
 8264SOL    HW225692   1.583   6.984   1.669
 8265SOL     OW25693   4.125   0.248   1.643
 8265SOL    HW125694   4.186   0.244   1.563
 8265SOL    HW225695   4.112   0.343   1.670
 8266SOL     OW25696   3.090   0.267   4.568
 8266SOL    HW125697   3.176   0.277   4.617
 8266SOL    HW225698   3.014   0.289   4.630
 8267SOL     OW25699   1.286   5.010   2.310
 8267SOL    HW125700   1.357   5.080   2.295
 8267SOL    HW225701   1.318   4.946   2.381
 8268SOL     OW25702   2.431   3.984   6.797
 8268SOL    HW125703   2.454   4.051   6.867
 8268SOL    HW225704   2.512   3.929   6.774
 8269SOL     OW25705   4.740   2.673   3.045
 8269SOL    HW125706   4.760   2.731   3.123
 8269SOL    HW225707   4.659   2.618   3.063
 8270SOL     OW25708   2.439   6.355   5.909
 8270SOL    HW125709   2.340   6.358   5.895
 8270SOL    HW225710   2.485   6.399   5.832
 8271SOL     OW25711   5.944   6.379   4.645
 8271SOL    HW125712   5.866   6.432   4.611
 8271SOL    HW225713   5.914   6.321   4.721
 8272SOL     OW25714   0.285   0.469   1.972
 8272SOL    HW125715   0.248   0.483   1.880
 8272SOL    HW225716   0.324   0.377   1.978
 8273SOL     OW25717   3.121   6.784   7.000
 8273SOL    HW125718   3.089   6.696   6.964
 8273SOL    HW225719   3.219   6.778   7.019
 8274SOL     OW25720   4.188   4.350   6.567
 8274SOL    HW125721   4.159   4.432   6.517
 8274SOL    HW225722   4.213   4.278   6.501
 8275SOL     OW25723   6.255   0.208   4.860
 8275SOL    HW125724   6.350   0.205   4.891
 8275SOL    HW225725   6.233   0.301   4.829
 8276SOL     OW25726   6.649   2.642   5.894
 8276SOL    HW125727   6.628   2.740   5.901
 8276SOL    HW225728   6.749   2.630   5.889
 8277SOL     OW25729   2.172   5.483   5.393
 8277SOL    HW125730   2.215   5.560   5.439
 8277SOL    HW225731   2.073   5.498   5.388
 8278SOL     OW25732   3.275   1.103   6.104
 8278SOL    HW125733   3.230   1.111   6.015
 8278SOL    HW225734   3.284   1.007   6.129
 8279SOL     OW25735   5.324   5.769   6.830
 8279SOL    HW125736   5.327   5.838   6.758
 8279SOL    HW225737   5.395   5.788   6.898
 8280SOL     OW25738   4.296   2.524   6.830
 8280SOL    HW125739   4.341   2.447   6.877
 8280SOL    HW225740   4.351   2.551   6.751
 8281SOL     OW25741   1.805   4.489   0.525
 8281SOL    HW125742   1.742   4.454   0.594
 8281SOL    HW225743   1.896   4.499   0.566
 8282SOL     OW25744   2.977   2.108   1.044
 8282SOL    HW125745   2.964   2.161   0.960
 8282SOL    HW225746   2.952   2.165   1.123
 8283SOL     OW25747   0.340   5.203   3.880
 8283SOL    HW125748   0.254   5.243   3.851
 8283SOL    HW225749   0.361   5.123   3.823
 8284SOL     OW25750   1.916   2.641   2.453
 8284SOL    HW125751   1.982   2.715   2.466
 8284SOL    HW225752   1.907   2.620   2.356
 8285SOL     OW25753   3.219   3.709   5.806
 8285SOL    HW125754   3.291   3.657   5.761
 8285SOL    HW225755   3.214   3.801   5.767
 8286SOL     OW25756   5.292   1.122   4.411
 8286SOL    HW125757   5.347   1.191   4.459
 8286SOL    HW225758   5.353   1.063   4.357
 8287SOL     OW25759   1.381   6.863   4.538
 8287SOL    HW125760   1.303   6.910   4.579
 8287SOL    HW225761   1.381   6.878   4.439
 8288SOL     OW25762   1.622   2.383   2.338
 8288SOL    HW125763   1.629   2.283   2.341
 8288SOL    HW225764   1.712   2.424   2.350
 8289SOL     OW25765   5.955   0.608   5.736
 8289SOL    HW125766   5.876   0.548   5.750
 8289SOL    HW225767   5.972   0.660   5.820
 8290SOL     OW25768   4.180   3.399   1.734
 8290SOL    HW125769   4.157   3.335   1.661
 8290SOL    HW225770   4.182   3.351   1.822
 8291SOL     OW25771   5.930   6.695   6.547
 8291SOL    HW125772   5.852   6.634   6.534
 8291SOL    HW225773   5.899   6.790   6.543
 8292SOL     OW25774   1.782   5.009   5.620
 8292SOL    HW125775   1.869   5.058   5.632
 8292SOL    HW225776   1.754   4.969   5.708
 8293SOL     OW25777   2.128   4.642   2.001
 8293SOL    HW125778   2.194   4.575   2.034
 8293SOL    HW225779   2.067   4.600   1.934
 8294SOL     OW25780   6.524   3.706   5.520
 8294SOL    HW125781   6.538   3.802   5.494
 8294SOL    HW225782   6.552   3.694   5.615
 8295SOL     OW25783   4.806   4.040   3.199
 8295SOL    HW125784   4.883   4.012   3.256
 8295SOL    HW225785   4.756   3.959   3.170
 8296SOL     OW25786   3.675   5.891   6.810
 8296SOL    HW125787   3.648   5.810   6.861
 8296SOL    HW225788   3.623   5.897   6.725
 8297SOL     OW25789   6.027   3.717   1.857
 8297SOL    HW125790   5.931   3.723   1.886
 8297SOL    HW225791   6.073   3.804   1.874
 8298SOL     OW25792   0.685   1.002   6.417
 8298SOL    HW125793   0.598   0.991   6.368
 8298SOL    HW225794   0.685   0.945   6.499
 8299SOL     OW25795   0.213   3.903   1.526
 8299SOL    HW125796   0.256   3.817   1.496
 8299SOL    HW225797   0.159   3.885   1.608
 8300SOL     OW25798   5.957   5.713   4.174
 8300SOL    HW125799   5.870   5.683   4.135
 8300SOL    HW225800   5.944   5.739   4.270
 8301SOL     OW25801   4.482   0.167   6.779
 8301SOL    HW125802   4.542   0.151   6.858
 8301SOL    HW225803   4.387   0.171   6.811
 8302SOL     OW25804   3.225   6.742   5.281
 8302SOL    HW125805   3.264   6.689   5.205
 8302SOL    HW225806   3.219   6.685   5.363
 8303SOL     OW25807   6.882   0.407   2.541
 8303SOL    HW125808   6.925   0.318   2.557
 8303SOL    HW225809   6.864   0.452   2.629
 8304SOL     OW25810   5.603   4.136   3.205
 8304SOL    HW125811   5.636   4.061   3.262
 8304SOL    HW225812   5.635   4.223   3.243
 8305SOL     OW25813   4.532   5.236   4.130
 8305SOL    HW125814   4.567   5.171   4.198
 8305SOL    HW225815   4.495   5.316   4.177
 8306SOL     OW25816   6.378   1.130   2.459
 8306SOL    HW125817   6.474   1.149   2.439
 8306SOL    HW225818   6.333   1.097   2.376
 8307SOL     OW25819   1.340   5.171   0.932
 8307SOL    HW125820   1.330   5.179   1.032
 8307SOL    HW225821   1.249   5.163   0.891
 8308SOL     OW25822   1.530   4.311   0.357
 8308SOL    HW125823   1.620   4.300   0.315
 8308SOL    HW225824   1.469   4.359   0.293
 8309SOL     OW25825   6.599   5.125   4.852
 8309SOL    HW125826   6.575   5.055   4.919
 8309SOL    HW225827   6.592   5.087   4.760
 8310SOL     OW25828   0.940   6.398   1.079
 8310SOL    HW125829   0.987   6.403   1.168
 8310SOL    HW225830   0.862   6.461   1.080
 8311SOL     OW25831   5.449   6.886   4.313
 8311SOL    HW125832   5.397   6.944   4.250
 8311SOL    HW225833   5.489   6.810   4.263
 8312SOL     OW25834   5.465   0.270   0.313
 8312SOL    HW125835   5.368   0.291   0.305
 8312SOL    HW225836   5.517   0.356   0.318
 8313SOL     OW25837   4.012   6.808   5.434
 8313SOL    HW125838   3.955   6.832   5.356
 8313SOL    HW225839   4.068   6.728   5.411
 8314SOL     OW25840   5.410   6.287   6.507
 8314SOL    HW125841   5.470   6.264   6.583
 8314SOL    HW225842   5.317   6.302   6.541
 8315SOL     OW25843   3.824   3.969   3.818
 8315SOL    HW125844   3.801   3.960   3.721
 8315SOL    HW225845   3.755   4.026   3.863
 8316SOL     OW25846   1.032   3.240   6.529
 8316SOL    HW125847   1.125   3.203   6.526
 8316SOL    HW225848   1.014   3.277   6.620
 8317SOL     OW25849   2.152   2.142   4.801
 8317SOL    HW125850   2.113   2.176   4.887
 8317SOL    HW225851   2.153   2.216   4.733
 8318SOL     OW25852   4.335   1.246   5.983
 8318SOL    HW125853   4.282   1.185   6.042
 8318SOL    HW225854   4.288   1.256   5.896
 8319SOL     OW25855   1.173   0.313   5.927
 8319SOL    HW125856   1.264   0.353   5.918
 8319SOL    HW225857   1.168   0.261   6.013
 8320SOL     OW25858   3.340   4.140   3.526
 8320SOL    HW125859   3.438   4.144   3.548
 8320SOL    HW225860   3.308   4.046   3.537
 8321SOL     OW25861   0.166   0.694   6.426
 8321SOL    HW125862   0.235   0.711   6.497
 8321SOL    HW225863   0.167   0.598   6.401
 8322SOL     OW25864   0.111   1.349   0.476
 8322SOL    HW125865   0.175   1.424   0.493
 8322SOL    HW225866   0.154   1.263   0.503
 8323SOL     OW25867   4.741   4.714   1.365
 8323SOL    HW125868   4.797   4.635   1.392
 8323SOL    HW225869   4.678   4.686   1.292
 8324SOL     OW25870   5.967   0.299   7.021
 8324SOL    HW125871   6.000   0.328   6.931
 8324SOL    HW225872   6.044   0.286   0.058
 8325SOL     OW25873   1.349   5.153   4.865
 8325SOL    HW125874   1.368   5.153   4.963
 8325SOL    HW225875   1.364   5.244   4.828
 8326SOL     OW25876   3.190   3.800   0.072
 8326SOL    HW125877   3.222   3.763   0.159
 8326SOL    HW225878   3.133   3.733   0.026
 8327SOL     OW25879   0.476   0.771   5.090
 8327SOL    HW125880   0.575   0.761   5.098
 8327SOL    HW225881   0.440   0.809   5.175
 8328SOL     OW25882   0.953   6.133   5.955
 8328SOL    HW125883   0.990   6.217   5.993
 8328SOL    HW225884   0.859   6.120   5.988
 8329SOL     OW25885   0.935   2.662   5.301
 8329SOL    HW125886   0.971   2.570   5.284
 8329SOL    HW225887   0.837   2.664   5.283
 8330SOL     OW25888   3.773   1.169   6.283
 8330SOL    HW125889   3.789   1.114   6.201
 8330SOL    HW225890   3.723   1.115   6.350
 8331SOL     OW25891   2.445   2.116   0.471
 8331SOL    HW125892   2.346   2.102   0.475
 8331SOL    HW225893   2.466   2.208   0.504
 8332SOL     OW25894   5.311   5.317   2.205
 8332SOL    HW125895   5.278   5.348   2.295
 8332SOL    HW225896   5.233   5.310   2.143
 8333SOL     OW25897   1.832   5.166   0.804
 8333SOL    HW125898   1.770   5.241   0.825
 8333SOL    HW225899   1.780   5.084   0.781
 8334SOL     OW25900   3.354   1.305   6.281
 8334SOL    HW125901   3.281   1.315   6.348
 8334SOL    HW225902   3.342   1.219   6.231
 8335SOL     OW25903   4.216   2.622   6.509
 8335SOL    HW125904   4.313   2.632   6.487
 8335SOL    HW225905   4.205   2.556   6.583
 8336SOL     OW25906   1.376   3.950   2.383
 8336SOL    HW125907   1.342   3.911   2.297
 8336SOL    HW225908   1.337   3.900   2.460
 8337SOL     OW25909   1.211   0.679   4.962
 8337SOL    HW125910   1.177   0.707   4.872
 8337SOL    HW225911   1.271   0.750   4.999
 8338SOL     OW25912   4.015   4.789   2.314
 8338SOL    HW125913   3.924   4.811   2.278
 8338SOL    HW225914   4.063   4.730   2.249
 8339SOL     OW25915   6.853   0.789   0.474
 8339SOL    HW125916   6.943   0.796   0.431
 8339SOL    HW225917   6.859   0.816   0.570
 8340SOL     OW25918   5.149   2.949   0.594
 8340SOL    HW125919   5.243   2.977   0.611
 8340SOL    HW225920   5.088   3.028   0.603
 8341SOL     OW25921   3.318   0.556   6.300
 8341SOL    HW125922   3.412   0.554   6.264
 8341SOL    HW225923   3.310   0.491   6.376
 8342SOL     OW25924   3.472   6.085   0.157
 8342SOL    HW125925   3.452   5.988   0.139
 8342SOL    HW225926   3.481   6.134   0.070
 8343SOL     OW25927   6.464   5.139   3.999
 8343SOL    HW125928   6.470   5.097   3.909
 8343SOL    HW225929   6.381   5.195   4.005
 8344SOL     OW25930   0.571   4.547   3.961
 8344SOL    HW125931   0.570   4.501   4.050
 8344SOL    HW225932   0.519   4.493   3.895
 8345SOL     OW25933   5.284   1.436   3.533
 8345SOL    HW125934   5.267   1.345   3.570
 8345SOL    HW225935   5.341   1.429   3.451
 8346SOL     OW25936   4.075   3.107   6.056
 8346SOL    HW125937   4.025   3.038   6.108
 8346SOL    HW225938   4.103   3.181   6.118
 8347SOL     OW25939   2.105   6.648   6.374
 8347SOL    HW125940   2.194   6.651   6.420
 8347SOL    HW225941   2.043   6.589   6.426
 8348SOL     OW25942   2.701   6.998   1.426
 8348SOL    HW125943   2.747   6.988   1.338
 8348SOL    HW225944   2.729   6.923   1.487
 8349SOL     OW25945   1.017   6.532   1.760
 8349SOL    HW125946   1.004   6.540   1.661
 8349SOL    HW225947   1.088   6.596   1.790
 8350SOL     OW25948   2.916   6.986   6.479
 8350SOL    HW125949   2.983   6.950   6.544
 8350SOL    HW225950   2.874   6.911   6.428
 8351SOL     OW25951   5.997   5.700   3.794
 8351SOL    HW125952   5.928   5.677   3.862
 8351SOL    HW225953   6.078   5.737   3.839
 8352SOL     OW25954   2.753   6.218   2.734
 8352SOL    HW125955   2.729   6.192   2.641
 8352SOL    HW225956   2.716   6.309   2.754
 8353SOL     OW25957   1.476   4.076   1.532
 8353SOL    HW125958   1.431   4.135   1.599
 8353SOL    HW225959   1.535   4.131   1.474
 8354SOL     OW25960   3.542   6.974   4.274
 8354SOL    HW125961   3.559   7.008   4.181
 8354SOL    HW225962   3.597   6.891   4.289
 8355SOL     OW25963   1.406   0.404   6.253
 8355SOL    HW125964   1.496   0.362   6.250
 8355SOL    HW225965   1.379   0.419   6.348
 8356SOL     OW25966   1.309   5.369   1.973
 8356SOL    HW125967   1.258   5.287   1.999
 8356SOL    HW225968   1.401   5.343   1.944
 8357SOL     OW25969   3.496   5.436   6.129
 8357SOL    HW125970   3.576   5.491   6.151
 8357SOL    HW225971   3.414   5.477   6.169
 8358SOL     OW25972   1.017   2.728   5.906
 8358SOL    HW125973   1.113   2.715   5.881
 8358SOL    HW225974   0.965   2.752   5.824
 8359SOL     OW25975   2.135   1.579   4.391
 8359SOL    HW125976   2.145   1.679   4.390
 8359SOL    HW225977   2.149   1.546   4.484
 8360SOL     OW25978   4.660   6.746   0.791
 8360SOL    HW125979   4.599   6.683   0.744
 8360SOL    HW225980   4.649   6.737   0.890
 8361SOL     OW25981   2.348   6.609   6.589
 8361SOL    HW125982   2.296   6.666   6.653
 8361SOL    HW225983   2.413   6.667   6.539
 8362SOL     OW25984   6.031   2.053   0.591
 8362SOL    HW125985   5.993   2.006   0.511
 8362SOL    HW225986   5.994   2.146   0.596
 8363SOL     OW25987   4.209   2.165   0.208
 8363SOL    HW125988   4.193   2.260   0.236
 8363SOL    HW225989   4.170   2.104   0.277
 8364SOL     OW25990   0.908   2.941   3.938
 8364SOL    HW125991   1.000   2.974   3.916
 8364SOL    HW225992   0.841   2.994   3.886
 8365SOL     OW25993   2.149   2.448   2.744
 8365SOL    HW125994   2.205   2.376   2.704
 8365SOL    HW225995   2.193   2.537   2.727
 8366SOL     OW25996   4.124   5.358   1.340
 8366SOL    HW125997   4.128   5.434   1.405
 8366SOL    HW225998   4.044   5.302   1.359
 8367SOL     OW25999   2.979   5.224   5.119
 8367SOL    HW126000   2.983   5.161   5.196
 8367SOL    HW226001   2.883   5.239   5.093
 8368SOL     OW26002   1.104   6.183   6.936
 8368SOL    HW126003   1.084   6.119   7.010
 8368SOL    HW226004   1.057   6.270   6.954
 8369SOL     OW26005   0.698   1.190   1.058
 8369SOL    HW126006   0.690   1.280   1.101
 8369SOL    HW226007   0.642   1.124   1.107
 8370SOL     OW26008   2.487   1.620   6.820
 8370SOL    HW126009   2.394   1.585   6.834
 8370SOL    HW226010   2.502   1.636   6.722
 8371SOL     OW26011   1.649   3.439   5.870
 8371SOL    HW126012   1.714   3.382   5.819
 8371SOL    HW226013   1.699   3.496   5.936
 8372SOL     OW26014   2.146   6.124   1.842
 8372SOL    HW126015   2.138   6.203   1.903
 8372SOL    HW226016   2.136   6.154   1.747
 8373SOL     OW26017   1.260   1.389   4.518
 8373SOL    HW126018   1.327   1.460   4.494
 8373SOL    HW226019   1.224   1.406   4.609
 8374SOL     OW26020   0.905   0.355   4.509
 8374SOL    HW126021   0.849   0.322   4.585
 8374SOL    HW226022   1.001   0.353   4.534
 8375SOL     OW26023   3.637   0.498   5.364
 8375SOL    HW126024   3.701   0.468   5.435
 8375SOL    HW226025   3.674   0.577   5.316
 8376SOL     OW26026   1.744   1.362   3.873
 8376SOL    HW126027   1.787   1.278   3.840
 8376SOL    HW226028   1.728   1.356   3.971
 8377SOL     OW26029   5.079   5.507   0.823
 8377SOL    HW126030   5.005   5.484   0.760
 8377SOL    HW226031   5.127   5.423   0.849
 8378SOL     OW26032   5.417   5.378   3.128
 8378SOL    HW126033   5.419   5.282   3.098
 8378SOL    HW226034   5.323   5.410   3.131
 8379SOL     OW26035   4.830   2.276   1.323
 8379SOL    HW126036   4.907   2.214   1.310
 8379SOL    HW226037   4.765   2.266   1.248
 8380SOL     OW26038   6.894   6.819   0.049
 8380SOL    HW126039   6.928   6.731   0.015
 8380SOL    HW226040   6.848   6.867   6.999
 8381SOL     OW26041   0.319   2.597   3.454
 8381SOL    HW126042   0.336   2.597   3.355
 8381SOL    HW226043   0.382   2.662   3.497
 8382SOL     OW26044   2.425   0.503   1.103
 8382SOL    HW126045   2.418   0.450   1.019
 8382SOL    HW226046   2.364   0.464   1.172
 8383SOL     OW26047   2.498   0.555   5.100
 8383SOL    HW126048   2.590   0.554   5.139
 8383SOL    HW226049   2.488   0.635   5.039
 8384SOL     OW26050   6.996   1.669   0.830
 8384SOL    HW126051   0.009   1.578   0.813
 8384SOL    HW226052   6.897   1.667   0.818
 8385SOL     OW26053   4.731   3.137   0.637
 8385SOL    HW126054   4.651   3.102   0.587
 8385SOL    HW226055   4.725   3.110   0.733
 8386SOL     OW26056   2.053   5.686   1.252
 8386SOL    HW126057   2.061   5.589   1.229
 8386SOL    HW226058   2.054   5.697   1.352
 8387SOL     OW26059   1.899   1.468   1.817
 8387SOL    HW126060   1.800   1.484   1.824
 8387SOL    HW226061   1.935   1.513   1.736
 8388SOL     OW26062   1.443   0.310   0.884
 8388SOL    HW126063   1.472   0.404   0.900
 8388SOL    HW226064   1.434   0.263   0.972
 8389SOL     OW26065   1.048   3.425   4.278
 8389SOL    HW126066   1.026   3.518   4.306
 8389SOL    HW226067   1.072   3.371   4.359
 8390SOL     OW26068   3.346   0.044   6.598
 8390SOL    HW126069   3.350   0.069   6.695
 8390SOL    HW226070   3.429   0.077   6.552
 8391SOL     OW26071   5.223   5.149   0.783
 8391SOL    HW126072   5.152   5.081   0.764
 8391SOL    HW226073   5.204   5.192   0.871
 8392SOL     OW26074   6.489   5.529   5.440
 8392SOL    HW126075   6.496   5.613   5.386
 8392SOL    HW226076   6.577   5.482   5.439
 8393SOL     OW26077   0.352   0.564   3.782
 8393SOL    HW126078   0.319   0.635   3.719
 8393SOL    HW226079   0.452   0.566   3.784
 8394SOL     OW26080   0.569   1.722   2.565
 8394SOL    HW126081   0.612   1.811   2.553
 8394SOL    HW226082   0.526   1.693   2.479
 8395SOL     OW26083   1.074   6.514   3.845
 8395SOL    HW126084   0.989   6.558   3.816
 8395SOL    HW226085   1.141   6.518   3.771
 8396SOL     OW26086   4.466   4.518   2.395
 8396SOL    HW126087   4.516   4.455   2.335
 8396SOL    HW226088   4.528   4.588   2.429
 8397SOL     OW26089   2.253   6.956   2.774
 8397SOL    HW126090   2.269   6.995   2.684
 8397SOL    HW226091   2.226   6.860   2.765
 8398SOL     OW26092   3.391   1.541   7.020
 8398SOL    HW126093   3.394   1.546   0.095
 8398SOL    HW226094   3.443   1.617   6.982
 8399SOL     OW26095   6.643   6.451   7.020
 8399SOL    HW126096   6.579   6.417   0.065
 8399SOL    HW226097   6.640   6.390   6.940
 8400SOL     OW26098   1.082   0.755   3.270
 8400SOL    HW126099   1.036   0.842   3.249
 8400SOL    HW226100   1.097   0.748   3.368
 8401SOL     OW26101   4.426   3.014   5.555
 8401SOL    HW126102   4.453   2.951   5.628
 8401SOL    HW226103   4.364   3.083   5.592
 8402SOL     OW26104   3.177   1.675   5.485
 8402SOL    HW126105   3.114   1.718   5.549
 8402SOL    HW226106   3.271   1.683   5.518
 8403SOL     OW26107   0.382   1.322   3.343
 8403SOL    HW126108   0.378   1.418   3.368
 8403SOL    HW226109   0.477   1.295   3.328
 8404SOL     OW26110   5.659   6.475   6.513
 8404SOL    HW126111   5.591   6.524   6.459
 8404SOL    HW226112   5.621   6.388   6.544
 8405SOL     OW26113   1.786   1.631   0.136
 8405SOL    HW126114   1.814   1.684   0.056
 8405SOL    HW226115   1.731   1.553   0.106
 8406SOL     OW26116   3.835   0.524   1.015
 8406SOL    HW126117   3.766   0.584   0.975
 8406SOL    HW226118   3.858   0.451   0.951
 8407SOL     OW26119   5.441   5.658   4.320
 8407SOL    HW126120   5.420   5.568   4.283
 8407SOL    HW226121   5.360   5.716   4.315
 8408SOL     OW26122   4.665   1.436   3.289
 8408SOL    HW126123   4.673   1.532   3.264
 8408SOL    HW226124   4.646   1.428   3.387
 8409SOL     OW26125   6.441   2.537   3.940
 8409SOL    HW126126   6.428   2.439   3.923
 8409SOL    HW226127   6.529   2.552   3.985
 8410SOL     OW26128   4.518   0.954   1.635
 8410SOL    HW126129   4.563   0.975   1.722
 8410SOL    HW226130   4.463   1.032   1.606
 8411SOL     OW26131   1.854   5.434   4.082
 8411SOL    HW126132   1.909   5.431   4.166
 8411SOL    HW226133   1.820   5.342   4.062
 8412SOL     OW26134   3.738   1.802   1.416
 8412SOL    HW126135   3.824   1.787   1.366
 8412SOL    HW226136   3.697   1.888   1.386
 8413SOL     OW26137   4.953   4.510   0.251
 8413SOL    HW126138   4.868   4.458   0.247
 8413SOL    HW226139   4.943   4.594   0.199
 8414SOL     OW26140   3.785   0.348   1.851
 8414SOL    HW126141   3.855   0.399   1.901
 8414SOL    HW226142   3.809   0.345   1.754
 8415SOL     OW26143   0.378   5.056   4.102
 8415SOL    HW126144   0.371   5.125   4.030
 8415SOL    HW226145   0.471   5.057   4.140
 8416SOL     OW26146   4.952   4.840   3.255
 8416SOL    HW126147   5.037   4.818   3.303
 8416SOL    HW226148   4.895   4.898   3.313
 8417SOL     OW26149   1.455   5.742   5.273
 8417SOL    HW126150   1.499   5.749   5.362
 8417SOL    HW226151   1.425   5.833   5.244
 8418SOL     OW26152   5.772   5.189   1.619
 8418SOL    HW126153   5.730   5.152   1.701
 8418SOL    HW226154   5.843   5.126   1.586
 8419SOL     OW26155   4.703   1.045   2.059
 8419SOL    HW126156   4.752   0.980   2.001
 8419SOL    HW226157   4.627   0.999   2.104
 8420SOL     OW26158   3.672   6.511   0.889
 8420SOL    HW126159   3.707   6.424   0.855
 8420SOL    HW226160   3.628   6.560   0.814
 8421SOL     OW26161   3.550   6.610   1.322
 8421SOL    HW126162   3.605   6.669   1.263
 8421SOL    HW226163   3.599   6.597   1.409
 8422SOL     OW26164   4.765   5.984   1.253
 8422SOL    HW126165   4.710   5.976   1.336
 8422SOL    HW226166   4.704   5.994   1.174
 8423SOL     OW26167   3.942   3.831   6.338
 8423SOL    HW126168   3.952   3.919   6.386
 8423SOL    HW226169   3.868   3.838   6.271
 8424SOL     OW26170   2.453   2.696   3.119
 8424SOL    HW126171   2.440   2.682   3.021
 8424SOL    HW226172   2.545   2.666   3.145
 8425SOL     OW26173   6.651   5.583   1.151
 8425SOL    HW126174   6.678   5.641   1.074
 8425SOL    HW226175   6.725   5.519   1.172
 8426SOL     OW26176   3.852   3.007   4.339
 8426SOL    HW126177   3.929   2.970   4.287
 8426SOL    HW226178   3.887   3.064   4.414
 8427SOL     OW26179   1.271   4.220   5.783
 8427SOL    HW126180   1.316   4.164   5.853
 8427SOL    HW226181   1.310   4.312   5.783
 8428SOL     OW26182   6.670   4.946   1.863
 8428SOL    HW126183   6.752   5.002   1.851
 8428SOL    HW226184   6.676   4.865   1.804
 8429SOL     OW26185   2.108   4.467   4.305
 8429SOL    HW126186   2.159   4.381   4.307
 8429SOL    HW226187   2.164   4.540   4.345
 8430SOL     OW26188   3.982   5.159   3.196
 8430SOL    HW126189   4.035   5.090   3.146
 8430SOL    HW226190   4.045   5.221   3.243
 8431SOL     OW26191   2.180   5.245   1.395
 8431SOL    HW126192   2.263   5.230   1.449
 8431SOL    HW226193   2.101   5.215   1.448
 8432SOL     OW26194   4.715   5.648   5.931
 8432SOL    HW126195   4.644   5.588   5.893
 8432SOL    HW226196   4.768   5.687   5.856
 8433SOL     OW26197   6.941   2.570   6.324
 8433SOL    HW126198   7.023   2.590   6.270
 8433SOL    HW226199   6.938   2.631   6.403
 8434SOL     OW26200   2.822   0.546   4.649
 8434SOL    HW126201   2.901   0.541   4.587
 8434SOL    HW226202   2.851   0.522   4.742
 8435SOL     OW26203   4.759   1.812   1.464
 8435SOL    HW126204   4.844   1.760   1.454
 8435SOL    HW226205   4.707   1.777   1.542
 8436SOL     OW26206   3.516   6.606   4.056
 8436SOL    HW126207   3.532   6.510   4.076
 8436SOL    HW226208   3.573   6.634   3.979
 8437SOL     OW26209   1.913   0.012   2.519
 8437SOL    HW126210   1.902   7.015   2.616
 8437SOL    HW226211   1.857   0.091   2.495
 8438SOL     OW26212   3.223   5.015   2.248
 8438SOL    HW126213   3.165   4.973   2.318
 8438SOL    HW226214   3.169   5.080   2.194
 8439SOL     OW26215   6.679   5.935   1.781
 8439SOL    HW126216   6.584   5.965   1.768
 8439SOL    HW226217   6.726   5.937   1.693
 8440SOL     OW26218   0.419   0.710   2.905
 8440SOL    HW126219   0.511   0.699   2.868
 8440SOL    HW226220   0.352   0.673   2.841
 8441SOL     OW26221   6.611   6.178   0.341
 8441SOL    HW126222   6.703   6.144   0.359
 8441SOL    HW226223   6.543   6.115   0.379
 8442SOL     OW26224   3.539   3.272   5.925
 8442SOL    HW126225   3.542   3.331   6.006
 8442SOL    HW226226   3.629   3.233   5.908
 8443SOL     OW26227   1.433   6.584   3.013
 8443SOL    HW126228   1.532   6.591   3.025
 8443SOL    HW226229   1.409   6.491   2.984
 8444SOL     OW26230   2.962   6.424   3.840
 8444SOL    HW126231   2.990   6.453   3.749
 8444SOL    HW226232   3.018   6.470   3.908
 8445SOL     OW26233   3.459   5.208   2.036
 8445SOL    HW126234   3.459   5.110   2.059
 8445SOL    HW226235   3.539   5.251   2.077
 8446SOL     OW26236   4.895   5.432   1.659
 8446SOL    HW126237   4.862   5.489   1.734
 8446SOL    HW226238   4.920   5.490   1.581
 8447SOL     OW26239   5.676   2.150   1.945
 8447SOL    HW126240   5.578   2.133   1.953
 8447SOL    HW226241   5.712   2.179   2.034
 8448SOL     OW26242   6.492   3.612   5.236
 8448SOL    HW126243   6.561   3.544   5.208
 8448SOL    HW226244   6.531   3.673   5.305
 8449SOL     OW26245   0.033   2.803   4.384
 8449SOL    HW126246   0.101   2.802   4.311
 8449SOL    HW226247   6.997   2.882   4.373
 8450SOL     OW26248   2.048   6.066   2.332
 8450SOL    HW126249   1.996   6.010   2.267
 8450SOL    HW226250   2.055   6.159   2.297
 8451SOL     OW26251   4.151   3.147   0.156
 8451SOL    HW126252   4.179   3.226   0.101
 8451SOL    HW226253   4.163   3.063   0.102
 8452SOL     OW26254   0.171   0.347   1.314
 8452SOL    HW126255   0.190   0.261   1.360
 8452SOL    HW226256   0.078   0.376   1.335
 8453SOL     OW26257   5.925   4.322   6.125
 8453SOL    HW126258   5.962   4.397   6.180
 8453SOL    HW226259   5.877   4.359   6.046
 8454SOL     OW26260   1.228   5.518   1.487
 8454SOL    HW126261   1.191   5.528   1.579
 8454SOL    HW226262   1.246   5.608   1.447
 8455SOL     OW26263   4.861   2.292   0.442
 8455SOL    HW126264   4.902   2.223   0.501
 8455SOL    HW226265   4.872   2.382   0.483
 8456SOL     OW26266   5.474   4.693   3.482
 8456SOL    HW126267   5.442   4.783   3.513
 8456SOL    HW226268   5.459   4.684   3.384
 8457SOL     OW26269   6.461   6.537   5.993
 8457SOL    HW126270   6.468   6.516   6.090
 8457SOL    HW226271   6.527   6.609   5.970
 8458SOL     OW26272   2.406   1.009   7.014
 8458SOL    HW126273   2.426   1.107   7.020
 8458SOL    HW226274   2.318   0.996   6.967
 8459SOL     OW26275   3.377   6.714   1.034
 8459SOL    HW126276   3.373   6.679   1.127
 8459SOL    HW226277   3.344   6.809   1.032
 8460SOL     OW26278   4.552   2.201   5.746
 8460SOL    HW126279   4.558   2.270   5.818
 8460SOL    HW226280   4.504   2.240   5.667
 8461SOL     OW26281   1.044   4.019   2.160
 8461SOL    HW126282   1.031   3.966   2.244
 8461SOL    HW226283   1.131   4.068   2.166
 8462SOL     OW26284   3.017   2.555   0.436
 8462SOL    HW126285   2.939   2.545   0.498
 8462SOL    HW226286   2.993   2.617   0.361
 8463SOL     OW26287   6.867   1.352   0.458
 8463SOL    HW126288   6.842   1.255   0.457
 8463SOL    HW226289   6.967   1.361   0.464
 8464SOL     OW26290   6.921   4.341   5.037
 8464SOL    HW126291   6.951   4.370   4.946
 8464SOL    HW226292   6.838   4.391   5.062
 8465SOL     OW26293   3.337   2.032   0.612
 8465SOL    HW126294   3.379   2.031   0.522
 8465SOL    HW226295   3.239   2.013   0.603
 8466SOL     OW26296   5.999   6.633   4.944
 8466SOL    HW126297   5.935   6.559   4.964
 8466SOL    HW226298   5.960   6.693   4.874
 8467SOL     OW26299   4.159   1.301   0.952
 8467SOL    HW126300   4.085   1.335   1.009
 8467SOL    HW226301   4.137   1.210   0.919
 8468SOL     OW26302   5.699   3.261   0.132
 8468SOL    HW126303   5.666   3.330   0.067
 8468SOL    HW226304   5.621   3.219   0.179
 8469SOL     OW26305   2.741   1.989   5.428
 8469SOL    HW126306   2.767   2.048   5.505
 8469SOL    HW226307   2.658   1.939   5.451
 8470SOL     OW26308   1.360   4.525   0.248
 8470SOL    HW126309   1.284   4.588   0.265
 8470SOL    HW226310   1.446   4.574   0.259
 8471SOL     OW26311   3.998   0.364   5.611
 8471SOL    HW126312   4.035   0.358   5.704
 8471SOL    HW226313   4.068   0.335   5.546
 8472SOL     OW26314   5.363   0.872   5.337
 8472SOL    HW126315   5.453   0.915   5.339
 8472SOL    HW226316   5.373   0.774   5.318
 8473SOL     OW26317   5.843   5.495   0.170
 8473SOL    HW126318   5.760   5.540   0.203
 8473SOL    HW226319   5.907   5.564   0.136
 8474SOL     OW26320   3.601   3.958   1.977
 8474SOL    HW126321   3.677   4.010   1.939
 8474SOL    HW226322   3.527   4.021   2.003
 8475SOL     OW26323   6.878   2.886   2.658
 8475SOL    HW126324   6.832   2.969   2.690
 8475SOL    HW226325   6.977   2.897   2.664
 8476SOL     OW26326   6.891   1.931   1.510
 8476SOL    HW126327   6.839   1.961   1.431
 8476SOL    HW226328   6.961   1.865   1.480
 8477SOL     OW26329   4.118   6.888   2.547
 8477SOL    HW126330   4.064   6.805   2.534
 8477SOL    HW226331   4.063   6.968   2.522
 8478SOL     OW26332   0.796   0.857   5.819
 8478SOL    HW126333   0.772   0.925   5.888
 8478SOL    HW226334   0.727   0.785   5.818
 8479SOL     OW26335   1.199   3.355   1.091
 8479SOL    HW126336   1.289   3.396   1.103
 8479SOL    HW226337   1.166   3.321   1.179
 8480SOL     OW26338   5.386   3.627   6.898
 8480SOL    HW126339   5.372   3.720   6.931
 8480SOL    HW226340   5.303   3.573   6.914
 8481SOL     OW26341   4.936   2.185   4.813
 8481SOL    HW126342   4.860   2.215   4.755
 8481SOL    HW226343   4.914   2.206   4.909
 8482SOL     OW26344   5.136   0.237   2.130
 8482SOL    HW126345   5.152   0.322   2.080
 8482SOL    HW226346   5.145   0.254   2.228
 8483SOL     OW26347   3.215   5.940   3.315
 8483SOL    HW126348   3.129   5.890   3.320
 8483SOL    HW226349   3.289   5.882   3.350
 8484SOL     OW26350   6.866   6.159   4.464
 8484SOL    HW126351   6.838   6.066   4.441
 8484SOL    HW226352   6.886   6.165   4.562
 8485SOL     OW26353   3.620   2.923   0.471
 8485SOL    HW126354   3.678   2.842   0.468
 8485SOL    HW226355   3.665   2.998   0.423
 8486SOL     OW26356   1.880   0.705   3.104
 8486SOL    HW126357   1.896   0.695   3.202
 8486SOL    HW226358   1.912   0.795   3.074
 8487SOL     OW26359   5.818   2.178   5.974
 8487SOL    HW126360   5.733   2.228   5.962
 8487SOL    HW226361   5.896   2.239   5.959
 8488SOL     OW26362   5.199   6.115   2.261
 8488SOL    HW126363   5.123   6.167   2.219
 8488SOL    HW226364   5.278   6.118   2.200
 8489SOL     OW26365   6.447   0.989   1.717
 8489SOL    HW126366   6.470   0.987   1.620
 8489SOL    HW226367   6.528   1.013   1.770
 8490SOL     OW26368   3.042   6.730   5.853
 8490SOL    HW126369   2.970   6.661   5.852
 8490SOL    HW226370   3.118   6.698   5.909
 8491SOL     OW26371   1.661   5.921   2.512
 8491SOL    HW126372   1.637   5.916   2.609
 8491SOL    HW226373   1.759   5.938   2.504
 8492SOL     OW26374   5.782   4.970   3.972
 8492SOL    HW126375   5.833   4.951   3.888
 8492SOL    HW226376   5.834   4.935   4.050
 8493SOL     OW26377   1.748   2.161   6.778
 8493SOL    HW126378   1.692   2.081   6.799
 8493SOL    HW226379   1.799   2.187   6.860
 8494SOL     OW26380   4.162   5.081   2.386
 8494SOL    HW126381   4.114   5.145   2.326
 8494SOL    HW226382   4.101   5.050   2.458
 8495SOL     OW26383   0.359   5.049   0.845
 8495SOL    HW126384   0.346   5.091   0.755
 8495SOL    HW226385   0.344   5.117   0.916
 8496SOL     OW26386   6.819   0.980   2.713
 8496SOL    HW126387   6.784   1.065   2.753
 8496SOL    HW226388   6.862   0.925   2.785
 8497SOL     OW26389   6.971   1.147   3.074
 8497SOL    HW126390   0.045   1.135   3.083
 8497SOL    HW226391   6.926   1.057   3.077
 8498SOL     OW26392   6.548   6.905   3.086
 8498SOL    HW126393   6.518   6.855   3.005
 8498SOL    HW226394   6.636   6.949   3.067
 8499SOL     OW26395   1.057   3.879   6.660
 8499SOL    HW126396   1.042   3.952   6.594
 8499SOL    HW226397   1.026   3.909   6.751
 8500SOL     OW26398   1.673   6.661   5.922
 8500SOL    HW126399   1.618   6.705   5.851
 8500SOL    HW226400   1.617   6.650   6.005
 8501SOL     OW26401   0.571   2.680   6.434
 8501SOL    HW126402   0.518   2.678   6.519
 8501SOL    HW226403   0.575   2.774   6.400
 8502SOL     OW26404   0.260   3.037   1.618
 8502SOL    HW126405   0.266   2.959   1.556
 8502SOL    HW226406   0.265   3.006   1.713
 8503SOL     OW26407   0.031   5.684   5.127
 8503SOL    HW126408   0.100   5.620   5.094
 8503SOL    HW226409   0.068   5.777   5.125
 8504SOL     OW26410   1.709   5.590   2.148
 8504SOL    HW126411   1.740   5.602   2.054
 8504SOL    HW226412   1.657   5.670   2.177
 8505SOL     OW26413   6.343   3.460   2.835
 8505SOL    HW126414   6.297   3.455   2.746
 8505SOL    HW226415   6.435   3.420   2.827
 8506SOL     OW26416   0.958   0.942   6.721
 8506SOL    HW126417   0.964   0.957   6.819
 8506SOL    HW226418   1.044   0.902   6.688
 8507SOL     OW26419   3.886   6.554   4.881
 8507SOL    HW126420   3.828   6.629   4.850
 8507SOL    HW226421   3.863   6.532   4.976
 8508SOL     OW26422   4.274   1.829   5.454
 8508SOL    HW126423   4.315   1.914   5.420
 8508SOL    HW226424   4.330   1.793   5.529
 8509SOL     OW26425   5.605   0.287   3.153
 8509SOL    HW126426   5.635   0.376   3.118
 8509SOL    HW226427   5.677   0.248   3.210
 8510SOL     OW26428   5.466   3.937   2.388
 8510SOL    HW126429   5.477   3.844   2.424
 8510SOL    HW226430   5.545   3.993   2.413
 8511SOL     OW26431   6.108   2.952   2.767
 8511SOL    HW126432   6.175   2.983   2.699
 8511SOL    HW226433   6.019   2.941   2.724
 8512SOL     OW26434   2.862   0.341   2.725
 8512SOL    HW126435   2.841   0.433   2.757
 8512SOL    HW226436   2.923   0.296   2.790
 8513SOL     OW26437   0.141   5.484   0.859
 8513SOL    HW126438   0.157   5.462   0.762
 8513SOL    HW226439   0.071   5.555   0.866
 8514SOL     OW26440   2.481   0.578   3.407
 8514SOL    HW126441   2.459   0.641   3.481
 8514SOL    HW226442   2.419   0.500   3.410
 8515SOL     OW26443   5.041   2.188   0.834
 8515SOL    HW126444   5.034   2.286   0.816
 8515SOL    HW226445   4.953   2.154   0.865
 8516SOL     OW26446   0.175   2.080   2.303
 8516SOL    HW126447   0.241   2.098   2.231
 8516SOL    HW226448   0.118   2.161   2.318
 8517SOL     OW26449   0.787   2.753   5.753
 8517SOL    HW126450   0.694   2.785   5.773
 8517SOL    HW226451   0.782   2.677   5.687
 8518SOL     OW26452   4.656   4.253   0.090
 8518SOL    HW126453   4.628   4.328   0.150
 8518SOL    HW226454   4.589   4.243   0.017
 8519SOL     OW26455   1.966   5.601   2.260
 8519SOL    HW126456   1.870   5.590   2.235
 8519SOL    HW226457   2.007   5.675   2.205
 8520SOL     OW26458   3.784   1.155   0.406
 8520SOL    HW126459   3.881   1.178   0.394
 8520SOL    HW226460   3.775   1.089   0.480
 8521SOL     OW26461   1.883   5.751   5.667
 8521SOL    HW126462   1.814   5.700   5.719
 8521SOL    HW226463   1.973   5.737   5.708
 8522SOL     OW26464   1.220   5.671   2.301
 8522SOL    HW126465   1.172   5.718   2.375
 8522SOL    HW226466   1.155   5.614   2.251
 8523SOL     OW26467   2.749   6.796   6.635
 8523SOL    HW126468   2.666   6.807   6.690
 8523SOL    HW226469   2.728   6.815   6.539
 8524SOL     OW26470   1.268   2.741   4.621
 8524SOL    HW126471   1.268   2.762   4.719
 8524SOL    HW226472   1.359   2.755   4.584
 8525SOL     OW26473   6.009   3.910   3.617
 8525SOL    HW126474   6.038   3.845   3.547
 8525SOL    HW226475   6.025   3.871   3.707
 8526SOL     OW26476   2.606   3.997   1.175
 8526SOL    HW126477   2.540   4.008   1.100
 8526SOL    HW226478   2.697   3.984   1.137
 8527SOL     OW26479   3.810   0.004   4.900
 8527SOL    HW126480   3.856   0.055   4.973
 8527SOL    HW226481   3.821   0.052   4.813
 8528SOL     OW26482   5.431   3.386   6.034
 8528SOL    HW126483   5.500   3.314   6.044
 8528SOL    HW226484   5.351   3.363   6.090
 8529SOL     OW26485   0.914   0.331   0.117
 8529SOL    HW126486   0.844   0.265   0.145
 8529SOL    HW226487   1.004   0.287   0.120
 8530SOL     OW26488   0.843   4.968   5.783
 8530SOL    HW126489   0.849   5.003   5.876
 8530SOL    HW226490   0.936   4.951   5.748
 8531SOL     OW26491   5.616   4.411   3.238
 8531SOL    HW126492   5.529   4.453   3.212
 8531SOL    HW226493   5.687   4.439   3.174
 8532SOL     OW26494   4.462   4.757   4.918
 8532SOL    HW126495   4.538   4.798   4.968
 8532SOL    HW226496   4.429   4.676   4.967
 8533SOL     OW26497   1.876   0.712   5.243
 8533SOL    HW126498   1.784   0.702   5.205
 8533SOL    HW226499   1.939   0.741   5.171
 8534SOL     OW26500   0.250   4.331   3.146
 8534SOL    HW126501   0.330   4.273   3.134
 8534SOL    HW226502   0.180   4.305   3.079
 8535SOL     OW26503   0.685   2.096   4.912
 8535SOL    HW126504   0.597   2.086   4.865
 8535SOL    HW226505   0.728   2.182   4.884
 8536SOL     OW26506   6.420   2.367   5.026
 8536SOL    HW126507   6.455   2.450   4.983
 8536SOL    HW226508   6.321   2.377   5.040
 8537SOL     OW26509   6.673   1.506   1.116
 8537SOL    HW126510   6.633   1.428   1.164
 8537SOL    HW226511   6.616   1.587   1.130
 8538SOL     OW26512   0.893   0.362   5.125
 8538SOL    HW126513   0.970   0.416   5.160
 8538SOL    HW226514   0.824   0.423   5.086
 8539SOL     OW26515   6.240   2.152   2.599
 8539SOL    HW126516   6.204   2.063   2.570
 8539SOL    HW226517   6.180   2.192   2.669
 8540SOL     OW26518   3.540   1.566   0.413
 8540SOL    HW126519   3.605   1.554   0.488
 8540SOL    HW226520   3.568   1.645   0.358
 8541SOL     OW26521   2.635   1.932   5.095
 8541SOL    HW126522   2.599   2.002   5.156
 8541SOL    HW226523   2.732   1.916   5.117
 8542SOL     OW26524   3.602   4.559   6.680
 8542SOL    HW126525   3.679   4.561   6.617
 8542SOL    HW226526   3.517   4.551   6.628
 8543SOL     OW26527   2.983   1.421   5.463
 8543SOL    HW126528   3.076   1.454   5.450
 8543SOL    HW226529   2.928   1.443   5.382
 8544SOL     OW26530   5.238   3.081   5.111
 8544SOL    HW126531   5.254   3.172   5.150
 8544SOL    HW226532   5.277   3.012   5.172
 8545SOL     OW26533   3.071   6.673   4.761
 8545SOL    HW126534   3.008   6.610   4.715
 8545SOL    HW226535   3.065   6.763   4.718
 8546SOL     OW26536   5.545   0.341   1.250
 8546SOL    HW126537   5.631   0.309   1.288
 8546SOL    HW226538   5.516   0.278   1.177
 8547SOL     OW26539   6.679   1.020   5.247
 8547SOL    HW126540   6.586   1.026   5.212
 8547SOL    HW226541   6.739   1.079   5.193
 8548SOL     OW26542   0.641   2.915   5.209
 8548SOL    HW126543   0.665   2.821   5.234
 8548SOL    HW226544   0.635   2.971   5.292
 8549SOL     OW26545   0.944   2.265   4.223
 8549SOL    HW126546   1.002   2.346   4.231
 8549SOL    HW226547   0.940   2.219   4.312
 8550SOL     OW26548   0.936   3.513   6.213
 8550SOL    HW126549   0.993   3.435   6.187
 8550SOL    HW226550   0.953   3.536   6.309
 8551SOL     OW26551   2.421   2.376   6.779
 8551SOL    HW126552   2.455   2.291   6.819
 8551SOL    HW226553   2.322   2.370   6.765
 8552SOL     OW26554   3.108   0.522   2.038
 8552SOL    HW126555   3.032   0.528   2.102
 8552SOL    HW226556   3.084   0.568   1.953
 8553SOL     OW26557   4.330   4.130   0.307
 8553SOL    HW126558   4.278   4.076   0.373
 8553SOL    HW226559   4.392   4.070   0.257
 8554SOL     OW26560   0.792   6.323   1.629
 8554SOL    HW126561   0.812   6.245   1.569
 8554SOL    HW226562   0.870   6.337   1.690
 8555SOL     OW26563   4.430   1.631   3.297
 8555SOL    HW126564   4.414   1.544   3.344
 8555SOL    HW226565   4.478   1.694   3.358
 8556SOL     OW26566   1.795   6.323   5.655
 8556SOL    HW126567   1.881   6.275   5.642
 8556SOL    HW226568   1.725   6.282   5.595
 8557SOL     OW26569   6.508   1.266   1.230
 8557SOL    HW126570   6.569   1.187   1.220
 8557SOL    HW226571   6.429   1.241   1.286
 8558SOL     OW26572   2.397   4.843   3.087
 8558SOL    HW126573   2.361   4.801   3.170
 8558SOL    HW226574   2.323   4.860   3.022
 8559SOL     OW26575   1.349   6.485   2.646
 8559SOL    HW126576   1.356   6.584   2.631
 8559SOL    HW226577   1.341   6.438   2.558
 8560SOL     OW26578   1.539   5.545   1.738
 8560SOL    HW126579   1.489   5.458   1.743
 8560SOL    HW226580   1.594   5.547   1.655
 8561SOL     OW26581   4.162   0.173   3.463
 8561SOL    HW126582   4.244   0.158   3.518
 8561SOL    HW226583   4.187   0.225   3.380
 8562SOL     OW26584   4.196   0.115   6.798
 8562SOL    HW126585   4.185   0.174   6.718
 8562SOL    HW226586   4.129   0.141   6.868
 8563SOL     OW26587   0.837   5.422   2.323
 8563SOL    HW126588   0.829   5.323   2.308
 8563SOL    HW226589   0.769   5.451   2.389
 8564SOL     OW26590   3.811   6.067   6.009
 8564SOL    HW126591   3.727   6.097   5.963
 8564SOL    HW226592   3.883   6.052   5.942
 8565SOL     OW26593   3.947   5.378   1.609
 8565SOL    HW126594   4.027   5.321   1.624
 8565SOL    HW226595   3.865   5.321   1.611
 8566SOL     OW26596   2.253   0.770   2.201
 8566SOL    HW126597   2.348   0.772   2.169
 8566SOL    HW226598   2.248   0.811   2.292
 8567SOL     OW26599   1.590   1.791   1.950
 8567SOL    HW126600   1.590   1.700   1.992
 8567SOL    HW226601   1.569   1.860   2.020
 8568SOL     OW26602   6.362   1.182   0.961
 8568SOL    HW126603   6.381   1.251   0.891
 8568SOL    HW226604   6.352   1.093   0.917
 8569SOL     OW26605   5.172   1.809   5.991
 8569SOL    HW126606   5.125   1.733   5.947
 8569SOL    HW226607   5.183   1.789   6.089
 8570SOL     OW26608   1.946   1.954   4.186
 8570SOL    HW126609   1.880   2.018   4.225
 8570SOL    HW226610   1.901   1.900   4.114
 8571SOL     OW26611   1.049   0.336   4.821
 8571SOL    HW126612   1.057   0.255   4.880
 8571SOL    HW226613   0.971   0.391   4.851
 8572SOL     OW26614   1.939   4.196   5.721
 8572SOL    HW126615   1.855   4.185   5.774
 8572SOL    HW226616   1.919   4.182   5.624
 8573SOL     OW26617   2.686   6.220   6.862
 8573SOL    HW126618   2.780   6.216   6.895
 8573SOL    HW226619   2.679   6.288   6.788
 8574SOL     OW26620   6.265   6.782   5.953
 8574SOL    HW126621   6.243   6.722   6.030
 8574SOL    HW226622   6.326   6.733   5.889
 8575SOL     OW26623   3.607   0.727   2.711
 8575SOL    HW126624   3.630   0.798   2.644
 8575SOL    HW226625   3.508   0.716   2.714
 8576SOL     OW26626   2.050   4.799   4.241
 8576SOL    HW126627   2.036   4.877   4.303
 8576SOL    HW226628   2.029   4.714   4.289
 8577SOL     OW26629   1.351   0.509   5.997
 8577SOL    HW126630   1.293   0.591   5.997
 8577SOL    HW226631   1.381   0.489   6.090
 8578SOL     OW26632   6.071   5.550   6.025
 8578SOL    HW126633   6.134   5.627   6.016
 8578SOL    HW226634   6.100   5.476   5.965
 8579SOL     OW26635   1.681   6.147   2.293
 8579SOL    HW126636   1.657   6.117   2.385
 8579SOL    HW226637   1.617   6.107   2.227
 8580SOL     OW26638   1.970   6.361   0.841
 8580SOL    HW126639   1.904   6.289   0.824
 8580SOL    HW226640   1.992   6.408   0.755
 8581SOL     OW26641   3.902   4.747   1.618
 8581SOL    HW126642   3.970   4.739   1.691
 8581SOL    HW226643   3.825   4.686   1.637
 8582SOL     OW26644   4.912   4.391   5.350
 8582SOL    HW126645   5.010   4.371   5.350
 8582SOL    HW226646   4.860   4.307   5.333
 8583SOL     OW26647   3.088   6.677   2.719
 8583SOL    HW126648   3.115   6.647   2.810
 8583SOL    HW226649   3.090   6.777   2.715
 8584SOL     OW26650   0.047   0.326   5.415
 8584SOL    HW126651   7.014   0.278   5.481
 8584SOL    HW226652   0.143   0.312   5.438
 8585SOL     OW26653   6.213   1.645   1.076
 8585SOL    HW126654   6.290   1.648   1.013
 8585SOL    HW226655   6.245   1.662   1.169
 8586SOL     OW26656   4.405   6.550   1.359
 8586SOL    HW126657   4.388   6.552   1.457
 8586SOL    HW226658   4.329   6.594   1.311
 8587SOL     OW26659   1.184   1.480   4.766
 8587SOL    HW126660   1.195   1.578   4.778
 8587SOL    HW226661   1.236   1.432   4.838
 8588SOL     OW26662   4.608   1.129   0.392
 8588SOL    HW126663   4.603   1.224   0.421
 8588SOL    HW226664   4.546   1.114   0.315
 8589SOL     OW26665   6.724   2.572   5.306
 8589SOL    HW126666   6.719   2.624   5.391
 8589SOL    HW226667   6.632   2.554   5.272
 8590SOL     OW26668   0.389   0.809   2.374
 8590SOL    HW126669   0.367   0.721   2.332
 8590SOL    HW226670   0.343   0.883   2.324
 8591SOL     OW26671   6.918   4.403   0.649
 8591SOL    HW126672   6.980   4.340   0.602
 8591SOL    HW226673   6.940   4.497   0.623
 8592SOL     OW26674   0.297   2.824   0.021
 8592SOL    HW126675   0.215   2.804   6.993
 8592SOL    HW226676   0.271   2.863   0.109
 8593SOL     OW26677   3.641   1.035   6.490
 8593SOL    HW126678   3.548   1.054   6.522
 8593SOL    HW226679   3.707   1.081   6.549
 8594SOL     OW26680   6.059   2.317   6.024
 8594SOL    HW126681   6.124   2.345   6.094
 8594SOL    HW226682   6.058   2.383   5.949
 8595SOL     OW26683   6.309   1.212   3.568
 8595SOL    HW126684   6.251   1.206   3.648
 8595SOL    HW226685   6.373   1.135   3.567
 8596SOL     OW26686   1.609   4.551   2.777
 8596SOL    HW126687   1.638   4.581   2.686
 8596SOL    HW226688   1.684   4.503   2.822
 8597SOL     OW26689   5.533   2.127   0.844
 8597SOL    HW126690   5.573   2.042   0.809
 8597SOL    HW226691   5.578   2.153   0.929
 8598SOL     OW26692   5.132   0.318   5.535
 8598SOL    HW126693   5.065   0.342   5.604
 8598SOL    HW226694   5.224   0.317   5.576
 8599SOL     OW26695   1.052   2.522   4.201
 8599SOL    HW126696   1.139   2.497   4.243
 8599SOL    HW226697   1.013   2.600   4.250
 8600SOL     OW26698   5.489   3.623   0.393
 8600SOL    HW126699   5.526   3.662   0.309
 8600SOL    HW226700   5.530   3.533   0.409
 8601SOL     OW26701   6.801   1.837   3.456
 8601SOL    HW126702   6.819   1.769   3.528
 8601SOL    HW226703   6.728   1.803   3.397
 8602SOL     OW26704   2.656   6.525   3.234
 8602SOL    HW126705   2.718   6.495   3.162
 8602SOL    HW226706   2.668   6.623   3.249
 8603SOL     OW26707   5.425   6.972   6.767
 8603SOL    HW126708   5.344   6.959   6.710
 8603SOL    HW226709   5.407   6.937   6.859
 8604SOL     OW26710   1.166   2.787   6.207
 8604SOL    HW126711   1.239   2.855   6.222
 8604SOL    HW226712   1.137   2.791   6.111
 8605SOL     OW26713   0.979   4.836   3.814
 8605SOL    HW126714   0.924   4.899   3.868
 8605SOL    HW226715   1.056   4.803   3.869
 8606SOL     OW26716   2.706   2.098   0.284
 8606SOL    HW126717   2.646   2.147   0.220
 8606SOL    HW226718   2.653   2.072   0.365
 8607SOL     OW26719   2.732   4.446   6.908
 8607SOL    HW126720   2.706   4.374   6.844
 8607SOL    HW226721   2.710   4.535   6.869
 8608SOL     OW26722   2.106   4.897   2.121
 8608SOL    HW126723   2.104   4.818   2.060
 8608SOL    HW226724   2.200   4.913   2.152
 8609SOL     OW26725   4.845   0.576   3.934
 8609SOL    HW126726   4.815   0.625   4.015
 8609SOL    HW226727   4.941   0.599   3.914
 8610SOL     OW26728   6.792   0.226   3.121
 8610SOL    HW126729   6.753   0.268   3.039
 8610SOL    HW226730   6.783   0.290   3.198
 8611SOL     OW26731   3.065   1.205   4.204
 8611SOL    HW126732   3.046   1.117   4.248
 8611SOL    HW226733   2.982   1.260   4.202
 8612SOL     OW26734   2.756   3.466   1.592
 8612SOL    HW126735   2.838   3.422   1.558
 8612SOL    HW226736   2.699   3.400   1.640
 8613SOL     OW26737   3.021   2.354   1.535
 8613SOL    HW126738   3.039   2.281   1.601
 8613SOL    HW226739   3.100   2.415   1.531
 8614SOL     OW26740   1.694   2.491   3.434
 8614SOL    HW126741   1.624   2.549   3.475
 8614SOL    HW226742   1.682   2.397   3.466
 8615SOL     OW26743   4.858   2.110   5.157
 8615SOL    HW126744   4.952   2.106   5.192
 8615SOL    HW226745   4.799   2.051   5.212
 8616SOL     OW26746   2.611   4.508   1.803
 8616SOL    HW126747   2.708   4.525   1.818
 8616SOL    HW226748   2.596   4.409   1.791
 8617SOL     OW26749   5.662   1.493   3.832
 8617SOL    HW126750   5.660   1.593   3.828
 8617SOL    HW226751   5.696   1.457   3.745
 8618SOL     OW26752   6.067   4.598   1.271
 8618SOL    HW126753   6.093   4.626   1.178
 8618SOL    HW226754   6.041   4.678   1.324
 8619SOL     OW26755   3.877   5.592   3.539
 8619SOL    HW126756   3.830   5.678   3.559
 8619SOL    HW226757   3.834   5.517   3.588
 8620SOL     OW26758   1.954   0.169   4.473
 8620SOL    HW126759   1.904   0.256   4.479
 8620SOL    HW226760   1.902   0.105   4.416
 8621SOL     OW26761   4.910   3.136   2.181
 8621SOL    HW126762   4.912   3.062   2.248
 8621SOL    HW226763   4.836   3.121   2.116
 8622SOL     OW26764   5.543   4.797   1.459
 8622SOL    HW126765   5.496   4.720   1.416
 8622SOL    HW226766   5.501   4.883   1.428
 8623SOL     OW26767   0.547   3.924   5.000
 8623SOL    HW126768   0.514   3.882   4.916
 8623SOL    HW226769   0.511   4.017   5.008
 8624SOL     OW26770   3.974   3.953   5.458
 8624SOL    HW126771   3.912   3.884   5.494
 8624SOL    HW226772   4.048   3.968   5.524
 8625SOL     OW26773   4.274   0.675   5.622
 8625SOL    HW126774   4.335   0.754   5.627
 8625SOL    HW226775   4.231   0.671   5.532
 8626SOL     OW26776   3.883   3.208   6.369
 8626SOL    HW126777   3.868   3.133   6.305
 8626SOL    HW226778   3.863   3.295   6.323
 8627SOL     OW26779   1.874   1.757   2.416
 8627SOL    HW126780   1.910   1.739   2.508
 8627SOL    HW226781   1.874   1.671   2.364
 8628SOL     OW26782   6.582   6.708   6.865
 8628SOL    HW126783   6.579   6.782   6.933
 8628SOL    HW226784   6.565   6.621   6.910
 8629SOL     OW26785   1.574   6.241   5.506
 8629SOL    HW126786   1.530   6.309   5.447
 8629SOL    HW226787   1.508   6.204   5.570
 8630SOL     OW26788   4.931   3.880   4.293
 8630SOL    HW126789   4.907   3.817   4.220
 8630SOL    HW226790   4.936   3.973   4.256
 8631SOL     OW26791   1.697   6.024   6.330
 8631SOL    HW126792   1.646   5.977   6.402
 8631SOL    HW226793   1.662   6.117   6.319
 8632SOL     OW26794   3.982   4.085   5.217
 8632SOL    HW126795   3.971   4.027   5.297
 8632SOL    HW226796   3.904   4.147   5.210
 8633SOL     OW26797   5.921   3.156   5.794
 8633SOL    HW126798   5.867   3.131   5.713
 8633SOL    HW226799   6.017   3.135   5.777
 8634SOL     OW26800   5.102   4.286   0.069
 8634SOL    HW126801   5.085   4.319   0.162
 8634SOL    HW226802   5.170   4.345   0.026
 8635SOL     OW26803   5.341   2.570   7.001
 8635SOL    HW126804   5.258   2.516   7.007
 8635SOL    HW226805   5.331   2.639   6.929
 8636SOL     OW26806   4.850   5.593   1.152
 8636SOL    HW126807   4.814   5.596   1.245
 8636SOL    HW226808   4.785   5.638   1.090
 8637SOL     OW26809   1.763   1.211   6.287
 8637SOL    HW126810   1.790   1.304   6.261
 8637SOL    HW226811   1.730   1.162   6.207
 8638SOL     OW26812   3.996   2.429   5.403
 8638SOL    HW126813   4.062   2.465   5.336
 8638SOL    HW226814   4.008   2.330   5.411
 8639SOL     OW26815   4.419   3.703   6.723
 8639SOL    HW126816   4.454   3.757   6.799
 8639SOL    HW226817   4.342   3.647   6.754
 8640SOL     OW26818   4.086   3.225   0.824
 8640SOL    HW126819   4.174   3.190   0.792
 8640SOL    HW226820   4.086   3.229   0.924
 8641SOL     OW26821   4.011   4.843   4.476
 8641SOL    HW126822   3.945   4.795   4.417
 8641SOL    HW226823   3.999   4.942   4.467
 8642SOL     OW26824   0.897   0.136   3.186
 8642SOL    HW126825   0.934   0.190   3.262
 8642SOL    HW226826   0.850   0.056   3.222
 8643SOL     OW26827   2.300   0.198   0.347
 8643SOL    HW126828   2.252   0.285   0.341
 8643SOL    HW226829   2.266   0.146   0.425
 8644SOL     OW26830   5.993   2.606   6.229
 8644SOL    HW126831   5.992   2.605   6.329
 8644SOL    HW226832   6.027   2.518   6.195
 8645SOL     OW26833   4.585   4.709   1.886
 8645SOL    HW126834   4.513   4.722   1.818
 8645SOL    HW226835   4.674   4.729   1.845
 8646SOL     OW26836   0.670   2.043   6.827
 8646SOL    HW126837   0.754   1.997   6.853
 8646SOL    HW226838   0.616   1.984   6.767
 8647SOL     OW26839   2.294   5.118   0.162
 8647SOL    HW126840   2.197   5.139   0.174
 8647SOL    HW226841   2.313   5.024   0.190
 8648SOL     OW26842   5.912   6.468   0.724
 8648SOL    HW126843   5.824   6.514   0.722
 8648SOL    HW226844   5.983   6.528   0.687
 8649SOL     OW26845   5.614   6.730   0.462
 8649SOL    HW126846   5.659   6.761   0.378
 8649SOL    HW226847   5.575   6.639   0.447
 8650SOL     OW26848   1.567   6.797   4.697
 8650SOL    HW126849   1.488   6.821   4.642
 8650SOL    HW226850   1.595   6.703   4.676
 8651SOL     OW26851   3.710   1.533   0.665
 8651SOL    HW126852   3.637   1.545   0.732
 8651SOL    HW226853   3.764   1.452   0.688
 8652SOL     OW26854   1.130   5.195   3.623
 8652SOL    HW126855   1.206   5.185   3.687
 8652SOL    HW226856   1.110   5.106   3.581
 8653SOL     OW26857   6.414   1.515   5.840
 8653SOL    HW126858   6.404   1.509   5.939
 8653SOL    HW226859   6.498   1.565   5.818
 8654SOL     OW26860   0.200   4.863   0.951
 8654SOL    HW126861   0.131   4.918   0.996
 8654SOL    HW226862   0.267   4.923   0.906
 8655SOL     OW26863   5.750   0.719   4.554
 8655SOL    HW126864   5.821   0.772   4.506
 8655SOL    HW226865   5.788   0.682   4.639
 8656SOL     OW26866   5.486   1.008   2.036
 8656SOL    HW126867   5.487   1.107   2.053
 8656SOL    HW226868   5.446   0.991   1.946
 8657SOL     OW26869   5.762   5.949   6.984
 8657SOL    HW126870   5.814   5.872   7.021
 8657SOL    HW226871   5.761   6.023   0.027
 8658SOL     OW26872   6.306   5.759   0.672
 8658SOL    HW126873   6.297   5.793   0.578
 8658SOL    HW226874   6.221   5.713   0.699
 8659SOL     OW26875   4.438   2.468   2.734
 8659SOL    HW126876   4.392   2.400   2.677
 8659SOL    HW226877   4.499   2.524   2.678
 8660SOL     OW26878   0.134   2.901   2.672
 8660SOL    HW126879   0.206   2.833   2.656
 8660SOL    HW226880   0.170   2.973   2.731
 8661SOL     OW26881   5.811   4.000   1.350
 8661SOL    HW126882   5.804   3.901   1.337
 8661SOL    HW226883   5.906   4.028   1.337
 8662SOL     OW26884   4.190   5.986   2.281
 8662SOL    HW126885   4.126   5.964   2.208
 8662SOL    HW226886   4.139   6.018   2.361
 8663SOL     OW26887   2.844   5.012   2.264
 8663SOL    HW126888   2.891   5.099   2.282
 8663SOL    HW226889   2.892   4.963   2.191
 8664SOL     OW26890   2.586   5.117   2.212
 8664SOL    HW126891   2.578   5.136   2.115
 8664SOL    HW226892   2.679   5.086   2.232
 8665SOL     OW26893   6.123   5.503   4.184
 8665SOL    HW126894   6.063   5.580   4.163
 8665SOL    HW226895   6.109   5.476   4.279
 8666SOL     OW26896   5.088   0.480   4.319
 8666SOL    HW126897   5.057   0.399   4.269
 8666SOL    HW226898   5.155   0.453   4.388
 8667SOL     OW26899   5.075   1.577   4.159
 8667SOL    HW126900   5.103   1.646   4.226
 8667SOL    HW226901   5.086   1.486   4.198
 8668SOL     OW26902   5.490   3.389   5.056
 8668SOL    HW126903   5.469   3.353   4.965
 8668SOL    HW226904   5.415   3.366   5.119
 8669SOL     OW26905   0.612   6.332   6.342
 8669SOL    HW126906   0.651   6.311   6.252
 8669SOL    HW226907   0.579   6.426   6.343
 8670SOL     OW26908   4.864   5.178   5.806
 8670SOL    HW126909   4.787   5.155   5.746
 8670SOL    HW226910   4.949   5.143   5.766
 8671SOL     OW26911   0.178   1.701   2.154
 8671SOL    HW126912   0.086   1.727   2.183
 8671SOL    HW226913   0.245   1.735   2.221
 8672SOL     OW26914   0.585   0.175   3.327
 8672SOL    HW126915   0.517   0.104   3.344
 8672SOL    HW226916   0.674   0.144   3.361
 8673SOL     OW26917   6.448   1.489   0.345
 8673SOL    HW126918   6.389   1.567   0.330
 8673SOL    HW226919   6.535   1.503   0.298
 8674SOL     OW26920   6.953   4.834   2.661
 8674SOL    HW126921   6.886   4.850   2.733
 8674SOL    HW226922   6.947   4.907   2.593
 8675SOL     OW26923   4.290   1.230   5.407
 8675SOL    HW126924   4.260   1.323   5.385
 8675SOL    HW226925   4.358   1.234   5.480
 8676SOL     OW26926   5.221   0.298   1.473
 8676SOL    HW126927   5.233   0.393   1.444
 8676SOL    HW226928   5.125   0.282   1.496
 8677SOL     OW26929   1.708   6.124   5.922
 8677SOL    HW126930   1.699   6.220   5.949
 8677SOL    HW226931   1.776   6.116   5.849
 8678SOL     OW26932   1.133   0.190   0.831
 8678SOL    HW126933   1.120   0.256   0.757
 8678SOL    HW226934   1.045   0.168   0.873
 8679SOL     OW26935   2.036   1.121   3.660
 8679SOL    HW126936   2.028   1.114   3.560
 8679SOL    HW226937   2.105   1.190   3.682
 8680SOL     OW26938   6.153   2.598   6.680
 8680SOL    HW126939   6.090   2.664   6.639
 8680SOL    HW226940   6.107   2.551   6.755
 8681SOL     OW26941   4.591   5.196   1.407
 8681SOL    HW126942   4.585   5.110   1.458
 8681SOL    HW226943   4.583   5.273   1.469
 8682SOL     OW26944   6.875   0.852   1.316
 8682SOL    HW126945   6.964   0.863   1.360
 8682SOL    HW226946   6.835   0.764   1.343
 8683SOL     OW26947   1.672   3.037   4.999
 8683SOL    HW126948   1.624   2.954   5.028
 8683SOL    HW226949   1.606   3.109   4.980
 8684SOL     OW26950   6.814   3.038   4.660
 8684SOL    HW126951   6.881   3.020   4.588
 8684SOL    HW226952   6.761   3.119   4.636
 8685SOL     OW26953   5.457   3.036   6.686
 8685SOL    HW126954   5.467   3.035   6.785
 8685SOL    HW226955   5.547   3.035   6.643
 8686SOL     OW26956   6.318   6.930   2.209
 8686SOL    HW126957   6.263   6.885   2.138
 8686SOL    HW226958   6.297   0.003   2.210
 8687SOL     OW26959   5.916   5.045   3.030
 8687SOL    HW126960   5.951   5.108   3.099
 8687SOL    HW226961   5.896   5.095   2.945
 8688SOL     OW26962   1.340   3.930   6.734
 8688SOL    HW126963   1.249   3.890   6.733
 8688SOL    HW226964   1.352   3.985   6.817
 8689SOL     OW26965   4.228   3.355   7.019
 8689SOL    HW126966   4.178   3.371   6.934
 8689SOL    HW226967   4.249   3.442   0.039
 8690SOL     OW26968   0.785   2.798   2.716
 8690SOL    HW126969   0.859   2.804   2.649
 8690SOL    HW226970   0.735   2.885   2.717
 8691SOL     OW26971   2.944   1.939   5.261
 8691SOL    HW126972   2.972   2.024   5.217
 8691SOL    HW226973   2.876   1.959   5.332
 8692SOL     OW26974   3.763   0.727   4.867
 8692SOL    HW126975   3.844   0.752   4.813
 8692SOL    HW226976   3.792   0.691   4.956
 8693SOL     OW26977   6.044   0.783   5.964
 8693SOL    HW126978   6.117   0.714   5.963
 8693SOL    HW226979   6.010   0.794   6.058
 8694SOL     OW26980   6.180   2.097   4.874
 8694SOL    HW126981   6.265   2.128   4.832
 8694SOL    HW226982   6.191   2.092   4.974
 8695SOL     OW26983   4.179   2.706   5.839
 8695SOL    HW126984   4.148   2.783   5.784
 8695SOL    HW226985   4.246   2.738   5.906
 8696SOL     OW26986   2.768   5.886   5.225
 8696SOL    HW126987   2.720   5.888   5.138
 8696SOL    HW226988   2.701   5.897   5.300
 8697SOL     OW26989   0.316   4.226   6.142
 8697SOL    HW126990   0.352   4.140   6.178
 8697SOL    HW226991   0.279   4.281   6.217
 8698SOL     OW26992   5.440   6.246   5.614
 8698SOL    HW126993   5.378   6.308   5.566
 8698SOL    HW226994   5.500   6.201   5.549
 8699SOL     OW26995   1.871   2.974   6.184
 8699SOL    HW126996   1.963   3.008   6.166
 8699SOL    HW226997   1.807   3.017   6.120
 8700SOL     OW26998   1.587   1.030   5.135
 8700SOL    HW126999   1.558   1.111   5.186
 8700SOL    HW227000   1.616   1.057   5.043
 8701SOL     OW27001   1.715   1.170   0.028
 8701SOL    HW127002   1.703   1.198   6.958
 8701SOL    HW227003   1.813   1.162   0.048
 8702SOL     OW27004   5.138   4.913   1.824
 8702SOL    HW127005   5.184   4.888   1.739
 8702SOL    HW227006   5.085   4.834   1.857
 8703SOL     OW27007   3.155   5.051   6.670
 8703SOL    HW127008   3.130   5.035   6.575
 8703SOL    HW227009   3.104   5.130   6.706
 8704SOL     OW27010   6.390   3.893   3.382
 8704SOL    HW127011   6.364   3.948   3.461
 8704SOL    HW227012   6.359   3.799   3.396
 8705SOL     OW27013   4.545   1.784   6.168
 8705SOL    HW127014   4.508   1.825   6.251
 8705SOL    HW227015   4.643   1.804   6.161
 8706SOL     OW27016   5.150   1.998   6.962
 8706SOL    HW127017   5.194   1.925   7.016
 8706SOL    HW227018   5.051   1.984   6.963
 8707SOL     OW27019   1.118   2.746   4.360
 8707SOL    HW127020   1.156   2.737   4.452
 8707SOL    HW227021   1.078   2.837   4.349
 8708SOL     OW27022   4.014   1.699   4.058
 8708SOL    HW127023   4.041   1.657   4.144
 8708SOL    HW227024   4.030   1.798   4.063
 8709SOL     OW27025   6.825   6.971   6.831
 8709SOL    HW127026   6.874   7.020   6.759
 8709SOL    HW227027   6.764   0.008   6.879
 8710SOL     OW27028   2.044   2.693   3.568
 8710SOL    HW127029   2.011   2.645   3.650
 8710SOL    HW227030   1.994   2.660   3.488
 8711SOL     OW27031   1.520   6.650   2.313
 8711SOL    HW127032   1.599   6.710   2.317
 8711SOL    HW227033   1.545   6.559   2.346
 8712SOL     OW27034   3.191   1.292   3.979
 8712SOL    HW127035   3.153   1.271   4.070
 8712SOL    HW227036   3.117   1.301   3.913
 8713SOL     OW27037   0.024   4.457   1.318
 8713SOL    HW127038   0.084   4.379   1.336
 8713SOL    HW227039   6.961   4.424   1.282
 8714SOL     OW27040   0.875   6.876   6.569
 8714SOL    HW127041   0.889   6.845   6.663
 8714SOL    HW227042   0.834   6.803   6.515
 8715SOL     OW27043   3.818   1.510   6.877
 8715SOL    HW127044   3.784   1.491   6.785
 8715SOL    HW227045   3.902   1.564   6.872
 8716SOL     OW27046   0.674   6.575   1.047
 8716SOL    HW127047   0.592   6.630   1.062
 8716SOL    HW227048   0.651   6.478   1.056
 8717SOL     OW27049   1.935   3.947   5.956
 8717SOL    HW127050   1.980   3.949   5.867
 8717SOL    HW227051   1.998   3.981   6.026
 8718SOL     OW27052   2.217   3.026   6.465
 8718SOL    HW127053   2.150   2.969   6.416
 8718SOL    HW227054   2.271   2.969   6.526
 8719SOL     OW27055   4.103   0.454   0.183
 8719SOL    HW127056   4.123   0.528   0.118
 8719SOL    HW227057   4.039   0.488   0.253
 8720SOL     OW27058   0.003   6.057   6.361
 8720SOL    HW127059   0.008   5.960   6.338
 8720SOL    HW227060   0.048   6.072   6.449
 8721SOL     OW27061   6.216   0.290   0.159
 8721SOL    HW127062   6.226   0.389   0.163
 8721SOL    HW227063   6.298   0.246   0.196
 8722SOL     OW27064   3.757   1.081   6.916
 8722SOL    HW127065   3.806   1.005   6.874
 8722SOL    HW227066   3.737   1.059   7.012
 8723SOL     OW27067   5.566   0.039   2.297
 8723SOL    HW127068   5.629   6.987   2.309
 8723SOL    HW227069   5.477   0.005   2.267
 8724SOL     OW27070   5.916   0.838   4.367
 8724SOL    HW127071   5.845   0.830   4.297
 8724SOL    HW227072   5.996   0.884   4.328
 8725SOL     OW27073   0.792   6.016   5.240
 8725SOL    HW127074   0.731   5.966   5.178
 8725SOL    HW227075   0.760   6.005   5.334
 8726SOL     OW27076   6.574   0.436   0.359
 8726SOL    HW127077   6.574   0.514   0.421
 8726SOL    HW227078   6.498   0.375   0.383
 8727SOL     OW27079   5.857   6.814   7.015
 8727SOL    HW127080   5.867   6.724   6.972
 8727SOL    HW227081   5.782   6.864   6.973
 8728SOL     OW27082   5.283   1.847   2.056
 8728SOL    HW127083   5.261   1.765   2.003
 8728SOL    HW227084   5.352   1.824   2.125
 8729SOL     OW27085   2.933   5.335   5.558
 8729SOL    HW127086   2.872   5.381   5.493
 8729SOL    HW227087   2.939   5.389   5.642
 8730SOL     OW27088   5.272   4.513   3.593
 8730SOL    HW127089   5.184   4.539   3.555
 8730SOL    HW227090   5.344   4.570   3.554
 8731SOL     OW27091   0.604   2.948   3.085
 8731SOL    HW127092   0.678   2.900   3.039
 8731SOL    HW227093   0.577   2.898   3.167
 8732SOL     OW27094   5.979   4.550   2.215
 8732SOL    HW127095   5.958   4.512   2.305
 8732SOL    HW227096   5.898   4.545   2.157
 8733SOL     OW27097   1.131   6.104   0.403
 8733SOL    HW127098   1.072   6.025   0.419
 8733SOL    HW227099   1.081   6.188   0.425
 8734SOL     OW27100   6.552   3.031   2.454
 8734SOL    HW127101   6.533   2.978   2.371
 8734SOL    HW227102   6.631   3.091   2.438
 8735SOL     OW27103   0.924   3.336   5.231
 8735SOL    HW127104   0.999   3.317   5.295
 8735SOL    HW227105   0.842   3.362   5.283
 8736SOL     OW27106   0.406   5.525   2.199
 8736SOL    HW127107   0.467   5.447   2.188
 8736SOL    HW227108   0.442   5.585   2.271
 8737SOL     OW27109   2.562   6.573   6.953
 8737SOL    HW127110   2.560   6.499   7.021
 8737SOL    HW227111   2.504   6.648   6.985
 8738SOL     OW27112   2.448   5.104   3.343
 8738SOL    HW127113   2.356   5.065   3.354
 8738SOL    HW227114   2.454   5.190   3.394
 8739SOL     OW27115   5.554   4.676   5.828
 8739SOL    HW127116   5.478   4.614   5.847
 8739SOL    HW227117   5.519   4.757   5.781
 8740SOL     OW27118   3.704   1.991   2.725
 8740SOL    HW127119   3.683   1.987   2.823
 8740SOL    HW227120   3.798   2.024   2.712
 8741SOL     OW27121   2.321   0.537   2.825
 8741SOL    HW127122   2.246   0.470   2.828
 8741SOL    HW227123   2.345   0.564   2.918
 8742SOL     OW27124   4.094   0.037   1.789
 8742SOL    HW127125   4.092   0.127   1.745
 8742SOL    HW227126   4.056   0.044   1.881
 8743SOL     OW27127   2.181   0.759   1.260
 8743SOL    HW127128   2.107   0.794   1.317
 8743SOL    HW227129   2.229   0.835   1.216
 8744SOL     OW27130   4.518   3.022   0.544
 8744SOL    HW127131   4.480   3.068   0.464
 8744SOL    HW227132   4.529   2.924   0.525
 8745SOL     OW27133   6.630   2.424   6.537
 8745SOL    HW127134   6.664   2.419   6.631
 8745SOL    HW227135   6.531   2.438   6.538
 8746SOL     OW27136   4.847   5.713   4.631
 8746SOL    HW127137   4.781   5.650   4.673
 8746SOL    HW227138   4.799   5.775   4.569
 8747SOL     OW27139   0.166   1.158   2.635
 8747SOL    HW127140   0.216   1.241   2.613
 8747SOL    HW227141   0.116   1.127   2.554
 8748SOL     OW27142   0.594   2.379   4.564
 8748SOL    HW127143   0.601   2.477   4.547
 8748SOL    HW227144   0.644   2.355   4.647
 8749SOL     OW27145   1.833   1.044   5.243
 8749SOL    HW127146   1.847   1.132   5.198
 8749SOL    HW227147   1.753   0.999   5.203
 8750SOL     OW27148   4.033   3.564   5.420
 8750SOL    HW127149   4.093   3.596   5.494
 8750SOL    HW227150   3.940   3.597   5.436
 8751SOL     OW27151   0.047   1.005   1.600
 8751SOL    HW127152   0.074   0.958   1.684
 8751SOL    HW227153   0.122   1.003   1.535
 8752SOL     OW27154   4.450   3.024   6.341
 8752SOL    HW127155   4.452   2.925   6.356
 8752SOL    HW227156   4.403   3.068   6.418
 8753SOL     OW27157   2.248   3.177   0.059
 8753SOL    HW127158   2.215   3.269   0.082
 8753SOL    HW227159   2.219   3.153   6.991
 8754SOL     OW27160   3.091   4.563   5.865
 8754SOL    HW127161   3.108   4.598   5.773
 8754SOL    HW227162   3.121   4.468   5.870
 8755SOL     OW27163   2.279   1.275   1.155
 8755SOL    HW127164   2.254   1.352   1.213
 8755SOL    HW227165   2.360   1.300   1.100
 8756SOL     OW27166   1.553   2.913   3.560
 8756SOL    HW127167   1.642   2.894   3.601
 8756SOL    HW227168   1.514   2.828   3.524
 8757SOL     OW27169   5.160   5.967   6.289
 8757SOL    HW127170   5.194   6.030   6.220
 8757SOL    HW227171   5.127   6.019   6.368
 8758SOL     OW27172   4.794   6.458   3.280
 8758SOL    HW127173   4.885   6.470   3.240
 8758SOL    HW227174   4.729   6.519   3.235
 8759SOL     OW27175   6.079   2.226   6.669
 8759SOL    HW127176   6.154   2.214   6.733
 8759SOL    HW227177   5.998   2.260   6.717
 8760SOL     OW27178   2.594   1.723   4.417
 8760SOL    HW127179   2.526   1.705   4.487
 8760SOL    HW227180   2.684   1.693   4.450
 8761SOL     OW27181   6.323   1.926   1.846
 8761SOL    HW127182   6.362   1.843   1.807
 8761SOL    HW227183   6.389   2.001   1.835
 8762SOL     OW27184   1.094   5.746   4.130
 8762SOL    HW127185   1.138   5.814   4.072
 8762SOL    HW227186   1.034   5.688   4.074
 8763SOL     OW27187   5.505   0.136   5.207
 8763SOL    HW127188   5.488   0.114   5.110
 8763SOL    HW227189   5.472   0.228   5.227
 8764SOL     OW27190   4.884   5.993   5.950
 8764SOL    HW127191   4.829   6.016   5.871
 8764SOL    HW227192   4.916   6.078   5.994
 8765SOL     OW27193   5.648   1.164   4.873
 8765SOL    HW127194   5.611   1.253   4.898
 8765SOL    HW227195   5.693   1.123   4.953
 8766SOL     OW27196   4.244   4.185   5.313
 8766SOL    HW127197   4.254   4.274   5.268
 8766SOL    HW227198   4.162   4.140   5.278
 8767SOL     OW27199   4.180   7.010   3.113
 8767SOL    HW127200   4.213   6.920   3.086
 8767SOL    HW227201   4.097   7.000   3.168
 8768SOL     OW27202   1.078   2.176   1.074
 8768SOL    HW127203   1.126   2.108   1.019
 8768SOL    HW227204   1.038   2.131   1.154
 8769SOL     OW27205   0.560   1.311   1.753
 8769SOL    HW127206   0.504   1.387   1.783
 8769SOL    HW227207   0.656   1.331   1.771
 8770SOL     OW27208   5.405   4.757   2.374
 8770SOL    HW127209   5.453   4.698   2.438
 8770SOL    HW227210   5.355   4.701   2.308
 8771SOL     OW27211   0.252   2.757   6.439
 8771SOL    HW127212   0.312   2.686   6.478
 8771SOL    HW227213   0.306   2.838   6.420
 8772SOL     OW27214   4.463   0.488   6.002
 8772SOL    HW127215   4.523   0.459   6.076
 8772SOL    HW227216   4.474   0.586   5.986
 8773SOL     OW27217   5.414   2.683   3.017
 8773SOL    HW127218   5.469   2.761   2.987
 8773SOL    HW227219   5.467   2.599   3.005
 8774SOL     OW27220   0.471   0.386   7.014
 8774SOL    HW127221   0.431   0.455   6.954
 8774SOL    HW227222   0.482   0.300   6.965
 8775SOL     OW27223   5.170   0.924   5.527
 8775SOL    HW127224   5.080   0.884   5.543
 8775SOL    HW227225   5.206   0.891   5.439
 8776SOL     OW27226   5.098   3.167   1.736
 8776SOL    HW127227   5.134   3.076   1.718
 8776SOL    HW227228   5.161   3.217   1.795
 8777SOL     OW27229   0.397   3.365   3.622
 8777SOL    HW127230   0.419   3.315   3.538
 8777SOL    HW227231   0.407   3.463   3.606
 8778SOL     OW27232   4.915   3.274   6.157
 8778SOL    HW127233   5.001   3.287   6.107
 8778SOL    HW227234   4.887   3.361   6.198
 8779SOL     OW27235   3.007   5.414   2.639
 8779SOL    HW127236   3.043   5.330   2.597
 8779SOL    HW227237   2.911   5.424   2.615
 8780SOL     OW27238   0.364   6.540   3.436
 8780SOL    HW127239   0.358   6.558   3.534
 8780SOL    HW227240   0.387   6.444   3.420
 8781SOL     OW27241   4.636   6.901   3.108
 8781SOL    HW127242   4.613   6.914   3.012
 8781SOL    HW227243   4.583   6.965   3.164
 8782SOL     OW27244   5.817   1.565   1.843
 8782SOL    HW127245   5.748   1.493   1.834
 8782SOL    HW227246   5.782   1.638   1.901
 8783SOL     OW27247   6.516   4.099   4.349
 8783SOL    HW127248   6.536   4.029   4.281
 8783SOL    HW227249   6.602   4.140   4.380
 8784SOL     OW27250   6.451   6.002   0.443
 8784SOL    HW127251   6.514   5.960   0.507
 8784SOL    HW227252   6.374   6.042   0.493
 8785SOL     OW27253   6.892   5.070   6.418
 8785SOL    HW127254   6.860   5.002   6.484
 8785SOL    HW227255   6.814   5.110   6.370
 8786SOL     OW27256   3.448   1.658   2.045
 8786SOL    HW127257   3.484   1.702   2.127
 8786SOL    HW227258   3.379   1.716   2.003
 8787SOL     OW27259   3.448   0.657   2.257
 8787SOL    HW127260   3.426   0.622   2.166
 8787SOL    HW227261   3.491   0.584   2.311
 8788SOL     OW27262   6.652   1.488   5.339
 8788SOL    HW127263   6.610   1.420   5.400
 8788SOL    HW227264   6.584   1.521   5.274
 8789SOL     OW27265   6.610   4.335   5.601
 8789SOL    HW127266   6.673   4.258   5.599
 8789SOL    HW227267   6.622   4.386   5.686
 8790SOL     OW27268   6.645   1.073   6.584
 8790SOL    HW127269   6.574   1.046   6.648
 8790SOL    HW227270   6.608   1.139   6.519
 8791SOL     OW27271   4.847   6.327   5.218
 8791SOL    HW127272   4.901   6.392   5.164
 8791SOL    HW227273   4.750   6.343   5.202
 8792SOL     OW27274   3.305   4.917   2.886
 8792SOL    HW127275   3.219   4.888   2.844
 8792SOL    HW227276   3.382   4.882   2.832
 8793SOL     OW27277   0.524   5.038   3.749
 8793SOL    HW127278   0.563   4.950   3.778
 8793SOL    HW227279   0.449   5.021   3.685
 8794SOL     OW27280   6.471   0.938   3.577
 8794SOL    HW127281   6.468   0.885   3.661
 8794SOL    HW227282   6.416   0.893   3.507
 8795SOL     OW27283   1.384   5.002   4.662
 8795SOL    HW127284   1.387   5.058   4.745
 8795SOL    HW227285   1.356   4.909   4.686
 8796SOL     OW27286   6.068   3.594   3.096
 8796SOL    HW127287   6.008   3.516   3.113
 8796SOL    HW227288   6.163   3.565   3.109
 8797SOL     OW27289   6.857   0.122   4.145
 8797SOL    HW127290   6.762   0.126   4.175
 8797SOL    HW227291   6.916   0.153   4.219
 8798SOL     OW27292   4.524   6.234   5.967
 8798SOL    HW127293   4.492   6.171   6.037
 8798SOL    HW227294   4.453   6.301   5.946
 8799SOL     OW27295   3.082   4.891   2.477
 8799SOL    HW127296   2.993   4.844   2.473
 8799SOL    HW227297   3.138   4.850   2.550
 8800SOL     OW27298   5.999   5.352   5.370
 8800SOL    HW127299   6.090   5.391   5.359
 8800SOL    HW227300   5.957   5.386   5.454
 8801SOL     OW27301   5.955   1.908   4.774
 8801SOL    HW127302   6.007   1.946   4.850
 8801SOL    HW227303   5.968   1.965   4.693
 8802SOL     OW27304   1.502   5.527   5.670
 8802SOL    HW127305   1.531   5.529   5.574
 8802SOL    HW227306   1.582   5.529   5.729
 8803SOL     OW27307   6.555   0.686   0.205
 8803SOL    HW127308   6.559   0.593   0.243
 8803SOL    HW227309   6.467   0.700   0.161
 8804SOL     OW27310   1.834   6.330   1.341
 8804SOL    HW127311   1.908   6.362   1.400
 8804SOL    HW227312   1.793   6.248   1.380
 8805SOL     OW27313   3.897   5.379   3.944
 8805SOL    HW127314   3.858   5.454   3.890
 8805SOL    HW227315   3.976   5.413   3.995
 8806SOL     OW27316   1.948   4.912   0.889
 8806SOL    HW127317   1.989   4.996   0.923
 8806SOL    HW227318   1.999   4.833   0.924
 8807SOL     OW27319   4.590   1.709   6.669
 8807SOL    HW127320   4.634   1.619   6.662
 8807SOL    HW227321   4.633   1.762   6.742
 8808SOL     OW27322   0.268   2.131   6.696
 8808SOL    HW127323   0.190   2.187   6.668
 8808SOL    HW227324   0.334   2.188   6.744
 8809SOL     OW27325   2.416   4.351   3.499
 8809SOL    HW127326   2.476   4.425   3.468
 8809SOL    HW227327   2.389   4.295   3.421
 8810SOL     OW27328   5.597   1.047   5.380
 8810SOL    HW127329   5.639   1.128   5.422
 8810SOL    HW227330   5.624   1.042   5.284
 8811SOL     OW27331   3.616   0.347   2.872
 8811SOL    HW127332   3.669   0.309   2.949
 8811SOL    HW227333   3.674   0.411   2.820
 8812SOL     OW27334   3.074   0.413   0.171
 8812SOL    HW127335   3.121   0.455   0.093
 8812SOL    HW227336   3.079   0.474   0.250
 8813SOL     OW27337   1.716   4.630   2.517
 8813SOL    HW127338   1.789   4.697   2.523
 8813SOL    HW227339   1.752   4.540   2.541
 8814SOL     OW27340   5.543   6.896   0.880
 8814SOL    HW127341   5.639   6.925   0.879
 8814SOL    HW227342   5.501   6.914   0.791
 8815SOL     OW27343   5.294   0.034   1.460
 8815SOL    HW127344   5.220   7.008   1.415
 8815SOL    HW227345   5.269   0.130   1.468
 8816SOL     OW27346   0.553   0.188   6.823
 8816SOL    HW127347   0.591   0.217   6.736
 8816SOL    HW227348   0.466   0.142   6.808
 8817SOL     OW27349   6.938   3.546   4.300
 8817SOL    HW127350   6.909   3.451   4.294
 8817SOL    HW227351   6.860   3.604   4.322
 8818SOL     OW27352   0.723   6.382   3.694
 8818SOL    HW127353   0.785   6.460   3.704
 8818SOL    HW227354   0.666   6.374   3.776
 8819SOL     OW27355   6.091   4.519   5.332
 8819SOL    HW127356   6.034   4.513   5.414
 8819SOL    HW227357   6.132   4.610   5.327
 8820SOL     OW27358   2.892   1.908   4.574
 8820SOL    HW127359   2.848   1.995   4.556
 8820SOL    HW227360   2.984   1.923   4.610
 8821SOL     OW27361   1.310   5.290   0.054
 8821SOL    HW127362   1.360   5.354   0.112
 8821SOL    HW227363   1.231   5.336   0.014
 8822SOL     OW27364   0.520   0.323   3.125
 8822SOL    HW127365   0.534   0.267   3.206
 8822SOL    HW227366   0.607   0.338   3.079
 8823SOL     OW27367   2.575   0.746   2.186
 8823SOL    HW127368   2.601   0.826   2.240
 8823SOL    HW227369   2.647   0.728   2.118
 8824SOL     OW27370   1.009   0.884   0.826
 8824SOL    HW127371   1.013   0.945   0.905
 8824SOL    HW227372   1.085   0.904   0.764
 8825SOL     OW27373   0.568   0.810   1.542
 8825SOL    HW127374   0.568   0.910   1.543
 8825SOL    HW227375   0.663   0.777   1.543
 8826SOL     OW27376   1.025   3.138   1.466
 8826SOL    HW127377   1.097   3.204   1.443
 8826SOL    HW227378   0.997   3.151   1.561
 8827SOL     OW27379   3.661   0.070   2.822
 8827SOL    HW127380   3.680   0.167   2.838
 8827SOL    HW227381   3.601   0.060   2.743
 8828SOL     OW27382   3.872   4.856   6.681
 8828SOL    HW127383   3.905   4.910   6.758
 8828SOL    HW227384   3.869   4.759   6.708
 8829SOL     OW27385   6.162   2.114   1.490
 8829SOL    HW127386   6.227   2.166   1.545
 8829SOL    HW227387   6.167   2.017   1.516
 8830SOL     OW27388   1.662   1.715   3.143
 8830SOL    HW127389   1.640   1.618   3.156
 8830SOL    HW227390   1.761   1.725   3.133
 8831SOL     OW27391   5.870   2.934   2.597
 8831SOL    HW127392   5.814   3.014   2.577
 8831SOL    HW227393   5.831   2.883   2.673
 8832SOL     OW27394   0.533   6.559   4.155
 8832SOL    HW127395   0.516   6.655   4.177
 8832SOL    HW227396   0.511   6.502   4.234
 8833SOL     OW27397   3.570   3.845   0.212
 8833SOL    HW127398   3.548   3.818   0.118
 8833SOL    HW227399   3.667   3.827   0.229
 8834SOL     OW27400   5.963   3.682   5.357
 8834SOL    HW127401   6.025   3.663   5.280
 8834SOL    HW227402   5.932   3.595   5.396
 8835SOL     OW27403   5.991   1.542   6.620
 8835SOL    HW127404   5.975   1.484   6.700
 8835SOL    HW227405   6.015   1.634   6.649
 8836SOL     OW27406   5.253   2.285   0.140
 8836SOL    HW127407   5.237   2.200   0.190
 8836SOL    HW227408   5.211   2.279   0.050
 8837SOL     OW27409   7.022   6.941   1.581
 8837SOL    HW127410   6.989   6.915   1.672
 8837SOL    HW227411   6.943   6.963   1.523
 8838SOL     OW27412   0.723   4.839   2.522
 8838SOL    HW127413   0.678   4.820   2.435
 8838SOL    HW227414   0.801   4.777   2.534
 8839SOL     OW27415   3.674   5.855   2.578
 8839SOL    HW127416   3.623   5.898   2.653
 8839SOL    HW227417   3.703   5.764   2.605
 8840SOL     OW27418   5.921   0.041   1.923
 8840SOL    HW127419   5.918   0.118   1.986
 8840SOL    HW227420   5.921   0.075   1.829
 8841SOL     OW27421   5.437   1.192   2.619
 8841SOL    HW127422   5.507   1.263   2.610
 8841SOL    HW227423   5.350   1.226   2.585
 8842SOL     OW27424   3.278   3.913   3.752
 8842SOL    HW127425   3.252   3.995   3.803
 8842SOL    HW227426   3.201   3.882   3.697
 8843SOL     OW27427   1.556   3.360   4.286
 8843SOL    HW127428   1.541   3.447   4.333
 8843SOL    HW227429   1.525   3.285   4.345
 8844SOL     OW27430   0.084   1.810   4.613
 8844SOL    HW127431   0.101   1.748   4.536
 8844SOL    HW227432   0.075   1.757   4.697
 8845SOL     OW27433   2.477   4.876   0.241
 8845SOL    HW127434   2.402   4.919   0.191
 8845SOL    HW227435   2.553   4.855   0.179
 8846SOL     OW27436   5.445   4.587   4.631
 8846SOL    HW127437   5.448   4.686   4.643
 8846SOL    HW227438   5.423   4.565   4.536
 8847SOL     OW27439   2.129   1.270   3.287
 8847SOL    HW127440   2.113   1.172   3.298
 8847SOL    HW227441   2.222   1.292   3.317
 8848SOL     OW27442   3.333   2.042   2.240
 8848SOL    HW127443   3.269   2.119   2.232
 8848SOL    HW227444   3.305   1.985   2.317
 8849SOL     OW27445   3.166   4.860   3.693
 8849SOL    HW127446   3.221   4.782   3.724
 8849SOL    HW227447   3.207   4.897   3.609
 8850SOL     OW27448   2.826   1.176   0.800
 8850SOL    HW127449   2.838   1.262   0.848
 8850SOL    HW227450   2.868   1.182   0.709
 8851SOL     OW27451   1.391   4.395   1.979
 8851SOL    HW127452   1.314   4.447   2.016
 8851SOL    HW227453   1.462   4.386   2.049
 8852SOL     OW27454   4.740   3.089   6.022
 8852SOL    HW127455   4.787   3.028   5.959
 8852SOL    HW227456   4.806   3.134   6.082
 8853SOL     OW27457   3.125   0.648   4.224
 8853SOL    HW127458   3.090   0.611   4.309
 8853SOL    HW227459   3.077   0.606   4.147
 8854SOL     OW27460   2.517   0.470   6.194
 8854SOL    HW127461   2.551   0.438   6.283
 8854SOL    HW227462   2.550   0.563   6.177
 8855SOL     OW27463   0.009   6.355   0.429
 8855SOL    HW127464   0.043   6.400   0.512
 8855SOL    HW227465   7.010   6.424   0.361
 8856SOL     OW27466   6.096   0.106   5.619
 8856SOL    HW127467   6.015   0.155   5.585
 8856SOL    HW227468   6.067   0.036   5.685
 8857SOL     OW27469   6.274   2.074   3.871
 8857SOL    HW127470   6.248   2.160   3.828
 8857SOL    HW227471   6.204   2.005   3.853
 8858SOL     OW27472   2.159   3.520   5.704
 8858SOL    HW127473   2.141   3.599   5.645
 8858SOL    HW227474   2.073   3.473   5.723
 8859SOL     OW27475   0.113   6.883   5.453
 8859SOL    HW127476   0.032   6.856   5.401
 8859SOL    HW227477   0.089   6.891   5.550
 8860SOL     OW27478   1.921   4.118   2.969
 8860SOL    HW127479   1.848   4.186   2.971
 8860SOL    HW227480   1.960   4.108   3.060
 8861SOL     OW27481   3.184   2.219   5.946
 8861SOL    HW127482   3.151   2.194   6.037
 8861SOL    HW227483   3.169   2.317   5.931
 8862SOL     OW27484   6.521   1.360   3.496
 8862SOL    HW127485   6.517   1.458   3.515
 8862SOL    HW227486   6.434   1.318   3.522
 8863SOL     OW27487   1.654   5.884   4.596
 8863SOL    HW127488   1.563   5.911   4.627
 8863SOL    HW227489   1.717   5.886   4.673
 8864SOL     OW27490   2.615   3.401   6.513
 8864SOL    HW127491   2.624   3.307   6.545
 8864SOL    HW227492   2.558   3.453   6.577
 8865SOL     OW27493   3.109   1.829   4.732
 8865SOL    HW127494   3.178   1.760   4.753
 8865SOL    HW227495   3.072   1.866   4.817
 8866SOL     OW27496   4.955   6.718   4.028
 8866SOL    HW127497   4.872   6.743   4.076
 8866SOL    HW227498   4.997   6.800   3.989
 8867SOL     OW27499   5.257   3.017   2.804
 8867SOL    HW127500   5.165   3.044   2.774
 8867SOL    HW227501   5.283   3.072   2.884
 8868SOL     OW27502   6.050   3.580   0.734
 8868SOL    HW127503   6.074   3.668   0.693
 8868SOL    HW227504   5.998   3.595   0.819
 8869SOL     OW27505   4.482   5.620   3.328
 8869SOL    HW127506   4.522   5.529   3.338
 8869SOL    HW227507   4.492   5.670   3.414
 8870SOL     OW27508   3.625   0.057   0.217
 8870SOL    HW127509   3.724   0.040   0.216
 8870SOL    HW227510   3.588   0.030   0.306
 8871SOL     OW27511   3.496   1.230   3.671
 8871SOL    HW127512   3.560   1.156   3.649
 8871SOL    HW227513   3.431   1.242   3.596
 8872SOL     OW27514   1.673   4.232   4.526
 8872SOL    HW127515   1.751   4.292   4.507
 8872SOL    HW227516   1.683   4.147   4.473
 8873SOL     OW27517   6.435   6.490   1.944
 8873SOL    HW127518   6.429   6.391   1.927
 8873SOL    HW227519   6.404   6.539   1.862
 8874SOL     OW27520   2.073   6.631   0.934
 8874SOL    HW127521   2.037   6.581   1.013
 8874SOL    HW227522   2.094   6.566   0.861
 8875SOL     OW27523   1.059   2.823   5.056
 8875SOL    HW127524   1.047   2.822   5.155
 8875SOL    HW227525   0.974   2.794   5.012
 8876SOL     OW27526   0.714   6.957   4.763
 8876SOL    HW127527   0.701   6.902   4.845
 8876SOL    HW227528   0.808   6.949   4.731
 8877SOL     OW27529   2.952   0.977   4.807
 8877SOL    HW127530   2.873   1.038   4.797
 8877SOL    HW227531   2.963   0.923   4.723
 8878SOL     OW27532   0.646   5.318   0.609
 8878SOL    HW127533   0.597   5.401   0.637
 8878SOL    HW227534   0.690   5.277   0.688
 8879SOL     OW27535   5.993   4.948   1.152
 8879SOL    HW127536   5.909   4.953   1.205
 8879SOL    HW227537   6.072   4.955   1.213
 8880SOL     OW27538   6.982   5.602   4.346
 8880SOL    HW127539   0.020   5.679   4.335
 8880SOL    HW227540   6.933   5.611   4.433
 8881SOL     OW27541   6.062   0.101   4.073
 8881SOL    HW127542   6.070   0.002   4.081
 8881SOL    HW227543   6.027   0.139   4.158
 8882SOL     OW27544   5.178   1.500   0.902
 8882SOL    HW127545   5.128   1.480   0.817
 8882SOL    HW227546   5.142   1.583   0.943
 8883SOL     OW27547   1.004   0.893   5.643
 8883SOL    HW127548   0.922   0.866   5.694
 8883SOL    HW227549   0.981   0.899   5.546
 8884SOL     OW27550   5.775   5.819   6.174
 8884SOL    HW127551   5.693   5.876   6.179
 8884SOL    HW227552   5.791   5.791   6.080
 8885SOL     OW27553   6.857   3.819   1.575
 8885SOL    HW127554   6.885   3.870   1.493
 8885SOL    HW227555   6.909   3.852   1.654
 8886SOL     OW27556   3.390   6.566   5.497
 8886SOL    HW127557   3.321   6.505   5.458
 8886SOL    HW227558   3.432   6.522   5.576
 8887SOL     OW27559   3.097   1.091   0.921
 8887SOL    HW127560   3.008   1.101   0.876
 8887SOL    HW227561   3.133   0.999   0.903
 8888SOL     OW27562   0.987   1.811   1.116
 8888SOL    HW127563   0.904   1.757   1.117
 8888SOL    HW227564   1.010   1.835   1.021
 8889SOL     OW27565   5.522   6.571   5.524
 8889SOL    HW127566   5.570   6.498   5.476
 8889SOL    HW227567   5.423   6.554   5.522
 8890SOL     OW27568   6.744   5.917   4.213
 8890SOL    HW127569   6.744   6.004   4.163
 8890SOL    HW227570   6.742   5.841   4.148
 8891SOL     OW27571   6.068   3.214   6.005
 8891SOL    HW127572   6.076   3.313   5.997
 8891SOL    HW227573   6.017   3.178   5.926
 8892SOL     OW27574   3.490   6.035   3.541
 8892SOL    HW127575   3.406   6.006   3.587
 8892SOL    HW227576   3.511   6.130   3.567
 8893SOL     OW27577   1.061   0.663   2.038
 8893SOL    HW127578   1.113   0.684   2.120
 8893SOL    HW227579   1.058   0.744   1.979
 8894SOL     OW27580   4.054   2.916   5.641
 8894SOL    HW127581   3.996   2.992   5.611
 8894SOL    HW227582   4.017   2.830   5.607
 8895SOL     OW27583   6.637   1.585   1.704
 8895SOL    HW127584   6.570   1.606   1.775
 8895SOL    HW227585   6.615   1.495   1.665
 8896SOL     OW27586   1.762   3.328   4.753
 8896SOL    HW127587   1.761   3.328   4.853
 8896SOL    HW227588   1.852   3.296   4.721
 8897SOL     OW27589   1.933   1.811   3.073
 8897SOL    HW127590   1.949   1.757   2.990
 8897SOL    HW227591   2.009   1.874   3.087
 8898SOL     OW27592   6.063   3.639   4.856
 8898SOL    HW127593   6.033   3.734   4.858
 8898SOL    HW227594   6.076   3.611   4.761
 8899SOL     OW27595   1.514   4.766   0.257
 8899SOL    HW127596   1.489   4.790   0.163
 8899SOL    HW227597   1.601   4.716   0.257
 8900SOL     OW27598   5.739   3.729   2.896
 8900SOL    HW127599   5.653   3.715   2.947
 8900SOL    HW227600   5.779   3.817   2.924
 8901SOL     OW27601   2.559   1.075   4.197
 8901SOL    HW127602   2.502   1.069   4.115
 8901SOL    HW227603   2.540   1.160   4.245
 8902SOL     OW27604   3.139   5.948   6.921
 8902SOL    HW127605   3.151   5.860   6.968
 8902SOL    HW227606   3.133   6.021   6.989
 8903SOL     OW27607   1.449   1.022   4.353
 8903SOL    HW127608   1.431   1.121   4.361
 8903SOL    HW227609   1.459   0.983   4.444
 8904SOL     OW27610   6.633   5.693   3.695
 8904SOL    HW127611   6.601   5.628   3.626
 8904SOL    HW227612   6.590   5.672   3.783
 8905SOL     OW27613   2.154   3.837   4.735
 8905SOL    HW127614   2.178   3.741   4.721
 8905SOL    HW227615   2.171   3.862   4.831
 8906SOL     OW27616   0.099   6.971   6.882
 8906SOL    HW127617   0.008   6.930   6.878
 8906SOL    HW227618   0.141   6.949   6.970
 8907SOL     OW27619   3.197   2.082   4.729
 8907SOL    HW127620   3.161   1.989   4.727
 8907SOL    HW227621   3.132   2.142   4.775
 8908SOL     OW27622   1.493   3.053   0.066
 8908SOL    HW127623   1.498   3.106   0.151
 8908SOL    HW227624   1.490   3.115   7.013
 8909SOL     OW27625   1.524   0.722   4.770
 8909SOL    HW127626   1.508   0.770   4.856
 8909SOL    HW227627   1.481   0.632   4.774
 8910SOL     OW27628   1.870   3.560   6.328
 8910SOL    HW127629   1.858   3.656   6.352
 8910SOL    HW227630   1.966   3.543   6.302
 8911SOL     OW27631   4.093   2.200   4.905
 8911SOL    HW127632   4.050   2.169   4.990
 8911SOL    HW227633   4.154   2.276   4.925
 8912SOL     OW27634   4.089   1.538   0.045
 8912SOL    HW127635   3.996   1.547   0.080
 8912SOL    HW227636   4.153   1.583   0.107
 8913SOL     OW27637   4.609   5.209   0.838
 8913SOL    HW127638   4.547   5.273   0.882
 8913SOL    HW227639   4.598   5.118   0.879
 8914SOL     OW27640   4.211   0.403   4.965
 8914SOL    HW127641   4.197   0.476   5.032
 8914SOL    HW227642   4.272   0.435   4.893
 8915SOL     OW27643   1.155   3.027   3.814
 8915SOL    HW127644   1.185   2.946   3.763
 8915SOL    HW227645   1.150   3.105   3.752
 8916SOL     OW27646   0.705   3.434   2.051
 8916SOL    HW127647   0.710   3.335   2.043
 8916SOL    HW227648   0.621   3.467   2.008
 8917SOL     OW27649   5.698   4.505   6.419
 8917SOL    HW127650   5.743   4.417   6.433
 8917SOL    HW227651   5.741   4.553   6.343
 8918SOL     OW27652   6.991   5.685   0.977
 8918SOL    HW127653   6.925   5.713   1.046
 8918SOL    HW227654   7.004   5.759   0.911
 8919SOL     OW27655   4.468   3.683   0.565
 8919SOL    HW127656   4.428   3.762   0.610
 8919SOL    HW227657   4.427   3.599   0.602
 8920SOL     OW27658   0.037   6.812   6.505
 8920SOL    HW127659   0.100   6.769   6.570
 8920SOL    HW227660   0.090   6.864   6.438
 8921SOL     OW27661   2.247   2.038   3.334
 8921SOL    HW127662   2.216   1.970   3.401
 8921SOL    HW227663   2.297   2.111   3.381
 8922SOL     OW27664   2.908   4.663   1.515
 8922SOL    HW127665   2.812   4.677   1.538
 8922SOL    HW227666   2.932   4.719   1.436
 8923SOL     OW27667   1.173   3.626   5.881
 8923SOL    HW127668   1.249   3.586   5.830
 8923SOL    HW227669   1.108   3.554   5.906
 8924SOL     OW27670   3.189   6.109   5.875
 8924SOL    HW127671   3.207   6.110   5.973
 8924SOL    HW227672   3.276   6.115   5.826
 8925SOL     OW27673   0.907   0.678   2.397
 8925SOL    HW127674   0.971   0.651   2.325
 8925SOL    HW227675   0.824   0.716   2.355
 8926SOL     OW27676   5.945   3.347   0.211
 8926SOL    HW127677   5.958   3.421   0.146
 8926SOL    HW227678   5.873   3.286   0.179
 8927SOL     OW27679   1.573   2.107   4.817
 8927SOL    HW127680   1.537   2.161   4.741
 8927SOL    HW227681   1.662   2.144   4.846
 8928SOL     OW27682   6.809   1.159   5.025
 8928SOL    HW127683   6.856   1.247   5.023
 8928SOL    HW227684   6.734   1.159   4.958
 8929SOL     OW27685   0.532   3.323   3.942
 8929SOL    HW127686   0.536   3.386   4.019
 8929SOL    HW227687   0.504   3.233   3.975
 8930SOL     OW27688   2.264   4.870   4.603
 8930SOL    HW127689   2.207   4.842   4.680
 8930SOL    HW227690   2.326   4.943   4.632
 8931SOL     OW27691   3.574   2.978   0.733
 8931SOL    HW127692   3.593   2.968   0.636
 8931SOL    HW227693   3.660   2.983   0.784
 8932SOL     OW27694   5.326   0.648   6.957
 8932SOL    HW127695   5.296   0.653   0.028
 8932SOL    HW227696   5.250   0.672   6.897
 8933SOL     OW27697   0.950   1.885   5.759
 8933SOL    HW127698   1.023   1.818   5.767
 8933SOL    HW227699   0.880   1.851   5.697
 8934SOL     OW27700   2.425   5.766   3.852
 8934SOL    HW127701   2.458   5.773   3.946
 8934SOL    HW227702   2.503   5.761   3.789
 8935SOL     OW27703   5.327   4.597   1.770
 8935SOL    HW127704   5.323   4.577   1.672
 8935SOL    HW227705   5.353   4.513   1.819
 8936SOL     OW27706   0.704   3.550   1.001
 8936SOL    HW127707   0.727   3.630   0.946
 8936SOL    HW227708   0.752   3.555   1.089
 8937SOL     OW27709   0.411   0.676   4.327
 8937SOL    HW127710   0.459   0.756   4.291
 8937SOL    HW227711   0.364   0.629   4.252
 8938SOL     OW27712   0.088   1.268   0.223
 8938SOL    HW127713   0.098   1.298   0.318
 8938SOL    HW227714   0.003   1.217   0.213
 8939SOL     OW27715   6.307   3.022   4.635
 8939SOL    HW127716   6.381   2.978   4.686
 8939SOL    HW227717   6.286   3.110   4.678
 8940SOL     OW27718   5.287   2.048   0.527
 8940SOL    HW127719   5.304   1.964   0.578
 8940SOL    HW227720   5.372   2.100   0.519
 8941SOL     OW27721   4.840   2.206   1.867
 8941SOL    HW127722   4.856   2.198   1.768
 8941SOL    HW227723   4.892   2.283   1.902
 8942SOL     OW27724   0.968   5.153   4.392
 8942SOL    HW127725   0.984   5.242   4.350
 8942SOL    HW227726   0.870   5.135   4.396
 8943SOL     OW27727   4.210   5.033   0.414
 8943SOL    HW127728   4.293   5.026   0.360
 8943SOL    HW227729   4.174   4.941   0.432
 8944SOL     OW27730   5.026   4.868   4.507
 8944SOL    HW127731   5.012   4.952   4.558
 8944SOL    HW227732   5.077   4.803   4.563
 8945SOL     OW27733   6.883   2.031   4.848
 8945SOL    HW127734   6.982   2.037   4.863
 8945SOL    HW227735   6.860   1.940   4.814
 8946SOL     OW27736   3.405   0.337   4.546
 8946SOL    HW127737   3.415   0.392   4.463
 8946SOL    HW227738   3.411   0.240   4.522
 8947SOL     OW27739   1.783   3.831   6.381
 8947SOL    HW127740   1.757   3.913   6.329
 8947SOL    HW227741   1.850   3.857   6.450
 8948SOL     OW27742   6.425   5.828   3.513
 8948SOL    HW127743   6.482   5.829   3.595
 8948SOL    HW227744   6.389   5.736   3.499
 8949SOL     OW27745   3.940   5.978   0.152
 8949SOL    HW127746   3.930   6.012   0.058
 8949SOL    HW227747   3.862   6.007   0.207
 8950SOL     OW27748   4.456   3.441   1.293
 8950SOL    HW127749   4.458   3.395   1.381
 8950SOL    HW227750   4.538   3.417   1.241
 8951SOL     OW27751   2.062   1.074   4.724
 8951SOL    HW127752   1.979   1.085   4.669
 8951SOL    HW227753   2.037   1.067   4.821
 8952SOL     OW27754   1.931   5.197   3.116
 8952SOL    HW127755   1.983   5.187   3.201
 8952SOL    HW227756   1.966   5.275   3.065
 8953SOL     OW27757   1.749   4.693   1.298
 8953SOL    HW127758   1.780   4.599   1.288
 8953SOL    HW227759   1.775   4.746   1.217
 8954SOL     OW27760   0.268   6.815   3.687
 8954SOL    HW127761   0.209   6.809   3.606
 8954SOL    HW227762   0.355   6.858   3.661
 8955SOL     OW27763   0.177   3.140   2.513
 8955SOL    HW127764   0.185   3.063   2.577
 8955SOL    HW227765   0.173   3.226   2.564
 8956SOL     OW27766   0.821   0.274   6.469
 8956SOL    HW127767   0.767   0.203   6.514
 8956SOL    HW227768   0.836   0.250   6.373
 8957SOL     OW27769   1.987   4.795   1.554
 8957SOL    HW127770   1.897   4.788   1.510
 8957SOL    HW227771   2.015   4.705   1.587
 8958SOL     OW27772   1.427   2.800   5.199
 8958SOL    HW127773   1.387   2.727   5.252
 8958SOL    HW227774   1.391   2.797   5.105
 8959SOL     OW27775   1.176   3.566   2.286
 8959SOL    HW127776   1.162   3.662   2.261
 8959SOL    HW227777   1.102   3.536   2.345
 8960SOL     OW27778   6.478   5.095   3.721
 8960SOL    HW127779   6.496   5.008   3.675
 8960SOL    HW227780   6.473   5.168   3.653
 8961SOL     OW27781   4.128   1.494   3.818
 8961SOL    HW127782   4.171   1.522   3.732
 8961SOL    HW227783   4.065   1.566   3.848
 8962SOL     OW27784   6.861   6.332   1.586
 8962SOL    HW127785   6.841   6.318   1.683
 8962SOL    HW227786   6.838   6.425   1.560
 8963SOL     OW27787   3.312   6.609   4.655
 8963SOL    HW127788   3.374   6.638   4.729
 8963SOL    HW227789   3.222   6.589   4.693
 8964SOL     OW27790   4.764   4.085   2.869
 8964SOL    HW127791   4.760   4.005   2.929
 8964SOL    HW227792   4.848   4.083   2.815
 8965SOL     OW27793   3.503   5.218   0.331
 8965SOL    HW127794   3.560   5.226   0.413
 8965SOL    HW227795   3.438   5.143   0.343
 8966SOL     OW27796   6.718   4.922   6.562
 8966SOL    HW127797   6.659   4.874   6.496
 8966SOL    HW227798   6.675   4.921   6.652
 8967SOL     OW27799   4.325   0.812   3.005
 8967SOL    HW127800   4.268   0.766   2.937
 8967SOL    HW227801   4.415   0.833   2.966
 8968SOL     OW27802   3.008   4.972   1.781
 8968SOL    HW127803   3.023   4.873   1.785
 8968SOL    HW227804   2.963   4.996   1.695
 8969SOL     OW27805   0.477   0.665   3.481
 8969SOL    HW127806   0.488   0.576   3.525
 8969SOL    HW227807   0.402   0.714   3.524
 8970SOL     OW27808   1.488   2.250   0.123
 8970SOL    HW127809   1.429   2.215   0.195
 8970SOL    HW227810   1.454   2.337   0.090
 8971SOL     OW27811   4.835   6.799   1.827
 8971SOL    HW127812   4.862   6.773   1.920
 8971SOL    HW227813   4.916   6.801   1.768
 8972SOL     OW27814   5.239   4.313   0.342
 8972SOL    HW127815   5.148   4.295   0.381
 8972SOL    HW227816   5.284   4.225   0.322
 8973SOL     OW27817   0.157   2.551   2.590
 8973SOL    HW127818   0.079   2.581   2.534
 8973SOL    HW227819   0.130   2.548   2.686
 8974SOL     OW27820   1.926   3.879   3.973
 8974SOL    HW127821   1.936   3.817   4.051
 8974SOL    HW227822   1.999   3.947   3.975
 8975SOL     OW27823   0.371   0.018   0.100
 8975SOL    HW127824   0.300   0.087   0.114
 8975SOL    HW227825   0.449   0.059   0.054
 8976SOL     OW27826   0.023   6.158   0.727
 8976SOL    HW127827   6.979   6.099   0.685
 8976SOL    HW227828   0.042   6.126   0.820
 8977SOL     OW27829   0.113   4.520   6.661
 8977SOL    HW127830   0.061   4.447   6.615
 8977SOL    HW227831   0.087   4.608   6.623
 8978SOL     OW27832   5.454   6.333   5.056
 8978SOL    HW127833   5.448   6.257   4.992
 8978SOL    HW227834   5.537   6.386   5.037
 8979SOL     OW27835   1.039   5.400   6.295
 8979SOL    HW127836   1.034   5.304   6.323
 8979SOL    HW227837   1.065   5.456   6.374
 8980SOL     OW27838   5.374   2.089   5.675
 8980SOL    HW127839   5.386   2.060   5.770
 8980SOL    HW227840   5.285   2.058   5.642
 8981SOL     OW27841   5.086   2.056   5.644
 8981SOL    HW127842   5.098   1.958   5.629
 8981SOL    HW227843   4.990   2.080   5.631
 8982SOL     OW27844   6.781   2.252   1.483
 8982SOL    HW127845   6.743   2.210   1.401
 8982SOL    HW227846   6.710   2.304   1.531
 8983SOL     OW27847   1.202   5.148   1.177
 8983SOL    HW127848   1.176   5.227   1.234
 8983SOL    HW227849   1.256   5.084   1.231
 8984SOL     OW27850   6.278   0.304   4.446
 8984SOL    HW127851   6.318   0.230   4.392
 8984SOL    HW227852   6.293   0.391   4.400
 8985SOL     OW27853   3.866   2.433   0.849
 8985SOL    HW127854   3.794   2.374   0.884
 8985SOL    HW227855   3.935   2.378   0.803
 8986SOL     OW27856   5.457   4.335   2.228
 8986SOL    HW127857   5.482   4.349   2.324
 8986SOL    HW227858   5.514   4.262   2.190
 8987SOL     OW27859   3.143   0.572   1.017
 8987SOL    HW127860   3.154   0.511   0.938
 8987SOL    HW227861   3.046   0.587   1.035
 8988SOL     OW27862   2.017   5.189   0.222
 8988SOL    HW127863   1.976   5.142   0.300
 8988SOL    HW227864   1.969   5.277   0.208
 8989SOL     OW27865   4.950   3.123   2.788
 8989SOL    HW127866   4.942   3.201   2.850
 8989SOL    HW227867   4.898   3.046   2.824
 8990SOL     OW27868   2.150   6.189   1.577
 8990SOL    HW127869   2.167   6.109   1.521
 8990SOL    HW227870   2.123   6.266   1.518
 8991SOL     OW27871   2.454   2.268   1.491
 8991SOL    HW127872   2.528   2.221   1.538
 8991SOL    HW227873   2.490   2.320   1.414
 8992SOL     OW27874   0.239   3.273   0.667
 8992SOL    HW127875   0.307   3.340   0.695
 8992SOL    HW227876   0.206   3.295   0.575
 8993SOL     OW27877   5.344   2.579   2.635
 8993SOL    HW127878   5.359   2.673   2.663
 8993SOL    HW227879   5.258   2.545   2.673
 8994SOL     OW27880   1.790   5.171   4.069
 8994SOL    HW127881   1.775   5.110   4.147
 8994SOL    HW227882   1.873   5.142   4.020
 8995SOL     OW27883   1.514   2.455   5.127
 8995SOL    HW127884   1.567   2.458   5.212
 8995SOL    HW227885   1.442   2.387   5.134
 8996SOL     OW27886   0.852   3.981   1.976
 8996SOL    HW127887   0.922   4.023   2.034
 8996SOL    HW227888   0.858   3.882   1.983
 8997SOL     OW27889   5.659   0.976   6.514
 8997SOL    HW127890   5.715   0.986   6.596
 8997SOL    HW227891   5.563   0.993   6.537
 8998SOL     OW27892   0.034   1.667   4.836
 8998SOL    HW127893   0.089   1.619   4.904
 8998SOL    HW227894   7.009   1.600   4.780
 8999SOL     OW27895   5.078   0.759   6.535
 8999SOL    HW127896   5.071   0.859   6.540
 8999SOL    HW227897   5.053   0.729   6.443
 9000SOL     OW27898   2.700   4.243   6.717
 9000SOL    HW127899   2.708   4.259   6.619
 9000SOL    HW227900   2.758   4.166   6.744
 9001SOL     OW27901   1.139   4.666   2.718
 9001SOL    HW127902   1.192   4.668   2.803
 9001SOL    HW227903   1.197   4.696   2.642
 9002SOL     OW27904   6.994   5.455   6.100
 9002SOL    HW127905   6.902   5.475   6.136
 9002SOL    HW227906   0.027   5.536   6.110
 9003SOL     OW27907   6.253   2.137   1.061
 9003SOL    HW127908   6.194   2.151   1.141
 9003SOL    HW227909   6.238   2.045   1.025
 9004SOL     OW27910   4.891   6.464   2.062
 9004SOL    HW127911   4.978   6.479   2.015
 9004SOL    HW227912   4.816   6.471   1.996
 9005SOL     OW27913   5.162   2.729   3.653
 9005SOL    HW127914   5.197   2.635   3.657
 9005SOL    HW227915   5.237   2.793   3.667
 9006SOL     OW27916   1.236   5.815   0.978
 9006SOL    HW127917   1.144   5.850   0.991
 9006SOL    HW227918   1.254   5.742   1.044
 9007SOL     OW27919   3.616   5.655   4.139
 9007SOL    HW127920   3.619   5.737   4.083
 9007SOL    HW227921   3.689   5.658   4.208
 9008SOL     OW27922   6.430   4.857   2.423
 9008SOL    HW127923   6.454   4.931   2.361
 9008SOL    HW227924   6.428   4.770   2.373
 9009SOL     OW27925   3.075   6.584   1.054
 9009SOL    HW127926   3.011   6.516   1.090
 9009SOL    HW227927   3.131   6.620   1.130
 9010SOL     OW27928   1.223   6.372   5.449
 9010SOL    HW127929   1.154   6.381   5.521
 9010SOL    HW227930   1.220   6.279   5.412
 9011SOL     OW27931   3.909   2.447   1.435
 9011SOL    HW127932   3.947   2.358   1.411
 9011SOL    HW227933   3.944   2.516   1.371
 9012SOL     OW27934   2.042   5.438   0.509
 9012SOL    HW127935   2.006   5.436   0.416
 9012SOL    HW227936   1.987   5.501   0.564
 9013SOL     OW27937   6.135   5.728   4.796
 9013SOL    HW127938   6.063   5.796   4.781
 9013SOL    HW227939   6.224   5.768   4.774
 9014SOL     OW27940   1.508   1.496   0.458
 9014SOL    HW127941   1.482   1.449   0.374
 9014SOL    HW227942   1.425   1.523   0.508
 9015SOL     OW27943   6.498   1.219   0.043
 9015SOL    HW127944   6.516   1.121   0.037
 9015SOL    HW227945   6.410   1.239   7.024
 9016SOL     OW27946   6.471   5.989   6.069
 9016SOL    HW127947   6.540   5.963   6.001
 9016SOL    HW227948   6.381   5.993   6.024
 9017SOL     OW27949   5.481   1.768   3.202
 9017SOL    HW127950   5.532   1.688   3.171
 9017SOL    HW227951   5.518   1.850   3.159
 9018SOL     OW27952   3.703   1.537   5.168
 9018SOL    HW127953   3.709   1.594   5.250
 9018SOL    HW227954   3.607   1.516   5.149
 9019SOL     OW27955   1.335   0.063   0.203
 9019SOL    HW127956   1.361   0.042   0.298
 9019SOL    HW227957   1.408   0.032   0.141
 9020SOL     OW27958   1.930   3.847   2.418
 9020SOL    HW127959   1.865   3.819   2.348
 9020SOL    HW227960   2.023   3.838   2.383
 9021SOL     OW27961   6.885   6.628   4.098
 9021SOL    HW127962   6.856   6.542   4.056
 9021SOL    HW227963   6.856   6.705   4.040
 9022SOL     OW27964   2.706   0.520   0.226
 9022SOL    HW127965   2.779   0.454   0.241
 9022SOL    HW227966   2.618   0.473   0.221
 9023SOL     OW27967   3.693   3.441   3.532
 9023SOL    HW127968   3.697   3.430   3.433
 9023SOL    HW227969   3.784   3.425   3.571
 9024SOL     OW27970   1.926   6.015   6.098
 9024SOL    HW127971   1.830   6.039   6.095
 9024SOL    HW227972   1.975   6.062   6.023
 9025SOL     OW27973   6.135   6.149   1.408
 9025SOL    HW127974   6.186   6.091   1.472
 9025SOL    HW227975   6.071   6.206   1.459
 9026SOL     OW27976   3.763   3.714   3.954
 9026SOL    HW127977   3.740   3.779   4.026
 9026SOL    HW227978   3.777   3.763   3.868
 9027SOL     OW27979   2.525   1.990   3.766
 9027SOL    HW127980   2.463   1.913   3.771
 9027SOL    HW227981   2.512   2.050   3.845
 9028SOL     OW27982   2.457   4.738   6.673
 9028SOL    HW127983   2.499   4.700   6.755
 9028SOL    HW227984   2.450   4.837   6.682
 9029SOL     OW27985   3.876   5.246   4.694
 9029SOL    HW127986   3.875   5.256   4.793
 9029SOL    HW227987   3.803   5.185   4.665
 9030SOL     OW27988   1.536   0.697   2.512
 9030SOL    HW127989   1.447   0.713   2.553
 9030SOL    HW227990   1.544   0.748   2.427
 9031SOL     OW27991   3.303   5.159   5.946
 9031SOL    HW127992   3.204   5.145   5.948
 9031SOL    HW227993   3.347   5.079   5.906
 9032SOL     OW27994   3.735   2.934   1.090
 9032SOL    HW127995   3.636   2.926   1.092
 9032SOL    HW227996   3.766   2.943   0.995
 9033SOL     OW27997   1.604   3.332   4.010
 9033SOL    HW127998   1.612   3.371   4.102
 9033SOL    HW227999   1.517   3.283   4.001
 9034SOL     OW28000   2.668   6.727   5.421
 9034SOL    HW128001   2.641   6.755   5.513
 9034SOL    HW228002   2.598   6.665   5.384
 9035SOL     OW28003   0.554   6.589   5.664
 9035SOL    HW128004   0.507   6.660   5.716
 9035SOL    HW228005   0.539   6.604   5.567
 9036SOL     OW28006   2.420   2.515   5.585
 9036SOL    HW128007   2.425   2.483   5.679
 9036SOL    HW228008   2.341   2.473   5.540
 9037SOL     OW28009   1.800   3.745   6.922
 9037SOL    HW128010   1.767   3.801   6.846
 9037SOL    HW228011   1.814   3.803   7.002
 9038SOL     OW28012   5.520   0.783   6.034
 9038SOL    HW128013   5.424   0.789   6.062
 9038SOL    HW228014   5.547   0.868   5.989
 9039SOL     OW28015   2.167   4.591   4.904
 9039SOL    HW128016   2.128   4.510   4.948
 9039SOL    HW228017   2.266   4.580   4.896
 9040SOL     OW28018   2.673   1.261   3.527
 9040SOL    HW128019   2.730   1.188   3.567
 9040SOL    HW228020   2.580   1.226   3.514
 9041SOL     OW28021   0.778   1.599   2.349
 9041SOL    HW128022   0.864   1.572   2.305
 9041SOL    HW228023   0.796   1.672   2.415
 9042SOL     OW28024   2.431   6.488   3.595
 9042SOL    HW128025   2.490   6.567   3.612
 9042SOL    HW228026   2.477   6.425   3.533
 9043SOL     OW28027   2.112   1.822   5.568
 9043SOL    HW128028   2.108   1.858   5.475
 9043SOL    HW228029   2.074   1.888   5.632
 9044SOL     OW28030   6.300   1.017   1.168
 9044SOL    HW128031   6.308   0.935   1.110
 9044SOL    HW228032   6.327   1.098   1.116
 9045SOL     OW28033   3.624   1.236   2.683
 9045SOL    HW128034   3.614   1.255   2.780
 9045SOL    HW228035   3.537   1.250   2.637
 9046SOL     OW28036   3.580   4.151   5.171
 9046SOL    HW128037   3.673   4.188   5.175
 9046SOL    HW228038   3.564   4.111   5.080
 9047SOL     OW28039   1.965   4.268   5.444
 9047SOL    HW128040   1.899   4.271   5.369
 9047SOL    HW228041   1.958   4.351   5.499
 9048SOL     OW28042   0.410   3.815   6.011
 9048SOL    HW128043   0.321   3.773   6.031
 9048SOL    HW228044   0.395   3.903   5.966
 9049SOL     OW28045   4.966   6.513   6.714
 9049SOL    HW128046   4.930   6.471   6.797
 9049SOL    HW228047   4.900   6.504   6.640
 9050SOL     OW28048   1.161   5.188   6.482
 9050SOL    HW128049   1.186   5.274   6.525
 9050SOL    HW228050   1.216   5.174   6.400
 9051SOL     OW28051   4.468   5.898   1.168
 9051SOL    HW128052   4.474   5.992   1.202
 9051SOL    HW228053   4.387   5.854   1.207
 9052SOL     OW28054   2.606   4.704   4.624
 9052SOL    HW128055   2.573   4.727   4.716
 9052SOL    HW228056   2.583   4.609   4.603
 9053SOL     OW28057   2.486   2.200   3.950
 9053SOL    HW128058   2.431   2.275   3.912
 9053SOL    HW228059   2.440   2.162   4.030
 9054SOL     OW28060   1.710   0.884   1.995
 9054SOL    HW128061   1.744   0.961   1.942
 9054SOL    HW228062   1.776   0.862   2.067
 9055SOL     OW28063   0.642   3.981   3.457
 9055SOL    HW128064   0.636   3.948   3.363
 9055SOL    HW228065   0.627   3.905   3.520
 9056SOL     OW28066   4.906   0.440   1.726
 9056SOL    HW128067   4.965   0.473   1.653
 9056SOL    HW228068   4.959   0.429   1.810
 9057SOL     OW28069   6.616   4.719   5.814
 9057SOL    HW128070   6.528   4.693   5.775
 9057SOL    HW228071   6.673   4.759   5.743
 9058SOL     OW28072   2.329   2.081   4.155
 9058SOL    HW128073   2.363   2.045   4.242
 9058SOL    HW228074   2.291   2.006   4.101
 9059SOL     OW28075   6.941   0.474   3.042
 9059SOL    HW128076   7.021   0.440   2.993
 9059SOL    HW228077   6.944   0.443   3.137
 9060SOL     OW28078   6.819   4.020   2.486
 9060SOL    HW128079   6.825   3.920   2.481
 9060SOL    HW228080   6.754   4.046   2.557
 9061SOL     OW28081   4.433   5.687   3.060
 9061SOL    HW128082   4.469   5.772   3.023
 9061SOL    HW228083   4.478   5.667   3.147
 9062SOL     OW28084   0.785   4.974   2.061
 9062SOL    HW128085   0.702   4.923   2.084
 9062SOL    HW228086   0.806   4.962   1.964
 9063SOL     OW28087   3.375   0.534   2.036
 9063SOL    HW128088   3.397   0.587   1.953
 9063SOL    HW228089   3.275   0.533   2.048
 9064SOL     OW28090   6.308   4.250   4.417
 9064SOL    HW128091   6.380   4.182   4.409
 9064SOL    HW228092   6.339   4.336   4.375
 9065SOL     OW28093   2.387   5.835   5.916
 9065SOL    HW128094   2.352   5.753   5.962
 9065SOL    HW228095   2.487   5.829   5.908
 9066SOL     OW28096   5.977   0.159   5.926
 9066SOL    HW128097   5.882   0.190   5.939
 9066SOL    HW228098   6.039   0.237   5.935
 9067SOL     OW28099   6.367   6.134   4.192
 9067SOL    HW128100   6.312   6.067   4.141
 9067SOL    HW228101   6.420   6.087   4.262
 9068SOL     OW28102   3.453   6.858   5.242
 9068SOL    HW128103   3.359   6.832   5.265
 9068SOL    HW228104   3.451   6.924   5.168
 9069SOL     OW28105   4.159   1.937   2.613
 9069SOL    HW128106   4.180   1.957   2.709
 9069SOL    HW228107   4.074   1.984   2.588
 9070SOL     OW28108   1.584   2.759   6.250
 9070SOL    HW128109   1.535   2.672   6.256
 9070SOL    HW228110   1.600   2.782   6.154
 9071SOL     OW28111   4.846   0.142   6.571
 9071SOL    HW128112   4.944   0.127   6.579
 9071SOL    HW228113   4.826   0.240   6.583
 9072SOL     OW28114   4.914   6.683   1.081
 9072SOL    HW128115   4.842   6.687   1.151
 9072SOL    HW228116   4.902   6.758   1.017
 9073SOL     OW28117   3.676   6.350   1.549
 9073SOL    HW128118   3.692   6.291   1.628
 9073SOL    HW228119   3.636   6.295   1.475
 9074SOL     OW28120   1.931   0.533   1.667
 9074SOL    HW128121   1.865   0.533   1.592
 9074SOL    HW228122   1.989   0.451   1.661
 9075SOL     OW28123   0.478   0.242   2.024
 9075SOL    HW128124   0.525   0.185   2.091
 9075SOL    HW228125   0.452   0.186   1.945
 9076SOL     OW28126   4.625   1.915   3.962
 9076SOL    HW128127   4.528   1.899   3.944
 9076SOL    HW228128   4.645   1.899   4.058
 9077SOL     OW28129   4.613   1.473   6.379
 9077SOL    HW128130   4.523   1.496   6.341
 9077SOL    HW228131   4.614   1.495   6.476
 9078SOL     OW28132   5.097   4.691   6.711
 9078SOL    HW128133   5.080   4.601   6.669
 9078SOL    HW228134   5.187   4.724   6.682
 9079SOL     OW28135   1.302   6.930   4.948
 9079SOL    HW128136   1.372   6.903   5.013
 9079SOL    HW228137   1.297   0.006   4.945
 9080SOL     OW28138   5.784   2.674   6.947
 9080SOL    HW128139   5.724   2.644   7.022
 9080SOL    HW228140   5.879   2.671   6.978
 9081SOL     OW28141   3.418   1.398   2.007
 9081SOL    HW128142   3.427   1.493   2.037
 9081SOL    HW228143   3.471   1.339   2.068
 9082SOL     OW28144   1.996   6.128   5.119
 9082SOL    HW128145   1.908   6.147   5.163
 9082SOL    HW228146   2.070   6.167   5.173
 9083SOL     OW28147   3.730   3.930   6.688
 9083SOL    HW128148   3.641   3.960   6.654
 9083SOL    HW228149   3.745   3.968   6.780
 9084SOL     OW28150   1.166   2.398   6.359
 9084SOL    HW128151   1.153   2.355   6.448
 9084SOL    HW228152   1.185   2.496   6.372
 9085SOL     OW28153   2.323   5.771   1.221
 9085SOL    HW128154   2.352   5.715   1.143
 9085SOL    HW228155   2.234   5.738   1.253
 9086SOL     OW28156   5.647   4.317   1.114
 9086SOL    HW128157   5.726   4.319   1.175
 9086SOL    HW228158   5.672   4.273   1.028
 9087SOL     OW28159   5.293   3.105   2.325
 9087SOL    HW128160   5.280   3.089   2.227
 9087SOL    HW228161   5.274   3.201   2.345
 9088SOL     OW28162   6.459   7.009   1.144
 9088SOL    HW128163   6.510   7.016   1.058
 9088SOL    HW228164   6.505   0.037   1.215
 9089SOL     OW28165   3.775   5.856   5.348
 9089SOL    HW128166   3.689   5.905   5.366
 9089SOL    HW228167   3.826   5.903   5.277
 9090SOL     OW28168   5.178   0.340   3.291
 9090SOL    HW128169   5.256   0.278   3.290
 9090SOL    HW228170   5.096   0.290   3.321
 9091SOL     OW28171   2.618   3.427   0.829
 9091SOL    HW128172   2.636   3.460   0.922
 9091SOL    HW228173   2.616   3.505   0.766
 9092SOL     OW28174   0.628   1.181   0.124
 9092SOL    HW128175   0.666   1.207   0.035
 9092SOL    HW228176   0.531   1.158   0.114
 9093SOL     OW28177   1.234   6.473   6.728
 9093SOL    HW128178   1.255   6.385   6.685
 9093SOL    HW228179   1.192   6.457   6.817
 9094SOL     OW28180   1.054   5.212   2.678
 9094SOL    HW128181   0.955   5.199   2.689
 9094SOL    HW228182   1.101   5.127   2.701
 9095SOL     OW28183   4.395   3.957   6.084
 9095SOL    HW128184   4.361   3.879   6.033
 9095SOL    HW228185   4.412   3.930   6.179
 9096SOL     OW28186   5.663   3.617   2.622
 9096SOL    HW128187   5.684   3.635   2.718
 9096SOL    HW228188   5.720   3.675   2.564
 9097SOL     OW28189   0.345   3.320   6.714
 9097SOL    HW128190   0.367   3.331   6.811
 9097SOL    HW228191   0.304   3.405   6.680
 9098SOL     OW28192   3.391   2.789   6.837
 9098SOL    HW128193   3.303   2.834   6.821
 9098SOL    HW228194   3.400   2.711   6.776
 9099SOL     OW28195   3.361   3.642   0.589
 9099SOL    HW128196   3.356   3.542   0.595
 9099SOL    HW228197   3.310   3.682   0.665
 9100SOL     OW28198   0.839   3.366   2.962
 9100SOL    HW128199   0.821   3.308   2.883
 9100SOL    HW228200   0.876   3.311   3.036
 9101SOL     OW28201   2.087   2.867   2.811
 9101SOL    HW128202   2.120   2.840   2.720
 9101SOL    HW228203   2.157   2.847   2.879
 9102SOL     OW28204   3.245   6.659   1.838
 9102SOL    HW128205   3.207   6.751   1.829
 9102SOL    HW228206   3.240   6.629   1.933
 9103SOL     OW28207   6.484   3.497   6.807
 9103SOL    HW128208   6.426   3.568   6.766
 9103SOL    HW228209   6.427   3.420   6.834
 9104SOL     OW28210   4.320   6.514   2.947
 9104SOL    HW128211   4.286   6.420   2.948
 9104SOL    HW228212   4.402   6.519   2.890
 9105SOL     OW28213   2.030   1.055   0.410
 9105SOL    HW128214   1.933   1.070   0.429
 9105SOL    HW228215   2.086   1.114   0.468
 9106SOL     OW28216   6.143   4.092   6.613
 9106SOL    HW128217   6.149   3.999   6.649
 9106SOL    HW228218   6.069   4.141   6.659
 9107SOL     OW28219   3.398   0.495   5.679
 9107SOL    HW128220   3.332   0.537   5.741
 9107SOL    HW228221   3.474   0.558   5.663
 9108SOL     OW28222   5.457   3.886   5.602
 9108SOL    HW128223   5.483   3.790   5.595
 9108SOL    HW228224   5.377   3.904   5.544
 9109SOL     OW28225   1.307   2.746   2.890
 9109SOL    HW128226   1.337   2.745   2.985
 9109SOL    HW228227   1.371   2.799   2.834
 9110SOL     OW28228   1.950   4.209   4.174
 9110SOL    HW128229   2.029   4.151   4.196
 9110SOL    HW228230   1.982   4.300   4.149
 9111SOL     OW28231   3.947   3.136   6.852
 9111SOL    HW128232   3.908   3.154   6.942
 9111SOL    HW228233   3.984   3.221   6.814
 9112SOL     OW28234   0.750   4.573   5.176
 9112SOL    HW128235   0.714   4.494   5.128
 9112SOL    HW228236   0.690   4.652   5.164
 9113SOL     OW28237   4.567   6.683   1.053
 9113SOL    HW128238   4.471   6.708   1.037
 9113SOL    HW228239   4.571   6.591   1.092
 9114SOL     OW28240   1.491   4.780   1.156
 9114SOL    HW128241   1.432   4.803   1.079
 9114SOL    HW228242   1.531   4.689   1.141
 9115SOL     OW28243   0.795   5.399   5.574
 9115SOL    HW128244   0.804   5.454   5.658
 9115SOL    HW228245   0.742   5.317   5.594
 9116SOL     OW28246   6.583   1.386   0.567
 9116SOL    HW128247   6.511   1.381   0.498
 9116SOL    HW228248   6.669   1.413   0.525
 9117SOL     OW28249   5.674   2.902   0.354
 9117SOL    HW128250   5.639   2.832   0.416
 9117SOL    HW228251   5.774   2.895   0.350
 9118SOL     OW28252   6.145   5.222   0.153
 9118SOL    HW128253   6.207   5.286   0.199
 9118SOL    HW228254   6.082   5.182   0.220
 9119SOL     OW28255   5.101   0.976   1.474
 9119SOL    HW128256   5.014   1.010   1.509
 9119SOL    HW228257   5.097   0.970   1.374
 9120SOL     OW28258   6.377   2.243   5.689
 9120SOL    HW128259   6.279   2.260   5.688
 9120SOL    HW228260   6.421   2.300   5.758
 9121SOL     OW28261   2.603   2.570   6.129
 9121SOL    HW128262   2.661   2.604   6.202
 9121SOL    HW228263   2.527   2.519   6.168
 9122SOL     OW28264   1.961   4.302   2.124
 9122SOL    HW128265   2.043   4.264   2.167
 9122SOL    HW228266   1.885   4.297   2.188
 9123SOL     OW28267   3.277   0.013   4.374
 9123SOL    HW128268   3.364   7.020   4.327
 9123SOL    HW228269   3.290   0.002   4.472
 9124SOL     OW28270   5.275   6.595   6.293
 9124SOL    HW128271   5.357   6.591   6.237
 9124SOL    HW228272   5.301   6.607   6.389
 9125SOL     OW28273   5.396   4.316   1.845
 9125SOL    HW128274   5.379   4.273   1.756
 9125SOL    HW228275   5.321   4.294   1.907
 9126SOL     OW28276   5.978   2.463   1.159
 9126SOL    HW128277   5.999   2.369   1.186
 9126SOL    HW228278   5.927   2.508   1.233
 9127SOL     OW28279   6.244   1.144   6.048
 9127SOL    HW128280   6.236   1.091   6.133
 9127SOL    HW228281   6.338   1.137   6.014
 9128SOL     OW28282   5.124   1.412   5.460
 9128SOL    HW128283   5.200   1.477   5.453
 9128SOL    HW228284   5.039   1.458   5.434
 9129SOL     OW28285   0.253   2.830   0.999
 9129SOL    HW128286   0.215   2.737   1.000
 9129SOL    HW228287   0.352   2.825   0.988
 9130SOL     OW28288   6.968   3.611   0.616
 9130SOL    HW128289   0.017   3.671   0.647
 9130SOL    HW228290   6.968   3.527   0.671
 9131SOL     OW28291   6.924   2.789   5.726
 9131SOL    HW128292   7.018   2.787   5.692
 9131SOL    HW228293   6.899   2.883   5.747
 9132SOL     OW28294   0.506   5.327   4.233
 9132SOL    HW128295   0.540   5.359   4.145
 9132SOL    HW228296   0.545   5.237   4.252
 9133SOL     OW28297   3.938   6.000   1.934
 9133SOL    HW128298   3.960   6.097   1.921
 9133SOL    HW228299   4.009   5.944   1.894
 9134SOL     OW28300   4.856   6.100   0.429
 9134SOL    HW128301   4.947   6.108   0.469
 9134SOL    HW228302   4.812   6.016   0.462
 9135SOL     OW28303   6.167   6.881   1.423
 9135SOL    HW128304   6.236   6.810   1.414
 9135SOL    HW228305   6.184   6.953   1.355
 9136SOL     OW28306   5.540   5.499   6.053
 9136SOL    HW128307   5.449   5.456   6.055
 9136SOL    HW228308   5.580   5.488   5.962
 9137SOL     OW28309   5.083   1.966   1.149
 9137SOL    HW128310   5.182   1.979   1.160
 9137SOL    HW228311   5.037   1.992   1.234
 9138SOL     OW28312   0.495   6.107   5.925
 9138SOL    HW128313   0.412   6.104   5.980
 9138SOL    HW228314   0.570   6.063   5.975
 9139SOL     OW28315   2.185   1.707   4.653
 9139SOL    HW128316   2.282   1.708   4.675
 9139SOL    HW228317   2.163   1.786   4.595
 9140SOL     OW28318   6.338   3.461   3.132
 9140SOL    HW128319   6.330   3.361   3.137
 9140SOL    HW228320   6.348   3.489   3.036
 9141SOL     OW28321   5.958   0.537   6.687
 9141SOL    HW128322   5.941   0.590   6.603
 9141SOL    HW228323   5.870   0.512   6.728
 9142SOL     OW28324   0.344   2.430   1.242
 9142SOL    HW128325   0.368   2.337   1.216
 9142SOL    HW228326   0.270   2.428   1.310
 9143SOL     OW28327   6.449   3.076   0.875
 9143SOL    HW128328   6.400   3.163   0.881
 9143SOL    HW228329   6.416   3.026   0.795
 9144SOL     OW28330   2.373   5.038   5.292
 9144SOL    HW128331   2.325   5.004   5.372
 9144SOL    HW228332   2.331   5.123   5.261
 9145SOL     OW28333   0.042   5.476   0.344
 9145SOL    HW128334   7.007   5.435   0.413
 9145SOL    HW228335   7.020   5.479   0.256
 9146SOL     OW28336   5.231   3.208   2.996
 9146SOL    HW128337   5.317   3.181   3.039
 9146SOL    HW228338   5.211   3.303   3.018
 9147SOL     OW28339   6.437   0.662   4.757
 9147SOL    HW128340   6.518   0.605   4.767
 9147SOL    HW228341   6.462   0.753   4.726
 9148SOL     OW28342   5.001   5.967   0.779
 9148SOL    HW128343   4.930   5.897   0.787
 9148SOL    HW228344   4.986   6.038   0.847
 9149SOL     OW28345   6.065   3.344   3.794
 9149SOL    HW128346   6.108   3.293   3.868
 9149SOL    HW228347   6.033   3.433   3.829
 9150SOL     OW28348   3.218   5.147   1.633
 9150SOL    HW128349   3.264   5.059   1.626
 9150SOL    HW228350   3.174   5.154   1.723
 9151SOL     OW28351   1.789   4.565   3.824
 9151SOL    HW128352   1.771   4.468   3.842
 9151SOL    HW228353   1.888   4.580   3.815
 9152SOL     OW28354   2.278   4.382   4.716
 9152SOL    HW128355   2.352   4.405   4.778
 9152SOL    HW228356   2.212   4.323   4.762
 9153SOL     OW28357   1.200   3.321   0.212
 9153SOL    HW128358   1.163   3.286   0.126
 9153SOL    HW228359   1.138   3.298   0.287
 9154SOL     OW28360   4.299   4.482   6.327
 9154SOL    HW128361   4.390   4.451   6.357
 9154SOL    HW228362   4.246   4.404   6.295
 9155SOL     OW28363   1.774   3.982   2.132
 9155SOL    HW128364   1.727   4.041   2.066
 9155SOL    HW228365   1.762   4.019   2.224
 9156SOL     OW28366   1.150   2.412   1.169
 9156SOL    HW128367   1.143   2.322   1.124
 9156SOL    HW228368   1.118   2.404   1.263
 9157SOL     OW28369   6.392   4.509   5.550
 9157SOL    HW128370   6.383   4.546   5.458
 9157SOL    HW228371   6.422   4.414   5.545
 9158SOL     OW28372   5.931   3.230   4.980
 9158SOL    HW128373   5.875   3.196   4.904
 9158SOL    HW228374   5.901   3.322   5.004
 9159SOL     OW28375   1.896   0.819   2.204
 9159SOL    HW128376   1.944   0.759   2.139
 9159SOL    HW228377   1.941   0.813   2.293
 9160SOL     OW28378   5.790   0.187   5.316
 9160SOL    HW128379   5.697   0.186   5.280
 9160SOL    HW228380   5.853   0.221   5.246
 9161SOL     OW28381   5.047   4.073   4.838
 9161SOL    HW128382   5.039   4.136   4.761
 9161SOL    HW228383   4.957   4.059   4.879
 9162SOL     OW28384   4.274   1.254   4.331
 9162SOL    HW128385   4.295   1.258   4.428
 9162SOL    HW228386   4.303   1.339   4.287
 9163SOL     OW28387   1.538   2.710   4.550
 9163SOL    HW128388   1.609   2.742   4.487
 9163SOL    HW228389   1.581   2.665   4.628
 9164SOL     OW28390   2.792   0.189   6.367
 9164SOL    HW128391   2.837   0.113   6.414
 9164SOL    HW228392   2.698   0.198   6.401
 9165SOL     OW28393   6.178   1.707   5.799
 9165SOL    HW128394   6.228   1.627   5.830
 9165SOL    HW228395   6.145   1.759   5.878
 9166SOL     OW28396   4.022   6.261   1.826
 9166SOL    HW128397   3.992   6.242   1.733
 9166SOL    HW228398   3.972   6.340   1.861
 9167SOL     OW28399   1.908   2.476   6.742
 9167SOL    HW128400   1.943   2.528   6.663
 9167SOL    HW228401   1.979   2.414   6.775
 9168SOL     OW28402   0.048   0.261   6.769
 9168SOL    HW128403   7.006   0.211   6.714
 9168SOL    HW228404   0.019   0.261   6.865
 9169SOL     OW28405   5.733   0.540   5.005
 9169SOL    HW128406   5.783   0.512   5.088
 9169SOL    HW228407   5.787   0.607   4.955
 9170SOL     OW28408   1.309   6.258   0.112
 9170SOL    HW128409   1.282   6.224   0.202
 9170SOL    HW228410   1.232   6.248   0.049
 9171SOL     OW28411   4.049   4.890   0.947
 9171SOL    HW128412   4.056   4.817   0.879
 9171SOL    HW228413   3.957   4.890   0.987
 9172SOL     OW28414   4.112   1.044   2.454
 9172SOL    HW128415   4.108   1.028   2.356
 9172SOL    HW228416   4.203   1.018   2.488
 9173SOL     OW28417   6.464   3.494   6.001
 9173SOL    HW128418   6.538   3.431   6.025
 9173SOL    HW228419   6.478   3.528   5.908
 9174SOL     OW28420   5.623   4.098   1.567
 9174SOL    HW128421   5.533   4.132   1.540
 9174SOL    HW228422   5.664   4.048   1.491
 9175SOL     OW28423   0.420   0.110   5.675
 9175SOL    HW128424   0.509   0.155   5.668
 9175SOL    HW228425   0.408   0.074   5.768
 9176SOL     OW28426   2.195   1.130   4.036
 9176SOL    HW128427   2.177   1.151   4.132
 9176SOL    HW228428   2.259   1.196   3.998
 9177SOL     OW28429   0.371   4.970   5.188
 9177SOL    HW128430   0.364   4.876   5.156
 9177SOL    HW228431   0.449   5.014   5.144
 9178SOL     OW28432   1.628   4.716   0.618
 9178SOL    HW128433   1.548   4.688   0.671
 9178SOL    HW228434   1.619   4.682   0.524
 9179SOL     OW28435   2.408   4.451   4.050
 9179SOL    HW128436   2.494   4.501   4.039
 9179SOL    HW228437   2.334   4.516   4.067
 9180SOL     OW28438   6.329   2.559   3.490
 9180SOL    HW128439   6.377   2.602   3.566
 9180SOL    HW228440   6.352   2.606   3.405
 9181SOL     OW28441   4.615   2.193   5.302
 9181SOL    HW128442   4.673   2.265   5.338
 9181SOL    HW228443   4.617   2.194   5.202
 9182SOL     OW28444   2.755   6.328   1.738
 9182SOL    HW128445   2.719   6.237   1.759
 9182SOL    HW228446   2.756   6.341   1.639
 9183SOL     OW28447   4.979   5.504   0.168
 9183SOL    HW128448   4.950   5.434   0.103
 9183SOL    HW228449   5.069   5.538   0.142
 9184SOL     OW28450   4.579   2.138   0.049
 9184SOL    HW128451   4.570   2.079   6.993
 9184SOL    HW228452   4.605   2.083   0.128
 9185SOL     OW28453   4.878   6.937   4.556
 9185SOL    HW128454   4.940   6.926   4.477
 9185SOL    HW228455   4.791   6.894   4.536
 9186SOL     OW28456   5.859   5.995   4.546
 9186SOL    HW128457   5.776   6.049   4.557
 9186SOL    HW228458   5.915   6.001   4.629
 9187SOL     OW28459   2.604   1.904   0.500
 9187SOL    HW128460   2.602   1.872   0.405
 9187SOL    HW228461   2.552   1.988   0.508
 9188SOL     OW28462   1.350   6.749   0.598
 9188SOL    HW128463   1.421   6.729   0.666
 9188SOL    HW228464   1.273   6.794   0.642
 9189SOL     OW28465   2.867   6.142   2.036
 9189SOL    HW128466   2.841   6.071   2.102
 9189SOL    HW228467   2.916   6.215   2.083
 9190SOL     OW28468   2.334   4.772   5.437
 9190SOL    HW128469   2.256   4.761   5.498
 9190SOL    HW228470   2.304   4.756   5.342
 9191SOL     OW28471   6.656   1.863   6.569
 9191SOL    HW128472   6.734   1.925   6.571
 9191SOL    HW228473   6.609   1.871   6.481
 9192SOL     OW28474   1.211   2.308   6.101
 9192SOL    HW128475   1.217   2.363   6.184
 9192SOL    HW228476   1.133   2.339   6.045
 9193SOL     OW28477   3.523   4.081   6.257
 9193SOL    HW128478   3.555   4.088   6.162
 9193SOL    HW228479   3.429   4.116   6.263
 9194SOL     OW28480   2.969   1.113   3.643
 9194SOL    HW128481   3.022   1.068   3.570
 9194SOL    HW228482   3.002   1.206   3.655
 9195SOL     OW28483   1.339   1.632   3.175
 9195SOL    HW128484   1.385   1.617   3.262
 9195SOL    HW228485   1.248   1.670   3.191
 9196SOL     OW28486   5.723   0.479   2.689
 9196SOL    HW128487   5.797   0.527   2.735
 9196SOL    HW228488   5.737   0.381   2.697
 9197SOL     OW28489   1.720   4.835   1.536
 9197SOL    HW128490   1.708   4.785   1.450
 9197SOL    HW228491   1.643   4.898   1.549
 9198SOL     OW28492   5.954   4.749   6.865
 9198SOL    HW128493   5.971   4.847   6.850
 9198SOL    HW228494   5.884   4.717   6.801
 9199SOL     OW28495   0.725   3.476   5.379
 9199SOL    HW128496   0.631   3.511   5.378
 9199SOL    HW228497   0.787   3.546   5.415
 9200SOL     OW28498   2.946   6.217   6.921
 9200SOL    HW128499   3.008   6.231   6.843
 9200SOL    HW228500   2.981   6.142   6.977
 9201SOL     OW28501   6.700   3.320   0.485
 9201SOL    HW128502   6.769   3.315   0.557
 9201SOL    HW228503   6.613   3.286   0.520
 9202SOL     OW28504   1.050   6.496   2.381
 9202SOL    HW128505   1.050   6.574   2.443
 9202SOL    HW228506   1.107   6.423   2.419
 9203SOL     OW28507   0.028   3.763   5.827
 9203SOL    HW128508   0.100   3.822   5.863
 9203SOL    HW228509   0.064   3.671   5.812
 9204SOL     OW28510   4.966   3.090   5.788
 9204SOL    HW128511   4.992   2.998   5.757
 9204SOL    HW228512   5.037   3.125   5.850
 9205SOL     OW28513   5.222   6.026   3.466
 9205SOL    HW128514   5.177   6.088   3.402
 9205SOL    HW228515   5.300   5.983   3.420
 9206SOL     OW28516   3.573   5.261   3.753
 9206SOL    HW128517   3.476   5.249   3.774
 9206SOL    HW228518   3.628   5.221   3.827
 9207SOL     OW28519   5.050   4.156   5.526
 9207SOL    HW128520   5.106   4.197   5.454
 9207SOL    HW228521   4.982   4.096   5.485
 9208SOL     OW28522   5.958   4.886   3.737
 9208SOL    HW128523   6.055   4.884   3.764
 9208SOL    HW228524   5.926   4.792   3.726
 9209SOL     OW28525   4.365   0.335   0.075
 9209SOL    HW128526   4.276   0.363   0.110
 9209SOL    HW228527   4.394   0.398   0.003
 9210SOL     OW28528   0.329   1.244   2.186
 9210SOL    HW128529   0.366   1.234   2.094
 9210SOL    HW228530   0.400   1.221   2.253
 9211SOL     OW28531   0.151   2.786   5.985
 9211SOL    HW128532   0.095   2.860   5.948
 9211SOL    HW228533   0.245   2.819   5.997
 9212SOL     OW28534   4.460   5.719   4.286
 9212SOL    HW128535   4.555   5.744   4.271
 9212SOL    HW228536   4.419   5.781   4.353
 9213SOL     OW28537   5.705   3.272   5.265
 9213SOL    HW128538   5.696   3.317   5.176
 9213SOL    HW228539   5.679   3.176   5.256
 9214SOL     OW28540   6.753   3.783   6.281
 9214SOL    HW128541   6.723   3.879   6.279
 9214SOL    HW228542   6.714   3.738   6.361
 9215SOL     OW28543   1.315   2.777   1.541
 9215SOL    HW128544   1.256   2.746   1.467
 9215SOL    HW228545   1.268   2.764   1.628
 9216SOL     OW28546   3.663   0.219   2.090
 9216SOL    HW128547   3.577   0.269   2.097
 9216SOL    HW228548   3.715   0.253   2.011
 9217SOL     OW28549   6.884   3.015   6.658
 9217SOL    HW128550   6.834   3.064   6.587
 9217SOL    HW228551   6.982   3.031   6.645
 9218SOL     OW28552   2.107   0.934   6.878
 9218SOL    HW128553   2.065   0.851   6.914
 9218SOL    HW228554   2.067   1.014   6.922
 9219SOL     OW28555   5.784   3.203   0.533
 9219SOL    HW128556   5.741   3.120   0.568
 9219SOL    HW228557   5.785   3.273   0.605
 9220SOL     OW28558   1.501   6.383   1.610
 9220SOL    HW128559   1.581   6.443   1.606
 9220SOL    HW228560   1.521   6.305   1.668
 9221SOL     OW28561   2.692   0.707   3.236
 9221SOL    HW128562   2.686   0.792   3.185
 9221SOL    HW228563   2.601   0.670   3.252
 9222SOL     OW28564   2.711   5.823   6.150
 9222SOL    HW128565   2.662   5.845   6.234
 9222SOL    HW228566   2.699   5.726   6.130
 9223SOL     OW28567   0.982   2.304   3.704
 9223SOL    HW128568   1.069   2.262   3.680
 9223SOL    HW228569   0.964   2.290   3.802
 9224SOL     OW28570   1.473   5.237   4.237
 9224SOL    HW128571   1.534   5.160   4.217
 9224SOL    HW228572   1.385   5.202   4.267
 9225SOL     OW28573   2.804   6.393   6.651
 9225SOL    HW128574   2.817   6.425   6.558
 9225SOL    HW228575   2.709   6.406   6.678
 9226SOL     OW28576   6.390   6.855   1.856
 9226SOL    HW128577   6.319   6.873   1.924
 9226SOL    HW228578   6.402   6.936   1.798
 9227SOL     OW28579   1.804   6.153   0.778
 9227SOL    HW128580   1.714   6.184   0.745
 9227SOL    HW228581   1.852   6.106   0.705
 9228SOL     OW28582   1.777   2.178   5.914
 9228SOL    HW128583   1.714   2.152   5.987
 9228SOL    HW228584   1.738   2.151   5.826
 9229SOL     OW28585   1.274   5.496   5.187
 9229SOL    HW128586   1.181   5.524   5.209
 9229SOL    HW228587   1.339   5.566   5.218
 9230SOL     OW28588   5.034   2.417   3.127
 9230SOL    HW128589   4.952   2.436   3.073
 9230SOL    HW228590   5.036   2.476   3.207
 9231SOL     OW28591   0.402   3.317   4.659
 9231SOL    HW128592   0.398   3.321   4.759
 9231SOL    HW228593   0.423   3.407   4.623
 9232SOL     OW28594   4.300   5.260   0.564
 9232SOL    HW128595   4.222   5.253   0.626
 9232SOL    HW228596   4.281   5.208   0.481
 9233SOL     OW28597   5.888   5.435   1.829
 9233SOL    HW128598   5.852   5.445   1.921
 9233SOL    HW228599   5.969   5.492   1.817
 9234SOL     OW28600   3.297   5.990   6.474
 9234SOL    HW128601   3.230   6.023   6.540
 9234SOL    HW228602   3.250   5.951   6.395
 9235SOL     OW28603   1.487   3.349   2.756
 9235SOL    HW128604   1.580   3.351   2.793
 9235SOL    HW228605   1.426   3.399   2.818
 9236SOL     OW28606   1.962   4.606   5.895
 9236SOL    HW128607   2.053   4.572   5.872
 9236SOL    HW228608   1.938   4.579   5.989
 9237SOL     OW28609   1.756   6.029   4.376
 9237SOL    HW128610   1.813   5.955   4.339
 9237SOL    HW228611   1.686   5.991   4.436
 9238SOL     OW28612   2.774   1.866   0.157
 9238SOL    HW128613   2.758   1.963   0.177
 9238SOL    HW228614   2.725   1.841   0.073
 9239SOL     OW28615   6.581   4.131   0.136
 9239SOL    HW128616   6.566   4.134   0.037
 9239SOL    HW228617   6.623   4.043   0.160
 9240SOL     OW28618   4.632   1.721   1.197
 9240SOL    HW128619   4.662   1.746   1.289
 9240SOL    HW228620   4.619   1.622   1.192
 9241SOL     OW28621   0.607   5.379   5.829
 9241SOL    HW128622   0.603   5.293   5.779
 9241SOL    HW228623   0.589   5.455   5.767
 9242SOL     OW28624   1.208   4.946   6.994
 9242SOL    HW128625   1.133   4.966   0.032
 9242SOL    HW228626   1.232   5.029   6.943
 9243SOL     OW28627   6.410   6.709   1.432
 9243SOL    HW128628   6.432   6.798   1.471
 9243SOL    HW228629   6.468   6.692   1.352
 9244SOL     OW28630   4.624   5.459   6.339
 9244SOL    HW128631   4.693   5.463   6.411
 9244SOL    HW228632   4.648   5.387   6.274
 9245SOL     OW28633   1.759   4.996   3.076
 9245SOL    HW128634   1.806   5.081   3.096
 9245SOL    HW228635   1.730   4.952   3.161
 9246SOL     OW28636   0.055   5.796   2.501
 9246SOL    HW128637   0.065   5.726   2.571
 9246SOL    HW228638   0.027   5.882   2.544
 9247SOL     OW28639   1.335   6.753   2.737
 9247SOL    HW128640   1.409   6.773   2.672
 9247SOL    HW228641   1.368   6.691   2.808
 9248SOL     OW28642   2.350   2.365   4.248
 9248SOL    HW128643   2.305   2.296   4.191
 9248SOL    HW228644   2.415   2.417   4.192
 9249SOL     OW28645   3.839   3.882   0.251
 9249SOL    HW128646   3.886   3.968   0.265
 9249SOL    HW228647   3.879   3.812   0.310
 9250SOL     OW28648   5.673   3.307   3.903
 9250SOL    HW128649   5.575   3.302   3.922
 9250SOL    HW228650   5.725   3.268   3.979
 9251SOL     OW28651   4.028   1.716   2.425
 9251SOL    HW128652   4.074   1.742   2.510
 9251SOL    HW228653   4.048   1.620   2.404
 9252SOL     OW28654   5.844   0.370   4.290
 9252SOL    HW128655   5.768   0.362   4.353
 9252SOL    HW228656   5.909   0.438   4.324
 9253SOL     OW28657   5.806   6.470   5.038
 9253SOL    HW128658   5.727   6.505   5.088
 9253SOL    HW228659   5.841   6.388   5.084
 9254SOL     OW28660   6.450   4.616   2.887
 9254SOL    HW128661   6.383   4.690   2.887
 9254SOL    HW228662   6.507   4.622   2.805
 9255SOL     OW28663   4.837   3.855   0.209
 9255SOL    HW128664   4.821   3.952   0.230
 9255SOL    HW228665   4.924   3.827   0.249
 9256SOL     OW28666   3.879   6.741   2.452
 9256SOL    HW128667   3.904   6.652   2.414
 9256SOL    HW228668   3.870   6.733   2.551
 9257SOL     OW28669   6.946   3.334   3.165
 9257SOL    HW128670   6.997   3.420   3.174
 9257SOL    HW228671   6.850   3.355   3.145
 9258SOL     OW28672   3.252   3.158   3.409
 9258SOL    HW128673   3.265   3.070   3.454
 9258SOL    HW228674   3.279   3.150   3.312
 9259SOL     OW28675   1.244   2.579   0.306
 9259SOL    HW128676   1.228   2.481   0.298
 9259SOL    HW228677   1.159   2.625   0.331
 9260SOL     OW28678   5.362   1.696   4.929
 9260SOL    HW128679   5.289   1.631   4.906
 9260SOL    HW228680   5.401   1.732   4.844
 9261SOL     OW28681   4.270   0.738   0.253
 9261SOL    HW128682   4.256   0.677   0.175
 9261SOL    HW228683   4.222   0.825   0.236
 9262SOL     OW28684   6.953   4.098   6.097
 9262SOL    HW128685   6.928   4.094   6.000
 9262SOL    HW228686   6.870   4.088   6.153
 9263SOL     OW28687   4.974   6.325   1.122
 9263SOL    HW128688   4.932   6.331   1.213
 9263SOL    HW228689   5.065   6.366   1.125
 9264SOL     OW28690   5.075   4.549   0.505
 9264SOL    HW128691   5.054   4.493   0.425
 9264SOL    HW228692   5.026   4.636   0.498
 9265SOL     OW28693   3.672   2.155   7.024
 9265SOL    HW128694   3.719   2.113   6.947
 9265SOL    HW228695   3.631   2.241   6.995
 9266SOL     OW28696   2.501   0.163   1.753
 9266SOL    HW128697   2.408   0.197   1.762
 9266SOL    HW228698   2.530   0.172   1.658
 9267SOL     OW28699   6.775   2.879   4.901
 9267SOL    HW128700   6.796   2.922   4.814
 9267SOL    HW228701   6.838   2.803   4.917
 9268SOL     OW28702   0.785   5.322   1.935
 9268SOL    HW128703   0.822   5.344   1.845
 9268SOL    HW228704   0.691   5.288   1.925
 9269SOL     OW28705   2.979   1.190   6.099
 9269SOL    HW128706   3.040   1.201   6.178
 9269SOL    HW228707   3.030   1.206   6.015
 9270SOL     OW28708   4.228   6.556   6.086
 9270SOL    HW128709   4.269   6.501   6.013
 9270SOL    HW228710   4.264   6.649   6.080
 9271SOL     OW28711   6.942   0.254   7.004
 9271SOL    HW128712   6.870   0.241   6.935
 9271SOL    HW228713   6.901   0.286   0.064
 9272SOL     OW28714   1.535   5.372   4.016
 9272SOL    HW128715   1.553   5.460   4.061
 9272SOL    HW228716   1.506   5.305   4.084
 9273SOL     OW28717   6.209   6.252   3.727
 9273SOL    HW128718   6.275   6.194   3.679
 9273SOL    HW228719   6.122   6.249   3.678
 9274SOL     OW28720   6.434   2.424   7.007
 9274SOL    HW128721   6.422   2.379   0.070
 9274SOL    HW228722   6.375   2.505   7.002
 9275SOL     OW28723   0.140   1.127   6.442
 9275SOL    HW128724   0.077   1.133   6.519
 9275SOL    HW228725   0.193   1.212   6.437
 9276SOL     OW28726   2.062   3.940   2.115
 9276SOL    HW128727   1.967   3.972   2.115
 9276SOL    HW228728   2.065   3.843   2.135
 9277SOL     OW28729   5.101   3.195   6.917
 9277SOL    HW128730   5.065   3.189   7.011
 9277SOL    HW228731   5.073   3.114   6.866
 9278SOL     OW28732   1.659   0.553   6.145
 9278SOL    HW128733   1.635   0.488   6.074
 9278SOL    HW228734   1.694   0.637   6.103
 9279SOL     OW28735   4.819   1.010   1.559
 9279SOL    HW128736   4.733   1.049   1.592
 9279SOL    HW228737   4.832   0.919   1.600
 9280SOL     OW28738   1.958   2.036   3.619
 9280SOL    HW128739   1.916   2.079   3.539
 9280SOL    HW228740   2.002   1.951   3.592
 9281SOL     OW28741   2.634   4.652   0.801
 9281SOL    HW128742   2.645   4.555   0.780
 9281SOL    HW228743   2.713   4.684   0.853
 9282SOL     OW28744   4.529   1.282   4.006
 9282SOL    HW128745   4.523   1.274   4.105
 9282SOL    HW228746   4.624   1.291   3.978
 9283SOL     OW28747   5.549   0.535   3.484
 9283SOL    HW128748   5.529   0.525   3.582
 9283SOL    HW228749   5.482   0.596   3.443
 9284SOL     OW28750   3.384   3.418   6.319
 9284SOL    HW128751   3.405   3.477   6.241
 9284SOL    HW228752   3.463   3.413   6.379
 9285SOL     OW28753   4.985   3.093   0.910
 9285SOL    HW128754   4.986   3.192   0.920
 9285SOL    HW228755   4.891   3.060   0.912
 9286SOL     OW28756   5.388   6.197   0.383
 9286SOL    HW128757   5.405   6.218   0.479
 9286SOL    HW228758   5.473   6.207   0.332
 9287SOL     OW28759   3.448   4.920   6.551
 9287SOL    HW128760   3.522   4.963   6.604
 9287SOL    HW228761   3.374   4.894   6.613
 9288SOL     OW28762   4.464   1.242   3.742
 9288SOL    HW128763   4.401   1.164   3.736
 9288SOL    HW228764   4.490   1.257   3.838
 9289SOL     OW28765   3.645   1.468   2.330
 9289SOL    HW128766   3.624   1.396   2.264
 9289SOL    HW228767   3.713   1.435   2.395
 9290SOL     OW28768   5.365   1.295   3.070
 9290SOL    HW128769   5.272   1.329   3.056
 9290SOL    HW228770   5.380   1.214   3.015
 9291SOL     OW28771   1.639   6.636   4.424
 9291SOL    HW128772   1.573   6.581   4.374
 9291SOL    HW228773   1.605   6.654   4.516
 9292SOL     OW28774   0.749   3.395   6.870
 9292SOL    HW128775   0.684   3.336   6.917
 9292SOL    HW228776   0.786   3.461   6.935
 9293SOL     OW28777   5.257   4.138   6.589
 9293SOL    HW128778   5.329   4.122   6.657
 9293SOL    HW228779   5.263   4.067   6.518
 9294SOL     OW28780   3.968   0.345   5.224
 9294SOL    HW128781   4.054   0.336   5.275
 9294SOL    HW228782   3.893   0.359   5.288
 9295SOL     OW28783   5.615   2.356   4.680
 9295SOL    HW128784   5.627   2.360   4.780
 9295SOL    HW228785   5.544   2.421   4.653
 9296SOL     OW28786   0.365   6.503   0.005
 9296SOL    HW128787   0.324   6.456   6.952
 9296SOL    HW228788   0.321   6.592   0.017
 9297SOL     OW28789   6.267   0.592   0.395
 9297SOL    HW128790   6.270   0.688   0.367
 9297SOL    HW228791   6.173   0.558   0.390
 9298SOL     OW28792   0.816   0.306   5.417
 9298SOL    HW128793   0.910   0.311   5.450
 9298SOL    HW228794   0.812   0.340   5.323
 9299SOL     OW28795   0.522   2.644   4.860
 9299SOL    HW128796   0.518   2.742   4.877
 9299SOL    HW228797   0.610   2.620   4.821
 9300SOL     OW28798   0.630   4.686   5.435
 9300SOL    HW128799   0.659   4.720   5.524
 9300SOL    HW228800   0.680   4.602   5.413
 9301SOL     OW28801   5.017   4.587   3.505
 9301SOL    HW128802   4.925   4.584   3.468
 9301SOL    HW228803   5.076   4.641   3.445
 9302SOL     OW28804   2.165   3.247   3.968
 9302SOL    HW128805   2.163   3.336   4.014
 9302SOL    HW228806   2.151   3.260   3.870
 9303SOL     OW28807   2.759   5.018   0.865
 9303SOL    HW128808   2.681   5.061   0.820
 9303SOL    HW228809   2.793   4.943   0.808
 9304SOL     OW28810   4.189   4.672   2.129
 9304SOL    HW128811   4.264   4.609   2.110
 9304SOL    HW228812   4.227   4.760   2.160
 9305SOL     OW28813   3.401   1.023   0.366
 9305SOL    HW128814   3.439   0.978   0.285
 9305SOL    HW228815   3.443   1.113   0.378
 9306SOL     OW28816   0.304   4.651   4.566
 9306SOL    HW128817   0.282   4.722   4.500
 9306SOL    HW228818   0.330   4.567   4.518
 9307SOL     OW28819   1.904   3.470   1.939
 9307SOL    HW128820   1.838   3.513   2.001
 9307SOL    HW228821   1.997   3.491   1.969
 9308SOL     OW28822   1.877   3.711   0.373
 9308SOL    HW128823   1.824   3.680   0.295
 9308SOL    HW228824   1.847   3.663   0.455
 9309SOL     OW28825   3.437   4.881   5.972
 9309SOL    HW128826   3.383   4.865   6.056
 9309SOL    HW228827   3.432   4.800   5.914
 9310SOL     OW28828   4.498   5.087   6.540
 9310SOL    HW128829   4.412   5.138   6.532
 9310SOL    HW228830   4.564   5.124   6.475
 9311SOL     OW28831   4.386   4.904   2.553
 9311SOL    HW128832   4.326   4.829   2.525
 9311SOL    HW228833   4.347   4.991   2.523
 9312SOL     OW28834   1.219   3.734   1.283
 9312SOL    HW128835   1.242   3.717   1.187
 9312SOL    HW228836   1.190   3.648   1.326
 9313SOL     OW28837   0.561   0.730   1.282
 9313SOL    HW128838   0.558   0.760   1.377
 9313SOL    HW228839   0.650   0.687   1.264
 9314SOL     OW28840   5.205   5.239   6.634
 9314SOL    HW128841   5.285   5.247   6.694
 9314SOL    HW228842   5.186   5.329   6.594
 9315SOL     OW28843   5.950   0.713   4.935
 9315SOL    HW128844   6.005   0.689   5.015
 9315SOL    HW228845   6.000   0.778   4.879
 9316SOL     OW28846   4.209   5.867   5.349
 9316SOL    HW128847   4.148   5.897   5.423
 9316SOL    HW228848   4.299   5.907   5.363
 9317SOL     OW28849   5.772   5.295   3.356
 9317SOL    HW128850   5.733   5.368   3.300
 9317SOL    HW228851   5.717   5.284   3.439
 9318SOL     OW28852   5.980   0.783   5.449
 9318SOL    HW128853   5.958   0.751   5.541
 9318SOL    HW228854   6.076   0.766   5.429
 9319SOL     OW28855   1.919   3.137   0.275
 9319SOL    HW128856   1.935   3.056   0.218
 9319SOL    HW228857   1.953   3.218   0.227
 9320SOL     OW28858   3.999   0.082   5.149
 9320SOL    HW128859   4.029   0.120   5.062
 9320SOL    HW228860   3.972   0.156   5.210
 9321SOL     OW28861   6.864   0.252   3.547
 9321SOL    HW128862   6.908   0.201   3.474
 9321SOL    HW228863   6.879   0.350   3.535
 9322SOL     OW28864   0.553   4.474   0.038
 9322SOL    HW128865   0.633   4.417   0.018
 9322SOL    HW228866   0.484   4.419   0.086
 9323SOL     OW28867   1.039   0.592   5.320
 9323SOL    HW128868   1.005   0.670   5.374
 9323SOL    HW228869   1.045   0.512   5.379
 9324SOL     OW28870   1.153   4.563   0.623
 9324SOL    HW128871   1.099   4.603   0.697
 9324SOL    HW228872   1.207   4.486   0.659
 9325SOL     OW28873   5.183   0.297   0.346
 9325SOL    HW128874   5.111   0.281   0.278
 9325SOL    HW228875   5.169   0.387   0.387
 9326SOL     OW28876   1.932   5.457   0.250
 9326SOL    HW128877   1.850   5.502   0.286
 9326SOL    HW228878   2.001   5.525   0.227
 9327SOL     OW28879   5.505   0.619   2.597
 9327SOL    HW128880   5.482   0.605   2.500
 9327SOL    HW228881   5.599   0.589   2.613
 9328SOL     OW28882   2.645   0.895   5.203
 9328SOL    HW128883   2.729   0.890   5.149
 9328SOL    HW228884   2.657   0.958   5.279
 9329SOL     OW28885   5.931   3.636   0.984
 9329SOL    HW128886   6.000   3.661   1.051
 9329SOL    HW228887   5.843   3.623   1.029
 9330SOL     OW28888   6.564   6.813   6.360
 9330SOL    HW128889   6.540   6.904   6.325
 9330SOL    HW228890   6.568   6.816   6.460
 9331SOL     OW28891   2.706   1.176   6.995
 9331SOL    HW128892   2.622   1.198   0.019
 9331SOL    HW228893   2.699   1.209   6.900
 9332SOL     OW28894   4.172   3.927   1.643
 9332SOL    HW128895   4.209   3.843   1.604
 9332SOL    HW228896   4.145   3.989   1.570
 9333SOL     OW28897   4.578   3.982   0.251
 9333SOL    HW128898   4.637   4.032   0.187
 9333SOL    HW228899   4.598   4.012   0.344
 9334SOL     OW28900   6.274   5.872   3.276
 9334SOL    HW128901   6.311   5.964   3.289
 9334SOL    HW228902   6.309   5.812   3.348
 9335SOL     OW28903   0.925   1.447   6.888
 9335SOL    HW128904   0.838   1.493   6.868
 9335SOL    HW228905   0.912   1.348   6.886
 9336SOL     OW28906   3.090   5.986   5.649
 9336SOL    HW128907   3.083   6.031   5.737
 9336SOL    HW228908   3.185   5.990   5.617
 9337SOL     OW28909   4.204   1.860   4.579
 9337SOL    HW128910   4.221   1.829   4.485
 9337SOL    HW228911   4.110   1.839   4.605
 9338SOL     OW28912   5.137   0.479   1.896
 9338SOL    HW128913   5.105   0.547   1.963
 9338SOL    HW228914   5.178   0.526   1.818
 9339SOL     OW28915   5.914   0.076   1.628
 9339SOL    HW128916   5.843   0.025   1.581
 9339SOL    HW228917   5.993   0.017   1.643
 9340SOL     OW28918   5.610   4.376   4.552
 9340SOL    HW128919   5.649   4.338   4.636
 9340SOL    HW228920   5.569   4.465   4.572
 9341SOL     OW28921   0.069   5.861   0.766
 9341SOL    HW128922   0.033   5.834   0.677
 9341SOL    HW228923   0.168   5.873   0.760
 9342SOL     OW28924   1.917   6.376   3.812
 9342SOL    HW128925   1.963   6.411   3.730
 9342SOL    HW228926   1.985   6.348   3.879
 9343SOL     OW28927   5.672   4.087   2.452
 9343SOL    HW128928   5.745   4.080   2.520
 9343SOL    HW228929   5.705   4.137   2.372
 9344SOL     OW28930   5.039   6.361   2.643
 9344SOL    HW128931   5.098   6.374   2.723
 9344SOL    HW228932   5.082   6.295   2.581
 9345SOL     OW28933   6.022   5.411   2.202
 9345SOL    HW128934   6.122   5.406   2.196
 9345SOL    HW228935   5.995   5.403   2.298
 9346SOL     OW28936   5.860   1.517   1.368
 9346SOL    HW128937   5.871   1.588   1.438
 9346SOL    HW228938   5.931   1.448   1.380
 9347SOL     OW28939   2.988   3.829   0.550
 9347SOL    HW128940   2.977   3.756   0.483
 9347SOL    HW228941   2.969   3.917   0.506
 9348SOL     OW28942   3.248   6.373   2.037
 9348SOL    HW128943   3.285   6.436   2.105
 9348SOL    HW228944   3.321   6.312   2.006
 9349SOL     OW28945   6.596   5.297   3.575
 9349SOL    HW128946   6.602   5.376   3.513
 9349SOL    HW228947   6.666   5.306   3.646
 9350SOL     OW28948   0.418   3.015   5.096
 9350SOL    HW128949   0.401   2.975   5.006
 9350SOL    HW228950   0.503   2.977   5.133
 9351SOL     OW28951   3.053   0.011   0.076
 9351SOL    HW128952   3.123   0.076   0.105
 9351SOL    HW228953   3.096   6.953   0.041
 9352SOL     OW28954   3.875   1.769   6.236
 9352SOL    HW128955   3.850   1.778   6.332
 9352SOL    HW228956   3.898   1.859   6.199
 9353SOL     OW28957   0.614   4.380   0.771
 9353SOL    HW128958   0.637   4.337   0.859
 9353SOL    HW228959   0.696   4.383   0.714
 9354SOL     OW28960   0.333   2.248   6.313
 9354SOL    HW128961   0.234   2.232   6.315
 9354SOL    HW228962   0.356   2.324   6.373
 9355SOL     OW28963   0.444   1.825   4.348
 9355SOL    HW128964   0.538   1.858   4.352
 9355SOL    HW228965   0.384   1.897   4.314
 9356SOL     OW28966   4.858   0.347   2.094
 9356SOL    HW128967   4.786   0.279   2.110
 9356SOL    HW228968   4.946   0.301   2.086
 9357SOL     OW28969   1.744   3.106   5.989
 9357SOL    HW128970   1.828   3.159   5.973
 9357SOL    HW228971   1.733   3.039   5.916
 9358SOL     OW28972   6.622   3.384   2.184
 9358SOL    HW128973   6.686   3.404   2.110
 9358SOL    HW228974   6.545   3.448   2.179
 9359SOL     OW28975   1.833   4.518   5.639
 9359SOL    HW128976   1.882   4.548   5.721
 9359SOL    HW228977   1.802   4.598   5.588
 9360SOL     OW28978   0.945   4.336   6.844
 9360SOL    HW128979   1.004   4.406   6.804
 9360SOL    HW228980   0.868   4.319   6.782
 9361SOL     OW28981   2.082   5.272   2.666
 9361SOL    HW128982   2.050   5.272   2.571
 9361SOL    HW228983   2.028   5.207   2.719
 9362SOL     OW28984   1.464   1.472   2.368
 9362SOL    HW128985   1.540   1.501   2.426
 9362SOL    HW228986   1.452   1.374   2.375
 9363SOL     OW28987   3.099   5.419   1.820
 9363SOL    HW128988   3.083   5.420   1.721
 9363SOL    HW228989   3.184   5.468   1.840
 9364SOL     OW28990   2.627   2.183   6.504
 9364SOL    HW128991   2.713   2.184   6.454
 9364SOL    HW228992   2.625   2.260   6.569
 9365SOL     OW28993   3.198   1.989   3.658
 9365SOL    HW128994   3.298   1.991   3.659
 9365SOL    HW228995   3.166   1.901   3.692
 9366SOL     OW28996   3.305   5.539   6.297
 9366SOL    HW128997   3.313   5.619   6.357
 9366SOL    HW228998   3.247   5.470   6.341
 9367SOL     OW28999   6.698   6.232   2.265
 9367SOL    HW129000   6.751   6.150   2.285
 9367SOL    HW229001   6.756   6.300   2.221
 9368SOL     OW29002   3.270   0.739   2.985
 9368SOL    HW129003   3.276   0.659   3.044
 9368SOL    HW229004   3.296   0.821   3.036
 9369SOL     OW29005   6.840   6.802   3.893
 9369SOL    HW129006   6.902   6.770   3.821
 9369SOL    HW229007   6.856   6.900   3.908
 9370SOL     OW29008   5.252   0.354   4.487
 9370SOL    HW129009   5.327   0.307   4.441
 9370SOL    HW229010   5.289   0.419   4.553
 9371SOL     OW29011   2.446   5.298   0.321
 9371SOL    HW129012   2.420   5.262   0.232
 9371SOL    HW229013   2.496   5.384   0.309
 9372SOL     OW29014   5.196   6.680   1.111
 9372SOL    HW129015   5.108   6.667   1.065
 9372SOL    HW229016   5.269   6.686   1.042
 9373SOL     OW29017   4.746   2.709   1.559
 9373SOL    HW129018   4.815   2.780   1.544
 9373SOL    HW229019   4.680   2.741   1.627
 9374SOL     OW29020   0.681   2.933   6.751
 9374SOL    HW129021   0.703   2.839   6.725
 9374SOL    HW229022   0.593   2.935   6.799
 9375SOL     OW29023   0.539   2.561   0.915
 9375SOL    HW129024   0.546   2.553   0.816
 9375SOL    HW229025   0.538   2.470   0.957
 9376SOL     OW29026   2.233   3.980   1.426
 9376SOL    HW129027   2.199   4.064   1.386
 9376SOL    HW229028   2.190   3.901   1.381
 9377SOL     OW29029   2.185   5.149   3.002
 9377SOL    HW129030   2.085   5.145   2.998
 9377SOL    HW229031   2.213   5.191   3.089
 9378SOL     OW29032   2.854   1.230   2.904
 9378SOL    HW129033   2.836   1.257   2.999
 9378SOL    HW229034   2.856   1.311   2.846
 9379SOL     OW29035   4.770   0.173   5.207
 9379SOL    HW129036   4.805   0.123   5.286
 9379SOL    HW229037   4.815   0.139   5.124
 9380SOL     OW29038   3.837   5.305   5.212
 9380SOL    HW129039   3.809   5.399   5.233
 9380SOL    HW229040   3.779   5.242   5.264
 9381SOL     OW29041   5.574   2.916   5.761
 9381SOL    HW129042   5.633   2.964   5.696
 9381SOL    HW229043   5.606   2.933   5.854
 9382SOL     OW29044   3.922   0.468   3.232
 9382SOL    HW129045   3.962   0.528   3.301
 9382SOL    HW229046   3.834   0.506   3.202
 9383SOL     OW29047   5.530   4.704   3.844
 9383SOL    HW129048   5.575   4.663   3.924
 9383SOL    HW229049   5.521   4.802   3.858
 9384SOL     OW29050   4.041   0.240   2.007
 9384SOL    HW129051   3.984   0.204   2.081
 9384SOL    HW229052   4.007   0.330   1.979
 9385SOL     OW29053   4.389   1.453   4.180
 9385SOL    HW129054   4.438   1.426   4.098
 9385SOL    HW229055   4.428   1.537   4.217
 9386SOL     OW29056   3.162   5.644   5.447
 9386SOL    HW129057   3.069   5.615   5.425
 9386SOL    HW229058   3.199   5.697   5.370
 9387SOL     OW29059   2.701   2.202   0.725
 9387SOL    HW129060   2.720   2.116   0.677
 9387SOL    HW229061   2.787   2.241   0.757
 9388SOL     OW29062   2.243   5.883   3.641
 9388SOL    HW129063   2.338   5.910   3.625
 9388SOL    HW229064   2.232   5.785   3.622
 9389SOL     OW29065   2.792   0.580   2.834
 9389SOL    HW129066   2.875   0.628   2.807
 9389SOL    HW229067   2.806   0.537   2.924
 9390SOL     OW29068   5.735   5.389   5.840
 9390SOL    HW129069   5.770   5.476   5.805
 9390SOL    HW229070   5.809   5.341   5.887
 9391SOL     OW29071   0.207   6.969   6.312
 9391SOL    HW129072   0.153   6.920   6.244
 9391SOL    HW229073   0.304   6.965   6.286
 9392SOL     OW29074   5.281   4.921   5.081
 9392SOL    HW129075   5.369   4.934   5.127
 9392SOL    HW229076   5.207   4.932   5.147
 9393SOL     OW29077   2.881   0.143   5.695
 9393SOL    HW129078   2.897   0.202   5.615
 9393SOL    HW229079   2.883   0.198   5.778
 9394SOL     OW29080   6.318   0.770   1.047
 9394SOL    HW129081   6.265   0.685   1.047
 9394SOL    HW229082   6.329   0.803   0.953
 9395SOL     OW29083   2.397   0.929   0.748
 9395SOL    HW129084   2.424   0.918   0.843
 9395SOL    HW229085   2.444   0.860   0.692
 9396SOL     OW29086   1.996   4.966   4.501
 9396SOL    HW129087   2.006   5.056   4.459
 9396SOL    HW229088   2.085   4.934   4.533
 9397SOL     OW29089   3.202   6.395   6.120
 9397SOL    HW129090   3.291   6.360   6.149
 9397SOL    HW229091   3.208   6.494   6.110
 9398SOL     OW29092   5.937   0.842   6.210
 9398SOL    HW129093   5.860   0.782   6.228
 9398SOL    HW229094   5.905   0.925   6.165
 9399SOL     OW29095   0.836   3.332   4.609
 9399SOL    HW129096   0.804   3.383   4.688
 9399SOL    HW229097   0.812   3.382   4.525
 9400SOL     OW29098   4.707   0.799   1.099
 9400SOL    HW129099   4.779   0.736   1.069
 9400SOL    HW229100   4.632   0.746   1.139
 9401SOL     OW29101   0.058   2.116   2.850
 9401SOL    HW129102   0.026   2.022   2.850
 9401SOL    HW229103   0.149   2.121   2.891
 9402SOL     OW29104   1.106   3.747   2.760
 9402SOL    HW129105   1.049   3.745   2.842
 9402SOL    HW229106   1.166   3.826   2.762
 9403SOL     OW29107   6.428   1.634   1.904
 9403SOL    HW129108   6.429   1.703   1.976
 9403SOL    HW229109   6.346   1.645   1.847
 9404SOL     OW29110   0.447   2.296   1.550
 9404SOL    HW129111   0.396   2.220   1.589
 9404SOL    HW229112   0.393   2.340   1.478
 9405SOL     OW29113   1.799   4.305   3.896
 9405SOL    HW129114   1.811   4.228   3.833
 9405SOL    HW229115   1.714   4.295   3.946
 9406SOL     OW29116   0.761   3.137   6.557
 9406SOL    HW129117   0.742   3.067   6.625
 9406SOL    HW229118   0.855   3.128   6.524
 9407SOL     OW29119   2.519   5.510   4.351
 9407SOL    HW129120   2.496   5.533   4.446
 9407SOL    HW229121   2.611   5.472   4.348
 9408SOL     OW29122   6.978   2.614   5.916
 9408SOL    HW129123   0.047   2.635   5.942
 9408SOL    HW229124   6.947   2.678   5.846
 9409SOL     OW29125   6.122   6.005   1.700
 9409SOL    HW129126   6.089   5.977   1.791
 9409SOL    HW229127   6.165   5.926   1.655
 9410SOL     OW29128   3.898   0.990   1.604
 9410SOL    HW129129   3.898   0.890   1.610
 9410SOL    HW229130   3.805   1.024   1.621
 9411SOL     OW29131   3.802   3.031   3.454
 9411SOL    HW129132   3.718   3.076   3.424
 9411SOL    HW229133   3.881   3.074   3.410
 9412SOL     OW29134   1.965   0.520   2.305
 9412SOL    HW129135   2.042   0.506   2.368
 9412SOL    HW229136   1.999   0.517   2.210
 9413SOL     OW29137   4.664   5.201   3.884
 9413SOL    HW129138   4.627   5.197   3.977
 9413SOL    HW229139   4.761   5.173   3.885
 9414SOL     OW29140   2.944   1.365   3.838
 9414SOL    HW129141   2.861   1.400   3.795
 9414SOL    HW229142   3.021   1.379   3.776
 9415SOL     OW29143   2.110   6.814   1.719
 9415SOL    HW129144   2.182   6.769   1.666
 9415SOL    HW229145   2.121   6.792   1.816
 9416SOL     OW29146   0.013   0.784   5.771
 9416SOL    HW129147   6.973   0.836   5.717
 9416SOL    HW229148   7.015   0.687   5.767
 9417SOL     OW29149   3.555   6.648   0.700
 9417SOL    HW129150   3.462   6.655   0.665
 9417SOL    HW229151   3.620   6.644   0.624
 9418SOL     OW29152   1.867   1.492   2.339
 9418SOL    HW129153   1.886   1.458   2.247
 9418SOL    HW229154   1.799   1.434   2.382
 9419SOL     OW29155   1.539   3.570   6.368
 9419SOL    HW129156   1.463   3.603   6.312
 9419SOL    HW229157   1.625   3.607   6.332
 9420SOL     OW29158   5.672   4.325   6.978
 9420SOL    HW129159   5.691   4.422   6.963
 9420SOL    HW229160   5.580   4.314   7.015
 9421SOL     OW29161   3.089   5.262   4.715
 9421SOL    HW129162   3.066   5.196   4.643
 9421SOL    HW229163   3.107   5.213   4.801
 9422SOL     OW29164   3.065   6.157   3.680
 9422SOL    HW129165   3.069   6.253   3.652
 9422SOL    HW229166   2.993   6.110   3.628
 9423SOL     OW29167   3.838   6.658   3.106
 9423SOL    HW129168   3.825   6.601   3.187
 9423SOL    HW229169   3.870   6.749   3.134
 9424SOL     OW29170   5.153   2.002   4.603
 9424SOL    HW129171   5.247   2.037   4.599
 9424SOL    HW229172   5.123   1.999   4.698
 9425SOL     OW29173   5.568   5.321   0.963
 9425SOL    HW129174   5.655   5.278   0.940
 9425SOL    HW229175   5.514   5.259   1.020
 9426SOL     OW29176   2.361   1.560   5.783
 9426SOL    HW129177   2.458   1.537   5.796
 9426SOL    HW229178   2.332   1.625   5.853
 9427SOL     OW29179   2.607   5.716   3.097
 9427SOL    HW129180   2.656   5.751   3.177
 9427SOL    HW229181   2.600   5.617   3.104
 9428SOL     OW29182   6.966   6.908   0.801
 9428SOL    HW129183   7.002   6.835   0.860
 9428SOL    HW229184   7.019   6.992   0.817
 9429SOL     OW29185   2.322   2.725   3.777
 9429SOL    HW129186   2.249   2.750   3.841
 9429SOL    HW229187   2.342   2.802   3.717
 9430SOL     OW29188   0.439   2.064   4.821
 9430SOL    HW129189   0.443   2.014   4.735
 9430SOL    HW229190   0.402   2.156   4.805
 9431SOL     OW29191   6.600   5.101   1.106
 9431SOL    HW129192   6.605   5.094   1.006
 9431SOL    HW229193   6.528   5.041   1.140
 9432SOL     OW29194   5.932   1.456   4.670
 9432SOL    HW129195   5.967   1.467   4.577
 9432SOL    HW229196   5.851   1.398   4.668
 9433SOL     OW29197   3.476   6.799   2.921
 9433SOL    HW129198   3.424   6.788   3.006
 9433SOL    HW229199   3.536   6.720   2.909
 9434SOL     OW29200   6.111   5.502   3.216
 9434SOL    HW129201   6.061   5.424   3.178
 9434SOL    HW229202   6.165   5.545   3.144
 9435SOL     OW29203   0.550   1.721   3.030
 9435SOL    HW129204   0.550   1.731   3.129
 9435SOL    HW229205   0.484   1.651   3.003
 9436SOL     OW29206   1.501   1.135   2.895
 9436SOL    HW129207   1.420   1.076   2.887
 9436SOL    HW229208   1.493   1.191   2.978
 9437SOL     OW29209   0.448   5.172   3.341
 9437SOL    HW129210   0.439   5.271   3.353
 9437SOL    HW229211   0.545   5.147   3.341
 9438SOL     OW29212   1.334   6.980   2.093
 9438SOL    HW129213   1.419   7.018   2.131
 9438SOL    HW229214   1.260   0.021   2.107
 9439SOL     OW29215   0.637   3.082   1.411
 9439SOL    HW129216   0.600   3.129   1.491
 9439SOL    HW229217   0.562   3.062   1.347
 9440SOL     OW29218   3.833   4.852   3.474
 9440SOL    HW129219   3.739   4.855   3.508
 9440SOL    HW229220   3.897   4.854   3.550
 9441SOL     OW29221   6.611   5.920   5.822
 9441SOL    HW129222   6.598   5.821   5.809
 9441SOL    HW229223   6.708   5.940   5.830
 9442SOL     OW29224   4.703   3.409   1.635
 9442SOL    HW129225   4.614   3.366   1.622
 9442SOL    HW229226   4.754   3.359   1.705
 9443SOL     OW29227   2.772   5.334   0.531
 9443SOL    HW129228   2.691   5.347   0.588
 9443SOL    HW229229   2.836   5.272   0.577
 9444SOL     OW29230   1.838   4.244   0.790
 9444SOL    HW129231   1.885   4.298   0.861
 9444SOL    HW229232   1.903   4.179   0.751
 9445SOL     OW29233   6.984   2.800   3.312
 9445SOL    HW129234   6.998   2.783   3.410
 9445SOL    HW229235   7.003   2.895   3.291
 9446SOL     OW29236   0.072   5.341   4.418
 9446SOL    HW129237   0.015   5.423   4.416
 9446SOL    HW229238   0.025   5.268   4.468
 9447SOL     OW29239   5.635   5.264   3.601
 9447SOL    HW129240   5.545   5.226   3.624
 9447SOL    HW229241   5.704   5.229   3.664
 9448SOL     OW29242   6.698   6.872   6.127
 9448SOL    HW129243   6.753   6.948   6.092
 9448SOL    HW229244   6.601   6.891   6.114
 9449SOL     OW29245   6.369   6.629   7.020
 9449SOL    HW129246   6.414   6.620   0.084
 9449SOL    HW229247   6.297   6.698   0.001
 9450SOL     OW29248   2.489   5.415   3.350
 9450SOL    HW129249   2.488   5.497   3.407
 9450SOL    HW229250   2.583   5.398   3.318
 9451SOL     OW29251   3.617   6.007   5.783
 9451SOL    HW129252   3.611   5.920   5.831
 9451SOL    HW229253   3.671   5.995   5.700
 9452SOL     OW29254   1.237   4.170   6.967
 9452SOL    HW129255   1.320   4.115   6.978
 9452SOL    HW229256   1.164   4.112   6.932
 9453SOL     OW29257   3.060   4.820   2.789
 9453SOL    HW129258   3.014   4.750   2.843
 9453SOL    HW229259   2.994   4.863   2.727
 9454SOL     OW29260   3.517   2.962   6.239
 9454SOL    HW129261   3.479   2.875   6.209
 9454SOL    HW229262   3.592   2.989   6.179
 9455SOL     OW29263   2.572   2.470   2.599
 9455SOL    HW129264   2.559   2.461   2.500
 9455SOL    HW229265   2.645   2.535   2.617
 9456SOL     OW29266   6.119   3.681   1.171
 9456SOL    HW129267   6.193   3.730   1.217
 9456SOL    HW229268   6.068   3.628   1.239
 9457SOL     OW29269   0.298   5.098   4.393
 9457SOL    HW129270   0.332   5.167   4.458
 9457SOL    HW229271   0.357   5.098   4.312
 9458SOL     OW29272   0.142   4.134   0.075
 9458SOL    HW129273   0.192   4.213   0.040
 9458SOL    HW229274   0.196   4.089   0.146
 9459SOL     OW29275   5.423   5.120   3.681
 9459SOL    HW129276   5.341   5.172   3.703
 9459SOL    HW229277   5.450   5.065   3.760
 9460SOL     OW29278   2.041   3.417   4.865
 9460SOL    HW129279   2.082   3.326   4.866
 9460SOL    HW229280   2.076   3.469   4.787
 9461SOL     OW29281   0.372   1.848   2.324
 9461SOL    HW129282   0.451   1.876   2.270
 9461SOL    HW229283   0.298   1.915   2.313
 9462SOL     OW29284   1.796   2.862   3.666
 9462SOL    HW129285   1.864   2.788   3.669
 9462SOL    HW229286   1.798   2.913   3.752
 9463SOL     OW29287   5.613   6.581   1.092
 9463SOL    HW129288   5.632   6.495   1.044
 9463SOL    HW229289   5.678   6.592   1.167
 9464SOL     OW29290   5.814   6.936   0.765
 9464SOL    HW129291   5.799   7.001   0.691
 9464SOL    HW229292   5.885   6.971   0.827
 9465SOL     OW29293   6.934   3.651   1.834
 9465SOL    HW129294   6.946   3.631   1.931
 9465SOL    HW229295   6.844   3.691   1.819
 9466SOL     OW29296   3.425   4.184   5.833
 9466SOL    HW129297   3.350   4.249   5.827
 9466SOL    HW229298   3.456   4.160   5.741
 9467SOL     OW29299   0.540   2.840   0.929
 9467SOL    HW129300   0.547   2.742   0.943
 9467SOL    HW229301   0.569   2.863   0.836
 9468SOL     OW29302   6.358   3.446   6.253
 9468SOL    HW129303   6.290   3.373   6.246
 9468SOL    HW229304   6.402   3.459   6.164
 9469SOL     OW29305   6.774   5.872   1.531
 9469SOL    HW129306   6.821   5.954   1.499
 9469SOL    HW229307   6.838   5.795   1.529
 9470SOL     OW29308   4.492   3.214   6.974
 9470SOL    HW129309   4.401   3.255   6.980
 9470SOL    HW229310   4.558   3.285   6.949
 9471SOL     OW29311   6.489   1.794   5.003
 9471SOL    HW129312   6.512   1.882   4.963
 9471SOL    HW229313   6.501   1.721   4.935
 9472SOL     OW29314   0.417   4.087   5.870
 9472SOL    HW129315   0.399   4.184   5.852
 9472SOL    HW229316   0.500   4.059   5.821
 9473SOL     OW29317   3.412   4.318   6.498
 9473SOL    HW129318   3.463   4.253   6.554
 9473SOL    HW229319   3.320   4.330   6.536
 9474SOL     OW29320   5.777   3.639   2.056
 9474SOL    HW129321   5.811   3.624   2.149
 9474SOL    HW229322   5.804   3.562   1.998
 9475SOL     OW29323   4.518   3.421   0.390
 9475SOL    HW129324   4.544   3.405   0.485
 9475SOL    HW229325   4.476   3.511   0.381
 9476SOL     OW29326   3.808   3.725   4.895
 9476SOL    HW129327   3.888   3.674   4.863
 9476SOL    HW229328   3.837   3.808   4.942
 9477SOL     OW29329   0.519   2.618   1.190
 9477SOL    HW129330   0.532   2.610   1.091
 9477SOL    HW229331   0.456   2.546   1.221
 9478SOL     OW29332   5.316   3.217   1.090
 9478SOL    HW129333   5.366   3.248   1.009
 9478SOL    HW229334   5.262   3.292   1.127
 9479SOL     OW29335   4.566   6.435   0.879
 9479SOL    HW129336   4.658   6.476   0.887
 9479SOL    HW229337   4.510   6.492   0.819
 9480SOL     OW29338   5.896   5.282   0.615
 9480SOL    HW129339   5.936   5.226   0.542
 9480SOL    HW229340   5.905   5.378   0.591
 9481SOL     OW29341   4.748   2.309   2.567
 9481SOL    HW129342   4.790   2.263   2.645
 9481SOL    HW229343   4.659   2.268   2.548
 9482SOL     OW29344   6.766   0.540   2.765
 9482SOL    HW129345   6.676   0.583   2.766
 9482SOL    HW229346   6.825   0.586   2.831
 9483SOL     OW29347   1.752   1.117   0.409
 9483SOL    HW129348   1.706   1.179   0.345
 9483SOL    HW229349   1.781   1.169   0.490
 9484SOL     OW29350   3.295   0.008   4.654
 9484SOL    HW129351   3.281   0.089   4.710
 9484SOL    HW229352   3.206   6.993   4.630
 9485SOL     OW29353   0.556   1.902   0.933
 9485SOL    HW129354   0.565   1.803   0.937
 9485SOL    HW229355   0.613   1.937   0.858
 9486SOL     OW29356   4.485   6.152   1.256
 9486SOL    HW129357   4.483   6.190   1.349
 9486SOL    HW229358   4.554   6.200   1.202
 9487SOL     OW29359   3.370   4.030   4.157
 9487SOL    HW129360   3.440   4.087   4.199
 9487SOL    HW229361   3.303   4.003   4.226
 9488SOL     OW29362   2.710   0.520   1.122
 9488SOL    HW129363   2.752   0.451   1.063
 9488SOL    HW229364   2.611   0.523   1.105
 9489SOL     OW29365   5.125   4.555   1.252
 9489SOL    HW129366   5.111   4.494   1.174
 9489SOL    HW229367   5.046   4.549   1.313
 9490SOL     OW29368   6.891   5.781   3.683
 9490SOL    HW129369   6.881   5.879   3.702
 9490SOL    HW229370   6.802   5.737   3.689
 9491SOL     OW29371   5.527   5.714   3.936
 9491SOL    HW129372   5.534   5.762   3.849
 9491SOL    HW229373   5.430   5.704   3.961
 9492SOL     OW29374   3.643   3.341   5.001
 9492SOL    HW129375   3.634   3.286   5.084
 9492SOL    HW229376   3.619   3.285   4.922
 9493SOL     OW29377   3.057   5.937   4.958
 9493SOL    HW129378   2.998   6.013   4.984
 9493SOL    HW229379   3.007   5.875   4.897
 9494SOL     OW29380   5.700   3.142   2.533
 9494SOL    HW129381   5.756   3.224   2.540
 9494SOL    HW229382   5.604   3.167   2.525
 9495SOL     OW29383   6.877   1.557   2.526
 9495SOL    HW129384   6.959   1.596   2.568
 9495SOL    HW229385   6.826   1.630   2.480
 9496SOL     OW29386   5.426   2.571   1.768
 9496SOL    HW129387   5.386   2.650   1.814
 9496SOL    HW229388   5.488   2.525   1.831
 9497SOL     OW29389   4.676   5.918   5.085
 9497SOL    HW129390   4.614   5.969   5.026
 9497SOL    HW229391   4.769   5.952   5.072
 9498SOL     OW29392   6.524   4.749   4.626
 9498SOL    HW129393   6.510   4.651   4.643
 9498SOL    HW229394   6.469   4.802   4.691
 9499SOL     OW29395   0.975   5.779   5.058
 9499SOL    HW129396   0.934   5.869   5.044
 9499SOL    HW229397   1.051   5.766   4.994
 9500SOL     OW29398   4.093   6.684   0.509
 9500SOL    HW129399   4.108   6.643   0.419
 9500SOL    HW229400   4.109   6.615   0.579
 9501SOL     OW29401   2.022   1.353   4.292
 9501SOL    HW129402   2.086   1.276   4.304
 9501SOL    HW229403   2.049   1.428   4.352
 9502SOL     OW29404   6.384   3.885   5.117
 9502SOL    HW129405   6.295   3.887   5.163
 9502SOL    HW229406   6.414   3.790   5.108
 9503SOL     OW29407   6.605   2.805   0.269
 9503SOL    HW129408   6.648   2.891   0.297
 9503SOL    HW229409   6.666   2.758   0.205
 9504SOL     OW29410   6.850   4.078   2.029
 9504SOL    HW129411   6.908   4.025   2.091
 9504SOL    HW229412   6.764   4.100   2.074
 9505SOL     OW29413   5.315   4.560   5.529
 9505SOL    HW129414   5.359   4.640   5.488
 9505SOL    HW229415   5.266   4.586   5.612
 9506SOL     OW29416   1.381   2.752   0.933
 9506SOL    HW129417   1.465   2.707   0.901
 9506SOL    HW229418   1.393   2.851   0.928
 9507SOL     OW29419   6.813   0.959   1.667
 9507SOL    HW129420   6.782   1.015   1.743
 9507SOL    HW229421   6.904   0.989   1.638
 9508SOL     OW29422   5.844   1.728   2.783
 9508SOL    HW129423   5.803   1.678   2.707
 9508SOL    HW229424   5.874   1.818   2.751
 9509SOL     OW29425   0.084   0.825   3.352
 9509SOL    HW129426   0.118   0.917   3.371
 9509SOL    HW229427   7.019   0.831   3.308
 9510SOL     OW29428   1.208   3.924   3.041
 9510SOL    HW129429   1.248   3.964   3.123
 9510SOL    HW229430   1.109   3.917   3.052
 9511SOL     OW29431   2.250   0.494   1.305
 9511SOL    HW129432   2.285   0.493   1.398
 9511SOL    HW229433   2.210   0.584   1.285
 9512SOL     OW29434   6.586   2.049   0.660
 9512SOL    HW129435   6.594   2.134   0.711
 9512SOL    HW229436   6.489   2.024   0.652
 9513SOL     OW29437   2.725   4.629   6.611
 9513SOL    HW129438   2.638   4.679   6.603
 9513SOL    HW229439   2.774   4.635   6.524
 9514SOL     OW29440   2.818   4.882   6.813
 9514SOL    HW129441   2.810   4.936   6.729
 9514SOL    HW229442   2.893   4.816   6.805
 9515SOL     OW29443   2.061   6.148   2.643
 9515SOL    HW129444   2.139   6.101   2.603
 9515SOL    HW229445   1.977   6.101   2.617
 9516SOL     OW29446   5.630   4.852   0.256
 9516SOL    HW129447   5.531   4.837   0.254
 9516SOL    HW229448   5.676   4.766   0.279
 9517SOL     OW29449   2.151   4.180   1.253
 9517SOL    HW129450   2.064   4.198   1.299
 9517SOL    HW229451   2.185   4.264   1.210
 9518SOL     OW29452   2.121   1.488   0.924
 9518SOL    HW129453   2.026   1.518   0.915
 9518SOL    HW229454   2.123   1.393   0.955
 9519SOL     OW29455   2.924   3.048   5.277
 9519SOL    HW129456   2.958   3.138   5.248
 9519SOL    HW229457   3.002   2.990   5.301
 9520SOL     OW29458   2.591   0.801   2.920
 9520SOL    HW129459   2.672   0.857   2.903
 9520SOL    HW229460   2.610   0.707   2.893
 9521SOL     OW29461   5.746   5.546   2.706
 9521SOL    HW129462   5.811   5.541   2.781
 9521SOL    HW229463   5.795   5.560   2.620
 9522SOL     OW29464   3.236   5.279   1.354
 9522SOL    HW129465   3.214   5.319   1.443
 9522SOL    HW229466   3.200   5.337   1.281
 9523SOL     OW29467   3.002   5.502   5.014
 9523SOL    HW129468   3.014   5.403   5.024
 9523SOL    HW229469   2.974   5.541   5.101
 9524SOL     OW29470   3.984   2.651   1.246
 9524SOL    HW129471   3.969   2.724   1.313
 9524SOL    HW229472   3.923   2.664   1.168
 9525SOL     OW29473   2.419   2.723   6.363
 9525SOL    HW129474   2.405   2.806   6.419
 9525SOL    HW229475   2.511   2.687   6.381
 9526SOL     OW29476   4.775   6.162   1.690
 9526SOL    HW129477   4.831   6.102   1.747
 9526SOL    HW229478   4.820   6.175   1.602
 9527SOL     OW29479   0.655   0.516   2.054
 9527SOL    HW129480   0.691   0.551   1.967
 9527SOL    HW229481   0.586   0.446   2.035
 9528SOL     OW29482   6.320   0.747   0.080
 9528SOL    HW129483   6.235   0.782   0.119
 9528SOL    HW229484   6.379   0.824   0.055
 9529SOL     OW29485   7.017   3.017   5.226
 9529SOL    HW129486   7.001   2.928   5.268
 9529SOL    HW229487   0.089   3.026   5.200
 9530SOL     OW29488   1.548   3.190   3.516
 9530SOL    HW129489   1.616   3.224   3.581
 9530SOL    HW229490   1.539   3.091   3.526
 9531SOL     OW29491   3.729   5.087   3.347
 9531SOL    HW129492   3.801   5.122   3.287
 9531SOL    HW229493   3.755   4.997   3.383
 9532SOL     OW29494   0.168   6.129   2.197
 9532SOL    HW129495   0.128   6.180   2.121
 9532SOL    HW229496   0.252   6.176   2.227
 9533SOL     OW29497   0.009   0.585   4.845
 9533SOL    HW129498   7.020   0.682   4.826
 9533SOL    HW229499   0.074   0.574   4.920
 9534SOL     OW29500   6.138   2.659   5.560
 9534SOL    HW129501   6.102   2.662   5.467
 9534SOL    HW229502   6.141   2.752   5.598
 9535SOL     OW29503   2.321   1.265   5.971
 9535SOL    HW129504   2.390   1.337   5.972
 9535SOL    HW229505   2.239   1.297   5.924
 9536SOL     OW29506   2.742   5.090   5.428
 9536SOL    HW129507   2.678   5.027   5.384
 9536SOL    HW229508   2.835   5.056   5.416
 9537SOL     OW29509   2.483   0.501   2.283
 9537SOL    HW129510   2.507   0.572   2.218
 9537SOL    HW229511   2.565   0.453   2.313
 9538SOL     OW29512   6.573   1.949   4.539
 9538SOL    HW129513   6.479   1.942   4.507
 9538SOL    HW229514   6.614   1.858   4.543
 9539SOL     OW29515   2.350   4.510   6.507
 9539SOL    HW129516   2.395   4.499   6.418
 9539SOL    HW229517   2.392   4.585   6.557
 9540SOL     OW29518   4.618   4.230   5.134
 9540SOL    HW129519   4.711   4.218   5.099
 9540SOL    HW229520   4.553   4.187   5.071
 9541SOL     OW29521   2.310   2.058   6.065
 9541SOL    HW129522   2.323   2.106   5.978
 9541SOL    HW229523   2.380   1.988   6.075
 9542SOL     OW29524   5.086   3.577   5.306
 9542SOL    HW129525   5.050   3.527   5.227
 9542SOL    HW229526   5.065   3.527   5.390
 9543SOL     OW29527   4.315   0.412   4.302
 9543SOL    HW129528   4.274   0.321   4.297
 9543SOL    HW229529   4.388   0.412   4.370
 9544SOL     OW29530   6.325   0.974   2.215
 9544SOL    HW129531   6.256   0.905   2.236
 9544SOL    HW229532   6.382   0.943   2.139
 9545SOL     OW29533   6.697   5.141   3.069
 9545SOL    HW129534   6.674   5.084   3.149
 9545SOL    HW229535   6.630   5.125   2.996
 9546SOL     OW29536   2.348   3.693   0.027
 9546SOL    HW129537   2.309   3.759   6.988
 9546SOL    HW229538   2.276   3.634   0.063
 9547SOL     OW29539   2.644   6.300   4.135
 9547SOL    HW129540   2.572   6.364   4.107
 9547SOL    HW229541   2.603   6.211   4.156
 9548SOL     OW29542   6.902   5.528   4.847
 9548SOL    HW129543   6.996   5.526   4.880
 9548SOL    HW229544   6.841   5.563   4.918
 9549SOL     OW29545   2.931   4.738   0.935
 9549SOL    HW129546   2.963   4.831   0.949
 9549SOL    HW229547   2.915   4.723   0.837
 9550SOL     OW29548   6.842   1.354   6.246
 9550SOL    HW129549   6.869   1.341   6.342
 9550SOL    HW229550   6.801   1.270   6.211
 9551SOL     OW29551   0.112   6.908   4.404
 9551SOL    HW129552   0.059   6.823   4.394
 9551SOL    HW229553   0.135   6.944   4.313
 9552SOL     OW29554   1.305   6.348   2.415
 9552SOL    HW129555   1.400   6.372   2.395
 9552SOL    HW229556   1.267   6.299   2.337
 9553SOL     OW29557   5.933   4.317   6.482
 9553SOL    HW129558   5.890   4.227   6.491
 9553SOL    HW229559   5.932   4.363   6.571
 9554SOL     OW29560   2.843   1.291   1.328
 9554SOL    HW129561   2.907   1.224   1.290
 9554SOL    HW229562   2.856   1.379   1.283
 9555SOL     OW29563   6.718   2.309   1.199
 9555SOL    HW129564   6.646   2.370   1.167
 9555SOL    HW229565   6.796   2.362   1.231
 9556SOL     OW29566   2.165   1.871   1.395
 9556SOL    HW129567   2.142   1.839   1.303
 9556SOL    HW229568   2.081   1.895   1.444
 9557SOL     OW29569   6.242   0.771   2.658
 9557SOL    HW129570   6.250   0.728   2.748
 9557SOL    HW229571   6.268   0.867   2.664
 9558SOL     OW29572   6.905   5.615   3.900
 9558SOL    HW129573   6.941   5.627   3.807
 9558SOL    HW229574   6.948   5.682   3.961
 9559SOL     OW29575   7.009   4.429   2.076
 9559SOL    HW129576   0.041   4.507   2.102
 9559SOL    HW229577   0.035   4.344   2.093
 9560SOL     OW29578   1.587   1.628   2.820
 9560SOL    HW129579   1.529   1.579   2.884
 9560SOL    HW229580   1.601   1.722   2.852
 9561SOL     OW29581   2.896   0.163   0.776
 9561SOL    HW129582   2.810   0.197   0.739
 9561SOL    HW229583   2.895   0.063   0.775
 9562SOL     OW29584   3.036   6.245   4.596
 9562SOL    HW129585   3.121   6.262   4.546
 9562SOL    HW229586   2.971   6.199   4.536
 9563SOL     OW29587   6.398   6.097   6.648
 9563SOL    HW129588   6.457   6.171   6.614
 9563SOL    HW229589   6.326   6.135   6.705
 9564SOL     OW29590   2.373   0.202   6.963
 9564SOL    HW129591   2.384   0.145   6.882
 9564SOL    HW229592   2.280   0.238   6.966
 9565SOL     OW29593   4.280   5.772   5.119
 9565SOL    HW129594   4.253   5.830   5.042
 9565SOL    HW229595   4.251   5.815   5.205
 9566SOL     OW29596   3.385   4.701   0.218
 9566SOL    HW129597   3.288   4.703   0.243
 9566SOL    HW229598   3.396   4.738   0.126
 9567SOL     OW29599   6.212   5.189   6.508
 9567SOL    HW129600   6.121   5.150   6.522
 9567SOL    HW229601   6.206   5.288   6.498
 9568SOL     OW29602   4.512   3.195   6.572
 9568SOL    HW129603   4.591   3.202   6.633
 9568SOL    HW229604   4.434   3.159   6.623
 9569SOL     OW29605   6.281   0.929   0.812
 9569SOL    HW129606   6.201   0.938   0.753
 9569SOL    HW229607   6.364   0.935   0.756
 9570SOL     OW29608   0.930   1.777   2.105
 9570SOL    HW129609   0.986   1.702   2.140
 9570SOL    HW229610   0.948   1.860   2.158
 9571SOL     OW29611   2.867   3.321   0.453
 9571SOL    HW129612   2.928   3.387   0.495
 9571SOL    HW229613   2.810   3.278   0.523
 9572SOL     OW29614   1.075   5.064   0.930
 9572SOL    HW129615   1.128   5.105   1.005
 9572SOL    HW229616   0.979   5.087   0.942
 9573SOL     OW29617   0.558   0.949   6.832
 9573SOL    HW129618   0.463   0.919   6.829
 9573SOL    HW229619   0.602   0.927   6.745
 9574SOL     OW29620   3.304   3.398   5.109
 9574SOL    HW129621   3.385   3.454   5.127
 9574SOL    HW229622   3.295   3.328   5.179
 9575SOL     OW29623   5.462   0.862   1.093
 9575SOL    HW129624   5.498   0.926   1.161
 9575SOL    HW229625   5.416   0.912   1.021
 9576SOL     OW29626   3.525   0.948   3.180
 9576SOL    HW129627   3.434   0.983   3.161
 9576SOL    HW229628   3.592   0.994   3.121
 9577SOL     OW29629   1.479   0.515   2.133
 9577SOL    HW129630   1.575   0.490   2.142
 9577SOL    HW229631   1.471   0.606   2.094
 9578SOL     OW29632   5.871   3.311   2.894
 9578SOL    HW129633   5.781   3.325   2.854
 9578SOL    HW229634   5.863   3.301   2.993
 9579SOL     OW29635   1.115   6.768   2.462
 9579SOL    HW129636   1.045   6.836   2.482
 9579SOL    HW229637   1.200   6.793   2.509
 9580SOL     OW29638   5.617   3.767   6.733
 9580SOL    HW129639   5.649   3.851   6.776
 9580SOL    HW229640   5.539   3.731   6.785
 9581SOL     OW29641   2.549   4.549   6.293
 9581SOL    HW129642   2.565   4.451   6.277
 9581SOL    HW229643   2.636   4.597   6.298
 9582SOL     OW29644   4.499   4.525   4.042
 9582SOL    HW129645   4.535   4.450   3.986
 9582SOL    HW229646   4.572   4.591   4.060
 9583SOL     OW29647   2.226   3.238   1.818
 9583SOL    HW129648   2.270   3.326   1.836
 9583SOL    HW229649   2.175   3.209   1.899
 9584SOL     OW29650   6.034   5.949   6.840
 9584SOL    HW129651   5.950   5.947   6.894
 9584SOL    HW229652   6.011   5.940   6.743
 9585SOL     OW29653   6.294   0.043   2.503
 9585SOL    HW129654   6.316   0.135   2.537
 9585SOL    HW229655   6.252   0.051   2.412
 9586SOL     OW29656   5.224   3.783   3.431
 9586SOL    HW129657   5.197   3.800   3.336
 9586SOL    HW229658   5.236   3.684   3.445
 9587SOL     OW29659   5.859   0.334   1.616
 9587SOL    HW129660   5.888   0.239   1.628
 9587SOL    HW229661   5.846   0.353   1.518
 9588SOL     OW29662   0.274   1.182   1.269
 9588SOL    HW129663   0.343   1.240   1.310
 9588SOL    HW229664   0.244   1.113   1.335
 9589SOL     OW29665   2.248   6.345   6.692
 9589SOL    HW129666   2.235   6.350   6.593
 9589SOL    HW229667   2.232   6.252   6.723
 9590SOL     OW29668   0.446   3.658   2.150
 9590SOL    HW129669   0.512   3.720   2.109
 9590SOL    HW229670   0.431   3.580   2.090
 9591SOL     OW29671   2.504   6.220   0.625
 9591SOL    HW129672   2.525   6.191   0.532
 9591SOL    HW229673   2.416   6.182   0.653
 9592SOL     OW29674   4.176   5.387   2.791
 9592SOL    HW129675   4.163   5.449   2.869
 9592SOL    HW229676   4.110   5.410   2.720
 9593SOL     OW29677   5.248   2.321   4.542
 9593SOL    HW129678   5.159   2.323   4.495
 9593SOL    HW229679   5.295   2.235   4.522
 9594SOL     OW29680   7.022   6.255   3.136
 9594SOL    HW129681   6.952   6.300   3.191
 9594SOL    HW229682   6.993   6.163   3.112
 9595SOL     OW29683   2.176   5.944   5.083
 9595SOL    HW129684   2.205   5.878   5.153
 9595SOL    HW229685   2.095   5.993   5.115
 9596SOL     OW29686   7.008   4.908   5.806
 9596SOL    HW129687   7.013   4.902   5.906
 9596SOL    HW229688   0.070   4.944   5.771
 9597SOL     OW29689   0.453   4.105   1.806
 9597SOL    HW129690   0.386   4.176   1.783
 9597SOL    HW229691   0.516   4.093   1.730
 9598SOL     OW29692   0.297   4.031   5.572
 9598SOL    HW129693   0.341   4.120   5.554
 9598SOL    HW229694   0.306   4.009   5.669
 9599SOL     OW29695   3.717   0.090   5.352
 9599SOL    HW129696   3.700   7.017   5.366
 9599SOL    HW229697   3.641   0.130   5.302
 9600SOL     OW29698   1.761   0.303   5.563
 9600SOL    HW129699   1.786   0.395   5.594
 9600SOL    HW229700   1.671   0.306   5.519
 9601SOL     OW29701   6.739   4.052   6.249
 9601SOL    HW129702   6.688   4.117   6.192
 9601SOL    HW229703   6.746   4.088   6.342
 9602SOL     OW29704   6.664   5.235   6.021
 9602SOL    HW129705   6.615   5.320   6.003
 9602SOL    HW229706   6.673   5.222   6.119
 9603SOL     OW29707   2.567   0.007   4.769
 9603SOL    HW129708   2.547   7.008   4.674
 9603SOL    HW229709   2.568   6.948   4.824
 9604SOL     OW29710   4.930   1.288   0.824
 9604SOL    HW129711   4.976   1.201   0.840
 9604SOL    HW229712   4.838   1.284   0.863
 9605SOL     OW29713   1.106   4.886   5.687
 9605SOL    HW129714   1.176   4.896   5.616
 9605SOL    HW229715   1.042   4.814   5.660
 9606SOL     OW29716   1.203   6.842   3.433
 9606SOL    HW129717   1.193   6.940   3.415
 9606SOL    HW229718   1.232   6.795   3.349
 9607SOL     OW29719   0.914   1.081   1.473
 9607SOL    HW129720   0.895   1.165   1.423
 9607SOL    HW229721   0.847   1.070   1.547
 9608SOL     OW29722   7.013   6.803   2.049
 9608SOL    HW129723   6.953   6.846   2.115
 9608SOL    HW229724   0.067   6.762   2.096
 9609SOL     OW29725   1.458   4.214   4.670
 9609SOL    HW129726   1.555   4.198   4.650
 9609SOL    HW229727   1.439   4.312   4.667
 9610SOL     OW29728   1.606   2.604   5.943
 9610SOL    HW129729   1.656   2.530   5.987
 9610SOL    HW229730   1.509   2.598   5.967
 9611SOL     OW29731   6.789   0.179   1.397
 9611SOL    HW129732   6.702   0.173   1.447
 9611SOL    HW229733   6.782   0.130   1.311
 9612SOL     OW29734   6.564   2.717   1.022
 9612SOL    HW129735   6.589   2.761   1.108
 9612SOL    HW229736   6.608   2.764   0.946
 9613SOL     OW29737   5.566   0.116   4.126
 9613SOL    HW129738   5.567   0.060   4.044
 9613SOL    HW229739   5.644   0.093   4.184
 9614SOL     OW29740   4.115   3.818   2.170
 9614SOL    HW129741   4.211   3.791   2.174
 9614SOL    HW229742   4.103   3.891   2.103
 9615SOL     OW29743   2.691   5.128   3.191
 9615SOL    HW129744   2.645   5.105   3.106
 9615SOL    HW229745   2.642   5.088   3.268
 9616SOL     OW29746   4.087   3.012   1.388
 9616SOL    HW129747   4.138   3.040   1.306
 9616SOL    HW229748   4.007   2.958   1.360
 9617SOL     OW29749   1.405   3.668   3.757
 9617SOL    HW129750   1.332   3.602   3.745
 9617SOL    HW229751   1.461   3.643   3.836
 9618SOL     OW29752   3.682   6.827   6.379
 9618SOL    HW129753   3.666   6.744   6.432
 9618SOL    HW229754   3.774   6.822   6.338
 9619SOL     OW29755   1.509   6.225   0.641
 9619SOL    HW129756   1.446   6.301   0.657
 9619SOL    HW229757   1.469   6.141   0.679
 9620SOL     OW29758   3.924   0.634   6.440
 9620SOL    HW129759   3.880   0.545   6.445
 9620SOL    HW229760   3.886   0.686   6.364
 9621SOL     OW29761   1.148   0.171   2.088
 9621SOL    HW129762   1.186   0.236   2.154
 9621SOL    HW229763   1.075   0.119   2.131
 9622SOL     OW29764   6.701   1.397   7.018
 9622SOL    HW129765   6.720   1.439   0.082
 9622SOL    HW229766   6.639   1.319   0.006
 9623SOL     OW29767   4.813   5.823   6.479
 9623SOL    HW129768   4.905   5.845   6.512
 9623SOL    HW229769   4.800   5.864   6.388
 9624SOL     OW29770   5.404   5.254   5.153
 9624SOL    HW129771   5.450   5.166   5.166
 9624SOL    HW229772   5.395   5.272   5.055
 9625SOL     OW29773   5.061   4.422   6.685
 9625SOL    HW129774   5.021   4.363   6.615
 9625SOL    HW229775   5.008   4.414   6.769
 9626SOL     OW29776   1.813   4.489   4.433
 9626SOL    HW129777   1.900   4.492   4.482
 9626SOL    HW229778   1.830   4.499   4.335
 9627SOL     OW29779   1.768   4.324   5.266
 9627SOL    HW129780   1.748   4.259   5.193
 9627SOL    HW229781   1.686   4.378   5.285
 9628SOL     OW29782   5.878   4.183   6.878
 9628SOL    HW129783   5.813   4.255   6.903
 9628SOL    HW229784   5.972   4.217   6.893
 9629SOL     OW29785   6.795   6.254   3.310
 9629SOL    HW129786   6.742   6.220   3.232
 9629SOL    HW229787   6.775   6.350   3.324
 9630SOL     OW29788   6.242   6.158   5.762
 9630SOL    HW129789   6.234   6.130   5.667
 9630SOL    HW229790   6.250   6.257   5.768
 9631SOL     OW29791   4.844   1.380   1.501
 9631SOL    HW129792   4.847   1.380   1.601
 9631SOL    HW229793   4.912   1.444   1.465
 9632SOL     OW29794   1.835   5.425   1.928
 9632SOL    HW129795   1.864   5.519   1.912
 9632SOL    HW229796   1.890   5.385   2.001
 9633SOL     OW29797   3.987   3.035   2.246
 9633SOL    HW129798   4.003   3.038   2.148
 9633SOL    HW229799   4.036   2.957   2.285
 9634SOL     OW29800   5.662   4.431   2.827
 9634SOL    HW129801   5.568   4.406   2.852
 9634SOL    HW229802   5.726   4.362   2.860
 9635SOL     OW29803   0.209   3.987   4.405
 9635SOL    HW129804   0.269   4.010   4.481
 9635SOL    HW229805   0.185   3.889   4.409
 9636SOL     OW29806   4.321   1.553   5.522
 9636SOL    HW129807   4.404   1.560   5.467
 9636SOL    HW229808   4.242   1.543   5.461
 9637SOL     OW29809   2.432   3.610   1.390
 9637SOL    HW129810   2.483   3.655   1.318
 9637SOL    HW229811   2.463   3.642   1.479
 9638SOL     OW29812   0.028   4.677   6.472
 9638SOL    HW129813   6.984   4.606   6.453
 9638SOL    HW229814   0.058   4.717   6.385
 9639SOL     OW29815   4.437   2.571   1.816
 9639SOL    HW129816   4.338   2.574   1.827
 9639SOL    HW229817   4.464   2.627   1.738
 9640SOL     OW29818   4.389   1.119   2.123
 9640SOL    HW129819   4.351   1.212   2.129
 9640SOL    HW229820   4.319   1.057   2.089
 9641SOL     OW29821   5.617   5.498   3.262
 9641SOL    HW129822   5.568   5.500   3.349
 9641SOL    HW229823   5.561   5.455   3.192
 9642SOL     OW29824   1.147   0.143   4.316
 9642SOL    HW129825   1.199   0.220   4.354
 9642SOL    HW229826   1.211   0.072   4.286
 9643SOL     OW29827   4.647   4.360   3.778
 9643SOL    HW129828   4.690   4.290   3.720
 9643SOL    HW229829   4.672   4.343   3.873
 9644SOL     OW29830   2.259   5.971   4.825
 9644SOL    HW129831   2.226   5.967   4.919
 9644SOL    HW229832   2.185   5.943   4.763
 9645SOL     OW29833   1.266   4.090   4.823
 9645SOL    HW129834   1.346   4.141   4.791
 9645SOL    HW229835   1.199   4.084   4.749
 9646SOL     OW29836   2.609   6.749   3.606
 9646SOL    HW129837   2.557   6.833   3.618
 9646SOL    HW229838   2.706   6.768   3.616
 9647SOL     OW29839   6.645   6.202   3.095
 9647SOL    HW129840   6.707   6.190   3.017
 9647SOL    HW229841   6.561   6.151   3.078
 9648SOL     OW29842   5.670   3.082   1.457
 9648SOL    HW129843   5.735   3.011   1.431
 9648SOL    HW229844   5.582   3.039   1.481
 9649SOL     OW29845   2.175   3.676   6.485
 9649SOL    HW129846   2.129   3.765   6.493
 9649SOL    HW229847   2.164   3.642   6.391
 9650SOL     OW29848   6.233   4.969   3.498
 9650SOL    HW129849   6.220   5.058   3.454
 9650SOL    HW229850   6.330   4.946   3.498
 9651SOL     OW29851   3.609   1.002   0.602
 9651SOL    HW129852   3.533   0.983   0.540
 9651SOL    HW229853   3.574   1.036   0.689
 9652SOL     OW29854   0.592   4.423   1.252
 9652SOL    HW129855   0.528   4.440   1.178
 9652SOL    HW229856   0.546   4.373   1.326
 9653SOL     OW29857   4.326   4.812   5.669
 9653SOL    HW129858   4.334   4.812   5.768
 9653SOL    HW229859   4.234   4.784   5.642
 9654SOL     OW29860   3.411   2.888   2.898
 9654SOL    HW129861   3.385   2.984   2.889
 9654SOL    HW229862   3.333   2.835   2.930
 9655SOL     OW29863   0.076   1.364   0.828
 9655SOL    HW129864   0.134   1.321   0.897
 9655SOL    HW229865   0.108   1.336   0.737
 9656SOL     OW29866   4.275   2.210   6.961
 9656SOL    HW129867   4.356   2.266   6.944
 9656SOL    HW229868   4.254   2.211   0.034
 9657SOL     OW29869   5.107   4.252   3.603
 9657SOL    HW129870   5.078   4.292   3.690
 9657SOL    HW229871   5.187   4.301   3.569
 9658SOL     OW29872   5.208   1.879   2.450
 9658SOL    HW129873   5.264   1.899   2.370
 9658SOL    HW229874   5.125   1.934   2.448
 9659SOL     OW29875   2.707   1.725   6.949
 9659SOL    HW129876   2.633   1.677   6.901
 9659SOL    HW229877   2.792   1.674   6.936
 9660SOL     OW29878   0.631   0.069   1.460
 9660SOL    HW129879   0.621   0.147   1.522
 9660SOL    HW229880   0.665   7.015   1.511
 9661SOL     OW29881   4.397   5.351   1.283
 9661SOL    HW129882   4.449   5.268   1.302
 9661SOL    HW229883   4.299   5.333   1.296
 9662SOL     OW29884   5.406   4.221   7.009
 9662SOL    HW129885   5.399   4.267   6.920
 9662SOL    HW229886   5.314   4.202   0.019
 9663SOL     OW29887   0.902   4.652   2.511
 9663SOL    HW129888   0.836   4.579   2.525
 9663SOL    HW229889   0.986   4.632   2.561
 9664SOL     OW29890   5.525   4.094   4.156
 9664SOL    HW129891   5.576   4.173   4.190
 9664SOL    HW229892   5.568   4.060   4.073
 9665SOL     OW29893   6.579   6.187   5.718
 9665SOL    HW129894   6.600   6.096   5.754
 9665SOL    HW229895   6.514   6.233   5.778
 9666SOL     OW29896   6.728   4.569   1.525
 9666SOL    HW129897   6.781   4.509   1.585
 9666SOL    HW229898   6.776   4.656   1.513
 9667SOL     OW29899   4.539   4.208   0.991
 9667SOL    HW129900   4.636   4.224   1.008
 9667SOL    HW229901   4.507   4.133   1.048
 9668SOL     OW29902   1.459   0.860   6.030
 9668SOL    HW129903   1.406   0.791   5.981
 9668SOL    HW229904   1.519   0.908   5.965
 9669SOL     OW29905   2.685   0.198   0.599
 9669SOL    HW129906   2.660   0.125   0.536
 9669SOL    HW229907   2.686   0.286   0.550
 9670SOL     OW29908   0.258   5.909   5.358
 9670SOL    HW129909   0.182   5.903   5.423
 9670SOL    HW229910   0.300   6.000   5.364
 9671SOL     OW29911   0.790   5.000   0.380
 9671SOL    HW129912   0.799   4.944   0.462
 9671SOL    HW229913   0.696   4.993   0.345
 9672SOL     OW29914   1.940   5.086   2.835
 9672SOL    HW129915   1.918   5.007   2.778
 9672SOL    HW229916   1.890   5.079   2.922
 9673SOL     OW29917   3.522   3.962   0.906
 9673SOL    HW129918   3.619   3.970   0.926
 9673SOL    HW229919   3.505   3.987   0.810
 9674SOL     OW29920   3.902   6.462   2.653
 9674SOL    HW129921   3.966   6.493   2.723
 9674SOL    HW229922   3.822   6.523   2.652
 9675SOL     OW29923   5.295   3.876   6.909
 9675SOL    HW129924   5.377   3.933   6.907
 9675SOL    HW229925   5.214   3.934   6.904
 9676SOL     OW29926   1.453   3.554   6.048
 9676SOL    HW129927   1.485   3.643   6.080
 9676SOL    HW229928   1.426   3.561   5.952
 9677SOL     OW29929   6.589   5.237   6.762
 9677SOL    HW129930   6.492   5.222   6.783
 9677SOL    HW229931   6.627   5.305   6.825
 9678SOL     OW29932   3.209   3.653   4.537
 9678SOL    HW129933   3.148   3.589   4.583
 9678SOL    HW229934   3.157   3.733   4.506
 9679SOL     OW29935   2.840   1.668   4.497
 9679SOL    HW129936   2.843   1.607   4.576
 9679SOL    HW229937   2.867   1.760   4.525
 9680SOL     OW29938   5.037   6.585   5.344
 9680SOL    HW129939   4.945   6.604   5.379
 9680SOL    HW229940   5.030   6.549   5.251
 9681SOL     OW29941   3.087   1.835   1.320
 9681SOL    HW129942   3.128   1.803   1.235
 9681SOL    HW229943   3.139   1.912   1.356
 9682SOL     OW29944   4.784   4.525   3.397
 9682SOL    HW129945   4.802   4.432   3.364
 9682SOL    HW229946   4.693   4.530   3.437
 9683SOL     OW29947   2.770   6.162   0.439
 9683SOL    HW129948   2.680   6.122   0.425
 9683SOL    HW229949   2.777   6.249   0.390
 9684SOL     OW29950   0.366   3.906   5.224
 9684SOL    HW129951   0.420   3.916   5.140
 9684SOL    HW229952   0.405   3.964   5.295
 9685SOL     OW29953   4.755   3.757   0.480
 9685SOL    HW129954   4.661   3.748   0.514
 9685SOL    HW229955   4.757   3.732   0.383
 9686SOL     OW29956   0.451   2.916   0.474
 9686SOL    HW129957   0.353   2.894   0.476
 9686SOL    HW229958   0.464   3.005   0.430
 9687SOL     OW29959   6.245   0.174   2.210
 9687SOL    HW129960   6.250   0.165   2.111
 9687SOL    HW229961   6.327   0.219   2.244
 9688SOL     OW29962   0.819   3.742   0.869
 9688SOL    HW129963   0.787   3.749   0.774
 9688SOL    HW229964   0.885   3.814   0.888
 9689SOL     OW29965   1.034   4.501   6.222
 9689SOL    HW129966   0.961   4.535   6.163
 9689SOL    HW229967   1.005   4.416   6.265
 9690SOL     OW29968   4.401   5.585   5.595
 9690SOL    HW129969   4.422   5.577   5.693
 9690SOL    HW229970   4.341   5.509   5.568
 9691SOL     OW29971   3.251   3.929   2.486
 9691SOL    HW129972   3.184   3.893   2.421
 9691SOL    HW229973   3.249   3.875   2.570
 9692SOL     OW29974   4.870   5.235   0.841
 9692SOL    HW129975   4.771   5.226   0.830
 9692SOL    HW229976   4.890   5.275   0.930
 9693SOL     OW29977   5.552   4.386   3.497
 9693SOL    HW129978   5.536   4.477   3.535
 9693SOL    HW229979   5.583   4.395   3.402
 9694SOL     OW29980   4.162   0.894   1.389
 9694SOL    HW129981   4.078   0.908   1.337
 9694SOL    HW229982   4.180   0.975   1.445
 9695SOL     OW29983   0.233   2.815   3.218
 9695SOL    HW129984   0.134   2.799   3.219
 9695SOL    HW229985   0.259   2.868   3.299
 9696SOL     OW29986   5.843   1.588   2.357
 9696SOL    HW129987   5.847   1.497   2.315
 9696SOL    HW229988   5.913   1.646   2.315
 9697SOL     OW29989   0.480   6.498   0.803
 9697SOL    HW129990   0.510   6.473   0.895
 9697SOL    HW229991   0.557   6.539   0.753
 9698SOL     OW29992   5.692   3.065   6.511
 9698SOL    HW129993   5.745   3.132   6.458
 9698SOL    HW229994   5.723   2.973   6.488
 9699SOL     OW29995   0.816   5.488   0.018
 9699SOL    HW129996   0.730   5.466   0.064
 9699SOL    HW229997   0.831   5.586   0.020
 9700SOL     OW29998   6.619   5.504   4.152
 9700SOL    HW129999   6.709   5.465   4.135
 9700SOL    HW230000   6.601   5.505   4.250
 9701SOL     OW30001   4.117   3.957   5.938
 9701SOL    HW130002   4.092   3.867   5.975
 9701SOL    HW230003   4.063   4.028   5.985
 9702SOL     OW30004   3.733   2.698   0.085
 9702SOL    HW130005   3.724   2.610   0.039
 9702SOL    HW230006   3.652   2.753   0.066
 9703SOL     OW30007   5.320   3.787   4.368
 9703SOL    HW130008   5.256   3.712   4.353
 9703SOL    HW230009   5.326   3.844   4.286
 9704SOL     OW30010   3.335   5.608   2.443
 9704SOL    HW130011   3.257   5.591   2.503
 9704SOL    HW230012   3.379   5.521   2.420
 9705SOL     OW30013   6.016   4.170   5.682
 9705SOL    HW130014   6.063   4.085   5.659
 9705SOL    HW230015   5.939   4.150   5.743
 9706SOL     OW30016   2.219   2.290   1.699
 9706SOL    HW130017   2.306   2.265   1.656
 9706SOL    HW230018   2.181   2.370   1.654
 9707SOL     OW30019   5.634   4.957   2.368
 9707SOL    HW130020   5.564   4.888   2.350
 9707SOL    HW230021   5.715   4.914   2.407
 9708SOL     OW30022   1.347   1.514   2.925
 9708SOL    HW130023   1.312   1.574   2.853
 9708SOL    HW230024   1.350   1.564   3.012
 9709SOL     OW30025   5.349   4.546   2.081
 9709SOL    HW130026   5.357   4.466   2.141
 9709SOL    HW230027   5.439   4.570   2.044
 9710SOL     OW30028   6.289   0.444   0.672
 9710SOL    HW130029   6.309   0.507   0.597
 9710SOL    HW230030   6.371   0.390   0.692
 9711SOL     OW30031   3.646   5.764   6.385
 9711SOL    HW130032   3.655   5.807   6.295
 9711SOL    HW230033   3.645   5.664   6.374
 9712SOL     OW30034   6.325   3.145   0.342
 9712SOL    HW130035   6.408   3.198   0.357
 9712SOL    HW230036   6.245   3.203   0.358
 9713SOL     OW30037   2.808   5.817   3.605
 9713SOL    HW130038   2.877   5.778   3.665
 9713SOL    HW230039   2.719   5.780   3.628
 9714SOL     OW30040   4.116   6.265   5.773
 9714SOL    HW130041   4.070   6.261   5.684
 9714SOL    HW230042   4.048   6.283   5.845
 9715SOL     OW30043   5.743   5.073   6.972
 9715SOL    HW130044   5.815   5.047   6.908
 9715SOL    HW230045   5.782   5.125   0.023
 9716SOL     OW30046   3.861   4.329   6.675
 9716SOL    HW130047   3.954   4.306   6.646
 9716SOL    HW230048   3.827   4.405   6.621
 9717SOL     OW30049   4.935   6.438   7.023
 9717SOL    HW130050   4.985   6.523   0.018
 9717SOL    HW230051   4.849   6.438   0.049
 9718SOL     OW30052   4.324   3.182   1.020
 9718SOL    HW130053   4.267   3.256   1.055
 9718SOL    HW230054   4.308   3.099   1.074
 9719SOL     OW30055   5.361   6.942   5.772
 9719SOL    HW130056   5.324   6.948   5.864
 9719SOL    HW230057   5.299   6.988   5.708
 9720SOL     OW30058   0.769   3.234   2.714
 9720SOL    HW130059   0.865   3.207   2.710
 9720SOL    HW230060   0.713   3.168   2.664
 9721SOL     OW30061   0.382   1.061   6.605
 9721SOL    HW130062   0.299   1.043   6.553
 9721SOL    HW230063   0.427   1.143   6.570
 9722SOL     OW30064   3.673   0.974   5.136
 9722SOL    HW130065   3.653   0.990   5.040
 9722SOL    HW230066   3.613   0.903   5.171
 9723SOL     OW30067   5.311   5.948   4.043
 9723SOL    HW130068   5.307   5.928   4.140
 9723SOL    HW230069   5.219   5.969   4.009
 9724SOL     OW30070   2.255   4.419   6.988
 9724SOL    HW130071   2.327   4.484   6.963
 9724SOL    HW230072   2.232   4.432   0.060
 9725SOL     OW30073   4.067   6.144   6.105
 9725SOL    HW130074   4.000   6.080   6.145
 9725SOL    HW230075   4.019   6.210   6.048
 9726SOL     OW30076   4.472   2.089   4.561
 9726SOL    HW130077   4.519   2.176   4.542
 9726SOL    HW230078   4.378   2.108   4.588
 9727SOL     OW30079   0.963   2.465   0.152
 9727SOL    HW130080   0.993   2.371   0.170
 9727SOL    HW230081   0.973   2.484   0.054
 9728SOL     OW30082   0.315   1.998   5.455
 9728SOL    HW130083   0.395   2.007   5.515
 9728SOL    HW230084   0.285   1.903   5.453
 9729SOL     OW30085   1.005   4.353   3.942
 9729SOL    HW130086   1.064   4.289   3.894
 9729SOL    HW230087   0.929   4.380   3.882
 9730SOL     OW30088   0.953   3.981   3.116
 9730SOL    HW130089   0.912   4.071   3.102
 9730SOL    HW230090   0.892   3.910   3.081
 9731SOL     OW30091   4.358   5.324   1.665
 9731SOL    HW130092   4.388   5.311   1.759
 9731SOL    HW230093   4.342   5.421   1.648
 9732SOL     OW30094   0.483   3.028   2.176
 9732SOL    HW130095   0.479   3.053   2.079
 9732SOL    HW230096   0.433   2.942   2.190
 9733SOL     OW30097   5.703   6.024   1.215
 9733SOL    HW130098   5.663   5.990   1.300
 9733SOL    HW230099   5.679   6.120   1.202
 9734SOL     OW30100   6.447   0.167   0.244
 9734SOL    HW130101   6.458   0.109   0.324
 9734SOL    HW230102   6.406   0.113   0.170
 9735SOL     OW30103   1.678   3.233   3.262
 9735SOL    HW130104   1.631   3.237   3.351
 9735SOL    HW230105   1.622   3.279   3.193
 9736SOL     OW30106   5.452   1.524   6.281
 9736SOL    HW130107   5.511   1.525   6.201
 9736SOL    HW230108   5.366   1.571   6.259
 9737SOL     OW30109   5.352   1.896   2.683
 9737SOL    HW130110   5.310   1.986   2.671
 9737SOL    HW230111   5.315   1.833   2.615
 9738SOL     OW30112   1.657   0.165   1.060
 9738SOL    HW130113   1.596   0.235   1.097
 9738SOL    HW230114   1.638   0.078   1.104
 9739SOL     OW30115   5.126   6.163   0.195
 9739SOL    HW130116   5.161   6.256   0.200
 9739SOL    HW230117   5.031   6.165   0.161
 9740SOL     OW30118   6.498   1.043   2.880
 9740SOL    HW130119   6.534   1.016   2.970
 9740SOL    HW230120   6.546   1.125   2.848
 9741SOL     OW30121   2.585   0.544   3.753
 9741SOL    HW130122   2.590   0.516   3.657
 9741SOL    HW230123   2.632   0.632   3.764
 9742SOL     OW30124   4.065   0.967   0.159
 9742SOL    HW130125   4.002   0.905   0.206
 9742SOL    HW230126   4.014   1.021   0.092
 9743SOL     OW30127   0.125   4.134   2.801
 9743SOL    HW130128   0.125   4.120   2.900
 9743SOL    HW230129   0.181   4.064   2.757
 9744SOL     OW30130   2.346   0.017   2.530
 9744SOL    HW130131   2.363   6.956   2.482
 9744SOL    HW230132   2.370   0.094   2.470
 9745SOL     OW30133   5.157   2.907   6.206
 9745SOL    HW130134   5.134   2.829   6.148
 9745SOL    HW230135   5.255   2.908   6.224
 9746SOL     OW30136   5.591   6.401   5.854
 9746SOL    HW130137   5.498   6.423   5.884
 9746SOL    HW230138   5.591   6.314   5.804
 9747SOL     OW30139   2.954   2.173   1.785
 9747SOL    HW130140   3.028   2.126   1.834
 9747SOL    HW230141   2.913   2.242   1.845
 9748SOL     OW30142   0.056   6.652   2.852
 9748SOL    HW130143   0.061   6.672   2.754
 9748SOL    HW230144   0.148   6.650   2.891
 9749SOL     OW30145   0.588   0.958   3.034
 9749SOL    HW130146   0.519   0.891   3.062
 9749SOL    HW230147   0.632   0.997   3.115
 9750SOL     OW30148   6.285   5.745   3.845
 9750SOL    HW130149   6.324   5.692   3.920
 9750SOL    HW230150   6.274   5.840   3.873
 9751SOL     OW30151   1.876   0.200   0.671
 9751SOL    HW130152   1.794   0.144   0.682
 9751SOL    HW230153   1.852   0.297   0.680
 9752SOL     OW30154   4.056   1.789   5.261
 9752SOL    HW130155   4.018   1.698   5.278
 9752SOL    HW230156   4.137   1.802   5.318
 9753SOL     OW30157   0.845   5.673   6.296
 9753SOL    HW130158   0.745   5.679   6.292
 9753SOL    HW230159   0.879   5.627   6.213
 9754SOL     OW30160   2.832   0.463   0.708
 9754SOL    HW130161   2.889   0.545   0.713
 9754SOL    HW230162   2.736   0.490   0.712
 9755SOL     OW30163   3.577   4.035   4.906
 9755SOL    HW130164   3.516   3.957   4.894
 9755SOL    HW230165   3.667   4.003   4.936
 9756SOL     OW30166   6.353   2.492   6.541
 9756SOL    HW130167   6.341   2.392   6.536
 9756SOL    HW230168   6.272   2.532   6.584
 9757SOL     OW30169   5.712   4.216   4.760
 9757SOL    HW130170   5.755   4.126   4.755
 9757SOL    HW230171   5.731   4.257   4.849
 9758SOL     OW30172   1.724   0.930   0.199
 9758SOL    HW130173   1.732   0.837   0.237
 9758SOL    HW230174   1.715   0.996   0.273
 9759SOL     OW30175   0.823   1.400   0.673
 9759SOL    HW130176   0.884   1.328   0.638
 9759SOL    HW230177   0.738   1.400   0.619
 9760SOL     OW30178   4.671   3.553   5.951
 9760SOL    HW130179   4.628   3.503   6.026
 9760SOL    HW230180   4.647   3.650   5.959
 9761SOL     OW30181   1.167   2.261   2.297
 9761SOL    HW130182   1.088   2.268   2.359
 9761SOL    HW230183   1.214   2.350   2.293
 9762SOL     OW30184   3.278   1.372   4.619
 9762SOL    HW130185   3.297   1.457   4.571
 9762SOL    HW230186   3.195   1.330   4.582
 9763SOL     OW30187   5.783   0.675   3.475
 9763SOL    HW130188   5.857   0.663   3.408
 9763SOL    HW230189   5.706   0.617   3.450
 9764SOL     OW30190   6.383   2.418   2.248
 9764SOL    HW130191   6.388   2.400   2.150
 9764SOL    HW230192   6.290   2.401   2.281
 9765SOL     OW30193   6.665   6.759   2.831
 9765SOL    HW130194   6.724   6.695   2.782
 9765SOL    HW230195   6.717   6.801   2.906
 9766SOL     OW30196   1.948   6.546   3.133
 9766SOL    HW130197   2.037   6.530   3.092
 9766SOL    HW230198   1.959   6.576   3.228
 9767SOL     OW30199   2.598   2.517   5.872
 9767SOL    HW130200   2.543   2.598   5.850
 9767SOL    HW230201   2.609   2.511   5.971
 9768SOL     OW30202   4.467   1.563   1.417
 9768SOL    HW130203   4.513   1.615   1.489
 9768SOL    HW230204   4.534   1.530   1.351
 9769SOL     OW30205   3.613   1.261   4.384
 9769SOL    HW130206   3.706   1.232   4.409
 9769SOL    HW230207   3.560   1.275   4.468
 9770SOL     OW30208   3.865   1.380   5.025
 9770SOL    HW130209   3.875   1.283   5.049
 9770SOL    HW230210   3.807   1.425   5.091
 9771SOL     OW30211   2.566   5.632   0.977
 9771SOL    HW130212   2.571   5.640   0.878
 9771SOL    HW230213   2.639   5.573   1.010
 9772SOL     OW30214   2.005   6.470   1.783
 9772SOL    HW130215   1.915   6.507   1.808
 9772SOL    HW230216   1.999   6.423   1.696
 9773SOL     OW30217   4.907   5.461   3.569
 9773SOL    HW130218   4.916   5.375   3.518
 9773SOL    HW230219   4.889   5.536   3.506
 9774SOL     OW30220   0.371   5.757   2.995
 9774SOL    HW130221   0.471   5.751   2.994
 9774SOL    HW230222   0.331   5.666   3.007
 9775SOL     OW30223   2.981   0.050   3.575
 9775SOL    HW130224   2.968   0.108   3.655
 9775SOL    HW230225   3.005   0.108   3.496
 9776SOL     OW30226   1.000   4.226   5.845
 9776SOL    HW130227   0.987   4.150   5.908
 9776SOL    HW230228   1.088   4.217   5.799
 9777SOL     OW30229   5.440   5.500   0.633
 9777SOL    HW130230   5.374   5.432   0.601
 9777SOL    HW230231   5.443   5.500   0.733
 9778SOL     OW30232   6.795   1.469   5.040
 9778SOL    HW130233   6.832   1.486   4.949
 9778SOL    HW230234   6.823   1.542   5.102
 9779SOL     OW30235   0.559   2.116   3.794
 9779SOL    HW130236   0.521   2.026   3.815
 9779SOL    HW230237   0.554   2.174   3.875
 9780SOL     OW30238   2.306   2.035   0.793
 9780SOL    HW130239   2.261   2.088   0.866
 9780SOL    HW230240   2.386   1.989   0.831
 9781SOL     OW30241   1.851   3.442   4.293
 9781SOL    HW130242   1.868   3.355   4.248
 9781SOL    HW230243   1.771   3.433   4.353
 9782SOL     OW30244   0.498   1.997   0.029
 9782SOL    HW130245   0.555   1.917   0.046
 9782SOL    HW230246   0.538   2.051   6.980
 9783SOL     OW30247   4.176   2.244   3.429
 9783SOL    HW130248   4.102   2.310   3.441
 9783SOL    HW230249   4.213   2.252   3.337
 9784SOL     OW30250   3.631   0.666   5.733
 9784SOL    HW130251   3.619   0.754   5.778
 9784SOL    HW230252   3.693   0.608   5.787
 9785SOL     OW30253   6.783   2.023   5.517
 9785SOL    HW130254   6.689   2.029   5.481
 9785SOL    HW230255   6.781   1.976   5.605
 9786SOL     OW30256   2.510   3.201   0.425
 9786SOL    HW130257   2.468   3.292   0.433
 9786SOL    HW230258   2.575   3.188   0.500
 9787SOL     OW30259   3.103   3.424   2.987
 9787SOL    HW130260   3.177   3.403   2.923
 9787SOL    HW230261   3.020   3.446   2.936
 9788SOL     OW30262   0.704   0.012   1.903
 9788SOL    HW130263   0.628   6.974   1.921
 9788SOL    HW230264   0.763   6.998   1.832
 9789SOL     OW30265   1.543   6.248   0.368
 9789SOL    HW130266   1.568   6.345   0.370
 9789SOL    HW230267   1.538   6.213   0.461
 9790SOL     OW30268   6.733   4.438   6.253
 9790SOL    HW130269   6.707   4.379   6.176
 9790SOL    HW230270   6.787   4.514   6.219
 9791SOL     OW30271   0.024   0.798   6.735
 9791SOL    HW130272   0.039   0.897   6.732
 9791SOL    HW230273   0.104   0.751   6.700
 9792SOL     OW30274   3.532   5.041   0.876
 9792SOL    HW130275   3.507   5.105   0.804
 9792SOL    HW230276   3.471   4.962   0.872
 9793SOL     OW30277   4.344   0.250   2.536
 9793SOL    HW130278   4.257   0.296   2.518
 9793SOL    HW230279   4.358   0.178   2.468
 9794SOL     OW30280   6.351   4.436   5.800
 9794SOL    HW130281   6.359   4.465   5.705
 9794SOL    HW230282   6.319   4.513   5.856
 9795SOL     OW30283   1.064   3.167   4.646
 9795SOL    HW130284   0.995   3.237   4.631
 9795SOL    HW230285   1.150   3.210   4.674
 9796SOL     OW30286   4.059   3.765   3.052
 9796SOL    HW130287   4.064   3.825   2.973
 9796SOL    HW230288   4.072   3.670   3.023
 9797SOL     OW30289   1.915   5.533   7.010
 9797SOL    HW130290   2.004   5.510   6.971
 9797SOL    HW230291   1.891   5.467   0.057
 9798SOL     OW30292   2.669   0.966   1.836
 9798SOL    HW130293   2.597   0.914   1.790
 9798SOL    HW230294   2.675   1.058   1.798
 9799SOL     OW30295   2.850   4.193   5.963
 9799SOL    HW130296   2.936   4.188   5.911
 9799SOL    HW230297   2.808   4.102   5.966
 9800SOL     OW30298   5.133   4.402   4.726
 9800SOL    HW130299   5.179   4.378   4.641
 9800SOL    HW230300   5.198   4.398   4.802
 9801SOL     OW30301   4.676   4.569   7.007
 9801SOL    HW130302   4.654   4.628   6.929
 9801SOL    HW230303   4.592   4.538   0.026
 9802SOL     OW30304   5.482   5.087   0.761
 9802SOL    HW130305   5.385   5.106   0.778
 9802SOL    HW230306   5.490   5.012   0.696
 9803SOL     OW30307   1.610   3.018   6.403
 9803SOL    HW130308   1.631   2.940   6.344
 9803SOL    HW230309   1.669   3.095   6.378
 9804SOL     OW30310   0.600   6.332   3.075
 9804SOL    HW130311   0.548   6.404   3.120
 9804SOL    HW230312   0.690   6.325   3.117
 9805SOL     OW30313   0.480   6.823   2.809
 9805SOL    HW130314   0.475   6.817   2.908
 9805SOL    HW230315   0.435   6.907   2.778
 9806SOL     OW30316   1.446   1.509   6.881
 9806SOL    HW130317   1.442   1.460   6.794
 9806SOL    HW230318   1.360   1.495   6.931
 9807SOL     OW30319   3.231   3.887   1.183
 9807SOL    HW130320   3.152   3.829   1.166
 9807SOL    HW230321   3.240   3.954   1.108
 9808SOL     OW30322   3.592   5.935   5.069
 9808SOL    HW130323   3.599   5.842   5.105
 9808SOL    HW230324   3.543   5.993   5.134
 9809SOL     OW30325   0.733   3.822   0.072
 9809SOL    HW130326   0.780   3.743   0.110
 9809SOL    HW230327   0.689   3.796   7.010
 9810SOL     OW30328   3.313   2.175   4.420
 9810SOL    HW130329   3.294   2.270   4.443
 9810SOL    HW230330   3.370   2.134   4.492
 9811SOL     OW30331   6.244   4.559   3.590
 9811SOL    HW130332   6.181   4.630   3.558
 9811SOL    HW230333   6.250   4.563   3.689
 9812SOL     OW30334   3.444   1.605   5.488
 9812SOL    HW130335   3.514   1.661   5.445
 9812SOL    HW230336   3.404   1.543   5.420
 9813SOL     OW30337   5.151   1.832   0.681
 9813SOL    HW130338   5.180   1.911   0.734
 9813SOL    HW230339   5.052   1.821   0.690
 9814SOL     OW30340   6.108   0.827   0.220
 9814SOL    HW130341   6.019   0.859   0.189
 9814SOL    HW230342   6.130   0.869   0.308
 9815SOL     OW30343   4.840   3.007   4.418
 9815SOL    HW130344   4.814   3.034   4.511
 9815SOL    HW230345   4.880   2.916   4.420
 9816SOL     OW30346   0.364   1.319   6.121
 9816SOL    HW130347   0.324   1.229   6.107
 9816SOL    HW230348   0.363   1.370   6.035
 9817SOL     OW30349   1.193   0.090   3.321
 9817SOL    HW130350   1.183   0.120   3.227
 9817SOL    HW230351   1.290   0.089   3.345
 9818SOL     OW30352   6.642   1.841   4.094
 9818SOL    HW130353   6.620   1.885   4.181
 9818SOL    HW230354   6.610   1.898   4.019
 9819SOL     OW30355   5.096   3.024   3.435
 9819SOL    HW130356   5.117   3.001   3.530
 9819SOL    HW230357   5.000   3.050   3.428
 9820SOL     OW30358   3.553   3.249   6.574
 9820SOL    HW130359   3.600   3.223   6.658
 9820SOL    HW230360   3.601   3.325   6.530
 9821SOL     OW30361   5.927   1.237   6.568
 9821SOL    HW130362   5.839   1.285   6.563
 9821SOL    HW230363   5.974   1.262   6.652
 9822SOL     OW30364   1.565   6.881   3.534
 9822SOL    HW130365   1.528   6.825   3.460
 9822SOL    HW230366   1.665   6.875   3.534
 9823SOL     OW30367   3.482   0.012   0.499
 9823SOL    HW130368   3.512   0.019   0.594
 9823SOL    HW230369   3.400   0.067   0.486
 9824SOL     OW30370   2.025   4.737   4.735
 9824SOL    HW130371   1.949   4.794   4.767
 9824SOL    HW230372   2.072   4.698   4.814
 9825SOL     OW30373   3.918   5.272   5.870
 9825SOL    HW130374   3.978   5.348   5.846
 9825SOL    HW230375   3.971   5.199   5.912
 9826SOL     OW30376   5.138   5.214   6.202
 9826SOL    HW130377   5.176   5.178   6.287
 9826SOL    HW230378   5.051   5.168   6.182
 9827SOL     OW30379   2.086   3.569   3.740
 9827SOL    HW130380   2.134   3.656   3.745
 9827SOL    HW230381   2.037   3.553   3.825
 9828SOL     OW30382   2.292   3.391   6.389
 9828SOL    HW130383   2.303   3.398   6.488
 9828SOL    HW230384   2.380   3.371   6.346
 9829SOL     OW30385   2.870   5.875   6.832
 9829SOL    HW130386   2.957   5.913   6.864
 9829SOL    HW230387   2.823   5.831   6.909
 9830SOL     OW30388   5.756   2.831   1.954
 9830SOL    HW130389   5.728   2.747   1.907
 9830SOL    HW230390   5.856   2.837   1.954
 9831SOL     OW30391   2.112   5.963   0.803
 9831SOL    HW130392   2.184   5.901   0.833
 9831SOL    HW230393   2.064   6.000   0.883
 9832SOL     OW30394   5.104   5.862   2.397
 9832SOL    HW130395   5.196   5.848   2.434
 9832SOL    HW230396   5.108   5.931   2.325
 9833SOL     OW30397   3.899   3.035   5.149
 9833SOL    HW130398   3.837   2.998   5.080
 9833SOL    HW230399   3.928   2.962   5.211
 9834SOL     OW30400   3.267   4.388   5.542
 9834SOL    HW130401   3.191   4.443   5.508
 9834SOL    HW230402   3.304   4.334   5.466
 9835SOL     OW30403   3.254   2.754   5.611
 9835SOL    HW130404   3.155   2.747   5.595
 9835SOL    HW230405   3.296   2.664   5.599
 9836SOL     OW30406   6.168   4.567   3.896
 9836SOL    HW130407   6.092   4.504   3.881
 9836SOL    HW230408   6.254   4.515   3.900
 9837SOL     OW30409   2.999   0.606   2.643
 9837SOL    HW130410   3.025   0.693   2.600
 9837SOL    HW230411   3.007   0.532   2.576
 9838SOL     OW30412   0.879   6.645   6.412
 9838SOL    HW130413   0.864   6.553   6.447
 9838SOL    HW230414   0.843   6.652   6.319
 9839SOL     OW30415   5.935   1.620   3.586
 9839SOL    HW130416   5.914   1.649   3.493
 9839SOL    HW230417   5.905   1.690   3.651
 9840SOL     OW30418   0.593   1.534   1.551
 9840SOL    HW130419   0.658   1.595   1.506
 9840SOL    HW230420   0.639   1.488   1.628
 9841SOL     OW30421   1.924   4.162   4.781
 9841SOL    HW130422   1.931   4.163   4.681
 9841SOL    HW230423   2.010   4.194   4.821
 9842SOL     OW30424   4.091   3.663   2.663
 9842SOL    HW130425   4.131   3.672   2.754
 9842SOL    HW230426   4.120   3.577   2.621
 9843SOL     OW30427   5.494   0.557   1.002
 9843SOL    HW130428   5.584   0.520   1.024
 9843SOL    HW230429   5.495   0.656   1.012
 9844SOL     OW30430   6.007   1.300   1.990
 9844SOL    HW130431   6.045   1.211   1.964
 9844SOL    HW230432   6.046   1.371   1.932
 9845SOL     OW30433   3.171   1.751   3.470
 9845SOL    HW130434   3.183   1.850   3.469
 9845SOL    HW230435   3.251   1.708   3.511
 9846SOL     OW30436   3.826   3.250   2.037
 9846SOL    HW130437   3.892   3.179   2.014
 9846SOL    HW230438   3.734   3.218   2.015
 9847SOL     OW30439   3.523   2.844   4.798
 9847SOL    HW130440   3.513   2.757   4.846
 9847SOL    HW230441   3.433   2.875   4.767
 9848SOL     OW30442   3.325   2.766   6.119
 9848SOL    HW130443   3.266   2.764   6.038
 9848SOL    HW230444   3.406   2.709   6.102
 9849SOL     OW30445   6.944   0.618   0.209
 9849SOL    HW130446   0.013   0.610   0.244
 9849SOL    HW230447   6.938   0.697   0.148
 9850SOL     OW30448   5.879   0.005   3.884
 9850SOL    HW130449   5.781   0.026   3.879
 9850SOL    HW230450   5.915   0.035   3.973
 9851SOL     OW30451   5.105   1.840   5.387
 9851SOL    HW130452   5.152   1.792   5.462
 9851SOL    HW230453   5.013   1.803   5.377
 9852SOL     OW30454   4.130   2.276   2.794
 9852SOL    HW130455   4.178   2.306   2.876
 9852SOL    HW230456   4.189   2.289   2.714
 9853SOL     OW30457   5.540   4.704   4.304
 9853SOL    HW130458   5.606   4.743   4.368
 9853SOL    HW230459   5.473   4.650   4.353
 9854SOL     OW30460   0.658   5.658   4.677
 9854SOL    HW130461   0.635   5.756   4.675
 9854SOL    HW230462   0.583   5.607   4.719
 9855SOL     OW30463   2.472   2.819   0.732
 9855SOL    HW130464   2.437   2.848   0.642
 9855SOL    HW230465   2.429   2.874   0.803
 9856SOL     OW30466   4.787   4.037   5.833
 9856SOL    HW130467   4.715   4.032   5.764
 9856SOL    HW230468   4.760   3.987   5.915
 9857SOL     OW30469   4.403   2.328   3.713
 9857SOL    HW130470   4.317   2.294   3.751
 9857SOL    HW230471   4.436   2.405   3.768
 9858SOL     OW30472   0.123   1.063   0.542
 9858SOL    HW130473   0.146   1.027   0.633
 9858SOL    HW230474   0.139   0.993   0.473
 9859SOL     OW30475   6.122   6.881   2.028
 9859SOL    HW130476   6.096   6.794   2.070
 9859SOL    HW230477   6.043   6.942   2.027
 9860SOL     OW30478   0.474   1.549   3.457
 9860SOL    HW130479   0.571   1.562   3.478
 9860SOL    HW230480   0.421   1.624   3.496
 9861SOL     OW30481   3.292   0.087   2.904
 9861SOL    HW130482   3.280   0.056   2.998
 9861SOL    HW230483   3.289   0.187   2.901
 9862SOL     OW30484   3.811   4.282   0.367
 9862SOL    HW130485   3.714   4.262   0.381
 9862SOL    HW230486   3.829   4.379   0.386
 9863SOL     OW30487   3.699   6.999   3.088
 9863SOL    HW130488   3.663   6.996   2.995
 9863SOL    HW230489   3.663   6.920   3.139
 9864SOL     OW30490   3.732   6.266   4.376
 9864SOL    HW130491   3.668   6.198   4.341
 9864SOL    HW230492   3.715   6.354   4.331
 9865SOL     OW30493   1.373   0.828   4.169
 9865SOL    HW130494   1.346   0.867   4.080
 9865SOL    HW230495   1.401   0.901   4.230
 9866SOL     OW30496   4.724   4.797   5.871
 9866SOL    HW130497   4.816   4.812   5.909
 9866SOL    HW230498   4.715   4.702   5.842
 9867SOL     OW30499   6.081   0.971   0.633
 9867SOL    HW130500   6.014   0.918   0.581
 9867SOL    HW230501   6.041   1.001   0.720
 9868SOL     OW30502   0.615   4.054   5.698
 9868SOL    HW130503   0.654   3.976   5.748
 9868SOL    HW230504   0.654   4.058   5.606
 9869SOL     OW30505   1.595   3.124   2.579
 9869SOL    HW130506   1.593   3.193   2.651
 9869SOL    HW230507   1.689   3.091   2.567
 9870SOL     OW30508   3.691   5.926   2.879
 9870SOL    HW130509   3.680   5.951   2.976
 9870SOL    HW230510   3.632   5.985   2.823
 9871SOL     OW30511   0.397   6.278   6.610
 9871SOL    HW130512   0.480   6.226   6.627
 9871SOL    HW230513   0.384   6.287   6.511
 9872SOL     OW30514   2.225   4.662   4.083
 9872SOL    HW130515   2.200   4.732   4.150
 9872SOL    HW230516   2.142   4.619   4.047
 9873SOL     OW30517   2.552   2.305   0.192
 9873SOL    HW130518   2.531   2.308   0.094
 9873SOL    HW230519   2.525   2.392   0.234
 9874SOL     OW30520   0.191   3.142   4.666
 9874SOL    HW130521   0.131   3.143   4.746
 9874SOL    HW230522   0.247   3.224   4.665
 9875SOL     OW30523   6.296   6.628   1.671
 9875SOL    HW130524   6.335   6.701   1.728
 9875SOL    HW230525   6.339   6.630   1.581
 9876SOL     OW30526   6.744   0.427   3.288
 9876SOL    HW130527   6.659   0.435   3.235
 9876SOL    HW230528   6.753   0.505   3.349
 9877SOL     OW30529   0.033   6.364   3.867
 9877SOL    HW130530   0.035   6.374   3.768
 9877SOL    HW230531   0.121   6.393   3.906
 9878SOL     OW30532   2.606   4.896   5.257
 9878SOL    HW130533   2.622   4.917   5.160
 9878SOL    HW230534   2.520   4.939   5.286
 9879SOL     OW30535   5.358   5.120   4.795
 9879SOL    HW130536   5.396   5.178   4.723
 9879SOL    HW230537   5.299   5.175   4.854
 9880SOL     OW30538   3.212   0.933   5.665
 9880SOL    HW130539   3.288   0.907   5.606
 9880SOL    HW230540   3.134   0.874   5.647
 9881SOL     OW30541   0.970   1.306   4.796
 9881SOL    HW130542   0.878   1.338   4.819
 9881SOL    HW230543   1.035   1.382   4.801
 9882SOL     OW30544   1.087   3.523   3.956
 9882SOL    HW130545   1.171   3.484   3.993
 9882SOL    HW230546   1.073   3.614   3.995
 9883SOL     OW30547   1.131   6.508   7.006
 9883SOL    HW130548   1.185   6.552   0.054
 9883SOL    HW230549   1.050   6.465   0.021
 9884SOL     OW30550   4.643   2.183   2.076
 9884SOL    HW130551   4.571   2.210   2.012
 9884SOL    HW230552   4.729   2.172   2.026
 9885SOL     OW30553   6.890   2.321   4.766
 9885SOL    HW130554   6.907   2.261   4.844
 9885SOL    HW230555   6.834   2.273   4.699
 9886SOL     OW30556   1.249   4.193   2.250
 9886SOL    HW130557   1.257   4.287   2.282
 9886SOL    HW230558   1.280   4.131   2.322
 9887SOL     OW30559   3.552   0.223   5.788
 9887SOL    HW130560   3.646   0.248   5.764
 9887SOL    HW230561   3.488   0.284   5.741
 9888SOL     OW30562   5.735   4.702   2.796
 9888SOL    HW130563   5.808   4.740   2.853
 9888SOL    HW230564   5.717   4.608   2.823
 9889SOL     OW30565   0.041   5.163   1.556
 9889SOL    HW130566   0.072   5.103   1.482
 9889SOL    HW230567   0.116   5.177   1.621
 9890SOL     OW30568   1.930   2.256   1.034
 9890SOL    HW130569   1.908   2.353   1.032
 9890SOL    HW230570   1.851   2.204   1.001
 9891SOL     OW30571   4.897   3.959   2.160
 9891SOL    HW130572   4.922   3.939   2.065
 9891SOL    HW230573   4.848   4.046   2.164
 9892SOL     OW30574   6.839   4.754   1.108
 9892SOL    HW130575   6.905   4.701   1.055
 9892SOL    HW230576   6.876   4.774   1.199
 9893SOL     OW30577   0.740   0.501   0.847
 9893SOL    HW130578   0.695   0.454   0.923
 9893SOL    HW230579   0.836   0.518   0.870
 9894SOL     OW30580   2.959   2.486   1.239
 9894SOL    HW130581   2.870   2.512   1.277
 9894SOL    HW230582   3.023   2.467   1.314
 9895SOL     OW30583   6.529   5.064   4.587
 9895SOL    HW130584   6.583   5.078   4.505
 9895SOL    HW230585   6.481   4.976   4.582
 9896SOL     OW30586   6.944   0.724   6.302
 9896SOL    HW130587   0.010   0.741   6.339
 9896SOL    HW230588   6.877   0.778   6.353
 9897SOL     OW30589   5.485   6.089   2.474
 9897SOL    HW130590   5.452   6.182   2.460
 9897SOL    HW230591   5.467   6.060   2.568
 9898SOL     OW30592   1.787   6.161   4.744
 9898SOL    HW130593   1.861   6.094   4.743
 9898SOL    HW230594   1.708   6.123   4.792
 9899SOL     OW30595   1.624   5.874   0.878
 9899SOL    HW130596   1.551   5.939   0.859
 9899SOL    HW230597   1.712   5.923   0.881
 9900SOL     OW30598   1.880   2.965   3.007
 9900SOL    HW130599   1.874   3.063   3.025
 9900SOL    HW230600   1.968   2.945   2.963
 9901SOL     OW30601   2.520   0.432   6.905
 9901SOL    HW130602   2.461   0.359   6.942
 9901SOL    HW230603   2.484   0.462   6.817
 9902SOL     OW30604   3.611   4.882   1.224
 9902SOL    HW130605   3.577   4.971   1.253
 9902SOL    HW230606   3.674   4.895   1.147
 9903SOL     OW30607   5.427   2.342   1.345
 9903SOL    HW130608   5.333   2.359   1.316
 9903SOL    HW230609   5.430   2.327   1.443
 9904SOL     OW30610   0.500   3.680   6.454
 9904SOL    HW130611   0.573   3.679   6.523
 9904SOL    HW230612   0.427   3.743   6.484
 9905SOL     OW30613   1.863   0.287   6.321
 9905SOL    HW130614   1.798   0.334   6.381
 9905SOL    HW230615   1.919   0.354   6.272
 9906SOL     OW30616   2.059   3.491   1.427
 9906SOL    HW130617   2.059   3.391   1.416
 9906SOL    HW230618   2.132   3.518   1.490
 9907SOL     OW30619   0.685   0.246   1.772
 9907SOL    HW130620   0.671   0.176   1.842
 9907SOL    HW230621   0.601   0.298   1.759
 9908SOL     OW30622   6.229   1.443   5.066
 9908SOL    HW130623   6.238   1.395   5.154
 9908SOL    HW230624   6.152   1.404   5.015
 9909SOL     OW30625   4.453   1.669   2.977
 9909SOL    HW130626   4.442   1.720   3.062
 9909SOL    HW230627   4.396   1.587   2.979
 9910SOL     OW30628   1.088   5.130   1.651
 9910SOL    HW130629   1.048   5.063   1.588
 9910SOL    HW230630   1.145   5.084   1.718
 9911SOL     OW30631   2.465   6.302   2.261
 9911SOL    HW130632   2.464   6.235   2.186
 9911SOL    HW230633   2.495   6.391   2.225
 9912SOL     OW30634   3.867   0.255   1.579
 9912SOL    HW130635   3.965   0.236   1.591
 9912SOL    HW230636   3.815   0.173   1.603
 9913SOL     OW30637   6.171   4.172   0.749
 9913SOL    HW130638   6.110   4.103   0.711
 9913SOL    HW230639   6.185   4.245   0.681
 9914SOL     OW30640   5.983   1.358   4.923
 9914SOL    HW130641   5.967   1.260   4.923
 9914SOL    HW230642   5.979   1.392   4.829
 9915SOL     OW30643   6.015   1.445   3.793
 9915SOL    HW130644   5.952   1.371   3.818
 9915SOL    HW230645   5.975   1.499   3.719
 9916SOL     OW30646   1.914   2.277   2.486
 9916SOL    HW130647   1.900   2.178   2.489
 9916SOL    HW230648   1.850   2.322   2.549
 9917SOL     OW30649   5.013   4.322   6.274
 9917SOL    HW130650   4.967   4.404   6.239
 9917SOL    HW230651   4.958   4.282   6.348
 9918SOL     OW30652   2.679   2.047   3.352
 9918SOL    HW130653   2.736   2.115   3.306
 9918SOL    HW230654   2.608   2.093   3.405
 9919SOL     OW30655   0.837   5.122   0.706
 9919SOL    HW130656   0.782   5.045   0.674
 9919SOL    HW230657   0.837   5.123   0.806
 9920SOL     OW30658   5.405   1.604   2.446
 9920SOL    HW130659   5.308   1.624   2.453
 9920SOL    HW230660   5.443   1.590   2.538
 9921SOL     OW30661   4.104   6.122   4.719
 9921SOL    HW130662   4.083   6.174   4.637
 9921SOL    HW230663   4.090   6.179   4.800
 9922SOL     OW30664   2.297   3.749   0.585
 9922SOL    HW130665   2.268   3.743   0.489
 9922SOL    HW230666   2.221   3.722   0.644
 9923SOL     OW30667   5.758   4.662   6.691
 9923SOL    HW130668   5.686   4.593   6.699
 9923SOL    HW230669   5.718   4.753   6.688
 9924SOL     OW30670   6.352   1.636   3.364
 9924SOL    HW130671   6.313   1.691   3.438
 9924SOL    HW230672   6.295   1.556   3.348
 9925SOL     OW30673   0.357   3.911   4.171
 9925SOL    HW130674   0.382   4.002   4.204
 9925SOL    HW230675   0.262   3.892   4.197
 9926SOL     OW30676   4.543   3.042   1.435
 9926SOL    HW130677   4.468   3.065   1.497
 9926SOL    HW230678   4.529   2.950   1.398
 9927SOL     OW30679   1.359   0.317   0.613
 9927SOL    HW130680   1.263   0.340   0.628
 9927SOL    HW230681   1.409   0.322   0.699
 9928SOL     OW30682   5.029   5.049   3.093
 9928SOL    HW130683   5.065   5.013   3.008
 9928SOL    HW230684   5.002   4.973   3.153
 9929SOL     OW30685   3.150   4.099   5.308
 9929SOL    HW130686   3.116   4.025   5.365
 9929SOL    HW230687   3.074   4.139   5.256
 9930SOL     OW30688   6.475   6.210   5.035
 9930SOL    HW130689   6.392   6.165   5.066
 9930SOL    HW230690   6.508   6.273   5.106
 9931SOL     OW30691   0.576   5.557   4.342
 9931SOL    HW130692   0.509   5.598   4.403
 9931SOL    HW230693   0.541   5.469   4.310
 9932SOL     OW30694   3.080   3.122   6.118
 9932SOL    HW130695   3.148   3.083   6.055
 9932SOL    HW230696   2.989   3.111   6.079
 9933SOL     OW30697   0.502   6.184   4.022
 9933SOL    HW130698   0.511   6.148   4.115
 9933SOL    HW230699   0.526   6.112   3.956
 9934SOL     OW30700   6.373   1.947   5.818
 9934SOL    HW130701   6.314   1.995   5.753
 9934SOL    HW230702   6.363   1.849   5.806
 9935SOL     OW30703   3.303   6.523   0.277
 9935SOL    HW130704   3.357   6.480   0.349
 9935SOL    HW230705   3.294   6.621   0.296
 9936SOL     OW30706   6.652   4.379   0.127
 9936SOL    HW130707   6.585   4.437   0.172
 9936SOL    HW230708   6.612   4.288   0.113
 9937SOL     OW30709   0.431   1.566   1.806
 9937SOL    HW130710   0.475   1.592   1.720
 9937SOL    HW230711   0.345   1.615   1.817
 9938SOL     OW30712   6.617   5.073   3.324
 9938SOL    HW130713   6.599   5.143   3.393
 9938SOL    HW230714   6.535   5.018   3.309
 9939SOL     OW30715   4.382   2.371   1.558
 9939SOL    HW130716   4.377   2.273   1.542
 9939SOL    HW230717   4.475   2.403   1.543
 9940SOL     OW30718   0.815   0.624   1.206
 9940SOL    HW130719   0.819   0.525   1.195
 9940SOL    HW230720   0.888   0.666   1.153
 9941SOL     OW30721   3.222   2.981   4.755
 9941SOL    HW130722   3.130   3.012   4.732
 9941SOL    HW230723   3.281   2.990   4.675
 9942SOL     OW30724   2.698   5.364   2.741
 9942SOL    HW130725   2.605   5.360   2.778
 9942SOL    HW230726   2.753   5.291   2.781
 9943SOL     OW30727   0.443   4.298   5.502
 9943SOL    HW130728   0.406   4.387   5.474
 9943SOL    HW230729   0.452   4.295   5.601
 9944SOL     OW30730   1.077   4.096   6.520
 9944SOL    HW130731   1.022   4.155   6.460
 9944SOL    HW230732   1.140   4.153   6.573
 9945SOL     OW30733   4.544   5.430   6.712
 9945SOL    HW130734   4.630   5.383   6.731
 9945SOL    HW230735   4.467   5.374   6.744
 9946SOL     OW30736   6.147   0.419   3.574
 9946SOL    HW130737   6.166   0.333   3.620
 9946SOL    HW230738   6.233   0.458   3.539
 9947SOL     OW30739   2.453   2.195   4.806
 9947SOL    HW130740   2.434   2.166   4.900
 9947SOL    HW230741   2.400   2.139   4.742
 9948SOL     OW30742   6.009   4.805   5.748
 9948SOL    HW130743   5.959   4.881   5.789
 9948SOL    HW230744   5.945   4.731   5.728
 9949SOL     OW30745   6.910   4.878   4.059
 9949SOL    HW130746   6.828   4.927   4.086
 9949SOL    HW230747   6.982   4.943   4.034
 9950SOL     OW30748   5.928   6.380   5.512
 9950SOL    HW130749   5.944   6.290   5.472
 9950SOL    HW230750   5.962   6.381   5.606
 9951SOL     OW30751   0.294   1.503   3.768
 9951SOL    HW130752   0.299   1.569   3.692
 9951SOL    HW230753   0.283   1.552   3.854
 9952SOL     OW30754   1.004   4.825   0.248
 9952SOL    HW130755   0.937   4.819   0.322
 9952SOL    HW230756   1.097   4.814   0.285
 9953SOL     OW30757   5.653   2.365   4.942
 9953SOL    HW130758   5.690   2.273   4.942
 9953SOL    HW230759   5.589   2.375   5.019
 9954SOL     OW30760   0.438   0.454   6.191
 9954SOL    HW130761   0.436   0.549   6.161
 9954SOL    HW230762   0.534   0.426   6.203
 9955SOL     OW30763   5.705   3.427   5.715
 9955SOL    HW130764   5.644   3.475   5.778
 9955SOL    HW230765   5.652   3.395   5.636
 9956SOL     OW30766   1.351   5.837   2.106
 9956SOL    HW130767   1.321   5.743   2.121
 9956SOL    HW230768   1.272   5.894   2.083
 9957SOL     OW30769   5.434   6.287   2.081
 9957SOL    HW130770   5.447   6.327   2.172
 9957SOL    HW230771   5.501   6.214   2.067
 9958SOL     OW30772   2.565   5.484   6.995
 9958SOL    HW130773   2.640   5.461   6.933
 9958SOL    HW230774   2.478   5.477   6.946
 9959SOL     OW30775   4.014   3.555   4.817
 9959SOL    HW130776   4.061   3.604   4.743
 9959SOL    HW230777   3.970   3.474   4.781
 9960SOL     OW30778   0.040   0.543   2.103
 9960SOL    HW130779   6.999   0.480   2.062
 9960SOL    HW230780   0.116   0.557   2.040
 9961SOL     OW30781   1.788   5.624   4.490
 9961SOL    HW130782   1.724   5.565   4.440
 9961SOL    HW230783   1.737   5.687   4.548
 9962SOL     OW30784   5.625   5.856   1.450
 9962SOL    HW130785   5.562   5.780   1.469
 9962SOL    HW230786   5.632   5.914   1.531
 9963SOL     OW30787   2.662   3.130   6.913
 9963SOL    HW130788   2.607   3.082   6.845
 9963SOL    HW230789   2.615   3.130   7.001
 9964SOL     OW30790   5.130   4.062   6.267
 9964SOL    HW130791   5.085   4.151   6.261
 9964SOL    HW230792   5.075   4.001   6.324
 9965SOL     OW30793   4.106   5.919   6.305
 9965SOL    HW130794   4.170   5.984   6.345
 9965SOL    HW230795   4.061   5.867   6.378
 9966SOL     OW30796   2.520   5.744   2.515
 9966SOL    HW130797   2.614   5.728   2.481
 9966SOL    HW230798   2.519   5.823   2.575
 9967SOL     OW30799   5.716   6.862   1.890
 9967SOL    HW130800   5.786   6.920   1.932
 9967SOL    HW230801   5.632   6.915   1.878
 9968SOL     OW30802   2.951   3.441   6.595
 9968SOL    HW130803   2.940   3.517   6.531
 9968SOL    HW230804   3.043   3.404   6.588
 9969SOL     OW30805   1.975   3.070   3.495
 9969SOL    HW130806   2.066   3.027   3.495
 9969SOL    HW230807   1.918   3.028   3.566
 9970SOL     OW30808   5.389   4.291   2.923
 9970SOL    HW130809   5.289   4.295   2.930
 9970SOL    HW230810   5.420   4.196   2.934
 9971SOL     OW30811   2.778   4.995   0.402
 9971SOL    HW130812   2.792   5.006   0.304
 9971SOL    HW230813   2.682   5.012   0.424
 9972SOL     OW30814   3.981   4.514   1.331
 9972SOL    HW130815   3.975   4.561   1.419
 9972SOL    HW230816   3.926   4.563   1.263
 9973SOL     OW30817   4.431   2.395   4.708
 9973SOL    HW130818   4.372   2.315   4.713
 9973SOL    HW230819   4.493   2.386   4.629
 9974SOL     OW30820   6.586   3.256   3.755
 9974SOL    HW130821   6.551   3.349   3.755
 9974SOL    HW230822   6.513   3.193   3.782
 9975SOL     OW30823   6.938   4.972   6.954
 9975SOL    HW130824   6.965   4.924   6.871
 9975SOL    HW230825   6.859   4.927   6.995
 9976SOL     OW30826   0.950   6.062   5.691
 9976SOL    HW130827   1.037   6.019   5.667
 9976SOL    HW230828   0.956   6.100   5.783
 9977SOL     OW30829   6.932   5.503   5.373
 9977SOL    HW130830   6.993   5.442   5.423
 9977SOL    HW230831   6.985   5.570   5.323
 9978SOL     OW30832   6.197   3.201   3.207
 9978SOL    HW130833   6.152   3.122   3.249
 9978SOL    HW230834   6.225   3.178   3.114
 9979SOL     OW30835   6.125   4.797   5.494
 9979SOL    HW130836   6.132   4.889   5.454
 9979SOL    HW230837   6.086   4.804   5.586
 9980SOL     OW30838   1.875   1.617   6.011
 9980SOL    HW130839   1.866   1.682   5.935
 9980SOL    HW230840   1.921   1.662   6.088
 9981SOL     OW30841   2.545   2.053   1.874
 9981SOL    HW130842   2.540   2.065   1.775
 9981SOL    HW230843   2.520   2.139   1.919
 9982SOL     OW30844   0.176   0.317   3.366
 9982SOL    HW130845   0.188   0.402   3.315
 9982SOL    HW230846   0.157   0.339   3.462
 9983SOL     OW30847   0.807   2.833   3.659
 9983SOL    HW130848   0.906   2.834   3.648
 9983SOL    HW230849   0.770   2.925   3.649
 9984SOL     OW30850   1.797   0.699   0.346
 9984SOL    HW130851   1.883   0.691   0.398
 9984SOL    HW230852   1.765   0.607   0.323
 9985SOL     OW30853   2.239   1.354   1.464
 9985SOL    HW130854   2.243   1.453   1.478
 9985SOL    HW230855   2.312   1.310   1.517
 9986SOL     OW30856   5.064   4.407   5.911
 9986SOL    HW130857   4.981   4.394   5.964
 9986SOL    HW230858   5.042   4.449   5.823
 9987SOL     OW30859   0.199   2.668   3.726
 9987SOL    HW130860   0.153   2.637   3.643
 9987SOL    HW230861   0.227   2.589   3.780
 9988SOL     OW30862   0.114   5.377   5.495
 9988SOL    HW130863   0.148   5.422   5.577
 9988SOL    HW230864   0.137   5.280   5.497
 9989SOL     OW30865   6.622   4.073   3.372
 9989SOL    HW130866   6.563   4.001   3.409
 9989SOL    HW230867   6.565   4.145   3.332
 9990SOL     OW30868   2.431   6.060   2.058
 9990SOL    HW130869   2.504   6.035   1.994
 9990SOL    HW230870   2.385   5.977   2.089
 9991SOL     OW30871   1.818   2.943   4.087
 9991SOL    HW130872   1.777   3.008   4.023
 9991SOL    HW230873   1.917   2.961   4.093
 9992SOL     OW30874   5.253   4.546   0.149
 9992SOL    HW130875   5.166   4.566   0.194
 9992SOL    HW230876   5.315   4.500   0.213
 9993SOL     OW30877   3.876   0.640   1.258
 9993SOL    HW130878   3.873   0.609   1.163
 9993SOL    HW230879   3.784   0.664   1.289
 9994SOL     OW30880   0.218   4.766   3.268
 9994SOL    HW130881   0.217   4.676   3.311
 9994SOL    HW230882   0.129   4.809   3.277
 9995SOL     OW30883   4.329   1.403   2.994
 9995SOL    HW130884   4.238   1.418   3.034
 9995SOL    HW230885   4.358   1.309   3.014
 9996SOL     OW30886   2.306   2.973   1.715
 9996SOL    HW130887   2.297   3.052   1.776
 9996SOL    HW230888   2.335   3.004   1.625
 9997SOL     OW30889   3.788   1.978   0.498
 9997SOL    HW130890   3.789   1.957   0.596
 9997SOL    HW230891   3.774   2.076   0.485
 9998SOL     OW30892   5.656   4.572   0.317
 9998SOL    HW130893   5.581   4.513   0.288
 9998SOL    HW230894   5.738   4.550   0.264
 9999SOL     OW30895   0.171   2.581   5.301
 9999SOL    HW130896   0.087   2.630   5.277
 9999SOL    HW230897   0.193   2.599   5.397
10000SOL     OW30898   6.743   3.564   6.799
10000SOL    HW130899   6.740   3.570   6.699
10000SOL    HW230900   6.652   3.542   6.834
10001SOL     OW30901   4.712   0.085   2.116
10001SOL    HW130902   4.758   0.014   2.062
10001SOL    HW230903   4.689   0.048   2.206
10002SOL     OW30904   1.717   0.420   2.271
10002SOL    HW130905   1.657   0.422   2.351
10002SOL    HW230906   1.803   0.468   2.292
10003SOL     OW30907   3.417   1.370   3.305
10003SOL    HW130908   3.389   1.402   3.214
10003SOL    HW230909   3.514   1.387   3.319
10004SOL     OW30910   5.468   2.459   3.919
10004SOL    HW130911   5.393   2.469   3.854
10004SOL    HW230912   5.486   2.547   3.964
10005SOL     OW30913   5.046   0.757   4.277
10005SOL    HW130914   4.959   0.747   4.229
10005SOL    HW230915   5.076   0.668   4.312
10006SOL     OW30916   5.588   6.698   4.686
10006SOL    HW130917   5.512   6.687   4.623
10006SOL    HW230918   5.633   6.786   4.670
10007SOL     OW30919   0.333   5.208   5.806
10007SOL    HW130920   0.249   5.176   5.763
10007SOL    HW230921   0.410   5.153   5.774
10008SOL     OW30922   4.331   1.327   4.609
10008SOL    HW130923   4.340   1.292   4.702
10008SOL    HW230924   4.299   1.422   4.611
10009SOL     OW30925   2.148   4.297   1.730
10009SOL    HW130926   2.076   4.363   1.755
10009SOL    HW230927   2.206   4.281   1.810
10010SOL     OW30928   1.850   0.545   5.665
10010SOL    HW130929   1.755   0.530   5.694
10010SOL    HW230930   1.854   0.623   5.604
10011SOL     OW30931   5.573   1.500   5.260
10011SOL    HW130932   5.648   1.472   5.319
10011SOL    HW230933   5.609   1.537   5.174
10012SOL     OW30934   5.567   0.811   3.127
10012SOL    HW130935   5.597   0.904   3.107
10012SOL    HW230936   5.481   0.792   3.079
10013SOL     OW30937   0.543   1.370   3.840
10013SOL    HW130938   0.552   1.319   3.754
10013SOL    HW230939   0.479   1.445   3.827
10014SOL     OW30940   6.589   3.905   0.668
10014SOL    HW130941   6.529   3.843   0.719
10014SOL    HW230942   6.638   3.964   0.732
10015SOL     OW30943   1.900   3.998   0.407
10015SOL    HW130944   1.967   4.010   0.480
10015SOL    HW230945   1.904   3.904   0.373
10016SOL     OW30946   1.436   0.864   6.356
10016SOL    HW130947   1.519   0.869   6.411
10016SOL    HW230948   1.459   0.837   6.263
10017SOL     OW30949   2.694   1.679   3.023
10017SOL    HW130950   2.664   1.647   3.114
10017SOL    HW230951   2.650   1.623   2.953
10018SOL     OW30952   4.377   7.008   5.645
10018SOL    HW130953   4.447   6.967   5.705
10018SOL    HW230954   4.420   0.051   5.586
10019SOL     OW30955   6.951   2.225   2.620
10019SOL    HW130956   6.989   2.226   2.713
10019SOL    HW230957   6.859   2.186   2.623
10020SOL     OW30958   1.629   2.260   1.872
10020SOL    HW130959   1.648   2.164   1.854
10020SOL    HW230960   1.568   2.268   1.951
10021SOL     OW30961   6.979   2.828   1.510
10021SOL    HW130962   6.947   2.832   1.415
10021SOL    HW230963   0.054   2.821   1.511
10022SOL     OW30964   2.780   0.597   5.896
10022SOL    HW130965   2.724   0.527   5.938
10022SOL    HW230966   2.728   0.643   5.824
10023SOL     OW30967   1.413   5.686   0.140
10023SOL    HW130968   1.358   5.646   0.066
10023SOL    HW230969   1.362   5.682   0.226
10024SOL     OW30970   2.091   6.326   2.248
10024SOL    HW130971   2.102   6.422   2.276
10024SOL    HW230972   2.162   6.303   2.181
10025SOL     OW30973   1.538   1.493   1.345
10025SOL    HW130974   1.450   1.502   1.393
10025SOL    HW230975   1.607   1.459   1.409
10026SOL     OW30976   5.775   6.633   3.892
10026SOL    HW130977   5.784   6.537   3.868
10026SOL    HW230978   5.803   6.646   3.988
10027SOL     OW30979   6.535   3.975   4.654
10027SOL    HW130980   6.500   4.069   4.653
10027SOL    HW230981   6.515   3.931   4.567
10028SOL     OW30982   1.557   1.091   2.235
10028SOL    HW130983   1.558   1.097   2.135
10028SOL    HW230984   1.491   1.157   2.271
10029SOL     OW30985   4.841   1.534   4.484
10029SOL    HW130986   4.762   1.472   4.486
10029SOL    HW230987   4.811   1.627   4.505
10030SOL     OW30988   2.343   6.579   3.282
10030SOL    HW130989   2.434   6.545   3.307
10030SOL    HW230990   2.332   6.574   3.183
10031SOL     OW30991   5.911   5.240   4.665
10031SOL    HW130992   5.914   5.340   4.658
10031SOL    HW230993   5.819   5.208   4.642
10032SOL     OW30994   2.004   1.490   5.293
10032SOL    HW130995   1.999   1.477   5.194
10032SOL    HW230996   2.092   1.531   5.316
10033SOL     OW30997   6.255   2.565   4.248
10033SOL    HW130998   6.224   2.655   4.218
10033SOL    HW230999   6.355   2.563   4.250
10034SOL     OW31000   3.433   0.410   4.191
10034SOL    HW131001   3.484   0.371   4.114
10034SOL    HW231002   3.444   0.509   4.191
10035SOL     OW31003   6.074   4.625   1.678
10035SOL    HW131004   6.116   4.701   1.628
10035SOL    HW231005   6.029   4.660   1.760
10036SOL     OW31006   6.012   2.198   1.262
10036SOL    HW131007   6.047   2.174   1.352
10036SOL    HW231008   5.921   2.158   1.249
10037SOL     OW31009   0.133   1.513   0.101
10037SOL    HW131010   0.229   1.517   0.127
10037SOL    HW231011   0.091   1.430   0.136
10038SOL     OW31012   5.560   0.470   7.021
10038SOL    HW131013   5.517   0.380   0.005
10038SOL    HW231014   5.494   0.534   6.982
10039SOL     OW31015   3.612   0.532   3.377
10039SOL    HW131016   3.612   0.540   3.477
10039SOL    HW231017   3.652   0.616   3.338
10040SOL     OW31018   5.285   5.097   6.393
10040SOL    HW131019   5.261   5.115   6.489
10040SOL    HW231020   5.345   5.170   6.360
10041SOL     OW31021   4.215   5.727   6.885
10041SOL    HW131022   4.305   5.760   6.914
10041SOL    HW231023   4.165   5.801   6.840
10042SOL     OW31024   0.669   1.987   4.313
10042SOL    HW131025   0.758   1.958   4.276
10042SOL    HW231026   0.669   2.086   4.325
10043SOL     OW31027   6.721   1.281   4.641
10043SOL    HW131028   6.770   1.222   4.577
10043SOL    HW231029   6.684   1.226   4.716
10044SOL     OW31030   2.390   2.494   4.649
10044SOL    HW131031   2.441   2.414   4.616
10044SOL    HW231032   2.398   2.568   4.582
10045SOL     OW31033   3.832   0.738   1.590
10045SOL    HW131034   3.742   0.713   1.554
10045SOL    HW231035   3.903   0.692   1.537
10046SOL     OW31036   1.745   3.617   0.627
10046SOL    HW131037   1.657   3.664   0.630
10046SOL    HW231038   1.741   3.536   0.686
10047SOL     OW31039   0.655   3.334   5.028
10047SOL    HW131040   0.694   3.341   5.120
10047SOL    HW231041   0.708   3.267   4.975
10048SOL     OW31042   0.487   6.722   2.521
10048SOL    HW131043   0.501   6.623   2.528
10048SOL    HW231044   0.479   6.761   2.613
10049SOL     OW31045   1.661   1.183   5.664
10049SOL    HW131046   1.661   1.282   5.676
10049SOL    HW231047   1.601   1.159   5.588
10050SOL     OW31048   5.608   3.584   5.206
10050SOL    HW131049   5.573   3.502   5.161
10050SOL    HW231050   5.582   3.584   5.302
10051SOL     OW31051   0.293   4.095   4.916
10051SOL    HW131052   0.210   4.142   4.886
10051SOL    HW231053   0.338   4.150   4.986
10052SOL     OW31054   2.151   1.397   3.046
10052SOL    HW131055   2.234   1.451   3.055
10052SOL    HW231056   2.125   1.362   3.136
10053SOL     OW31057   4.307   5.873   4.445
10053SOL    HW131058   4.239   5.856   4.516
10053SOL    HW231059   4.262   5.874   4.356
10054SOL     OW31060   5.669   4.594   5.196
10054SOL    HW131061   5.735   4.654   5.241
10054SOL    HW231062   5.687   4.499   5.220
10055SOL     OW31063   6.388   2.542   5.624
10055SOL    HW131064   6.385   2.514   5.719
10055SOL    HW231065   6.298   2.577   5.597
10056SOL     OW31066   5.300   4.577   3.848
10056SOL    HW131067   5.275   4.548   3.755
10056SOL    HW231068   5.386   4.628   3.844
10057SOL     OW31069   5.646   4.042   5.351
10057SOL    HW131070   5.655   3.972   5.280
10057SOL    HW231071   5.708   4.021   5.427
10058SOL     OW31072   6.503   3.839   4.887
10058SOL    HW131073   6.471   3.899   4.960
10058SOL    HW231074   6.495   3.886   4.799
10059SOL     OW31075   0.005   2.390   0.196
10059SOL    HW131076   0.058   2.417   0.277
10059SOL    HW231077   6.967   2.317   0.220
10060SOL     OW31078   2.169   2.342   2.402
10060SOL    HW131079   2.072   2.342   2.428
10060SOL    HW231080   2.222   2.290   2.468
10061SOL     OW31081   4.351   0.969   3.656
10061SOL    HW131082   4.435   0.921   3.630
10061SOL    HW231083   4.298   0.911   3.718
10062SOL     OW31084   6.282   6.977   4.605
10062SOL    HW131085   6.369   0.001   4.617
10062SOL    HW231086   6.213   7.018   4.664
10063SOL     OW31087   3.041   1.587   4.335
10063SOL    HW131088   3.018   1.562   4.241
10063SOL    HW231089   2.961   1.629   4.379
10064SOL     OW31090   4.357   5.545   6.483
10064SOL    HW131091   4.383   5.632   6.441
10064SOL    HW231092   4.432   5.480   6.473
10065SOL     OW31093   1.991   1.164   1.653
10065SOL    HW131094   2.044   1.162   1.568
10065SOL    HW231095   2.053   1.156   1.731
10066SOL     OW31096   0.071   2.856   4.935
10066SOL    HW131097   0.083   2.850   4.836
10066SOL    HW231098   0.154   2.823   4.981
10067SOL     OW31099   0.333   3.144   6.492
10067SOL    HW131100   0.325   3.205   6.571
10067SOL    HW231101   0.423   3.155   6.450
10068SOL     OW31102   1.035   4.109   3.372
10068SOL    HW131103   1.077   4.188   3.326
10068SOL    HW231104   0.996   4.048   3.303
10069SOL     OW31105   3.381   4.915   1.607
10069SOL    HW131106   3.371   4.837   1.545
10069SOL    HW231107   3.474   4.917   1.643
10070SOL     OW31108   0.394   5.166   5.398
10070SOL    HW131109   0.434   5.242   5.347
10070SOL    HW231110   0.392   5.084   5.341
10071SOL     OW31111   1.304   0.160   3.977
10071SOL    HW131112   1.390   0.174   4.026
10071SOL    HW231113   1.240   0.233   4.000
10072SOL     OW31114   0.467   1.200   2.956
10072SOL    HW131115   0.503   1.199   2.863
10072SOL    HW231116   0.500   1.119   3.005
10073SOL     OW31117   6.296   3.499   3.769
10073SOL    HW131118   6.224   3.433   3.744
10073SOL    HW231119   6.255   3.576   3.818
10074SOL     OW31120   1.953   5.946   0.594
10074SOL    HW131121   2.001   5.966   0.509
10074SOL    HW231122   2.019   5.937   0.668
10075SOL     OW31123   2.132   0.564   2.542
10075SOL    HW131124   2.067   0.519   2.603
10075SOL    HW231125   2.211   0.594   2.595
10076SOL     OW31126   4.714   5.318   2.981
10076SOL    HW131127   4.709   5.418   2.979
10076SOL    HW231128   4.809   5.289   2.971
10077SOL     OW31129   5.270   2.498   0.296
10077SOL    HW131130   5.286   2.593   0.269
10077SOL    HW231131   5.255   2.443   0.214
10078SOL     OW31132   0.624   6.484   5.212
10078SOL    HW131133   0.609   6.560   5.274
10078SOL    HW231134   0.642   6.519   5.120
10079SOL     OW31135   5.419   2.443   3.472
10079SOL    HW131136   5.484   2.374   3.439
10079SOL    HW231137   5.402   2.510   3.400
10080SOL     OW31138   5.384   0.995   6.220
10080SOL    HW131139   5.481   1.013   6.203
10080SOL    HW231140   5.360   0.904   6.185
10081SOL     OW31141   0.722   1.840   0.261
10081SOL    HW131142   0.742   1.853   0.164
10081SOL    HW231143   0.630   1.800   0.271
10082SOL     OW31144   1.624   5.336   3.733
10082SOL    HW131145   1.586   5.257   3.685
10082SOL    HW231146   1.590   5.337   3.827
10083SOL     OW31147   3.588   6.637   3.622
10083SOL    HW131148   3.661   6.627   3.555
10083SOL    HW231149   3.626   6.667   3.710
10084SOL     OW31150   6.908   6.846   5.174
10084SOL    HW131151   6.895   6.803   5.084
10084SOL    HW231152   6.889   6.944   5.167
10085SOL     OW31153   4.368   6.730   0.474
10085SOL    HW131154   4.422   6.813   0.489
10085SOL    HW231155   4.282   6.753   0.429
10086SOL     OW31156   5.810   6.084   2.623
10086SOL    HW131157   5.776   6.157   2.682
10086SOL    HW231158   5.860   6.124   2.546
10087SOL     OW31159   0.477   6.810   4.176
10087SOL    HW131160   0.544   6.883   4.192
10087SOL    HW231161   0.449   6.811   4.080
10088SOL     OW31162   6.527   0.936   0.032
10088SOL    HW131163   6.581   0.952   0.115
10088SOL    HW231164   6.588   0.925   6.979
10089SOL     OW31165   3.421   1.153   2.966
10089SOL    HW131166   3.433   1.241   3.011
10089SOL    HW231167   3.327   1.122   2.978
10090SOL     OW31168   0.890   4.660   2.031
10090SOL    HW131169   0.909   4.633   2.125
10090SOL    HW231170   0.798   4.697   2.024
10091SOL     OW31171   6.830   5.953   6.908
10091SOL    HW131172   6.739   5.926   6.879
10091SOL    HW231173   6.823   6.021   6.982
10092SOL     OW31174   1.555   3.316   5.466
10092SOL    HW131175   1.560   3.241   5.532
10092SOL    HW231176   1.647   3.343   5.439
10093SOL     OW31177   4.907   3.438   4.774
10093SOL    HW131178   4.898   3.340   4.796
10093SOL    HW231179   4.880   3.492   4.853
10094SOL     OW31180   2.490   6.782   1.198
10094SOL    HW131181   2.509   6.842   1.120
10094SOL    HW231182   2.444   6.834   1.270
10095SOL     OW31183   5.541   1.832   4.743
10095SOL    HW131184   5.490   1.916   4.763
10095SOL    HW231185   5.589   1.842   4.656
10096SOL     OW31186   4.961   0.838   2.262
10096SOL    HW131187   4.927   0.915   2.315
10096SOL    HW231188   5.041   0.866   2.209
10097SOL     OW31189   2.112   2.313   6.840
10097SOL    HW131190   2.039   2.313   6.908
10097SOL    HW231191   2.135   2.219   6.815
10098SOL     OW31192   3.085   5.956   4.488
10098SOL    HW131193   3.067   6.028   4.421
10098SOL    HW231194   2.999   5.926   4.528
10099SOL     OW31195   6.571   4.710   1.725
10099SOL    HW131196   6.635   4.669   1.660
10099SOL    HW231197   6.480   4.673   1.711
10100SOL     OW31198   5.540   5.017   5.164
10100SOL    HW131199   5.597   5.025   5.246
10100SOL    HW231200   5.595   4.980   5.090
10101SOL     OW31201   6.798   3.119   2.067
10101SOL    HW131202   6.895   3.094   2.064
10101SOL    HW231203   6.751   3.080   1.988
10102SOL     OW31204   5.737   0.447   0.566
10102SOL    HW131205   5.716   0.408   0.656
10102SOL    HW231206   5.817   0.506   0.574
10103SOL     OW31207   1.096   0.170   5.609
10103SOL    HW131208   1.087   0.153   5.707
10103SOL    HW231209   1.123   0.085   5.564
10104SOL     OW31210   2.475   1.018   6.051
10104SOL    HW131211   2.443   0.934   6.094
10104SOL    HW231212   2.405   1.089   6.060
10105SOL     OW31213   2.861   1.014   5.789
10105SOL    HW131214   2.846   0.919   5.815
10105SOL    HW231215   2.957   1.037   5.799
10106SOL     OW31216   4.603   5.896   1.454
10106SOL    HW131217   4.521   5.866   1.406
10106SOL    HW231218   4.577   5.948   1.535
10107SOL     OW31219   4.938   3.933   6.806
10107SOL    HW131220   4.998   3.934   6.886
10107SOL    HW231221   4.988   3.895   6.728
10108SOL     OW31222   1.243   2.678   0.667
10108SOL    HW131223   1.304   2.729   0.606
10108SOL    HW231224   1.274   2.687   0.761
10109SOL     OW31225   0.824   0.998   0.246
10109SOL    HW131226   0.745   1.032   0.195
10109SOL    HW231227   0.876   1.075   0.282
10110SOL     OW31228   4.576   5.150   2.752
10110SOL    HW131229   4.531   5.236   2.728
10110SOL    HW231230   4.508   5.086   2.787
10111SOL     OW31231   0.997   2.781   2.200
10111SOL    HW131232   1.011   2.880   2.199
10111SOL    HW231233   0.924   2.757   2.136
10112SOL     OW31234   6.692   3.401   3.098
10112SOL    HW131235   6.637   3.478   3.131
10112SOL    HW231236   6.635   3.319   3.091
10113SOL     OW31237   4.449   1.116   6.423
10113SOL    HW131238   4.459   1.209   6.459
10113SOL    HW231239   4.351   1.092   6.420
10114SOL     OW31240   3.817   2.167   3.195
10114SOL    HW131241   3.870   2.137   3.274
10114SOL    HW231242   3.867   2.147   3.111
10115SOL     OW31243   3.903   1.434   4.179
10115SOL    HW131244   3.988   1.409   4.133
10115SOL    HW231245   3.919   1.440   4.277
10116SOL     OW31246   5.421   0.237   5.588
10116SOL    HW131247   5.504   0.190   5.619
10116SOL    HW231248   5.445   0.302   5.516
10117SOL     OW31249   6.713   5.383   5.429
10117SOL    HW131250   6.741   5.293   5.460
10117SOL    HW231251   6.793   5.439   5.408
10118SOL     OW31252   2.847   5.156   4.533
10118SOL    HW131253   2.791   5.224   4.580
10118SOL    HW231254   2.850   5.072   4.588
10119SOL     OW31255   6.987   5.208   4.038
10119SOL    HW131256   0.021   5.155   4.100
10119SOL    HW231257   6.962   5.295   4.081
10120SOL     OW31258   1.386   3.050   2.959
10120SOL    HW131259   1.458   3.020   3.023
10120SOL    HW231260   1.408   3.018   2.867
10121SOL     OW31261   5.435   4.892   0.533
10121SOL    HW131262   5.533   4.875   0.536
10121SOL    HW231263   5.386   4.807   0.514
10122SOL     OW31264   6.380   1.673   2.968
10122SOL    HW131265   6.476   1.671   2.940
10122SOL    HW231266   6.362   1.598   3.031
10123SOL     OW31267   5.799   6.320   0.949
10123SOL    HW131268   5.832   6.237   0.994
10123SOL    HW231269   5.858   6.342   0.871
10124SOL     OW31270   1.362   5.216   2.520
10124SOL    HW131271   1.380   5.247   2.427
10124SOL    HW231272   1.265   5.229   2.541
10125SOL     OW31273   2.140   1.421   1.934
10125SOL    HW131274   2.045   1.422   1.904
10125SOL    HW231275   2.157   1.499   1.995
10126SOL     OW31276   6.302   0.122   6.211
10126SOL    HW131277   6.252   0.084   6.133
10126SOL    HW231278   6.367   0.054   6.245
10127SOL     OW31279   1.285   4.573   6.139
10127SOL    HW131280   1.256   4.635   6.066
10127SOL    HW231281   1.204   4.530   6.180
10128SOL     OW31282   3.023   0.712   0.023
10128SOL    HW131283   2.979   0.792   0.064
10128SOL    HW231284   2.955   0.639   0.013
10129SOL     OW31285   6.851   1.852   2.511
10129SOL    HW131286   6.780   1.867   2.580
10129SOL    HW231287   6.933   1.815   2.555
10130SOL     OW31288   1.404   2.357   2.021
10130SOL    HW131289   1.373   2.371   1.927
10130SOL    HW231290   1.402   2.444   2.070
10131SOL     OW31291   2.038   0.857   4.352
10131SOL    HW131292   2.047   0.772   4.299
10131SOL    HW231293   1.941   0.879   4.363
10132SOL     OW31294   0.042   6.488   2.269
10132SOL    HW131295   0.081   6.449   2.353
10132SOL    HW231296   0.108   6.551   2.228
10133SOL     OW31297   4.502   5.613   1.400
10133SOL    HW131298   4.598   5.616   1.427
10133SOL    HW231299   4.482   5.524   1.357
10134SOL     OW31300   6.567   0.909   2.622
10134SOL    HW131301   6.642   0.932   2.684
10134SOL    HW231302   6.587   0.944   2.531
10135SOL     OW31303   5.817   1.005   4.030
10135SOL    HW131304   5.778   0.922   4.071
10135SOL    HW231305   5.744   1.071   4.013
10136SOL     OW31306   5.049   2.559   2.768
10136SOL    HW131307   5.037   2.575   2.670
10136SOL    HW231308   4.976   2.498   2.801
10137SOL     OW31309   0.532   5.567   5.651
10137SOL    HW131310   0.535   5.651   5.706
10137SOL    HW231311   0.442   5.523   5.661
10138SOL     OW31312   5.941   1.608   6.992
10138SOL    HW131313   5.881   1.682   6.963
10138SOL    HW231314   5.906   1.568   0.052
10139SOL     OW31315   3.430   3.568   5.636
10139SOL    HW131316   3.359   3.589   5.570
10139SOL    HW231317   3.413   3.477   5.675
10140SOL     OW31318   6.652   6.156   6.152
10140SOL    HW131319   6.563   6.112   6.136
10140SOL    HW231320   6.717   6.124   6.083
10141SOL     OW31321   3.755   1.297   3.857
10141SOL    HW131322   3.798   1.211   3.882
10141SOL    HW231323   3.665   1.278   3.816
10142SOL     OW31324   6.017   6.019   4.769
10142SOL    HW131325   6.112   6.051   4.769
10142SOL    HW231326   5.956   6.097   4.782
10143SOL     OW31327   5.515   3.047   0.185
10143SOL    HW131328   5.533   3.015   0.092
10143SOL    HW231329   5.581   3.007   0.248
10144SOL     OW31330   4.094   6.649   5.100
10144SOL    HW131331   4.124   6.609   5.013
10144SOL    HW231332   4.045   6.734   5.083
10145SOL     OW31333   4.504   6.275   1.517
10145SOL    HW131334   4.470   6.248   1.607
10145SOL    HW231335   4.602   6.294   1.522
10146SOL     OW31336   6.939   3.876   4.083
10146SOL    HW131337   6.908   3.915   4.170
10146SOL    HW231338   7.020   3.820   4.099
10147SOL     OW31339   4.206   5.294   0.022
10147SOL    HW131340   4.113   5.272   7.017
10147SOL    HW231341   4.258   5.330   6.969
10148SOL     OW31342   0.277   4.702   0.726
10148SOL    HW131343   0.255   4.753   0.810
10148SOL    HW231344   0.367   4.730   0.693
10149SOL     OW31345   4.705   5.021   2.067
10149SOL    HW131346   4.776   5.066   2.013
10149SOL    HW231347   4.706   4.923   2.050
10150SOL     OW31348   4.908   3.380   0.949
10150SOL    HW131349   4.855   3.453   0.993
10150SOL    HW231350   4.969   3.420   0.881
10151SOL     OW31351   0.140   6.869   5.962
10151SOL    HW131352   0.058   6.812   5.957
10151SOL    HW231353   0.115   6.964   5.980
10152SOL     OW31354   6.004   6.080   2.907
10152SOL    HW131355   6.071   6.020   2.952
10152SOL    HW231356   5.925   6.026   2.880
10153SOL     OW31357   4.693   5.840   4.159
10153SOL    HW131358   4.788   5.852   4.188
10153SOL    HW231359   4.692   5.805   4.065
10154SOL     OW31360   4.402   4.993   5.474
10154SOL    HW131361   4.486   5.041   5.499
10154SOL    HW231362   4.383   4.922   5.542
10155SOL     OW31363   4.814   2.136   5.753
10155SOL    HW131364   4.716   2.152   5.749
10155SOL    HW231365   4.852   2.175   5.837
10156SOL     OW31366   4.595   0.194   1.439
10156SOL    HW131367   4.611   0.264   1.509
10156SOL    HW231368   4.682   0.171   1.395
10157SOL     OW31369   0.211   2.470   0.359
10157SOL    HW131370   0.223   2.509   0.450
10157SOL    HW231371   0.296   2.482   0.307
10158SOL     OW31372   5.133   6.838   2.507
10158SOL    HW131373   5.073   6.764   2.537
10158SOL    HW231374   5.078   6.912   2.468
10159SOL     OW31375   3.650   3.142   3.148
10159SOL    HW131376   3.674   3.048   3.124
10159SOL    HW231377   3.598   3.142   3.234
10160SOL     OW31378   2.073   4.309   2.769
10160SOL    HW131379   2.032   4.227   2.808
10160SOL    HW231380   2.173   4.302   2.772
10161SOL     OW31381   3.648   5.066   6.000
10161SOL    HW131382   3.564   5.012   6.000
10161SOL    HW231383   3.629   5.157   5.963
10162SOL     OW31384   1.492   4.577   1.399
10162SOL    HW131385   1.450   4.656   1.443
10162SOL    HW231386   1.558   4.607   1.331
10163SOL     OW31387   1.533   5.923   5.513
10163SOL    HW131388   1.563   5.926   5.608
10163SOL    HW231389   1.511   6.016   5.482
10164SOL     OW31390   6.310   3.348   3.512
10164SOL    HW131391   6.349   3.349   3.420
10164SOL    HW231392   6.358   3.415   3.569
10165SOL     OW31393   5.814   2.650   3.805
10165SOL    HW131394   5.793   2.747   3.818
10165SOL    HW231395   5.763   2.615   3.727
10166SOL     OW31396   1.143   2.665   1.309
10166SOL    HW131397   1.060   2.671   1.364
10166SOL    HW231398   1.147   2.576   1.264
10167SOL     OW31399   0.305   4.929   6.650
10167SOL    HW131400   0.259   5.005   6.604
10167SOL    HW231401   0.267   4.917   6.742
10168SOL     OW31402   6.120   1.736   6.833
10168SOL    HW131403   6.077   1.814   6.787
10168SOL    HW231404   6.072   1.719   6.920
10169SOL     OW31405   0.104   3.665   3.133
10169SOL    HW131406   0.151   3.692   3.217
10169SOL    HW231407   0.067   3.746   3.088
10170SOL     OW31408   6.162   5.807   0.218
10170SOL    HW131409   6.236   5.778   0.279
10170SOL    HW231410   6.200   5.834   0.130
10171SOL     OW31411   1.409   2.647   5.634
10171SOL    HW131412   1.410   2.548   5.643
10171SOL    HW231413   1.352   2.686   5.707
10172SOL     OW31414   6.749   6.972   3.547
10172SOL    HW131415   6.740   0.039   3.509
10172SOL    HW231416   6.724   6.905   3.477
10173SOL     OW31417   3.636   4.747   0.066
10173SOL    HW131418   3.582   4.784   7.015
10173SOL    HW231419   3.622   4.804   0.147
10174SOL     OW31420   5.239   0.058   3.113
10174SOL    HW131421   5.220   0.067   3.015
10174SOL    HW231422   5.184   7.008   3.150
10175SOL     OW31423   0.124   1.984   3.207
10175SOL    HW131424   0.187   2.013   3.134
10175SOL    HW231425   0.034   2.023   3.191
10176SOL     OW31426   6.312   2.992   5.821
10176SOL    HW131427   6.359   3.004   5.908
10176SOL    HW231428   6.261   2.906   5.822
10177SOL     OW31429   2.560   0.290   1.491
10177SOL    HW131430   2.646   0.240   1.488
10177SOL    HW231431   2.508   0.272   1.408
10178SOL     OW31432   1.910   1.204   0.642
10178SOL    HW131433   1.939   1.197   0.738
10178SOL    HW231434   1.967   1.270   0.594
10179SOL     OW31435   6.985   4.219   0.327
10179SOL    HW131436   7.024   4.184   0.242
10179SOL    HW231437   6.906   4.277   0.306
10180SOL     OW31438   4.634   0.084   0.013
10180SOL    HW131439   4.619   0.156   0.080
10180SOL    HW231440   4.729   0.084   7.009
10181SOL     OW31441   6.300   3.787   1.364
10181SOL    HW131442   6.368   3.743   1.422
10181SOL    HW231443   6.328   3.881   1.344
10182SOL     OW31444   5.347   1.270   0.390
10182SOL    HW131445   5.322   1.314   0.476
10182SOL    HW231446   5.422   1.206   0.405
10183SOL     OW31447   6.418   2.719   6.342
10183SOL    HW131448   6.410   2.667   6.427
10183SOL    HW231449   6.428   2.656   6.265
10184SOL     OW31450   5.454   2.751   6.619
10184SOL    HW131451   5.500   2.663   6.606
10184SOL    HW231452   5.518   2.816   6.660
10185SOL     OW31453   4.305   6.056   2.619
10185SOL    HW131454   4.351   5.979   2.576
10185SOL    HW231455   4.206   6.043   2.614
10186SOL     OW31456   4.489   3.780   5.803
10186SOL    HW131457   4.497   3.873   5.769
10186SOL    HW231458   4.550   3.720   5.751
10187SOL     OW31459   2.465   4.222   5.908
10187SOL    HW131460   2.554   4.233   5.865
10187SOL    HW231461   2.393   4.243   5.842
10188SOL     OW31462   2.350   6.755   0.049
10188SOL    HW131463   2.294   6.837   0.042
10188SOL    HW231464   2.371   6.737   0.145
10189SOL     OW31465   1.301   1.363   0.084
10189SOL    HW131466   1.304   1.337   0.181
10189SOL    HW231467   1.235   1.305   0.036
10190SOL     OW31468   2.936   3.795   1.764
10190SOL    HW131469   2.851   3.779   1.714
10190SOL    HW231470   2.955   3.893   1.767
10191SOL     OW31471   6.223   5.328   1.146
10191SOL    HW131472   6.126   5.339   1.169
10191SOL    HW231473   6.233   5.324   1.046
10192SOL     OW31474   2.180   1.788   5.004
10192SOL    HW131475   2.268   1.832   4.985
10192SOL    HW231476   2.193   1.714   5.070
10193SOL     OW31477   3.538   3.473   2.328
10193SOL    HW131478   3.632   3.496   2.350
10193SOL    HW231479   3.529   3.374   2.318
10194SOL     OW31480   3.563   0.122   4.473
10194SOL    HW131481   3.555   0.046   4.407
10194SOL    HW231482   3.614   0.091   4.553
10195SOL     OW31483   5.520   0.048   1.813
10195SOL    HW131484   5.433   0.093   1.834
10195SOL    HW231485   5.566   0.097   1.740
10196SOL     OW31486   5.282   2.480   3.683
10196SOL    HW131487   5.346   2.460   3.608
10196SOL    HW231488   5.217   2.405   3.691
10197SOL     OW31489   5.939   0.082   2.867
10197SOL    HW131490   6.027   0.044   2.895
10197SOL    HW231491   5.871   0.008   2.866
10198SOL     OW31492   3.712   6.016   1.138
10198SOL    HW131493   3.768   6.034   1.220
10198SOL    HW231494   3.770   6.019   1.057
10199SOL     OW31495   0.736   1.811   7.023
10199SOL    HW131496   0.822   1.816   6.972
10199SOL    HW231497   0.689   1.725   7.000
10200SOL     OW31498   5.151   3.267   6.051
10200SOL    HW131499   5.219   3.223   5.993
10200SOL    HW231500   5.178   3.256   6.147
10201SOL     OW31501   0.291   5.698   1.716
10201SOL    HW131502   0.200   5.738   1.724
10201SOL    HW231503   0.319   5.697   1.620
10202SOL     OW31504   0.432   3.677   1.230
10202SOL    HW131505   0.484   3.748   1.182
10202SOL    HW231506   0.387   3.618   1.163
10203SOL     OW31507   1.887   2.535   2.712
10203SOL    HW131508   1.903   2.614   2.653
10203SOL    HW231509   1.974   2.504   2.749
10204SOL     OW31510   3.040   4.303   6.348
10204SOL    HW131511   2.997   4.379   6.299
10204SOL    HW231512   3.000   4.216   6.316
10205SOL     OW31513   4.577   1.153   3.370
10205SOL    HW131514   4.488   1.136   3.413
10205SOL    HW231515   4.583   1.249   3.341
10206SOL     OW31516   5.310   5.869   5.791
10206SOL    HW131517   5.333   5.834   5.700
10206SOL    HW231518   5.325   5.968   5.793
10207SOL     OW31519   2.081   0.265   1.296
10207SOL    HW131520   2.132   0.349   1.275
10207SOL    HW231521   1.994   0.288   1.338
10208SOL     OW31522   6.178   5.660   5.575
10208SOL    HW131523   6.207   5.753   5.554
10208SOL    HW231524   6.215   5.597   5.507
10209SOL     OW31525   0.114   1.158   5.764
10209SOL    HW131526   0.147   1.106   5.685
10209SOL    HW231527   0.022   1.192   5.745
10210SOL     OW31528   5.135   6.928   1.836
10210SOL    HW131529   5.069   6.995   1.801
10210SOL    HW231530   5.141   6.851   1.773
10211SOL     OW31531   3.774   6.340   5.657
10211SOL    HW131532   3.822   6.373   5.575
10211SOL    HW231533   3.777   6.240   5.659
10212SOL     OW31534   0.779   1.486   4.221
10212SOL    HW131535   0.692   1.513   4.261
10212SOL    HW231536   0.839   1.450   4.292
10213SOL     OW31537   5.627   1.380   2.621
10213SOL    HW131538   5.602   1.477   2.621
10213SOL    HW231539   5.672   1.357   2.707
10214SOL     OW31540   6.828   0.760   2.532
10214SOL    HW131541   6.810   0.815   2.614
10214SOL    HW231542   6.903   0.697   2.549
10215SOL     OW31543   3.115   3.048   5.702
10215SOL    HW131544   3.047   2.987   5.662
10215SOL    HW231545   3.205   3.028   5.663
10216SOL     OW31546   6.712   0.188   1.122
10216SOL    HW131547   6.706   0.287   1.134
10216SOL    HW231548   6.690   0.165   1.027
10217SOL     OW31549   2.556   1.341   4.298
10217SOL    HW131550   2.513   1.424   4.262
10217SOL    HW231551   2.514   1.318   4.386
10218SOL     OW31552   1.169   1.285   1.461
10218SOL    HW131553   1.117   1.212   1.505
10218SOL    HW231554   1.196   1.257   1.369
10219SOL     OW31555   0.342   2.359   2.474
10219SOL    HW131556   0.317   2.281   2.531
10219SOL    HW231557   0.286   2.438   2.499
10220SOL     OW31558   4.146   1.819   1.592
10220SOL    HW131559   4.200   1.773   1.521
10220SOL    HW231560   4.079   1.755   1.631
10221SOL     OW31561   1.535   2.139   4.283
10221SOL    HW131562   1.624   2.159   4.242
10221SOL    HW231563   1.471   2.109   4.212
10222SOL     OW31564   1.494   3.765   5.624
10222SOL    HW131565   1.422   3.819   5.580
10222SOL    HW231566   1.575   3.764   5.566
10223SOL     OW31567   1.935   5.367   6.292
10223SOL    HW131568   2.011   5.303   6.289
10223SOL    HW231569   1.879   5.348   6.373
10224SOL     OW31570   0.883   1.087   4.399
10224SOL    HW131571   0.965   1.031   4.399
10224SOL    HW231572   0.831   1.071   4.483
10225SOL     OW31573   1.129   6.157   5.306
10225SOL    HW131574   1.076   6.108   5.374
10225SOL    HW231575   1.069   6.219   5.255
10226SOL     OW31576   3.130   0.818   6.799
10226SOL    HW131577   3.094   0.793   6.888
10226SOL    HW231578   3.098   0.909   6.774
10227SOL     OW31579   4.557   4.614   0.868
10227SOL    HW131580   4.478   4.653   0.821
10227SOL    HW231581   4.598   4.544   0.810
10228SOL     OW31582   0.848   5.152   2.245
10228SOL    HW131583   0.917   5.112   2.305
10228SOL    HW231584   0.818   5.084   2.178
10229SOL     OW31585   0.987   1.087   3.656
10229SOL    HW131586   1.018   1.043   3.740
10229SOL    HW231587   1.016   1.182   3.655
10230SOL     OW31588   0.148   0.565   3.272
10230SOL    HW131589   0.206   0.567   3.191
10230SOL    HW231590   0.123   0.659   3.297
10231SOL     OW31591   6.618   6.806   5.608
10231SOL    HW131592   6.549   6.820   5.538
10231SOL    HW231593   6.654   6.713   5.601
10232SOL     OW31594   4.183   0.830   4.333
10232SOL    HW131595   4.137   0.750   4.294
10232SOL    HW231596   4.199   0.814   4.431
10233SOL     OW31597   4.695   2.870   5.411
10233SOL    HW131598   4.671   2.934   5.337
10233SOL    HW231599   4.700   2.920   5.497
10234SOL     OW31600   5.139   0.382   0.871
10234SOL    HW131601   5.154   0.385   0.969
10234SOL    HW231602   5.222   0.350   0.825
10235SOL     OW31603   4.413   1.419   0.278
10235SOL    HW131604   4.457   1.405   0.367
10235SOL    HW231605   4.427   1.339   0.220
10236SOL     OW31606   1.592   6.205   1.776
10236SOL    HW131607   1.606   6.106   1.777
10236SOL    HW231608   1.675   6.250   1.808
10237SOL     OW31609   6.091   4.294   0.994
10237SOL    HW131610   5.999   4.260   1.015
10237SOL    HW231611   6.131   4.239   0.921
10238SOL     OW31612   3.573   3.606   4.979
10238SOL    HW131613   3.582   3.507   4.969
10238SOL    HW231614   3.637   3.652   4.917
10239SOL     OW31615   1.157   4.558   5.447
10239SOL    HW131616   1.232   4.498   5.421
10239SOL    HW231617   1.152   4.636   5.385
10240SOL     OW31618   1.317   4.465   2.293
10240SOL    HW131619   1.242   4.485   2.356
10240SOL    HW231620   1.393   4.526   2.310
10241SOL     OW31621   0.260   0.952   1.452
10241SOL    HW131622   0.229   0.860   1.428
10241SOL    HW231623   0.359   0.958   1.441
10242SOL     OW31624   0.428   2.453   6.475
10242SOL    HW131625   0.501   2.479   6.413
10242SOL    HW231626   0.462   2.450   6.569
10243SOL     OW31627   0.049   5.541   1.230
10243SOL    HW131628   6.995   5.481   1.214
10243SOL    HW231629   0.091   5.564   1.143
10244SOL     OW31630   2.242   4.472   0.271
10244SOL    HW131631   2.288   4.395   0.314
10244SOL    HW231632   2.257   4.555   0.326
10245SOL     OW31633   2.501   3.822   0.233
10245SOL    HW131634   2.451   3.771   0.163
10245SOL    HW231635   2.440   3.891   0.274
10246SOL     OW31636   2.939   3.811   4.524
10246SOL    HW131637   2.963   3.888   4.583
10246SOL    HW231638   2.882   3.746   4.575
10247SOL     OW31639   0.728   4.851   5.236
10247SOL    HW131640   0.709   4.769   5.289
10247SOL    HW231641   0.806   4.899   5.277
10248SOL     OW31642   3.123   0.257   2.026
10248SOL    HW131643   3.102   0.354   2.043
10248SOL    HW231644   3.048   0.200   2.060
10249SOL     OW31645   2.653   0.754   6.145
10249SOL    HW131646   2.644   0.842   6.190
10249SOL    HW231647   2.703   0.764   6.059
10250SOL     OW31648   0.153   2.280   0.927
10250SOL    HW131649   0.180   2.187   0.903
10250SOL    HW231650   0.081   2.311   0.865
10251SOL     OW31651   1.518   3.047   5.825
10251SOL    HW131652   1.552   3.065   5.733
10251SOL    HW231653   1.562   3.109   5.890
10252SOL     OW31654   6.619   6.420   0.450
10252SOL    HW131655   6.526   6.409   0.487
10252SOL    HW231656   6.650   6.334   0.411
10253SOL     OW31657   4.824   5.367   7.002
10253SOL    HW131658   4.793   5.459   7.023
10253SOL    HW231659   4.846   5.361   6.904
10254SOL     OW31660   3.500   2.120   4.687
10254SOL    HW131661   3.540   2.113   4.779
10254SOL    HW231662   3.402   2.100   4.691
10255SOL     OW31663   2.158   5.673   1.505
10255SOL    HW131664   2.141   5.715   1.594
10255SOL    HW231665   2.173   5.575   1.516
10256SOL     OW31666   5.420   6.800   1.290
10256SOL    HW131667   5.361   6.857   1.232
10256SOL    HW231668   5.386   6.801   1.384
10257SOL     OW31669   1.204   4.529   5.004
10257SOL    HW131670   1.144   4.601   5.037
10257SOL    HW231671   1.243   4.479   5.081
10258SOL     OW31672   4.984   0.266   3.654
10258SOL    HW131673   5.002   0.170   3.635
10258SOL    HW231674   5.052   0.323   3.607
10259SOL     OW31675   0.934   5.057   3.374
10259SOL    HW131676   0.996   5.090   3.304
10259SOL    HW231677   0.982   4.995   3.435
10260SOL     OW31678   6.832   6.983   3.035
10260SOL    HW131679   6.899   6.927   3.084
10260SOL    HW231680   6.831   0.050   3.075
10261SOL     OW31681   6.834   6.206   1.834
10261SOL    HW131682   6.874   6.236   1.920
10261SOL    HW231683   6.843   6.106   1.826
10262SOL     OW31684   2.729   5.771   4.729
10262SOL    HW131685   2.741   5.854   4.674
10262SOL    HW231686   2.818   5.741   4.764
10263SOL     OW31687   4.917   1.238   6.025
10263SOL    HW131688   4.957   1.330   6.033
10263SOL    HW231689   4.831   1.244   5.974
10264SOL     OW31690   6.363   1.606   6.805
10264SOL    HW131691   6.422   1.630   6.883
10264SOL    HW231692   6.269   1.633   6.826
10265SOL     OW31693   3.456   2.111   2.906
10265SOL    HW131694   3.416   2.034   2.857
10265SOL    HW231695   3.505   2.170   2.842
10266SOL     OW31696   3.349   3.145   5.539
10266SOL    HW131697   3.309   3.226   5.581
10266SOL    HW231698   3.328   3.144   5.441
10267SOL     OW31699   6.367   1.852   6.683
10267SOL    HW131700   6.350   1.778   6.748
10267SOL    HW231701   6.464   1.855   6.661
10268SOL     OW31702   4.762   6.456   1.547
10268SOL    HW131703   4.719   6.530   1.599
10268SOL    HW231704   4.849   6.488   1.510
10269SOL     OW31705   1.834   1.676   5.372
10269SOL    HW131706   1.904   1.629   5.319
10269SOL    HW231707   1.743   1.647   5.340
10270SOL     OW31708   2.073   5.797   2.064
10270SOL    HW131709   2.150   5.846   2.023
10270SOL    HW231710   2.001   5.862   2.088
10271SOL     OW31711   3.122   3.450   0.545
10271SOL    HW131712   3.155   3.379   0.606
10271SOL    HW231713   3.179   3.454   0.463
10272SOL     OW31714   1.143   0.955   4.398
10272SOL    HW131715   1.143   0.888   4.323
10272SOL    HW231716   1.235   0.962   4.436
10273SOL     OW31717   4.183   5.909   3.805
10273SOL    HW131718   4.222   5.838   3.864
10273SOL    HW231719   4.091   5.882   3.776
10274SOL     OW31720   1.490   4.408   5.780
10274SOL    HW131721   1.479   4.500   5.742
10274SOL    HW231722   1.529   4.348   5.710
10275SOL     OW31723   1.429   0.190   2.289
10275SOL    HW131724   1.366   0.267   2.286
10275SOL    HW231725   1.487   0.191   2.207
10276SOL     OW31726   6.829   5.436   6.481
10276SOL    HW131727   6.768   5.491   6.538
10276SOL    HW231728   6.845   5.348   6.525
10277SOL     OW31729   2.479   6.583   3.852
10277SOL    HW131730   2.434   6.525   3.785
10277SOL    HW231731   2.575   6.595   3.826
10278SOL     OW31732   5.731   0.765   5.313
10278SOL    HW131733   5.814   0.796   5.359
10278SOL    HW231734   5.662   0.741   5.382
10279SOL     OW31735   3.168   0.341   3.819
10279SOL    HW131736   3.223   0.302   3.745
10279SOL    HW231737   3.174   0.441   3.816
10280SOL     OW31738   2.701   4.312   1.051
10280SOL    HW131739   2.754   4.388   1.089
10280SOL    HW231740   2.626   4.290   1.113
10281SOL     OW31741   5.478   2.351   2.745
10281SOL    HW131742   5.515   2.350   2.838
10281SOL    HW231743   5.439   2.441   2.726
10282SOL     OW31744   6.525   3.485   4.085
10282SOL    HW131745   6.498   3.392   4.061
10282SOL    HW231746   6.618   3.502   4.055
10283SOL     OW31747   1.011   2.833   0.944
10283SOL    HW131748   0.950   2.908   0.968
10283SOL    HW231749   1.020   2.827   0.845
10284SOL     OW31750   5.199   4.691   5.751
10284SOL    HW131751   5.254   4.763   5.709
10284SOL    HW231752   5.259   4.625   5.797
10285SOL     OW31753   4.946   0.050   1.720
10285SOL    HW131754   4.952   0.111   1.642
10285SOL    HW231755   4.854   0.051   1.757
10286SOL     OW31756   3.117   1.740   3.809
10286SOL    HW131757   3.026   1.774   3.832
10286SOL    HW231758   3.170   1.727   3.892
10287SOL     OW31759   1.692   6.857   2.261
10287SOL    HW131760   1.709   6.956   2.258
10287SOL    HW231761   1.755   6.810   2.199
10288SOL     OW31762   4.745   6.089   2.147
10288SOL    HW131763   4.784   6.036   2.072
10288SOL    HW231764   4.669   6.144   2.113
10289SOL     OW31765   3.414   0.822   1.302
10289SOL    HW131766   3.398   0.894   1.370
10289SOL    HW231767   3.449   0.864   1.217
10290SOL     OW31768   3.741   4.115   2.910
10290SOL    HW131769   3.647   4.119   2.942
10290SOL    HW231770   3.761   4.196   2.854
10291SOL     OW31771   4.077   0.293   4.002
10291SOL    HW131772   4.057   0.243   3.918
10291SOL    HW231773   3.992   0.308   4.052
10292SOL     OW31774   0.884   1.928   4.655
10292SOL    HW131775   0.825   1.913   4.734
10292SOL    HW231776   0.854   1.869   4.580
10293SOL     OW31777   1.691   5.734   2.994
10293SOL    HW131778   1.697   5.811   3.058
10293SOL    HW231779   1.744   5.657   3.029
10294SOL     OW31780   4.788   3.082   3.378
10294SOL    HW131781   4.838   3.150   3.432
10294SOL    HW231782   4.712   3.127   3.331
10295SOL     OW31783   5.838   4.744   5.359
10295SOL    HW131784   5.849   4.693   5.444
10295SOL    HW231785   5.921   4.797   5.341
10296SOL     OW31786   5.248   4.466   6.326
10296SOL    HW131787   5.312   4.388   6.331
10296SOL    HW231788   5.157   4.432   6.304
10297SOL     OW31789   2.394   6.695   4.550
10297SOL    HW131790   2.374   6.645   4.465
10297SOL    HW231791   2.311   6.741   4.582
10298SOL     OW31792   4.258   4.708   3.436
10298SOL    HW131793   4.257   4.806   3.418
10298SOL    HW231794   4.242   4.659   3.350
10299SOL     OW31795   4.125   4.931   3.118
10299SOL    HW131796   4.190   4.981   3.175
10299SOL    HW231797   4.168   4.849   3.082
10300SOL     OW31798   1.625   4.451   2.136
10300SOL    HW131799   1.708   4.505   2.125
10300SOL    HW231800   1.565   4.495   2.203
10301SOL     OW31801   5.718   2.278   2.644
10301SOL    HW131802   5.630   2.299   2.687
10301SOL    HW231803   5.722   2.324   2.555
10302SOL     OW31804   1.141   5.979   3.236
10302SOL    HW131805   1.238   5.982   3.259
10302SOL    HW231806   1.108   6.072   3.220
10303SOL     OW31807   4.108   4.286   1.058
10303SOL    HW131808   4.126   4.252   0.966
10303SOL    HW231809   4.184   4.345   1.087
10304SOL     OW31810   5.935   0.813   3.865
10304SOL    HW131811   5.861   0.747   3.877
10304SOL    HW231812   5.922   0.890   3.927
10305SOL     OW31813   1.294   6.139   6.760
10305SOL    HW131814   1.275   6.051   6.718
10305SOL    HW231815   1.242   6.147   6.845
10306SOL     OW31816   4.688   5.704   6.695
10306SOL    HW131817   4.731   5.741   6.613
10306SOL    HW231818   4.618   5.637   6.669
10307SOL     OW31819   1.850   1.949   5.396
10307SOL    HW131820   1.860   1.850   5.398
10307SOL    HW231821   1.864   1.983   5.303
10308SOL     OW31822   3.224   5.288   4.378
10308SOL    HW131823   3.231   5.356   4.451
10308SOL    HW231824   3.133   5.293   4.336
10309SOL     OW31825   6.392   0.262   3.612
10309SOL    HW131826   6.391   0.272   3.513
10309SOL    HW231827   6.454   0.188   3.637
10310SOL     OW31828   3.213   3.794   1.469
10310SOL    HW131829   3.234   3.828   1.377
10310SOL    HW231830   3.114   3.796   1.483
10311SOL     OW31831   0.580   5.620   1.293
10311SOL    HW131832   0.532   5.688   1.238
10311SOL    HW231833   0.539   5.530   1.280
10312SOL     OW31834   3.616   5.366   1.218
10312SOL    HW131835   3.623   5.426   1.297
10312SOL    HW231836   3.707   5.334   1.193
10313SOL     OW31837   3.985   6.905   2.093
10313SOL    HW131838   4.055   6.856   2.145
10313SOL    HW231839   3.920   6.947   2.156
10314SOL     OW31840   6.457   0.675   1.271
10314SOL    HW131841   6.411   0.705   1.354
10314SOL    HW231842   6.419   0.724   1.192
10315SOL     OW31843   6.846   6.419   4.989
10315SOL    HW131844   6.866   6.375   4.902
10315SOL    HW231845   6.789   6.500   4.974
10316SOL     OW31846   6.931   3.043   4.299
10316SOL    HW131847   7.007   3.084   4.248
10316SOL    HW231848   6.878   3.115   4.342
10317SOL     OW31849   3.984   4.508   6.249
10317SOL    HW131850   3.959   4.591   6.198
10317SOL    HW231851   3.929   4.431   6.217
10318SOL     OW31852   6.252   5.789   1.602
10318SOL    HW131853   6.346   5.768   1.629
10318SOL    HW231854   6.207   5.705   1.571
10319SOL     OW31855   0.534   4.997   4.826
10319SOL    HW131856   0.627   4.979   4.857
10319SOL    HW231857   0.503   5.085   4.863
10320SOL     OW31858   0.772   0.944   0.675
10320SOL    HW131859   0.835   0.915   0.747
10320SOL    HW231860   0.679   0.919   0.701
10321SOL     OW31861   4.006   6.320   4.474
10321SOL    HW131862   3.984   6.235   4.426
10321SOL    HW231863   4.013   6.395   4.408
10322SOL     OW31864   6.658   5.834   0.560
10322SOL    HW131865   6.628   5.746   0.595
10322SOL    HW231866   6.687   5.824   0.465
10323SOL     OW31867   6.442   3.199   6.593
10323SOL    HW131868   6.371   3.265   6.617
10323SOL    HW231869   6.419   3.155   6.507
10324SOL     OW31870   3.057   3.170   3.612
10324SOL    HW131871   3.065   3.093   3.549
10324SOL    HW231872   3.115   3.245   3.581
10325SOL     OW31873   6.884   4.483   4.169
10325SOL    HW131874   6.918   4.546   4.099
10325SOL    HW231875   6.802   4.520   4.211
10326SOL     OW31876   4.746   2.606   6.864
10326SOL    HW131877   4.827   2.658   6.834
10326SOL    HW231878   4.735   2.617   6.963
10327SOL     OW31879   2.392   1.547   3.042
10327SOL    HW131880   2.400   1.639   3.078
10327SOL    HW231881   2.431   1.543   2.950
10328SOL     OW31882   5.618   3.880   2.006
10328SOL    HW131883   5.664   3.792   2.017
10328SOL    HW231884   5.528   3.876   2.048
10329SOL     OW31885   2.465   0.737   4.069
10329SOL    HW131886   2.384   0.768   4.020
10329SOL    HW231887   2.546   0.751   4.012
10330SOL     OW31888   3.287   4.964   3.456
10330SOL    HW131889   3.254   4.958   3.362
10330SOL    HW231890   3.356   5.036   3.462
10331SOL     OW31891   5.772   0.850   2.930
10331SOL    HW131892   5.797   0.836   2.834
10331SOL    HW231893   5.675   0.830   2.943
10332SOL     OW31894   6.943   2.284   0.727
10332SOL    HW131895   6.902   2.196   0.747
10332SOL    HW231896   6.935   2.304   0.629
10333SOL     OW31897   5.885   4.527   4.059
10333SOL    HW131898   5.906   4.486   3.971
10333SOL    HW231899   5.942   4.485   4.130
10334SOL     OW31900   2.179   5.363   3.773
10334SOL    HW131901   2.276   5.386   3.778
10334SOL    HW231902   2.143   5.349   3.866
10335SOL     OW31903   1.971   4.548   0.078
10335SOL    HW131904   2.065   4.579   0.094
10335SOL    HW231905   1.935   4.593   7.021
10336SOL     OW31906   4.666   6.280   2.690
10336SOL    HW131907   4.681   6.248   2.597
10336SOL    HW231908   4.740   6.248   2.749
10337SOL     OW31909   6.927   5.087   5.232
10337SOL    HW131910   7.015   5.059   5.192
10337SOL    HW231911   6.880   5.148   5.170
10338SOL     OW31912   3.211   6.841   0.805
10338SOL    HW131913   3.288   6.900   0.782
10338SOL    HW231914   3.234   6.785   0.885
10339SOL     OW31915   3.863   5.157   0.638
10339SOL    HW131916   3.801   5.086   0.606
10339SOL    HW231917   3.823   5.203   0.718
10340SOL     OW31918   1.840   5.759   6.908
10340SOL    HW131919   1.744   5.737   6.889
10340SOL    HW231920   1.882   5.685   6.960
10341SOL     OW31921   2.210   2.849   1.959
10341SOL    HW131922   2.266   2.888   1.886
10341SOL    HW231923   2.180   2.757   1.934
10342SOL     OW31924   1.961   6.432   6.465
10342SOL    HW131925   1.892   6.369   6.499
10342SOL    HW231926   2.032   6.382   6.415
10343SOL     OW31927   2.103   4.070   0.021
10343SOL    HW131928   2.111   4.084   6.947
10343SOL    HW231929   2.084   4.158   0.065
10344SOL     OW31930   4.101   3.635   4.364
10344SOL    HW131931   4.051   3.650   4.279
10344SOL    HW231932   4.194   3.605   4.343
10345SOL     OW31933   2.030   1.474   6.765
10345SOL    HW131934   1.982   1.559   6.790
10345SOL    HW231935   1.964   1.408   6.729
10346SOL     OW31936   5.701   0.331   0.819
10346SOL    HW131937   5.781   0.281   0.785
10346SOL    HW231938   5.727   0.386   0.898
10347SOL     OW31939   5.037   1.460   0.653
10347SOL    HW131940   4.988   1.387   0.701
10347SOL    HW231941   5.000   1.470   0.561
10348SOL     OW31942   6.552   0.543   6.182
10348SOL    HW131943   6.571   0.614   6.114
10348SOL    HW231944   6.560   0.581   6.274
10349SOL     OW31945   5.768   0.500   1.033
10349SOL    HW131946   5.749   0.557   1.113
10349SOL    HW231947   5.865   0.474   1.032
10350SOL     OW31948   3.349   5.896   4.531
10350SOL    HW131949   3.338   5.807   4.575
10350SOL    HW231950   3.264   5.920   4.484
10351SOL     OW31951   6.285   4.777   5.287
10351SOL    HW131952   6.361   4.841   5.292
10351SOL    HW231953   6.224   4.792   5.365
10352SOL     OW31954   5.372   2.321   6.454
10352SOL    HW131955   5.303   2.349   6.387
10352SOL    HW231956   5.347   2.234   6.494
10353SOL     OW31957   0.361   2.877   3.742
10353SOL    HW131958   0.289   2.808   3.740
10353SOL    HW231959   0.320   2.968   3.730
10354SOL     OW31960   0.700   4.244   0.980
10354SOL    HW131961   0.629   4.192   1.027
10354SOL    HW231962   0.775   4.263   1.044
10355SOL     OW31963   1.282   1.552   1.483
10355SOL    HW131964   1.225   1.470   1.497
10355SOL    HW231965   1.259   1.620   1.553
10356SOL     OW31966   0.230   3.121   0.053
10356SOL    HW131967   0.191   3.147   0.142
10356SOL    HW231968   0.156   3.097   7.015
10357SOL     OW31969   1.853   2.371   6.334
10357SOL    HW131970   1.800   2.321   6.403
10357SOL    HW231971   1.944   2.392   6.370
10358SOL     OW31972   1.846   2.992   2.636
10358SOL    HW131973   1.795   2.916   2.597
10358SOL    HW231974   1.884   2.965   2.724
10359SOL     OW31975   4.908   2.536   2.198
10359SOL    HW131976   4.884   2.442   2.222
10359SOL    HW231977   4.825   2.587   2.176
10360SOL     OW31978   5.311   5.060   3.284
10360SOL    HW131979   5.304   5.070   3.185
10360SOL    HW231980   5.281   5.144   3.329
10361SOL     OW31981   2.374   1.128   1.682
10361SOL    HW131982   2.449   1.193   1.691
10361SOL    HW231983   2.301   1.152   1.746
10362SOL     OW31984   0.265   5.064   2.200
10362SOL    HW131985   0.307   5.122   2.270
10362SOL    HW231986   0.174   5.037   2.231
10363SOL     OW31987   4.163   2.890   0.063
10363SOL    HW131988   4.248   2.851   0.098
10363SOL    HW231989   4.157   2.874   6.989
10364SOL     OW31990   5.472   5.553   0.905
10364SOL    HW131991   5.480   5.613   0.984
10364SOL    HW231992   5.528   5.471   0.919
10365SOL     OW31993   5.848   5.233   0.132
10365SOL    HW131994   5.842   5.333   0.138
10365SOL    HW231995   5.851   5.194   0.224
10366SOL     OW31996   4.538   0.101   3.511
10366SOL    HW131997   4.521   0.116   3.414
10366SOL    HW231998   4.591   0.177   3.548
10367SOL     OW31999   6.544   2.026   2.301
10367SOL    HW132000   6.445   2.022   2.313
10367SOL    HW232001   6.573   2.122   2.303
10368SOL     OW32002   2.912   0.920   1.963
10368SOL    HW132003   2.817   0.922   1.934
10368SOL    HW232004   2.946   1.014   1.974
10369SOL     OW32005   2.705   6.666   5.927
10369SOL    HW132006   2.670   6.669   6.020
10369SOL    HW232007   2.646   6.720   5.867
10370SOL     OW32008   6.285   1.617   4.501
10370SOL    HW132009   6.321   1.586   4.413
10370SOL    HW232010   6.299   1.715   4.511
10371SOL     OW32011   3.418   6.644   3.407
10371SOL    HW132012   3.463   6.664   3.494
10371SOL    HW232013   3.385   6.549   3.408
10372SOL     OW32014   2.923   0.858   1.407
10372SOL    HW132015   2.834   0.812   1.408
10372SOL    HW232016   2.925   0.928   1.478
10373SOL     OW32017   0.384   0.054   4.675
10373SOL    HW132018   0.428   7.003   4.626
10373SOL    HW232019   0.449   0.093   4.741
10374SOL     OW32020   2.576   6.843   4.333
10374SOL    HW132021   2.480   6.849   4.360
10374SOL    HW232022   2.598   6.916   4.269
10375SOL     OW32023   3.155   1.855   6.331
10375SOL    HW132024   3.120   1.800   6.407
10375SOL    HW232025   3.225   1.803   6.283
10376SOL     OW32026   1.656   6.225   3.772
10376SOL    HW132027   1.745   6.271   3.778
10376SOL    HW232028   1.671   6.128   3.750
10377SOL     OW32029   0.659   1.909   1.681
10377SOL    HW132030   0.560   1.898   1.689
10377SOL    HW232031   0.704   1.860   1.755
10378SOL     OW32032   0.055   5.832   5.824
10378SOL    HW132033   7.012   5.813   5.753
10378SOL    HW232034   0.085   5.927   5.816
10379SOL     OW32035   2.905   5.997   4.141
10379SOL    HW132036   2.964   5.916   4.132
10379SOL    HW232037   2.917   6.056   4.061
10380SOL     OW32038   1.249   1.789   4.778
10380SOL    HW132039   1.277   1.801   4.874
10380SOL    HW232040   1.191   1.865   4.750
10381SOL     OW32041   3.828   4.373   0.688
10381SOL    HW132042   3.901   4.313   0.656
10381SOL    HW232043   3.767   4.394   0.612
10382SOL     OW32044   3.198   6.055   1.708
10382SOL    HW132045   3.169   6.046   1.613
10382SOL    HW232046   3.145   5.991   1.765
10383SOL     OW32047   1.954   3.844   0.702
10383SOL    HW132048   2.010   3.800   0.772
10383SOL    HW232049   1.918   3.775   0.640
10384SOL     OW32050   6.324   6.365   0.943
10384SOL    HW132051   6.311   6.266   0.941
10384SOL    HW232052   6.421   6.386   0.929
10385SOL     OW32053   3.754   5.546   5.771
10385SOL    HW132054   3.784   5.522   5.679
10385SOL    HW232055   3.690   5.477   5.805
10386SOL     OW32056   0.299   0.982   5.650
10386SOL    HW132057   0.314   0.892   5.691
10386SOL    HW232058   0.358   1.049   5.696
10387SOL     OW32059   5.260   2.941   3.229
10387SOL    HW132060   5.204   2.871   3.184
10387SOL    HW232061   5.209   2.981   3.305
10388SOL     OW32062   2.613   6.925   0.718
10388SOL    HW132063   2.679   6.944   0.645
10388SOL    HW232064   2.618   6.828   0.742
10389SOL     OW32065   5.644   3.481   6.923
10389SOL    HW132066   5.548   3.506   6.940
10389SOL    HW232067   5.659   3.473   6.824
10390SOL     OW32068   1.650   2.578   0.498
10390SOL    HW132069   1.598   2.552   0.417
10390SOL    HW232070   1.651   2.502   0.563
10391SOL     OW32071   1.576   6.286   4.084
10391SOL    HW132072   1.656   6.228   4.071
10391SOL    HW232073   1.590   6.374   4.039
10392SOL     OW32074   6.087   5.113   5.598
10392SOL    HW132075   5.989   5.113   5.617
10392SOL    HW232076   6.138   5.121   5.684
10393SOL     OW32077   1.744   3.834   3.783
10393SOL    HW132078   1.663   3.889   3.804
10393SOL    HW232079   1.822   3.867   3.837
10394SOL     OW32080   2.647   6.024   4.324
10394SOL    HW132081   2.548   6.015   4.308
10394SOL    HW232082   2.693   6.041   4.237
10395SOL     OW32083   0.388   6.537   1.488
10395SOL    HW132084   0.302   6.532   1.539
10395SOL    HW232085   0.378   6.493   1.399
10396SOL     OW32086   3.862   1.863   3.837
10396SOL    HW132087   3.850   1.854   3.936
10396SOL    HW232088   3.810   1.790   3.791
10397SOL     OW32089   3.286   1.577   3.657
10397SOL    HW132090   3.242   1.657   3.698
10397SOL    HW232091   3.356   1.541   3.719
10398SOL     OW32092   5.833   2.363   0.913
10398SOL    HW132093   5.814   2.446   0.965
10398SOL    HW232094   5.921   2.324   0.942
10399SOL     OW32095   5.133   2.209   3.404
10399SOL    HW132096   5.071   2.288   3.408
10399SOL    HW232097   5.177   2.207   3.314
10400SOL     OW32098   4.466   6.375   0.271
10400SOL    HW132099   4.371   6.347   0.286
10400SOL    HW232100   4.526   6.324   0.332
10401SOL     OW32101   6.481   6.651   2.682
10401SOL    HW132102   6.550   6.690   2.743
10401SOL    HW232103   6.479   6.703   2.596
10402SOL     OW32104   6.448   2.375   5.405
10402SOL    HW132105   6.420   2.423   5.488
10402SOL    HW232106   6.448   2.439   5.328
10403SOL     OW32107   4.756   1.602   3.499
10403SOL    HW132108   4.847   1.584   3.537
10403SOL    HW232109   4.691   1.536   3.535
10404SOL     OW32110   6.230   6.357   4.752
10404SOL    HW132111   6.156   6.407   4.709
10404SOL    HW232112   6.298   6.422   4.786
10405SOL     OW32113   0.974   0.096   5.034
10405SOL    HW132114   0.908   0.160   5.073
10405SOL    HW232115   1.067   0.124   5.059
10406SOL     OW32116   2.575   4.569   3.402
10406SOL    HW132117   2.645   4.614   3.347
10406SOL    HW232118   2.591   4.590   3.499
10407SOL     OW32119   2.516   6.660   6.144
10407SOL    HW132120   2.421   6.683   6.122
10407SOL    HW232121   2.518   6.587   6.212
10408SOL     OW32122   4.597   0.571   1.935
10408SOL    HW132123   4.692   0.596   1.913
10408SOL    HW232124   4.590   0.471   1.940
10409SOL     OW32125   0.425   4.493   1.014
10409SOL    HW132126   0.398   4.503   0.918
10409SOL    HW232127   0.369   4.423   1.057
10410SOL     OW32128   5.232   2.004   1.541
10410SOL    HW132129   5.309   1.949   1.507
10410SOL    HW232130   5.255   2.041   1.631
10411SOL     OW32131   3.327   6.400   3.471
10411SOL    HW132132   3.282   6.324   3.425
10411SOL    HW232133   3.426   6.384   3.475
10412SOL     OW32134   0.160   0.906   0.125
10412SOL    HW132135   0.222   0.985   0.127
10412SOL    HW232136   0.173   0.857   0.039
10413SOL     OW32137   6.923   3.288   0.662
10413SOL    HW132138   6.982   3.309   0.585
10413SOL    HW232139   6.971   3.305   0.747
10414SOL     OW32140   3.910   4.463   5.908
10414SOL    HW132141   4.004   4.492   5.929
10414SOL    HW232142   3.859   4.452   5.994
10415SOL     OW32143   1.617   3.625   4.473
10415SOL    HW132144   1.679   3.679   4.531
10415SOL    HW232145   1.562   3.565   4.531
10416SOL     OW32146   5.828   0.132   5.017
10416SOL    HW132147   5.757   0.065   5.037
10416SOL    HW232148   5.828   0.152   4.919
10417SOL     OW32149   3.038   5.502   4.605
10417SOL    HW132150   3.045   5.415   4.654
10417SOL    HW232151   3.128   5.545   4.600
10418SOL     OW32152   0.075   4.263   6.790
10418SOL    HW132153   0.144   4.224   6.851
10418SOL    HW232154   7.025   4.301   6.844
10419SOL     OW32155   2.082   0.119   6.033
10419SOL    HW132156   1.992   0.081   6.012
10419SOL    HW232157   2.149   0.086   5.966
10420SOL     OW32158   0.288   3.631   3.551
10420SOL    HW132159   0.270   3.704   3.485
10420SOL    HW232160   0.255   3.659   3.641
10421SOL     OW32161   0.482   1.870   3.693
10421SOL    HW132162   0.540   1.862   3.611
10421SOL    HW232163   0.402   1.926   3.672
10422SOL     OW32164   6.557   3.209   5.099
10422SOL    HW132165   6.657   3.198   5.098
10422SOL    HW232166   6.533   3.296   5.055
10423SOL     OW32167   6.455   5.730   4.948
10423SOL    HW132168   6.544   5.765   4.974
10423SOL    HW232169   6.444   5.738   4.848
10424SOL     OW32170   4.969   3.212   0.563
10424SOL    HW132171   4.881   3.189   0.606
10424SOL    HW232172   4.954   3.235   0.467
10425SOL     OW32173   0.764   0.597   1.745
10425SOL    HW132174   0.731   0.583   1.652
10425SOL    HW232175   0.863   0.584   1.748
10426SOL     OW32176   6.088   5.010   0.663
10426SOL    HW132177   6.182   4.983   0.684
10426SOL    HW232178   6.043   5.040   0.747
10427SOL     OW32179   3.822   0.389   6.406
10427SOL    HW132180   3.826   0.307   6.350
10427SOL    HW232181   3.731   0.398   6.447
10428SOL     OW32182   3.600   0.826   3.624
10428SOL    HW132183   3.565   0.756   3.562
10428SOL    HW232184   3.613   0.786   3.715
10429SOL     OW32185   6.996   4.907   0.760
10429SOL    HW132186   0.022   4.925   0.845
10429SOL    HW232187   0.025   4.940   0.682
10430SOL     OW32188   5.136   0.083   4.323
10430SOL    HW132189   5.187   0.113   4.403
10430SOL    HW232190   5.146   7.008   4.313
10431SOL     OW32191   3.316   6.126   4.190
10431SOL    HW132192   3.373   6.089   4.116
10431SOL    HW232193   3.355   6.102   4.278
10432SOL     OW32194   5.528   6.703   4.962
10432SOL    HW132195   5.582   6.787   4.961
10432SOL    HW232196   5.513   6.671   4.868
10433SOL     OW32197   1.460   6.291   1.215
10433SOL    HW132198   1.368   6.314   1.184
10433SOL    HW232199   1.501   6.370   1.260
10434SOL     OW32200   4.161   6.677   3.241
10434SOL    HW132201   4.204   6.723   3.162
10434SOL    HW232202   4.152   6.743   3.316
10435SOL     OW32203   6.730   0.204   4.751
10435SOL    HW132204   6.804   0.138   4.737
10435SOL    HW232205   6.767   0.290   4.785
10436SOL     OW32206   0.680   5.168   5.659
10436SOL    HW132207   0.738   5.104   5.709
10436SOL    HW232208   0.616   5.116   5.602
10437SOL     OW32209   5.408   5.117   5.762
10437SOL    HW132210   5.491   5.148   5.714
10437SOL    HW232211   5.329   5.169   5.729
10438SOL     OW32212   6.280   6.480   0.682
10438SOL    HW132213   6.267   6.417   0.758
10438SOL    HW232214   6.255   6.573   0.710
10439SOL     OW32215   4.462   1.007   6.034
10439SOL    HW132216   4.419   1.077   5.977
10439SOL    HW232217   4.391   0.955   6.082
10440SOL     OW32218   1.133   6.893   0.671
10440SOL    HW132219   1.182   6.938   0.745
10440SOL    HW232220   1.100   6.962   0.607
10441SOL     OW32221   3.779   0.352   0.688
10441SOL    HW132222   3.852   0.303   0.640
10441SOL    HW232223   3.727   0.287   0.744
10442SOL     OW32224   3.012   6.179   6.083
10442SOL    HW132225   2.976   6.169   6.176
10442SOL    HW232226   3.076   6.256   6.081
10443SOL     OW32227   5.163   3.926   4.583
10443SOL    HW132228   5.102   3.982   4.528
10443SOL    HW232229   5.202   3.854   4.526
10444SOL     OW32230   3.470   5.811   4.791
10444SOL    HW132231   3.468   5.878   4.866
10444SOL    HW232232   3.553   5.756   4.798
10445SOL     OW32233   0.709   5.262   4.758
10445SOL    HW132234   0.758   5.336   4.712
10445SOL    HW232235   0.774   5.193   4.789
10446SOL     OW32236   1.312   2.809   4.934
10446SOL    HW132237   1.221   2.820   4.972
10446SOL    HW232238   1.340   2.892   4.888
10447SOL     OW32239   7.000   1.088   2.010
10447SOL    HW132240   0.036   1.156   1.969
10447SOL    HW232241   6.920   1.134   2.050
10448SOL     OW32242   3.536   1.253   2.198
10448SOL    HW132243   3.563   1.160   2.173
10448SOL    HW232244   3.447   1.251   2.242
10449SOL     OW32245   2.049   5.603   4.839
10449SOL    HW132246   1.981   5.534   4.812
10449SOL    HW232247   2.040   5.620   4.937
10450SOL     OW32248   0.417   2.122   0.544
10450SOL    HW132249   0.487   2.161   0.484
10450SOL    HW232250   0.329   2.124   0.497
10451SOL     OW32251   1.943   5.246   2.439
10451SOL    HW132252   1.949   5.263   2.340
10451SOL    HW232253   1.865   5.295   2.477
10452SOL     OW32254   6.217   3.902   2.669
10452SOL    HW132255   6.184   3.955   2.746
10452SOL    HW232256   6.140   3.876   2.611
10453SOL     OW32257   4.114   5.616   1.458
10453SOL    HW132258   4.170   5.614   1.540
10453SOL    HW232259   4.058   5.699   1.458
10454SOL     OW32260   4.294   3.449   0.644
10454SOL    HW132261   4.381   3.402   0.660
10454SOL    HW232262   4.219   3.391   0.676
10455SOL     OW32263   6.931   5.398   2.675
10455SOL    HW132264   6.865   5.325   2.660
10455SOL    HW232265   6.885   5.478   2.714
10456SOL     OW32266   3.275   6.090   0.944
10456SOL    HW132267   3.367   6.118   0.973
10456SOL    HW232268   3.208   6.122   1.012
10457SOL     OW32269   3.403   3.707   2.136
10457SOL    HW132270   3.343   3.627   2.134
10457SOL    HW232271   3.454   3.712   2.050
10458SOL     OW32272   0.257   1.110   5.994
10458SOL    HW132273   0.203   1.096   5.910
10458SOL    HW232274   0.195   1.123   6.071
10459SOL     OW32275   4.810   5.482   2.471
10459SOL    HW132276   4.864   5.428   2.536
10459SOL    HW232277   4.720   5.440   2.461
10460SOL     OW32278   1.360   4.958   1.307
10460SOL    HW132279   1.423   4.900   1.256
10460SOL    HW232280   1.394   4.969   1.401
10461SOL     OW32281   1.263   5.198   5.429
10461SOL    HW132282   1.323   5.217   5.507
10461SOL    HW232283   1.180   5.253   5.436
10462SOL     OW32284   6.076   1.485   3.316
10462SOL    HW132285   6.127   1.424   3.255
10462SOL    HW232286   6.081   1.452   3.410
10463SOL     OW32287   3.882   3.126   5.573
10463SOL    HW132288   3.836   3.169   5.495
10463SOL    HW232289   3.932   3.196   5.625
10464SOL     OW32290   5.864   6.363   1.325
10464SOL    HW132291   5.902   6.330   1.411
10464SOL    HW232292   5.938   6.394   1.265
10465SOL     OW32293   6.447   6.382   1.533
10465SOL    HW132294   6.369   6.386   1.595
10465SOL    HW232295   6.415   6.398   1.439
10466SOL     OW32296   4.724   4.924   5.396
10466SOL    HW132297   4.718   5.023   5.385
10466SOL    HW232298   4.811   4.901   5.441
10467SOL     OW32299   1.139   1.897   5.428
10467SOL    HW132300   1.127   1.958   5.507
10467SOL    HW232301   1.185   1.813   5.458
10468SOL     OW32302   3.765   4.872   2.952
10468SOL    HW132303   3.783   4.833   3.043
10468SOL    HW232304   3.833   4.838   2.888
10469SOL     OW32305   3.719   2.666   6.374
10469SOL    HW132306   3.644   2.723   6.409
10469SOL    HW232307   3.800   2.722   6.359
10470SOL     OW32308   2.865   1.918   2.968
10470SOL    HW132309   2.964   1.928   2.963
10470SOL    HW232310   2.842   1.821   2.976
10471SOL     OW32311   2.134   2.923   1.020
10471SOL    HW132312   2.142   2.844   0.958
10471SOL    HW232313   2.190   2.998   0.986
10472SOL     OW32314   2.780   5.479   1.071
10472SOL    HW132315   2.819   5.408   1.011
10472SOL    HW232316   2.849   5.547   1.091
10473SOL     OW32317   5.790   0.753   0.249
10473SOL    HW132318   5.697   0.762   0.212
10473SOL    HW232319   5.839   0.680   0.200
10474SOL     OW32320   4.523   1.496   4.947
10474SOL    HW132321   4.558   1.587   4.972
10474SOL    HW232322   4.539   1.433   5.023
10475SOL     OW32323   4.523   6.504   2.744
10475SOL    HW132324   4.500   6.552   2.659
10475SOL    HW232325   4.588   6.431   2.724
10476SOL     OW32326   6.893   5.718   6.746
10476SOL    HW132327   6.964   5.650   6.763
10476SOL    HW232328   6.881   5.775   6.827
10477SOL     OW32329   6.313   1.914   4.460
10477SOL    HW132330   6.225   1.925   4.507
10477SOL    HW232331   6.297   1.893   4.364
10478SOL     OW32332   0.309   0.692   1.171
10478SOL    HW132333   0.402   0.697   1.207
10478SOL    HW232334   0.244   0.686   1.246
10479SOL     OW32335   0.362   2.962   1.867
10479SOL    HW132336   0.405   2.900   1.802
10479SOL    HW232337   0.300   2.910   1.927
10480SOL     OW32338   5.878   0.430   1.373
10480SOL    HW132339   5.954   0.495   1.385
10480SOL    HW232340   5.793   0.481   1.360
10481SOL     OW32341   2.450   0.599   4.520
10481SOL    HW132342   2.410   0.640   4.602
10481SOL    HW232343   2.512   0.665   4.476
10482SOL     OW32344   0.720   5.682   4.953
10482SOL    HW132345   0.816   5.677   4.980
10482SOL    HW232346   0.710   5.649   4.859
10483SOL     OW32347   6.953   5.700   0.572
10483SOL    HW132348   0.006   5.647   0.541
10483SOL    HW232349   6.868   5.657   0.541
10484SOL     OW32350   5.807   0.868   1.333
10484SOL    HW132351   5.899   0.832   1.318
10484SOL    HW232352   5.806   0.966   1.310
10485SOL     OW32353   3.589   3.207   2.284
10485SOL    HW132354   3.544   3.160   2.208
10485SOL    HW232355   3.681   3.170   2.296
10486SOL     OW32356   6.545   0.290   5.866
10486SOL    HW132357   6.495   0.317   5.948
10486SOL    HW232358   6.483   0.290   5.788
10487SOL     OW32359   4.772   2.059   0.828
10487SOL    HW132360   4.768   2.008   0.915
10487SOL    HW232361   4.712   2.139   0.834
10488SOL     OW32362   1.852   1.918   6.135
10488SOL    HW132363   1.846   1.882   6.042
10488SOL    HW232364   1.822   2.013   6.136
10489SOL     OW32365   6.304   6.635   4.312
10489SOL    HW132366   6.304   6.628   4.212
10489SOL    HW232367   6.297   6.543   4.351
10490SOL     OW32368   5.964   1.351   0.733
10490SOL    HW132369   6.041   1.334   0.672
10490SOL    HW232370   5.981   1.307   0.821
10491SOL     OW32371   2.145   2.286   6.136
10491SOL    HW132372   2.186   2.201   6.104
10491SOL    HW232373   2.148   2.354   6.062
10492SOL     OW32374   4.348   5.587   1.088
10492SOL    HW132375   4.381   5.676   1.119
10492SOL    HW232376   4.366   5.519   1.158
10493SOL     OW32377   2.910   6.250   1.343
10493SOL    HW132378   2.819   6.279   1.374
10493SOL    HW232379   2.922   6.153   1.364
10494SOL     OW32380   6.282   4.172   5.808
10494SOL    HW132381   6.301   4.270   5.808
10494SOL    HW232382   6.184   4.157   5.793
10495SOL     OW32383   6.487   0.242   0.662
10495SOL    HW132384   6.571   0.219   0.612
10495SOL    HW232385   6.511   0.285   0.749
10496SOL     OW32386   6.434   4.605   4.882
10496SOL    HW132387   6.438   4.517   4.835
10496SOL    HW232388   6.437   4.591   4.981
10497SOL     OW32389   1.114   6.678   2.160
10497SOL    HW132390   1.113   6.774   2.187
10497SOL    HW232391   1.120   6.620   2.241
10498SOL     OW32392   5.941   6.110   1.082
10498SOL    HW132393   5.883   6.069   1.152
10498SOL    HW232394   6.037   6.096   1.105
10499SOL     OW32395   4.654   6.454   1.291
10499SOL    HW132396   4.699   6.455   1.380
10499SOL    HW232397   4.555   6.459   1.303
10500SOL     OW32398   5.587   2.299   5.862
10500SOL    HW132399   5.491   2.310   5.835
10500SOL    HW232400   5.631   2.233   5.801
10501SOL     OW32401   2.059   6.091   2.917
10501SOL    HW132402   2.046   6.133   2.827
10501SOL    HW232403   2.044   5.992   2.910
10502SOL     OW32404   2.852   3.990   1.056
10502SOL    HW132405   2.845   4.071   0.997
10502SOL    HW232406   2.881   3.911   1.002
10503SOL     OW32407   5.528   4.340   0.276
10503SOL    HW132408   5.555   4.348   0.372
10503SOL    HW232409   5.520   4.243   0.252
10504SOL     OW32410   0.397   2.415   5.407
10504SOL    HW132411   0.308   2.452   5.383
10504SOL    HW232412   0.437   2.367   5.329
10505SOL     OW32413   5.474   6.571   1.501
10505SOL    HW132414   5.461   6.619   1.588
10505SOL    HW232415   5.569   6.583   1.470
10506SOL     OW32416   0.360   3.539   0.385
10506SOL    HW132417   0.391   3.563   0.477
10506SOL    HW232418   0.274   3.586   0.365
10507SOL     OW32419   2.224   5.464   6.873
10507SOL    HW132420   2.197   5.453   6.777
10507SOL    HW232421   2.253   5.558   6.889
10508SOL     OW32422   0.956   5.406   4.255
10508SOL    HW132423   1.032   5.454   4.212
10508SOL    HW232424   0.886   5.387   4.186
10509SOL     OW32425   6.004   4.516   4.582
10509SOL    HW132426   6.074   4.553   4.643
10509SOL    HW232427   6.039   4.514   4.488
10510SOL     OW32428   4.629   6.570   0.452
10510SOL    HW132429   4.557   6.638   0.465
10510SOL    HW232430   4.593   6.479   0.472
10511SOL     OW32431   3.129   1.867   1.674
10511SOL    HW132432   3.093   1.829   1.760
10511SOL    HW232433   3.167   1.793   1.619
10512SOL     OW32434   4.074   6.813   5.872
10512SOL    HW132435   4.149   6.777   5.816
10512SOL    HW232436   3.987   6.796   5.826
10513SOL     OW32437   6.341   2.898   3.210
10513SOL    HW132438   6.317   2.955   3.132
10513SOL    HW232439   6.375   2.955   3.284
10514SOL     OW32440   1.273   1.731   1.738
10514SOL    HW132441   1.322   1.810   1.699
10514SOL    HW232442   1.338   1.668   1.779
10515SOL     OW32443   2.146   3.024   4.110
10515SOL    HW132444   2.163   3.105   4.053
10515SOL    HW232445   2.159   3.048   4.206
10516SOL     OW32446   2.748   1.598   0.209
10516SOL    HW132447   2.776   1.694   0.207
10516SOL    HW232448   2.738   1.565   0.115
10517SOL     OW32449   1.315   4.415   1.288
10517SOL    HW132450   1.356   4.483   1.349
10517SOL    HW232451   1.387   4.373   1.233
10518SOL     OW32452   0.060   6.026   1.812
10518SOL    HW132453   0.046   5.961   1.737
10518SOL    HW232454   0.032   5.984   1.898
10519SOL     OW32455   2.831   4.838   0.684
10519SOL    HW132456   2.785   4.897   0.618
10519SOL    HW232457   2.918   4.807   0.647
10520SOL     OW32458   0.114   1.926   5.969
10520SOL    HW132459   0.103   2.004   6.031
10520SOL    HW232460   0.193   1.871   5.997
10521SOL     OW32461   6.439   5.229   1.451
10521SOL    HW132462   6.351   5.190   1.423
10521SOL    HW232463   6.436   5.329   1.440
10522SOL     OW32464   0.294   2.728   2.902
10522SOL    HW132465   0.368   2.691   2.958
10522SOL    HW232466   0.210   2.732   2.956
10523SOL     OW32467   0.662   4.067   3.052
10523SOL    HW132468   0.633   3.990   3.109
10523SOL    HW232469   0.671   4.148   3.109
10524SOL     OW32470   0.751   5.850   3.997
10524SOL    HW132471   0.828   5.911   3.980
10524SOL    HW232472   0.742   5.833   4.095
10525SOL     OW32473   3.867   6.886   5.198
10525SOL    HW132474   3.900   6.978   5.177
10525SOL    HW232475   3.769   6.880   5.178
10526SOL     OW32476   0.757   6.828   1.559
10526SOL    HW132477   0.666   6.787   1.560
10526SOL    HW232478   0.794   6.831   1.652
10527SOL     OW32479   0.690   0.365   6.113
10527SOL    HW132480   0.747   0.431   6.064
10527SOL    HW232481   0.748   0.300   6.162
10528SOL     OW32482   0.948   4.295   6.377
10528SOL    HW132483   0.883   4.266   6.306
10528SOL    HW232484   0.898   4.343   6.449
10529SOL     OW32485   2.065   5.650   5.097
10529SOL    HW132486   1.988   5.617   5.152
10529SOL    HW232487   2.087   5.744   5.123
10530SOL     OW32488   1.040   5.901   6.055
10530SOL    HW132489   1.017   5.989   6.012
10530SOL    HW232490   1.053   5.832   5.984
10531SOL     OW32491   2.638   2.462   4.456
10531SOL    HW132492   2.708   2.441   4.524
10531SOL    HW232493   2.569   2.390   4.456
10532SOL     OW32494   6.826   6.717   6.637
10532SOL    HW132495   6.905   6.757   6.591
10532SOL    HW232496   6.795   6.780   6.709
10533SOL     OW32497   3.251   6.633   4.146
10533SOL    HW132498   3.344   6.652   4.115
10533SOL    HW232499   3.227   6.539   4.123
10534SOL     OW32500   6.802   5.302   1.893
10534SOL    HW132501   6.774   5.334   1.803
10534SOL    HW232502   6.862   5.370   1.935
10535SOL     OW32503   1.211   1.435   2.383
10535SOL    HW132504   1.305   1.465   2.396
10535SOL    HW232505   1.167   1.425   2.473
10536SOL     OW32506   4.645   6.939   3.881
10536SOL    HW132507   4.698   6.878   3.939
10536SOL    HW232508   4.631   6.897   3.791
10537SOL     OW32509   5.161   6.245   4.116
10537SOL    HW132510   5.195   6.324   4.064
10537SOL    HW232511   5.106   6.187   4.057
10538SOL     OW32512   6.216   3.942   1.941
10538SOL    HW132513   6.287   3.950   1.872
10538SOL    HW232514   6.258   3.930   2.031
10539SOL     OW32515   6.128   5.542   1.496
10539SOL    HW132516   6.041   5.495   1.483
10539SOL    HW232517   6.186   5.529   1.415
10540SOL     OW32518   2.357   3.874   5.734
10540SOL    HW132519   2.369   3.858   5.832
10540SOL    HW232520   2.261   3.898   5.716
10541SOL     OW32521   3.770   3.103   3.898
10541SOL    HW132522   3.756   3.048   3.816
10541SOL    HW232523   3.742   3.050   3.978
10542SOL     OW32524   6.694   0.128   5.178
10542SOL    HW132525   6.786   0.124   5.139
10542SOL    HW232526   6.689   0.201   5.246
10543SOL     OW32527   1.530   1.872   4.485
10543SOL    HW132528   1.487   1.951   4.527
10543SOL    HW232529   1.629   1.888   4.477
10544SOL     OW32530   2.363   6.219   3.239
10544SOL    HW132531   2.346   6.204   3.141
10544SOL    HW232532   2.280   6.253   3.282
10545SOL     OW32533   1.144   2.130   1.649
10545SOL    HW132534   1.076   2.141   1.721
10545SOL    HW232535   1.110   2.066   1.580
10546SOL     OW32536   3.417   6.443   1.065
10546SOL    HW132537   3.446   6.531   1.028
10546SOL    HW232538   3.367   6.457   1.151
10547SOL     OW32539   4.814   1.603   4.086
10547SOL    HW132540   4.905   1.636   4.108
10547SOL    HW232541   4.820   1.515   4.039
10548SOL     OW32542   0.121   3.724   4.188
10548SOL    HW132543   0.046   3.661   4.205
10548SOL    HW232544   0.208   3.677   4.207
10549SOL     OW32545   0.267   1.640   0.778
10549SOL    HW132546   0.355   1.598   0.797
10549SOL    HW232547   0.196   1.595   0.832
10550SOL     OW32548   4.233   6.782   3.530
10550SOL    HW132549   4.332   6.771   3.538
10550SOL    HW232550   4.187   6.700   3.566
10551SOL     OW32551   2.173   1.963   6.294
10551SOL    HW132552   2.195   1.871   6.262
10551SOL    HW232553   2.170   2.026   6.216
10552SOL     OW32554   2.445   0.762   4.778
10552SOL    HW132555   2.459   0.774   4.877
10552SOL    HW232556   2.356   0.800   4.752
10553SOL     OW32557   0.017   4.121   1.022
10553SOL    HW132558   0.034   4.035   1.070
10553SOL    HW232559   6.947   4.123   0.990
10554SOL     OW32560   5.504   5.440   2.611
10554SOL    HW132561   5.522   5.363   2.549
10554SOL    HW232562   5.590   5.481   2.640
10555SOL     OW32563   2.512   2.235   0.923
10555SOL    HW132564   2.542   2.237   0.828
10555SOL    HW232565   2.490   2.141   0.949
10556SOL     OW32566   2.785   1.085   3.824
10556SOL    HW132567   2.826   1.090   3.916
10556SOL    HW232568   2.858   1.075   3.756
10557SOL     OW32569   1.793   3.532   3.806
10557SOL    HW132570   1.748   3.619   3.825
10557SOL    HW232571   1.847   3.540   3.722
10558SOL     OW32572   3.950   5.745   5.778
10558SOL    HW132573   3.973   5.752   5.876
10558SOL    HW232574   3.871   5.686   5.767
10559SOL     OW32575   4.095   0.634   1.422
10559SOL    HW132576   4.133   0.724   1.401
10559SOL    HW232577   4.026   0.610   1.353
10560SOL     OW32578   4.412   6.583   2.506
10560SOL    HW132579   4.358   6.500   2.515
10560SOL    HW232580   4.463   6.581   2.420
10561SOL     OW32581   3.691   4.554   1.643
10561SOL    HW132582   3.657   4.520   1.556
10561SOL    HW232583   3.613   4.578   1.702
10562SOL     OW32584   4.404   5.795   0.431
10562SOL    HW132585   4.307   5.810   0.410
10562SOL    HW232586   4.420   5.697   0.445
10563SOL     OW32587   0.825   0.730   1.482
10563SOL    HW132588   0.818   0.661   1.409
10563SOL    HW232589   0.875   0.810   1.447
10564SOL     OW32590   5.964   6.756   3.741
10564SOL    HW132591   5.871   6.718   3.749
10564SOL    HW232592   5.961   6.854   3.761
10565SOL     OW32593   6.694   6.292   5.494
10565SOL    HW132594   6.664   6.249   5.579
10565SOL    HW232595   6.766   6.236   5.452
10566SOL     OW32596   3.198   1.969   6.592
10566SOL    HW132597   3.165   1.944   6.501
10566SOL    HW232598   3.194   1.890   6.652
10567SOL     OW32599   2.338   2.694   6.076
10567SOL    HW132600   2.240   2.714   6.078
10567SOL    HW232601   2.374   2.691   6.169
10568SOL     OW32602   5.995   2.518   0.263
10568SOL    HW132603   5.935   2.590   0.297
10568SOL    HW232604   5.942   2.436   0.244
10569SOL     OW32605   5.577   0.762   1.890
10569SOL    HW132606   5.595   0.856   1.921
10569SOL    HW232607   5.651   0.732   1.830
10570SOL     OW32608   1.855   4.712   3.507
10570SOL    HW132609   1.953   4.699   3.520
10570SOL    HW232610   1.808   4.694   3.594
10571SOL     OW32611   0.058   4.020   5.400
10571SOL    HW132612   0.145   4.023   5.449
10571SOL    HW232613   0.047   4.102   5.345
10572SOL     OW32614   0.362   5.209   2.390
10572SOL    HW132615   0.372   5.148   2.468
10572SOL    HW232616   0.347   5.303   2.422
10573SOL     OW32617   5.079   0.178   4.981
10573SOL    HW132618   5.052   0.083   4.969
10573SOL    HW232619   5.066   0.228   4.895
10574SOL     OW32620   6.858   1.636   3.615
10574SOL    HW132621   6.768   1.595   3.629
10574SOL    HW232622   6.918   1.613   3.692
10575SOL     OW32623   6.267   1.388   3.874
10575SOL    HW132624   6.262   1.288   3.865
10575SOL    HW232625   6.191   1.430   3.825
10576SOL     OW32626   1.191   5.384   2.886
10576SOL    HW132627   1.172   5.479   2.859
10576SOL    HW232628   1.149   5.322   2.819
10577SOL     OW32629   2.333   4.717   0.412
10577SOL    HW132630   2.395   4.789   0.381
10577SOL    HW232631   2.379   4.662   0.482
10578SOL     OW32632   4.787   1.044   3.560
10578SOL    HW132633   4.781   1.113   3.487
10578SOL    HW232634   4.695   1.016   3.587
10579SOL     OW32635   3.568   3.091   1.468
10579SOL    HW132636   3.472   3.064   1.466
10579SOL    HW232637   3.580   3.173   1.412
10580SOL     OW32638   6.781   6.174   6.400
10580SOL    HW132639   6.735   6.176   6.311
10580SOL    HW232640   6.871   6.131   6.390
10581SOL     OW32641   5.555   0.267   2.451
10581SOL    HW132642   5.574   0.181   2.405
10581SOL    HW232643   5.621   0.280   2.525
10582SOL     OW32644   4.928   4.548   6.179
10582SOL    HW132645   4.920   4.622   6.245
10582SOL    HW232646   4.955   4.584   6.090
10583SOL     OW32647   4.302   0.021   4.069
10583SOL    HW132648   4.353   6.986   4.130
10583SOL    HW232649   4.366   0.076   4.015
10584SOL     OW32650   6.588   6.899   6.621
10584SOL    HW132651   6.512   6.859   6.671
10584SOL    HW232652   6.653   6.939   6.686
10585SOL     OW32653   2.067   2.008   5.758
10585SOL    HW132654   2.044   2.105   5.758
10585SOL    HW232655   2.164   1.998   5.779
10586SOL     OW32656   4.940   4.861   5.546
10586SOL    HW132657   4.965   4.941   5.599
10586SOL    HW232658   4.967   4.778   5.596
10587SOL     OW32659   6.720   5.643   0.058
10587SOL    HW132660   6.744   5.578   7.010
10587SOL    HW232661   6.631   5.683   0.039
10588SOL     OW32662   2.051   2.117   5.098
10588SOL    HW132663   2.021   2.195   5.044
10588SOL    HW232664   1.985   2.042   5.088
10589SOL     OW32665   5.221   0.234   4.122
10589SOL    HW132666   5.206   0.182   4.205
10589SOL    HW232667   5.281   0.182   4.061
10590SOL     OW32668   0.118   6.589   1.619
10590SOL    HW132669   0.071   6.593   1.531
10590SOL    HW232670   0.057   6.552   1.688
10591SOL     OW32671   2.196   1.818   1.113
10591SOL    HW132672   2.178   1.915   1.096
10591SOL    HW232673   2.287   1.794   1.078
10592SOL     OW32674   5.721   3.196   4.772
10592SOL    HW132675   5.726   3.143   4.687
10592SOL    HW232676   5.641   3.256   4.768
10593SOL     OW32677   2.087   5.989   0.305
10593SOL    HW132678   2.167   5.934   0.283
10593SOL    HW232679   2.004   5.943   0.273
10594SOL     OW32680   4.236   1.963   2.852
10594SOL    HW132681   4.197   1.897   2.916
10594SOL    HW232682   4.313   2.010   2.896
10595SOL     OW32683   6.336   6.987   0.096
10595SOL    HW132684   6.263   6.981   0.165
10595SOL    HW232685   6.299   7.025   0.011
10596SOL     OW32686   4.915   0.471   6.976
10596SOL    HW132687   4.985   0.501   6.911
10596SOL    HW232688   4.897   0.544   0.018
10597SOL     OW32689   1.873   0.782   5.511
10597SOL    HW132690   1.889   0.754   5.416
10597SOL    HW232691   1.952   0.834   5.544
10598SOL     OW32692   2.850   2.004   6.521
10598SOL    HW132693   2.837   1.964   6.430
10598SOL    HW232694   2.918   2.078   6.515
10599SOL     OW32695   6.226   3.340   6.638
10599SOL    HW132696   6.196   3.348   6.733
10599SOL    HW232697   6.149   3.357   6.576
10600SOL     OW32698   3.760   2.090   1.054
10600SOL    HW132699   3.849   2.108   1.096
10600SOL    HW232700   3.695   2.060   1.124
10601SOL     OW32701   1.317   4.843   5.488
10601SOL    HW132702   1.386   4.911   5.511
10601SOL    HW232703   1.358   4.770   5.433
10602SOL     OW32704   1.118   1.192   0.842
10602SOL    HW132705   1.133   1.288   0.867
10602SOL    HW232706   1.206   1.145   0.837
10603SOL     OW32707   4.865   6.963   3.263
10603SOL    HW132708   4.946   6.936   3.211
10603SOL    HW232709   4.783   6.931   3.216
10604SOL     OW32710   0.039   5.851   4.828
10604SOL    HW132711   0.120   5.817   4.781
10604SOL    HW232712   0.054   5.850   4.927
10605SOL     OW32713   1.544   6.957   0.065
10605SOL    HW132714   1.545   6.870   0.114
10605SOL    HW232715   1.583   6.944   6.998
10606SOL     OW32716   6.702   1.361   1.473
10606SOL    HW132717   6.630   1.297   1.448
10606SOL    HW232718   6.775   1.311   1.520
10607SOL     OW32719   3.897   4.579   0.379
10607SOL    HW132720   3.937   4.659   0.424
10607SOL    HW232721   3.878   4.600   0.283
10608SOL     OW32722   0.012   3.199   3.484
10608SOL    HW132723   0.059   3.277   3.443
10608SOL    HW232724   0.060   3.115   3.461
10609SOL     OW32725   2.786   0.067   7.008
10609SOL    HW132726   2.717   0.068   0.056
10609SOL    HW232727   2.877   0.080   0.023
10610SOL     OW32728   0.309   1.618   4.015
10610SOL    HW132729   0.372   1.695   4.021
10610SOL    HW232730   0.251   1.616   4.097
10611SOL     OW32731   2.651   4.955   6.157
10611SOL    HW132732   2.737   4.983   6.201
10611SOL    HW232733   2.585   4.928   6.227
10612SOL     OW32734   4.890   2.173   4.101
10612SOL    HW132735   4.826   2.233   4.053
10612SOL    HW232736   4.984   2.204   4.082
10613SOL     OW32737   6.399   5.759   4.685
10613SOL    HW132738   6.440   5.683   4.634
10613SOL    HW232739   6.423   5.845   4.640
10614SOL     OW32740   5.037   0.996   4.431
10614SOL    HW132741   5.049   0.908   4.385
10614SOL    HW232742   5.122   1.049   4.424
10615SOL     OW32743   3.486   0.912   5.534
10615SOL    HW132744   3.508   0.997   5.582
10615SOL    HW232745   3.568   0.855   5.527
10616SOL     OW32746   3.131   6.066   6.662
10616SOL    HW132747   3.153   6.164   6.671
10616SOL    HW232748   3.136   6.023   6.752
10617SOL     OW32749   2.610   4.518   1.319
10617SOL    HW132750   2.609   4.425   1.283
10617SOL    HW232751   2.591   4.583   1.246
10618SOL     OW32752   1.073   5.356   5.529
10618SOL    HW132753   0.981   5.395   5.535
10618SOL    HW232754   1.134   5.406   5.590
10619SOL     OW32755   0.455   2.514   3.186
10619SOL    HW132756   0.523   2.448   3.151
10619SOL    HW232757   0.372   2.507   3.131
10620SOL     OW32758   1.187   6.924   5.538
10620SOL    HW132759   1.218   6.831   5.523
10620SOL    HW232760   1.253   6.972   5.596
10621SOL     OW32761   0.289   4.340   1.777
10621SOL    HW132762   0.359   4.350   1.848
10621SOL    HW232763   0.229   4.420   1.778
10622SOL     OW32764   4.621   2.485   1.613
10622SOL    HW132765   4.671   2.562   1.573
10622SOL    HW232766   4.633   2.485   1.712
10623SOL     OW32767   6.787   5.682   5.993
10623SOL    HW132768   6.739   5.623   6.058
10623SOL    HW232769   6.824   5.627   5.918
10624SOL     OW32770   0.436   2.642   5.735
10624SOL    HW132771   0.470   2.722   5.686
10624SOL    HW232772   0.340   2.626   5.711
10625SOL     OW32773   0.322   4.147   1.402
10625SOL    HW132774   0.268   4.220   1.445
10625SOL    HW232775   0.286   4.058   1.430
10626SOL     OW32776   3.123   2.641   0.802
10626SOL    HW132777   3.126   2.660   0.704
10626SOL    HW232778   3.140   2.725   0.853
10627SOL     OW32779   6.328   0.757   6.566
10627SOL    HW132780   6.257   0.801   6.622
10627SOL    HW232781   6.316   0.783   6.471
10628SOL     OW32782   4.682   6.789   1.393
10628SOL    HW132783   4.684   6.837   1.306
10628SOL    HW232784   4.628   6.705   1.383
10629SOL     OW32785   3.182   4.859   4.975
10629SOL    HW132786   3.124   4.805   5.035
10629SOL    HW232787   3.268   4.880   5.021
10630SOL     OW32788   5.750   1.215   2.430
10630SOL    HW132789   5.816   1.264   2.374
10630SOL    HW232790   5.714   1.275   2.501
10631SOL     OW32791   3.802   4.608   5.670
10631SOL    HW132792   3.705   4.634   5.667
10631SOL    HW232793   3.818   4.549   5.749
10632SOL     OW32794   5.467   6.420   3.376
10632SOL    HW132795   5.384   6.367   3.396
10632SOL    HW232796   5.538   6.397   3.443
10633SOL     OW32797   2.489   2.763   1.176
10633SOL    HW132798   2.586   2.778   1.157
10633SOL    HW232799   2.466   2.667   1.160
10634SOL     OW32800   2.087   5.209   0.666
10634SOL    HW132801   2.090   5.292   0.610
10634SOL    HW232802   1.998   5.203   0.712
10635SOL     OW32803   2.035   3.718   6.787
10635SOL    HW132804   1.952   3.734   6.841
10635SOL    HW232805   2.017   3.647   6.719
10636SOL     OW32806   0.113   2.401   1.417
10636SOL    HW132807   0.107   2.303   1.398
10636SOL    HW232808   0.102   2.417   1.515
10637SOL     OW32809   1.384   5.360   6.142
10637SOL    HW132810   1.397   5.263   6.123
10637SOL    HW232811   1.319   5.398   6.076
10638SOL     OW32812   5.370   6.306   2.926
10638SOL    HW132813   5.437   6.310   3.000
10638SOL    HW232814   5.320   6.393   2.921
10639SOL     OW32815   1.676   3.635   2.050
10639SOL    HW132816   1.642   3.542   2.063
10639SOL    HW232817   1.641   3.672   1.964
10640SOL     OW32818   4.812   0.685   3.664
10640SOL    HW132819   4.808   0.622   3.741
10640SOL    HW232820   4.722   0.725   3.649
10641SOL     OW32821   2.227   1.602   3.354
10641SOL    HW132822   2.270   1.593   3.264
10641SOL    HW232823   2.280   1.550   3.421
10642SOL     OW32824   6.412   1.625   0.875
10642SOL    HW132825   6.468   1.668   0.805
10642SOL    HW232826   6.371   1.541   0.839
10643SOL     OW32827   2.442   6.383   5.560
10643SOL    HW132828   2.398   6.294   5.551
10643SOL    HW232829   2.498   6.400   5.479
10644SOL     OW32830   5.387   3.041   1.266
10644SOL    HW132831   5.473   3.013   1.222
10644SOL    HW232832   5.352   3.122   1.219
10645SOL     OW32833   2.170   3.043   4.380
10645SOL    HW132834   2.196   3.022   4.474
10645SOL    HW232835   2.086   3.098   4.380
10646SOL     OW32836   6.765   0.295   6.207
10646SOL    HW132837   6.805   0.385   6.192
10646SOL    HW232838   6.665   0.301   6.202
10647SOL     OW32839   3.238   5.636   4.878
10647SOL    HW132840   3.245   5.731   4.851
10647SOL    HW232841   3.166   5.625   4.946
10648SOL     OW32842   5.702   5.429   6.395
10648SOL    HW132843   5.689   5.516   6.442
10648SOL    HW232844   5.747   5.445   6.307
10649SOL     OW32845   0.452   3.377   2.899
10649SOL    HW132846   0.353   3.390   2.906
10649SOL    HW232847   0.472   3.280   2.891
10650SOL     OW32848   0.583   0.762   3.976
10650SOL    HW132849   0.679   0.767   4.005
10650SOL    HW232850   0.579   0.727   3.882
10651SOL     OW32851   6.326   5.684   6.019
10651SOL    HW132852   6.365   5.668   6.109
10651SOL    HW232853   6.309   5.782   6.007
10652SOL     OW32854   2.157   6.963   6.604
10652SOL    HW132855   2.059   6.980   6.617
10652SOL    HW232856   2.182   6.879   6.652
10653SOL     OW32857   3.907   5.975   5.123
10653SOL    HW132858   3.979   6.040   5.100
10653SOL    HW232859   3.827   5.991   5.064
10654SOL     OW32860   4.817   0.575   6.467
10654SOL    HW132861   4.722   0.582   6.496
10654SOL    HW232862   4.872   0.641   6.518
10655SOL     OW32863   1.543   5.053   0.048
10655SOL    HW132864   1.597   5.131   0.082
10655SOL    HW232865   1.456   5.049   0.097
10656SOL     OW32866   6.847   1.368   2.297
10656SOL    HW132867   6.835   1.319   2.383
10656SOL    HW232868   6.944   1.387   2.284
10657SOL     OW32869   5.510   0.654   4.408
10657SOL    HW132870   5.566   0.598   4.347
10657SOL    HW232871   5.567   0.686   4.484
10658SOL     OW32872   6.086   4.249   4.726
10658SOL    HW132873   6.117   4.190   4.651
10658SOL    HW232874   6.035   4.327   4.688
10659SOL     OW32875   1.164   5.260   0.461
10659SOL    HW132876   1.066   5.243   0.471
10659SOL    HW232877   1.202   5.200   0.391
10660SOL     OW32878   5.725   3.505   6.006
10660SOL    HW132879   5.801   3.571   6.009
10660SOL    HW232880   5.653   3.536   6.068
10661SOL     OW32881   1.579   6.430   0.896
10661SOL    HW132882   1.568   6.336   0.929
10661SOL    HW232883   1.634   6.431   0.813
10662SOL     OW32884   4.514   0.465   2.445
10662SOL    HW132885   4.600   0.430   2.409
10662SOL    HW232886   4.470   0.394   2.500
10663SOL     OW32887   0.756   0.982   2.796
10663SOL    HW132888   0.774   0.896   2.748
10663SOL    HW232889   0.720   0.963   2.887
10664SOL     OW32890   6.178   4.277   5.421
10664SOL    HW132891   6.161   4.364   5.374
10664SOL    HW232892   6.180   4.293   5.520
10665SOL     OW32893   1.465   1.837   0.179
10665SOL    HW132894   1.441   1.852   0.275
10665SOL    HW232895   1.381   1.830   0.125
10666SOL     OW32896   3.163   4.037   2.077
10666SOL    HW132897   3.167   3.940   2.054
10666SOL    HW232898   3.118   4.088   2.003
10667SOL     OW32899   4.509   2.295   3.260
10667SOL    HW132900   4.591   2.268   3.209
10667SOL    HW232901   4.516   2.261   3.354
10668SOL     OW32902   2.703   1.531   5.001
10668SOL    HW132903   2.797   1.507   4.977
10668SOL    HW232904   2.643   1.517   4.922
10669SOL     OW32905   5.694   0.630   1.286
10669SOL    HW132906   5.728   0.722   1.303
10669SOL    HW232907   5.594   0.630   1.294
10670SOL     OW32908   5.773   4.601   4.689
10670SOL    HW132909   5.710   4.661   4.640
10670SOL    HW232910   5.836   4.558   4.625
10671SOL     OW32911   2.127   1.868   4.382
10671SOL    HW132912   2.207   1.925   4.366
10671SOL    HW232913   2.050   1.901   4.328
10672SOL     OW32914   6.883   4.445   1.706
10672SOL    HW132915   6.911   4.352   1.729
10672SOL    HW232916   6.960   4.507   1.720
10673SOL     OW32917   0.316   1.141   0.130
10673SOL    HW132918   0.337   1.168   0.036
10673SOL    HW232919   0.241   1.197   0.165
10674SOL     OW32920   4.045   3.668   4.104
10674SOL    HW132921   3.950   3.656   4.072
10674SOL    HW232922   4.096   3.722   4.038
10675SOL     OW32923   1.762   0.260   6.737
10675SOL    HW132924   1.674   0.228   6.702
10675SOL    HW232925   1.826   0.183   6.741
10676SOL     OW32926   0.125   5.913   5.118
10676SOL    HW132927   0.161   6.003   5.092
10676SOL    HW232928   0.157   5.891   5.210
10677SOL     OW32929   1.346   0.352   1.928
10677SOL    HW132930   1.294   0.380   2.009
10677SOL    HW232931   1.425   0.296   1.956
10678SOL     OW32932   5.112   5.637   4.136
10678SOL    HW132933   5.197   5.584   4.132
10678SOL    HW232934   5.035   5.575   4.148
10679SOL     OW32935   3.928   5.758   6.759
10679SOL    HW132936   3.929   5.809   6.672
10679SOL    HW232937   3.868   5.805   6.824
10680SOL     OW32938   3.940   2.151   4.327
10680SOL    HW132939   3.885   2.145   4.244
10680SOL    HW232940   3.881   2.171   4.405
10681SOL     OW32941   0.268   3.873   0.984
10681SOL    HW132942   0.186   3.898   1.036
10681SOL    HW232943   0.325   3.954   0.971
10682SOL     OW32944   0.008   1.772   5.513
10682SOL    HW132945   6.990   1.822   5.438
10682SOL    HW232946   0.107   1.771   5.500
10683SOL     OW32947   4.812   1.314   3.967
10683SOL    HW132948   4.890   1.274   4.015
10683SOL    HW232949   4.830   1.313   3.869
10684SOL     OW32950   4.821   5.050   2.657
10684SOL    HW132951   4.732   5.082   2.691
10684SOL    HW232952   4.832   4.953   2.681
10685SOL     OW32953   0.850   5.901   1.774
10685SOL    HW132954   0.822   5.848   1.694
10685SOL    HW232955   0.785   5.885   1.849
10686SOL     OW32956   1.109   3.757   5.631
10686SOL    HW132957   1.136   3.702   5.710
10686SOL    HW232958   1.183   3.820   5.607
10687SOL     OW32959   5.796   5.590   3.956
10687SOL    HW132960   5.703   5.626   3.950
10687SOL    HW232961   5.793   5.491   3.968
10688SOL     OW32962   6.018   3.703   2.841
10688SOL    HW132963   5.923   3.728   2.828
10688SOL    HW232964   6.029   3.655   2.928
10689SOL     OW32965   6.979   0.128   3.333
10689SOL    HW132966   6.921   0.152   3.255
10689SOL    HW232967   0.036   0.186   3.333
10690SOL     OW32968   0.249   5.577   4.017
10690SOL    HW132969   0.221   5.509   4.084
10690SOL    HW232970   0.337   5.616   4.042
10691SOL     OW32971   1.302   1.697   2.708
10691SOL    HW132972   1.401   1.702   2.693
10691SOL    HW232973   1.264   1.790   2.707
10692SOL     OW32974   2.491   6.844   3.971
10692SOL    HW132975   2.478   6.756   3.926
10692SOL    HW232976   2.559   6.898   3.921
10693SOL     OW32977   1.772   6.066   1.150
10693SOL    HW132978   1.740   6.121   1.227
10693SOL    HW232979   1.736   6.103   1.065
10694SOL     OW32980   5.458   6.654   0.091
10694SOL    HW132981   5.510   6.582   0.045
10694SOL    HW232982   5.459   6.737   0.035
10695SOL     OW32983   0.748   2.325   2.942
10695SOL    HW132984   0.722   2.305   2.847
10695SOL    HW232985   0.843   2.357   2.944
10696SOL     OW32986   6.757   4.516   3.378
10696SOL    HW132987   6.745   4.500   3.476
10696SOL    HW232988   6.750   4.429   3.330
10697SOL     OW32989   0.308   6.169   5.422
10697SOL    HW132990   0.242   6.217   5.364
10697SOL    HW232991   0.399   6.209   5.409
10698SOL     OW32992   5.514   4.126   6.729
10698SOL    HW132993   5.522   4.222   6.754
10698SOL    HW232994   5.604   4.083   6.732
10699SOL     OW32995   3.877   4.346   1.676
10699SOL    HW132996   3.864   4.297   1.590
10699SOL    HW232997   3.805   4.415   1.686
10700SOL     OW32998   5.714   6.666   0.723
10700SOL    HW132999   5.753   6.751   0.759
10700SOL    HW233000   5.674   6.684   0.633
10701SOL     OW33001   2.556   6.473   6.702
10701SOL    HW133002   2.462   6.485   6.670
10701SOL    HW233003   2.569   6.519   6.789
10702SOL     OW33004   4.905   3.010   1.320
10702SOL    HW133005   4.835   3.061   1.272
10702SOL    HW233006   4.946   2.942   1.259
10703SOL     OW33007   2.683   2.987   5.365
10703SOL    HW133008   2.613   2.992   5.293
10703SOL    HW233009   2.773   3.000   5.324
10704SOL     OW33010   5.781   5.476   2.073
10704SOL    HW133011   5.859   5.440   2.124
10704SOL    HW233012   5.701   5.418   2.090
10705SOL     OW33013   6.013   4.917   1.875
10705SOL    HW133014   5.936   4.864   1.837
10705SOL    HW233015   6.070   4.857   1.930
10706SOL     OW33016   4.795   0.475   2.319
10706SOL    HW133017   4.875   0.444   2.369
10706SOL    HW233018   4.781   0.417   2.238
10707SOL     OW33019   0.121   6.980   4.093
10707SOL    HW133020   0.029   6.962   4.059
10707SOL    HW233021   0.165   0.024   4.035
10708SOL     OW33022   4.176   1.136   1.521
10708SOL    HW133023   4.132   1.118   1.609
10708SOL    HW233024   4.247   1.206   1.533
10709SOL     OW33025   5.621   5.256   5.622
10709SOL    HW133026   5.584   5.298   5.539
10709SOL    HW233027   5.636   5.327   5.691
10710SOL     OW33028   7.024   0.418   4.181
10710SOL    HW133029   6.996   0.370   4.264
10710SOL    HW233030   0.098   0.436   4.185
10711SOL     OW33031   1.732   6.999   4.603
10711SOL    HW133032   1.689   6.926   4.656
10711SOL    HW233033   1.668   0.052   4.596
10712SOL     OW33034   2.947   1.088   1.589
10712SOL    HW133035   2.934   1.187   1.582
10712SOL    HW233036   3.015   1.068   1.660
10713SOL     OW33037   0.382   3.493   2.394
10713SOL    HW133038   0.383   3.395   2.374
10713SOL    HW233039   0.376   3.545   2.309
10714SOL     OW33040   5.688   3.680   4.925
10714SOL    HW133041   5.639   3.703   5.009
10714SOL    HW233042   5.742   3.597   4.940
10715SOL     OW33043   5.515   0.806   2.790
10715SOL    HW133044   5.503   0.753   2.706
10715SOL    HW233045   5.429   0.809   2.840
10716SOL     OW33046   6.182   1.750   3.594
10716SOL    HW133047   6.113   1.681   3.614
10716SOL    HW233048   6.143   1.841   3.607
10717SOL     OW33049   1.408   1.918   1.572
10717SOL    HW133050   1.352   1.940   1.492
10717SOL    HW233051   1.490   1.975   1.572
10718SOL     OW33052   1.290   3.122   6.563
10718SOL    HW133053   1.388   3.136   6.578
10718SOL    HW233054   1.252   3.071   6.641
10719SOL     OW33055   6.698   5.859   2.949
10719SOL    HW133056   6.717   5.927   2.878
10719SOL    HW233057   6.638   5.899   3.018
10720SOL     OW33058   0.413   4.452   4.773
10720SOL    HW133059   0.334   4.491   4.820
10720SOL    HW233060   0.381   4.401   4.692
10721SOL     OW33061   5.457   3.878   5.044
10721SOL    HW133062   5.549   3.869   5.081
10721SOL    HW233063   5.390   3.861   5.117
10722SOL     OW33064   0.988   5.061   0.103
10722SOL    HW133065   0.969   4.999   0.179
10722SOL    HW233066   0.999   5.154   0.137
10723SOL     OW33067   0.195   3.687   6.128
10723SOL    HW133068   0.141   3.611   6.092
10723SOL    HW233069   0.146   3.730   6.203
10724SOL     OW33070   5.894   1.287   0.056
10724SOL    HW133071   5.814   1.257   0.108
10724SOL    HW233072   5.864   1.321   6.991
10725SOL     OW33073   1.066   5.683   4.564
10725SOL    HW133074   1.114   5.712   4.481
10725SOL    HW233075   0.981   5.734   4.574
10726SOL     OW33076   5.316   6.968   5.310
10726SOL    HW133077   5.395   0.003   5.321
10726SOL    HW233078   5.312   6.936   5.215
10727SOL     OW33079   0.067   4.735   5.263
10727SOL    HW133080   0.075   4.727   5.163
10727SOL    HW233081   0.158   4.722   5.304
10728SOL     OW33082   0.316   5.963   6.924
10728SOL    HW133083   0.321   5.950   6.825
10728SOL    HW233084   0.338   5.877   6.971
10729SOL     OW33085   5.225   1.236   1.230
10729SOL    HW133086   5.143   1.222   1.285
10729SOL    HW233087   5.242   1.333   1.218
10730SOL     OW33088   2.347   0.754   1.507
10730SOL    HW133089   2.327   0.755   1.409
10730SOL    HW233090   2.262   0.749   1.559
10731SOL     OW33091   3.287   5.907   0.742
10731SOL    HW133092   3.303   5.963   0.824
10731SOL    HW233093   3.189   5.902   0.724
10732SOL     OW33094   5.813   5.314   3.970
10732SOL    HW133095   5.873   5.289   4.046
10732SOL    HW233096   5.852   5.281   3.884
10733SOL     OW33097   6.539   1.734   1.224
10733SOL    HW133098   6.461   1.788   1.256
10733SOL    HW233099   6.570   1.673   1.297
10734SOL     OW33100   1.191   0.803   0.384
10734SOL    HW133101   1.168   0.725   0.325
10734SOL    HW233102   1.113   0.827   0.441
10735SOL     OW33103   0.938   3.211   3.209
10735SOL    HW133104   0.964   3.291   3.263
10735SOL    HW233105   1.021   3.161   3.182
10736SOL     OW33106   1.464   0.392   3.110
10736SOL    HW133107   1.541   0.427   3.165
10736SOL    HW233108   1.457   0.446   3.026
10737SOL     OW33109   1.848   1.799   0.998
10737SOL    HW133110   1.826   1.830   1.090
10737SOL    HW233111   1.928   1.849   0.964
10738SOL     OW33112   2.611   0.222   3.409
10738SOL    HW133113   2.525   0.261   3.374
10738SOL    HW233114   2.682   0.293   3.408
10739SOL     OW33115   0.858   1.606   0.881
10739SOL    HW133116   0.816   1.526   0.838
10739SOL    HW233117   0.894   1.667   0.811
10740SOL     OW33118   0.025   4.259   5.277
10740SOL    HW133119   7.024   4.331   5.341
10740SOL    HW233120   7.000   4.270   5.191
10741SOL     OW33121   5.898   0.263   1.135
10741SOL    HW133122   5.889   0.286   1.232
10741SOL    HW233123   5.810   0.232   1.099
10742SOL     OW33124   5.309   0.968   0.885
10742SOL    HW133125   5.359   0.966   0.798
10742SOL    HW233126   5.268   1.059   0.898
10743SOL     OW33127   2.441   1.488   5.110
10743SOL    HW133128   2.453   1.392   5.137
10743SOL    HW233129   2.530   1.532   5.102
10744SOL     OW33130   3.930   1.343   0.719
10744SOL    HW133131   3.955   1.259   0.670
10744SOL    HW233132   4.000   1.413   0.703
10745SOL     OW33133   0.175   5.246   6.751
10745SOL    HW133134   0.205   5.175   6.815
10745SOL    HW233135   0.168   5.208   6.659
10746SOL     OW33136   1.899   4.182   1.385
10746SOL    HW133137   1.913   4.156   1.481
10746SOL    HW233138   1.802   4.176   1.363
10747SOL     OW33139   4.588   0.826   3.575
10747SOL    HW133140   4.533   0.753   3.615
10747SOL    HW233141   4.581   0.822   3.475
10748SOL     OW33142   4.622   1.450   1.223
10748SOL    HW133143   4.713   1.409   1.230
10748SOL    HW233144   4.553   1.378   1.212
10749SOL     OW33145   0.588   5.938   3.238
10749SOL    HW133146   0.667   5.974   3.189
10749SOL    HW233147   0.508   5.995   3.219
10750SOL     OW33148   4.353   6.050   5.111
10750SOL    HW133149   4.405   6.057   5.196
10750SOL    HW233150   4.412   6.071   5.033
10751SOL     OW33151   1.692   4.320   4.182
10751SOL    HW133152   1.773   4.265   4.204
10751SOL    HW233153   1.612   4.281   4.225
10752SOL     OW33154   5.854   3.705   6.381
10752SOL    HW133155   5.898   3.794   6.366
10752SOL    HW233156   5.898   3.635   6.326
10753SOL     OW33157   4.962   6.313   4.353
10753SOL    HW133158   4.995   6.285   4.263
10753SOL    HW233159   4.971   6.236   4.417
10754SOL     OW33160   0.859   1.273   3.178
10754SOL    HW133161   0.857   1.354   3.119
10754SOL    HW233162   0.871   1.302   3.273
10755SOL     OW33163   6.719   0.858   6.419
10755SOL    HW133164   6.708   0.925   6.492
10755SOL    HW233165   6.656   0.782   6.433
10756SOL     OW33166   6.886   4.571   0.381
10756SOL    HW133167   6.891   4.583   0.281
10756SOL    HW233168   6.979   4.568   0.419
10757SOL     OW33169   1.206   3.096   0.613
10757SOL    HW133170   1.135   3.032   0.642
10757SOL    HW233171   1.164   3.171   0.561
10758SOL     OW33172   0.467   0.104   3.921
10758SOL    HW133173   0.482   0.184   3.980
10758SOL    HW233174   0.519   0.114   3.837
10759SOL     OW33175   1.786   3.310   1.077
10759SOL    HW133176   1.837   3.292   1.161
10759SOL    HW233177   1.798   3.233   1.014
10760SOL     OW33178   6.431   1.812   2.127
10760SOL    HW133179   6.467   1.744   2.191
10760SOL    HW233180   6.471   1.901   2.146
10761SOL     OW33181   0.920   0.736   6.469
10761SOL    HW133182   1.019   0.732   6.454
10761SOL    HW233183   0.883   0.817   6.424
10762SOL     OW33184   4.297   1.860   4.832
10762SOL    HW133185   4.216   1.834   4.884
10762SOL    HW233186   4.278   1.852   4.734
10763SOL     OW33187   5.023   6.545   2.415
10763SOL    HW133188   5.076   6.511   2.493
10763SOL    HW233189   4.926   6.549   2.440
10764SOL     OW33190   5.253   2.443   5.970
10764SOL    HW133191   5.204   2.398   5.896
10764SOL    HW233192   5.295   2.374   6.029
10765SOL     OW33193   5.209   2.032   0.272
10765SOL    HW133194   5.240   2.008   0.364
10765SOL    HW233195   5.211   1.950   0.214
10766SOL     OW33196   5.071   3.704   0.693
10766SOL    HW133197   4.976   3.722   0.719
10766SOL    HW233198   5.097   3.612   0.723
10767SOL     OW33199   1.470   0.724   0.421
10767SOL    HW133200   1.532   0.781   0.475
10767SOL    HW233201   1.378   0.763   0.425
10768SOL     OW33202   4.619   4.280   1.682
10768SOL    HW133203   4.540   4.311   1.735
10768SOL    HW233204   4.657   4.198   1.725
10769SOL     OW33205   2.634   4.679   4.930
10769SOL    HW133206   2.630   4.778   4.940
10769SOL    HW233207   2.720   4.645   4.969
10770SOL     OW33208   5.333   0.731   5.004
10770SOL    HW133209   5.399   0.805   4.991
10770SOL    HW233210   5.254   0.747   4.944
10771SOL     OW33211   5.962   0.910   3.561
10771SOL    HW133212   5.987   0.906   3.658
10771SOL    HW233213   5.913   0.826   3.536
10772SOL     OW33214   6.721   6.631   4.412
10772SOL    HW133215   6.661   6.619   4.491
10772SOL    HW233216   6.740   6.542   4.370
10773SOL     OW33217   6.399   5.504   0.026
10773SOL    HW133218   6.437   5.590   0.058
10773SOL    HW233219   6.342   5.463   0.098
10774SOL     OW33220   2.059   1.633   0.250
10774SOL    HW133221   2.046   1.655   0.346
10774SOL    HW233222   1.970   1.631   0.204
10775SOL     OW33223   6.987   4.988   1.065
10775SOL    HW133224   6.951   5.079   1.044
10775SOL    HW233225   6.914   4.921   1.059
10776SOL     OW33226   0.385   0.749   6.578
10776SOL    HW133227   0.435   0.833   6.558
10776SOL    HW233228   0.412   0.714   6.667
10777SOL     OW33229   3.278   5.568   3.009
10777SOL    HW133230   3.179   5.583   3.008
10777SOL    HW233231   3.324   5.653   3.035
10778SOL     OW33232   6.030   0.537   4.398
10778SOL    HW133233   6.102   0.524   4.330
10778SOL    HW233234   6.039   0.627   4.439
10779SOL     OW33235   6.300   4.023   3.606
10779SOL    HW133236   6.345   4.088   3.666
10779SOL    HW233237   6.214   4.063   3.573
10780SOL     OW33238   1.856   0.721   3.952
10780SOL    HW133239   1.762   0.746   3.976
10780SOL    HW233240   1.883   0.770   3.870
10781SOL     OW33241   4.312   1.145   3.441
10781SOL    HW133242   4.295   1.109   3.533
10781SOL    HW233243   4.306   1.071   3.374
10782SOL     OW33244   5.447   1.947   1.770
10782SOL    HW133245   5.442   1.995   1.858
10782SOL    HW233246   5.516   1.990   1.712
10783SOL     OW33247   0.724   3.439   3.564
10783SOL    HW133248   0.728   3.341   3.546
10783SOL    HW233249   0.649   3.459   3.627
10784SOL     OW33250   4.085   6.744   4.203
10784SOL    HW133251   4.174   6.751   4.248
10784SOL    HW233252   4.030   6.824   4.226
10785SOL     OW33253   0.170   4.665   1.465
10785SOL    HW133254   0.112   4.587   1.440
10785SOL    HW233255   0.118   4.750   1.453
10786SOL     OW33256   5.819   4.520   3.102
10786SOL    HW133257   5.780   4.612   3.098
10786SOL    HW233258   5.862   4.507   3.191
10787SOL     OW33259   1.792   1.393   4.623
10787SOL    HW133260   1.781   1.461   4.549
10787SOL    HW233261   1.862   1.425   4.687
10788SOL     OW33262   2.127   4.613   6.195
10788SOL    HW133263   2.107   4.524   6.235
10788SOL    HW233264   2.223   4.616   6.166
10789SOL     OW33265   0.151   2.845   6.690
10789SOL    HW133266   0.233   2.885   6.732
10789SOL    HW233267   0.170   2.821   6.595
10790SOL     OW33268   1.068   0.481   1.824
10790SOL    HW133269   1.074   0.543   1.902
10790SOL    HW233270   1.121   0.398   1.843
10791SOL     OW33271   0.315   6.950   1.006
10791SOL    HW133272   0.218   6.977   1.004
10791SOL    HW233273   0.357   6.985   1.089
10792SOL     OW33274   3.176   4.076   3.957
10792SOL    HW133275   3.086   4.043   3.985
10792SOL    HW233276   3.240   4.065   4.033
10793SOL     OW33277   5.366   3.336   4.586
10793SOL    HW133278   5.285   3.278   4.573
10793SOL    HW233279   5.407   3.356   4.497
10794SOL     OW33280   3.057   3.859   3.595
10794SOL    HW133281   2.979   3.799   3.578
10794SOL    HW233282   3.072   3.918   3.516
10795SOL     OW33283   6.488   4.817   2.100
10795SOL    HW133284   6.485   4.833   2.001
10795SOL    HW233285   6.543   4.888   2.143
10796SOL     OW33286   5.498   0.214   6.722
10796SOL    HW133287   5.457   0.123   6.715
10796SOL    HW233288   5.575   0.221   6.659
10797SOL     OW33289   4.291   2.878   1.535
10797SOL    HW133290   4.270   2.782   1.552
10797SOL    HW233291   4.222   2.917   1.474
10798SOL     OW33292   3.107   6.888   0.453
10798SOL    HW133293   3.184   6.836   0.414
10798SOL    HW233294   3.083   6.850   0.542
10799SOL     OW33295   3.884   1.047   1.344
10799SOL    HW133296   3.872   0.998   1.431
10799SOL    HW233297   3.906   1.143   1.363
10800SOL     OW33298   0.472   6.934   6.628
10800SOL    HW133299   0.410   6.999   6.672
10800SOL    HW233300   0.442   6.841   6.648
10801SOL     OW33301   0.692   5.974   6.070
10801SOL    HW133302   0.667   5.998   6.163
10801SOL    HW233303   0.732   5.882   6.069
10802SOL     OW33304   0.935   0.994   3.219
10802SOL    HW133305   0.899   1.088   3.220
10802SOL    HW233306   0.859   0.930   3.218
10803SOL     OW33307   2.621   4.024   6.180
10803SOL    HW133308   2.600   4.013   6.083
10803SOL    HW233309   2.649   4.118   6.198
10804SOL     OW33310   5.727   3.216   1.982
10804SOL    HW133311   5.712   3.173   2.071
10804SOL    HW233312   5.685   3.160   1.911
10805SOL     OW33313   4.491   6.337   6.968
10805SOL    HW133314   4.504   6.263   6.902
10805SOL    HW233315   4.483   6.424   6.920
10806SOL     OW33316   4.154   3.932   5.685
10806SOL    HW133317   4.193   4.019   5.653
10806SOL    HW233318   4.155   3.930   5.785
10807SOL     OW33319   1.274   7.022   2.418
10807SOL    HW133320   1.177   7.019   2.393
10807SOL    HW233321   1.321   0.067   2.365
10808SOL     OW33322   0.555   2.876   5.634
10808SOL    HW133323   0.602   2.925   5.560
10808SOL    HW233324   0.528   2.941   5.705
10809SOL     OW33325   2.915   4.890   3.807
10809SOL    HW133326   3.011   4.911   3.785
10809SOL    HW233327   2.870   4.854   3.726
10810SOL     OW33328   1.362   6.978   4.270
10810SOL    HW133329   1.442   0.005   4.300
10810SOL    HW233330   1.392   6.896   4.221
10811SOL     OW33331   3.923   4.028   6.536
10811SOL    HW133332   3.850   4.004   6.600
10811SOL    HW233333   3.890   4.097   6.472
10812SOL     OW33334   0.296   3.971   0.267
10812SOL    HW133335   0.391   3.999   0.272
10812SOL    HW233336   0.289   3.884   0.218
10813SOL     OW33337   1.929   4.791   6.314
10813SOL    HW133338   1.896   4.750   6.399
10813SOL    HW233339   1.994   4.729   6.271
10814SOL     OW33340   1.398   6.758   6.536
10814SOL    HW133341   1.304   6.725   6.524
10814SOL    HW233342   1.421   6.759   6.633
10815SOL     OW33343   4.496   4.540   3.456
10815SOL    HW133344   4.407   4.586   3.464
10815SOL    HW233345   4.499   4.488   3.371
10816SOL     OW33346   3.265   2.993   2.474
10816SOL    HW133347   3.351   3.030   2.510
10816SOL    HW233348   3.281   2.950   2.385
10817SOL     OW33349   4.664   0.746   3.078
10817SOL    HW133350   4.654   0.825   3.140
10817SOL    HW233351   4.642   0.774   2.985
10818SOL     OW33352   4.480   4.430   5.433
10818SOL    HW133353   4.530   4.368   5.494
10818SOL    HW233354   4.474   4.521   5.476
10819SOL     OW33355   6.483   4.794   6.414
10819SOL    HW133356   6.441   4.731   6.349
10819SOL    HW233357   6.473   4.887   6.381
10820SOL     OW33358   0.081   5.269   3.802
10820SOL    HW133359   0.028   5.304   3.724
10820SOL    HW233360   0.019   5.232   3.871
10821SOL     OW33361   5.118   0.098   2.876
10821SOL    HW133362   5.181   0.122   2.803
10821SOL    HW233363   5.044   0.165   2.881
10822SOL     OW33364   6.702   2.916   3.078
10822SOL    HW133365   6.749   2.857   3.012
10822SOL    HW233366   6.660   2.860   3.149
10823SOL     OW33367   1.564   0.152   2.022
10823SOL    HW133368   1.661   0.150   2.045
10823SOL    HW233369   1.548   0.099   1.938
10824SOL     OW33370   6.566   1.507   2.717
10824SOL    HW133371   6.606   1.594   2.745
10824SOL    HW233372   6.533   1.514   2.623
10825SOL     OW33373   2.476   1.341   6.214
10825SOL    HW133374   2.441   1.412   6.275
10825SOL    HW233375   2.409   1.267   6.207
10826SOL     OW33376   1.443   2.999   3.814
10826SOL    HW133377   1.460   2.953   3.727
10826SOL    HW233378   1.347   3.025   3.819
10827SOL     OW33379   0.099   3.104   4.111
10827SOL    HW133380   0.194   3.073   4.115
10827SOL    HW233381   0.082   3.148   4.023
10828SOL     OW33382   1.338   4.398   0.766
10828SOL    HW133383   1.342   4.497   0.762
10828SOL    HW233384   1.417   4.359   0.719
10829SOL     OW33385   4.025   2.681   0.221
10829SOL    HW133386   3.972   2.613   0.170
10829SOL    HW233387   4.051   2.756   0.160
10830SOL     OW33388   5.213   1.748   2.922
10830SOL    HW133389   5.286   1.816   2.935
10830SOL    HW233390   5.197   1.700   3.008
10831SOL     OW33391   2.979   6.177   3.202
10831SOL    HW133392   2.967   6.102   3.267
10831SOL    HW233393   2.896   6.186   3.147
10832SOL     OW33394   0.901   2.995   6.310
10832SOL    HW133395   0.961   3.069   6.339
10832SOL    HW233396   0.888   2.999   6.211
10833SOL     OW33397   0.633   0.446   2.321
10833SOL    HW133398   0.717   0.407   2.359
10833SOL    HW233399   0.649   0.474   2.226
10834SOL     OW33400   0.640   2.048   0.702
10834SOL    HW133401   0.577   2.080   0.631
10834SOL    HW233402   0.731   2.085   0.685
10835SOL     OW33403   5.480   2.484   0.498
10835SOL    HW133404   5.463   2.424   0.576
10835SOL    HW233405   5.413   2.464   0.426
10836SOL     OW33406   6.451   1.304   4.479
10836SOL    HW133407   6.361   1.323   4.518
10836SOL    HW233408   6.519   1.302   4.552
10837SOL     OW33409   6.365   5.566   1.197
10837SOL    HW133410   6.462   5.558   1.172
10837SOL    HW233411   6.314   5.491   1.156
10838SOL     OW33412   6.677   5.737   4.002
10838SOL    HW133413   6.636   5.658   4.048
10838SOL    HW233414   6.752   5.705   3.944
10839SOL     OW33415   4.356   3.107   1.657
10839SOL    HW133416   4.317   3.025   1.615
10839SOL    HW233417   4.426   3.081   1.723
10840SOL     OW33418   2.771   5.676   2.864
10840SOL    HW133419   2.757   5.597   2.804
10840SOL    HW233420   2.712   5.667   2.944
10841SOL     OW33421   6.462   5.329   5.665
10841SOL    HW133422   6.468   5.401   5.596
10841SOL    HW233423   6.449   5.369   5.755
10842SOL     OW33424   4.941   2.622   1.725
10842SOL    HW133425   4.870   2.629   1.656
10842SOL    HW233426   5.022   2.579   1.685
10843SOL     OW33427   0.823   1.769   1.848
10843SOL    HW133428   0.904   1.730   1.804
10843SOL    HW233429   0.845   1.793   1.943
10844SOL     OW33430   0.713   6.760   3.595
10844SOL    HW133431   0.809   6.777   3.615
10844SOL    HW233432   0.667   6.727   3.677
10845SOL     OW33433   3.270   6.792   5.570
10845SOL    HW133434   3.326   6.871   5.596
10845SOL    HW233435   3.330   6.714   5.551
10846SOL     OW33436   5.389   0.968   0.253
10846SOL    HW133437   5.328   1.032   0.207
10846SOL    HW233438   5.401   0.996   0.349
10847SOL     OW33439   3.827   3.055   6.574
10847SOL    HW133440   3.832   3.119   6.497
10847SOL    HW233441   3.878   3.092   6.651
10848SOL     OW33442   2.762   3.815   0.141
10848SOL    HW133443   2.668   3.822   0.174
10848SOL    HW233444   2.793   3.904   0.107
10849SOL     OW33445   1.936   4.936   4.019
10849SOL    HW133446   1.956   4.882   3.938
10849SOL    HW233447   1.969   4.889   4.100
10850SOL     OW33448   2.242   6.021   6.682
10850SOL    HW133449   2.247   6.006   6.583
10850SOL    HW233450   2.334   6.034   6.718
10851SOL     OW33451   1.890   3.458   0.124
10851SOL    HW133452   1.836   3.459   0.209
10851SOL    HW233453   1.829   3.438   0.047
10852SOL     OW33454   1.120   0.282   6.835
10852SOL    HW133455   1.204   0.323   6.871
10852SOL    HW233456   1.094   0.204   6.891
10853SOL     OW33457   1.842   2.367   5.245
10853SOL    HW133458   1.771   2.419   5.293
10853SOL    HW233459   1.921   2.425   5.229
10854SOL     OW33460   4.514   4.670   5.542
10854SOL    HW133461   4.515   4.729   5.462
10854SOL    HW233462   4.442   4.699   5.605
10855SOL     OW33463   4.178   0.438   1.043
10855SOL    HW133464   4.144   0.395   1.126
10855SOL    HW233465   4.120   0.516   1.019
10856SOL     OW33466   5.268   1.312   0.655
10856SOL    HW133467   5.229   1.220   0.648
10856SOL    HW233468   5.195   1.377   0.675
10857SOL     OW33469   6.623   2.071   3.217
10857SOL    HW133470   6.641   2.100   3.123
10857SOL    HW233471   6.695   2.104   3.277
10858SOL     OW33472   0.724   1.625   6.624
10858SOL    HW133473   0.823   1.620   6.636
10858SOL    HW233474   0.691   1.716   6.652
10859SOL     OW33475   1.084   4.152   4.391
10859SOL    HW133476   1.139   4.233   4.410
10859SOL    HW233477   1.126   4.072   4.434
10860SOL     OW33478   0.312   1.733   5.473
10860SOL    HW133479   0.361   1.658   5.427
10860SOL    HW233480   0.323   1.725   5.572
10861SOL     OW33481   3.790   3.564   3.219
10861SOL    HW133482   3.722   3.620   3.265
10861SOL    HW233483   3.757   3.539   3.128
10862SOL     OW33484   2.072   1.560   6.456
10862SOL    HW133485   1.991   1.515   6.491
10862SOL    HW233486   2.128   1.592   6.532
10863SOL     OW33487   3.909   0.775   3.848
10863SOL    HW133488   3.854   0.842   3.897
10863SOL    HW233489   3.870   0.684   3.861
10864SOL     OW33490   2.760   6.050   1.037
10864SOL    HW133491   2.824   5.984   0.997
10864SOL    HW233492   2.695   6.001   1.096
10865SOL     OW33493   0.148   1.300   1.857
10865SOL    HW133494   0.172   1.359   1.935
10865SOL    HW233495   0.096   1.353   1.790
10866SOL     OW33496   5.057   4.414   1.027
10866SOL    HW133497   5.032   4.455   0.939
10866SOL    HW233498   5.156   4.414   1.037
10867SOL     OW33499   3.567   4.062   6.898
10867SOL    HW133500   3.564   4.137   6.832
10867SOL    HW233501   3.611   4.094   6.982
10868SOL     OW33502   4.319   1.847   4.225
10868SOL    HW133503   4.367   1.833   4.138
10868SOL    HW233504   4.377   1.816   4.300
10869NA      NA33505   6.896   2.158   5.351
10870NA      NA33506   4.504   4.426   5.197
10871NA      NA33507   1.945   3.140   2.190
10872NA      NA33508   5.145   3.835   4.796
10873NA      NA33509   4.318   2.674   5.329
10874NA      NA33510   3.309   4.679   1.786
10875NA      NA33511   6.674   4.636   0.489
10876NA      NA33512   3.355   3.693   3.838
10877NA      NA33513   5.206   6.016   0.367
10878NA      NA33514   3.044   6.821   5.595
10879NA      NA33515   5.743   5.417   1.627
10880NA      NA33516   2.150   0.433   4.229
10881NA      NA33517   3.609   5.233   2.863
10882NA      NA33518   3.940   3.673   2.233
   7.02470   7.02470   7.02470
